Membrane in water
40155
    1TCq1    O1    1   1.010   0.314  11.628 -0.2298  0.5361 -0.1727
    1TCq1    C1    2   0.952   0.203  11.591  0.0868 -0.5257  0.8495
    1TCq1    O2    3   0.968   0.097  11.648  0.3298  0.1391 -0.4711
    1TCq1    C2    4   0.828   0.227  11.524 -1.1468 -0.3964  0.4496
    1TCq1    C3    5   0.761   0.348  11.508  0.4633  0.4078 -0.1786
    1TCq1    C4    6   0.623   0.351  11.469 -0.0076  0.1587 -1.0088
    1TCq1    C5    7   0.551   0.243  11.453 -0.0555  0.5255 -0.5212
    1TCq1    C6    8   0.616   0.127  11.464 -0.8960 -0.0318 -0.3989
    1TCq1    C7    9   0.744   0.116  11.514  0.3983  0.1498 -0.2228
    1TCq1    C8   10   0.531   0.008  11.470 -0.0784 -0.1576  0.4916
    1TCq1    O4   11   0.410   0.033  11.474 -0.2391 -0.0966  0.3074
    1TCq1    C9   12   0.561   0.482  11.441  1.0831  0.4734 -0.2291
    1TCq1    O5   13   0.434   0.492  11.446  0.0207 -0.0033  0.4200
    1TCq1    O6   14   0.631   0.586  11.471 -0.4219 -0.1287 -0.3184
    1TCq1    H1   15   1.003   0.381  11.557 -0.3035 -0.3381 -0.9826
    1TCq1    H2   16   0.810   0.444  11.524 -0.0207  0.6693 -0.2417
    1TCq1    H3   17   0.449   0.239  11.418 -0.4692 -2.7103  1.0748
    1TCq1    H4   18   0.789   0.019  11.528  0.8517  0.4022  0.0831
    2MPD2     C   19   0.539   4.255  11.660  0.2651  0.1936  0.5544
    2MPD2    C1   20   0.438   4.352  11.654  0.3899  0.7287  0.2557
    2MPD2    C2   21   0.447   4.459  11.570 -1.0510  0.0030  0.2673
    2MPD2    C3   22   0.564   4.484  11.502  0.0118 -0.8413  0.2506
    2MPD2    C4   23   0.664   4.390  11.512  0.0833 -1.2029 -0.0018
    2MPD2    C5   24   0.653   4.276  11.591  0.0640  0.3156  0.1609
    2MPD2     H   25   0.363   4.527  11.559 -1.9359 -1.6195 -3.0177
    2MPD2    H1   26   0.758   4.419  11.467 -1.1356  1.6962 -0.6945
    2MPD2    H2   27   0.536   4.164  11.718 -2.0963 -0.2617 -0.2750
    2MPD2    H3   28   0.738   4.213  11.617  1.2259  2.3336  1.2716
    2MPD2     N   29   0.604   4.612  11.459 -0.2139  0.0596  0.3087
    2MPD2    H5   30   0.699   4.622  11.422  0.2525  0.1062  1.5335
    2MPD2    N1   31   0.318   4.348  11.733  0.6725 -0.8161  0.4604
    2MPD2    H7   32   0.245   4.419  11.727  0.0447 -1.4331  0.7563
    3TCq1    O1   33   0.292   1.022  10.589  0.0988  0.5969  0.8765
    3TCq1    C1   34   0.233   1.062  10.705  0.7096  0.5709 -0.2171
    3TCq1    O2   35   0.241   1.007  10.810 -0.6370  0.1553  0.0558
    3TCq1    C2   36   0.121   1.138  10.669  0.4527 -0.2409 -0.2709
    3TCq1    C3   37   0.161   1.261  10.626 -0.0307  0.1110  0.3054
    3TCq1    C4   38   0.069   1.360  10.633  0.1297  0.4440  0.3737
    3TCq1    C5   39   4.664   1.343  10.685 -0.1702  0.0200 -0.4032
    3TCq1    C6   40   4.638   1.218  10.737  0.0828 -0.2347  0.6310
    3TCq1    C7   41   0.007   1.114  10.738  0.3382 -0.3978  0.0520
    3TCq1    C8   42   4.508   1.193  10.806  1.0830 -0.1440 -1.2982
    3TCq1    O4   43   4.495   1.082  10.849 -0.7772  0.3320  0.4824
    3TCq1    C9   44   0.111   1.491  10.598 -0.0689  0.2038  0.5695
    3TCq1    O5   45   0.044   1.583  10.656  0.0398  0.2738  0.7223
    3TCq1    O6   46   0.217   1.504  10.535  0.0219 -0.4972  0.2551
    3TCq1    H1   47   0.262   1.073  10.511 -3.3803 -0.4201  1.5128
    3TCq1    H2   48   0.257   1.277  10.578  0.2576  0.1713  0.9024
    3TCq1    H3   49   4.593   1.424  10.679 -0.3941 -0.0904  0.7945
    3TCq1    H4   50   4.701   1.016  10.777 -0.2839  0.3785  1.5579
    4MPD2     C   51   4.101   1.352  11.086  0.4259  0.3091  0.5535
    4MPD2    C1   52   4.178   1.463  11.055 -0.5163 -0.6217 -0.0607
    4MPD2    C2   53   4.279   1.448  10.966 -0.0983  0.8823 -0.0840
    4MPD2    C3   54   4.325   1.320  10.921  0.7354  0.1740  0.7445
    4MPD2    C4   55   4.243   1.211  10.960  0.4901 -0.3735 -0.2371
    4MPD2    C5   56   4.133   1.235  11.030  0.1647  0.8325 -0.1131
    4MPD2     H   57   4.333   1.538  10.936 -0.0381  0.2753 -1.8082
    4MPD2    H1   58   4.260   1.114  10.915 -0.3148 -0.2187 -0.8707
    4MPD2    H2   59   4.021   1.360  11.159 -1.1990  1.1146 -1.3117
    4MPD2    H3   60   4.063   1.155  11.048  1.3269  0.5066  2.9463
    4MPD2     N   61   4.443   1.310  10.844 -0.2693  0.2632  0.1362
    4MPD2    H5   62   4.480   1.399  10.814 -3.0502  0.2550 -3.2666
    4MPD2    N1   63   4.149   1.594  11.102  0.3898 -0.1832 -0.2095
    4MPD2    H7   64   4.206   1.670  11.065 -1.5617  0.4689 -1.8673
    5TCq1    O1   65   0.974   2.868  12.110 -0.1627 -0.5123 -0.1604
    5TCq1    C1   66   0.890   2.862  12.211  0.1987  0.0637  0.5226
    5TCq1    O2   67   0.888   2.936  12.308 -0.7962  0.1403  0.2680
    5TCq1    C2   68   0.759   2.829  12.156  0.2982  0.2788  0.6201
    5TCq1    C3   69   0.650   2.849  12.241 -0.0849 -0.2174 -0.1833
    5TCq1    C4   70   0.529   2.820  12.202  0.2897 -0.2748  0.0879
    5TCq1    C5   71   0.507   2.782  12.076 -0.6610  0.5559  0.3384
    5TCq1    C6   72   0.608   2.764  11.987  0.0461 -0.4709  0.2428
    5TCq1    C7   73   0.739   2.795  12.022  0.6912 -0.9219  0.3412
    5TCq1    C8   74   0.589   2.761  11.845  0.8836  0.0481  0.1186
    5TCq1    O4   75   0.674   2.714  11.775 -0.1328  0.1003 -0.8052
    5TCq1    C9   76   0.415   2.859  12.280  0.9065  0.1163  0.1020
    5TCq1    O5   77   0.301   2.874  12.224 -0.2928 -0.2850  0.0222
    5TCq1    O6   78   0.442   2.906  12.392  0.2734  0.1257 -0.1803
    5TCq1    H1   79   0.980   2.785  12.059  0.3437 -1.4064  1.3704
    5TCq1    H2   80   0.662   2.888  12.341 -0.0469 -0.0755 -0.2422
    5TCq1    H3   81   0.407   2.762  12.039 -0.4910  1.9203 -0.8585
    5TCq1    H4   82   0.812   2.791  11.942  0.7950 -3.5997  0.5691
    6MPD2     C   83   0.330   2.913  11.641 -0.1441 -0.4450  0.3834
    6MPD2    C1   84   0.430   2.819  11.668 -0.3847  0.2938  0.5761
    6MPD2    C2   85   0.472   2.745  11.562 -0.1994  0.1114 -0.2765
    6MPD2    C3   86   0.416   2.757  11.430  0.4940 -0.7222 -0.1910
    6MPD2    C4   87   0.321   2.848  11.411  0.6061 -0.1434  0.2670
    6MPD2    C5   88   0.277   2.926  11.515  0.2146 -0.2722 -0.1603
    6MPD2     H   89   0.547   2.668  11.572 -0.9827 -0.5972  0.1570
    6MPD2    H1   90   0.273   2.883  11.320  0.3087  1.3897  1.0128
    6MPD2    H2   91   0.279   2.970  11.718  0.1918  0.5244 -0.1096
    6MPD2    H3   92   0.205   3.003  11.491 -0.1078 -0.5660 -0.1376
    6MPD2     N   93   0.465   2.671  11.329  0.5896  0.1717 -0.2793
    6MPD2    H5   94   0.542   2.610  11.353 -0.3458 -1.3132 -1.0101
    6MPD2    N1   95   0.476   2.818  11.802 -0.4484 -0.5016  0.1909
    6MPD2    H7   96   0.426   2.869  11.874 -0.5979 -0.9257  0.3865
    7TCq1    O1   97   2.051   2.478  13.049 -0.8949  0.0749  0.0537
    7TCq1    C1   98   2.109   2.383  12.969  0.1081 -0.5294 -0.0151
    7TCq1    O2   99   2.183   2.405  12.873 -0.3730  0.5750  0.2778
    7TCq1    C2  100   2.081   2.260  13.033 -0.0647 -0.0031  0.3983
    7TCq1    C3  101   1.956   2.243  13.080  0.8887 -0.3677 -0.1071
    7TCq1    C4  102   1.936   2.132  13.160 -0.4437 -0.5429 -0.2953
    7TCq1    C5  103   2.037   2.049  13.180 -0.3278  0.3758  0.0616
    7TCq1    C6  104   2.163   2.072  13.134 -0.2082 -0.1754 -0.4792
    7TCq1    C7  105   2.186   2.187  13.064 -0.3778  0.6842 -0.4541
    7TCq1    C8  106   2.283   2.007  13.199  0.7617  0.1170 -0.2747
    7TCq1    O4  107   2.291   1.883  13.199 -0.0655  0.1089  0.2007
    7TCq1    C9  108   1.806   2.105  13.210 -0.5931  0.4439  0.8624
    7TCq1    O5  109   1.796   2.009  13.291 -0.2031 -1.0752 -0.5386
    7TCq1    O6  110   1.708   2.168  13.154  0.9843 -0.7178 -0.3120
    7TCq1    H1  111   2.023   2.450  13.139  1.0284  2.1330  1.2727
    7TCq1    H2  112   1.874   2.303  13.042  0.5185 -0.6405  0.2573
    7TCq1    H3  113   2.010   1.977  13.257 -1.5648  0.4745 -0.2940
    7TCq1    H4  114   2.286   2.213  13.032 -0.2259  0.6884  0.0155
    8MPD2     C  115   2.685   2.043  13.506 -0.6458 -0.1111  0.2451
    8MPD2    C1  116   2.645   1.941  13.421  0.0932 -0.1193  0.3206
    8MPD2    C2  117   2.541   1.961  13.334  0.4512  0.5955  0.0728
    8MPD2    C3  118   2.468   2.079  13.345  0.1785  0.2389  0.2973
    8MPD2    C4  119   2.502   2.174  13.434  0.4007  0.1264 -0.6103
    8MPD2    C5  120   2.611   2.155  13.506  0.3800  0.2074  0.0969
    8MPD2     H  121   2.515   1.888  13.258 -1.6350  0.7108  0.6854
    8MPD2    H1  122   2.438   2.261  13.446 -0.8105 -0.9168  0.6071
    8MPD2    H2  123   2.762   2.033  13.582 -0.0522  0.3154 -0.2947
    8MPD2    H3  124   2.632   2.238  13.573 -0.3902  0.7117 -0.2842
    8MPD2     N  125   2.349   2.099  13.272  0.2089 -0.0366  0.5446
    8MPD2    H5  126   2.318   2.195  13.261  0.1621 -0.1385 -0.1946
    8MPD2    N1  127   2.717   1.827  13.423 -0.8445 -0.1409 -0.1306
    8MPD2    H7  128   2.782   1.821  13.501 -0.5881  1.2883 -0.2219
    9TCq1    O1  129   0.292   1.604  11.439  0.3246  0.3231  0.4353
    9TCq1    C1  130   0.288   1.586  11.306  0.4702  0.1624 -0.0791
    9TCq1    O2  131   0.190   1.626  11.241  0.0004 -0.3925  0.5876
    9TCq1    C2  132   0.348   1.460  11.307 -0.3154 -0.2748 -0.0523
    9TCq1    C3  133   0.481   1.444  11.283  0.0883  0.6567 -0.6442
    9TCq1    C4  134   0.531   1.316  11.309 -0.0385 -0.5384  0.2819
    9TCq1    C5  135   0.446   1.210  11.343 -0.8459  0.0737  0.1078
    9TCq1    C6  136   0.312   1.237  11.346 -0.1869  0.0070 -0.2459
    9TCq1    C7  137   0.262   1.360  11.333  0.4619 -0.1818 -0.4785
    9TCq1    C8  138   0.235   1.142  11.420 -0.2854  0.0489  0.0928
    9TCq1    O4  139   0.301   1.087  11.504  0.0997  0.3764 -0.2665
    9TCq1    C9  140   0.670   1.282  11.310  0.1862 -0.5774  0.5713
    9TCq1    O5  141   0.752   1.372  11.263 -0.2484 -0.8925  0.5876
    9TCq1    O6  142   0.705   1.173  11.368 -0.0210 -0.1670 -0.1142
    9TCq1    H1  143   0.369   1.561  11.482  0.3787 -0.3987 -0.4022
    9TCq1    H2  144   0.557   1.520  11.277  1.5046 -0.7864 -0.9408
    9TCq1    H3  145   0.481   1.108  11.350 -1.1014 -0.0604 -0.6045
    9TCq1    H4  146   0.158   1.383  11.353  0.0031 -1.3649 -1.5092
   10MPD2     C  147   4.641   0.968  11.348 -0.2869 -0.3309 -0.3040
   10MPD2    C1  148   0.023   1.014  11.418  0.3681 -0.2320 -0.2125
   10MPD2    C2  149   0.033   0.972  11.549 -0.7237  0.2655 -0.1343
   10MPD2    C3  150   4.664   0.884  11.612  0.1459  0.4207  0.2034
   10MPD2    C4  151   4.567   0.838  11.534 -0.4376  0.5332  0.1327
   10MPD2    C5  152   4.549   0.889  11.411 -0.0491 -0.1504 -0.1340
   10MPD2     H  153   0.113   1.010  11.612 -2.0369 -0.0045  1.7013
   10MPD2    H1  154   4.486   0.776  11.571  0.0300 -0.8362 -1.1435
   10MPD2    H2  155   4.632   1.003  11.246  0.6356 -0.1956 -0.3366
   10MPD2    H3  156   4.465   0.853  11.353 -2.7624 -1.0677  4.3335
   10MPD2     N  157   4.666   0.838  11.748  0.1602  0.4597 -0.3487
   10MPD2    H5  158   4.595   0.773  11.782  0.2728  0.3558 -0.3105
   10MPD2    N1  159   0.121   1.098  11.356  0.1513  0.8442  0.2290
   10MPD2    H7  160   0.107   1.129  11.260  1.1484 -0.0473 -0.2131
   11TCq1    O1  161   1.070   1.265  13.424  0.6442 -0.0453  0.2905
   11TCq1    C1  162   1.097   1.157  13.499 -0.3679  0.9035  0.3155
   11TCq1    O2  163   1.062   1.049  13.465  0.5160 -0.0274 -0.0567
   11TCq1    C2  164   1.091   1.195  13.641  0.3031  0.5858  0.4561
   11TCq1    C3  165   1.183   1.288  13.687 -0.3748 -0.0872 -0.1746
   11TCq1    C4  166   1.192   1.312  13.821  0.4789  0.2827 -0.6649
   11TCq1    C5  167   1.130   1.231  13.908  0.0030 -0.5704  0.5580
   11TCq1    C6  168   1.053   1.122  13.856 -0.5264  0.5060  0.1449
   11TCq1    C7  169   1.039   1.102  13.723  0.1750 -0.1735  0.6441
   11TCq1    C8  170   0.957   1.062  13.944  0.4122 -0.4842 -0.2335
   11TCq1    O4  171   0.921   1.131  14.040 -1.2219 -0.4337  0.0095
   11TCq1    C9  172   1.279   1.420  13.858 -0.1720 -0.4448 -0.1742
   11TCq1    O5  173   1.318   1.435  13.978 -0.3629 -0.1776  0.0501
   11TCq1    O6  174   1.322   1.496  13.767 -0.5840 -0.2712 -0.4162
   11TCq1    H1  175   1.117   1.341  13.463  0.1411  0.8951 -0.9233
   11TCq1    H2  176   1.247   1.335  13.613 -0.8512  2.6300  1.1360
   11TCq1    H3  177   1.128   1.237  14.016  1.5439 -0.4688  0.5832
   11TCq1    H4  178   0.970   1.027  13.686  1.0028  1.2553 -3.7678
   12MPD2     C  179   0.752   0.902  14.065 -0.5874 -0.0348 -0.1874
   12MPD2    C1  180   0.834   0.850  13.977  0.6067 -1.0124 -0.5515
   12MPD2    C2  181   0.834   0.710  13.957 -0.7721 -0.1107 -0.1875
   12MPD2    C3  182   0.729   0.633  14.008  0.1888  0.0556  0.1870
   12MPD2    C4  183   0.641   0.688  14.089 -0.1326 -0.0752  0.3555
   12MPD2    C5  184   0.670   0.817  14.130 -0.0978  0.0747 -0.3786
   12MPD2     H  185   0.903   0.650  13.899 -0.2125 -0.0258  0.3907
   12MPD2    H1  186   0.563   0.625  14.131  0.1620 -0.3161  0.5423
   12MPD2    H2  187   0.746   1.004  14.101 -0.5186 -1.3926  3.6111
   12MPD2    H3  188   0.603   0.856  14.206 -0.3568  0.1241 -0.6300
   12MPD2     N  189   0.701   0.493  13.983 -0.2176  0.8000  0.4837
   12MPD2    H5  190   0.632   0.439  14.035  0.8325 -1.2315 -0.2137
   12MPD2    N1  191   0.922   0.936  13.911  0.0324 -0.0811 -0.1711
   12MPD2    H7  192   0.973   0.900  13.831  1.9327 -3.6419  2.6200
   13TCq1    O1  193   0.279   0.755  10.315  0.2651  0.0430 -0.2214
   13TCq1    C1  194   0.189   0.721  10.408  0.3368  0.2506 -0.1949
   13TCq1    O2  195   0.190   0.622  10.482 -0.6400  0.6302 -0.0377
   13TCq1    C2  196   0.067   0.778  10.368  0.3345 -0.3357 -0.7818
   13TCq1    C3  197   0.013   0.733  10.251  0.0592  0.4447  0.0001
   13TCq1    C4  198   4.598   0.704  10.240  0.8996  0.0641  0.4209
   13TCq1    C5  199   4.518   0.731  10.349  0.4252 -0.1322  0.4030
   13TCq1    C6  200   4.574   0.782  10.463 -0.1424 -0.1515 -0.4242
   13TCq1    C7  201   4.712   0.800  10.474 -0.2907 -0.5946 -0.2132
   13TCq1    C8  202   4.494   0.797  10.581 -0.6576  0.2845 -0.4756
   13TCq1    O4  203   4.552   0.838  10.681  0.2742 -0.6193 -0.0440
   13TCq1    C9  204   4.540   0.659  10.119  0.2807  0.0182  0.0120
   13TCq1    O5  205   4.616   0.617  10.025 -0.1979 -0.5884 -0.3872
   13TCq1    O6  206   4.415   0.657  10.112  0.1454 -0.2406  0.0965
   13TCq1    H1  207   0.250   0.833  10.263 -1.9671 -0.0098  0.9573
   13TCq1    H2  208   0.081   0.696  10.175 -1.2542 -0.5668 -0.6875
   13TCq1    H3  209   4.411   0.731  10.328 -0.2885 -1.9784  3.8854
   13TCq1    H4  210   0.031   0.839  10.567  0.9200  0.2364 -1.0744
   14MPD2     C  211   4.165   0.646  10.636 -0.3711  0.2426  0.5066
   14MPD2    C1  212   4.271   0.726  10.668 -0.0682 -0.0182 -0.1392
   14MPD2    C2  213   4.268   0.790  10.789  0.5490  0.4200  0.2824
   14MPD2    C3  214   4.160   0.770  10.879  1.3253 -0.1175 -0.3439
   14MPD2    C4  215   4.050   0.690  10.837  0.1283  0.3778 -0.0765
   14MPD2    C5  216   4.050   0.645  10.712 -0.2385  0.5526 -0.0666
   14MPD2     H  217   4.355   0.843  10.826  1.8382 -0.8681 -0.9318
   14MPD2    H1  218   3.960   0.669  10.893 -0.8351  1.4843 -1.2025
   14MPD2    H2  219   4.166   0.586  10.546 -2.8491  0.0448  0.6052
   14MPD2    H3  220   3.967   0.581  10.684 -1.0295  1.0266  1.2226
   14MPD2     N  221   4.174   0.822  11.007 -0.4944  0.3109 -0.5050
   14MPD2    H5  222   4.262   0.869  11.026 -0.5031  0.6853 -1.3715
   14MPD2    N1  223   4.369   0.738  10.565 -0.1739 -0.7597 -0.0174
   14MPD2    H7  224   4.353   0.689  10.478 -1.5352 -1.4442  0.6253
   15TCq1    O1  225   1.318   4.169   1.760  0.5145 -0.5144  0.4851
   15TCq1    C1  226   1.336   4.283   1.837  0.8172  0.2993  0.0288
   15TCq1    O2  227   1.253   4.339   1.905  0.5845  0.0425  0.1802
   15TCq1    C2  228   1.477   4.313   1.844  0.3332  0.3785 -0.0565
   15TCq1    C3  229   1.519   4.434   1.905 -0.2735 -0.5458 -0.4540
   15TCq1    C4  230   1.645   4.475   1.892  0.8981 -0.2026  0.1561
   15TCq1    C5  231   1.733   4.409   1.810 -0.0689  0.4713 -0.9701
   15TCq1    C6  232   1.699   4.288   1.765 -0.1005  0.4719 -0.3716
   15TCq1    C7  233   1.569   4.234   1.779  0.4269 -0.6768  0.0903
   15TCq1    C8  234   1.783   4.231   1.661 -0.3280  0.7215 -0.5089
   15TCq1    O4  235   1.806   4.115   1.678  0.1527  0.1803 -0.2803
   15TCq1    C9  236   1.678   4.605   1.933  0.2364  0.0060  0.2876
   15TCq1    O5  237   1.617   4.650   2.030  0.0619 -1.1358  0.3525
   15TCq1    O6  238   1.782   4.660   1.886  0.2885  0.6270 -0.1396
   15TCq1    H1  239   1.373   4.157   1.680 -0.7343  0.1296 -0.4600
   15TCq1    H2  240   1.442   4.485   1.961  1.2238 -0.4217  1.5089
   15TCq1    H3  241   1.830   4.453   1.794  0.3037 -0.3313 -0.9479
   15TCq1    H4  242   1.549   4.133   1.747 -0.1461  0.1537 -2.1879
   16MPD2     C  243   1.884   4.411   1.351 -0.4237  0.4629  0.4089
   16MPD2    C1  244   1.880   4.307   1.444 -0.0516  0.3816 -0.1368
   16MPD2    C2  245   1.938   4.186   1.418 -0.1502  0.8548 -0.3376
   16MPD2    C3  246   2.004   4.156   1.297 -1.0268  0.0401  0.3905
   16MPD2    C4  247   1.995   4.255   1.198 -0.0499  0.6658 -0.0133
   16MPD2    C5  248   1.940   4.373   1.223  0.1339  0.2728  0.2232
   16MPD2     H  249   1.934   4.114   1.499  0.5442  1.2964  0.0870
   16MPD2    H1  250   2.042   4.238   1.101  0.0592 -0.5444  0.2473
   16MPD2    H2  251   1.850   4.512   1.372 -0.3703  0.5686 -0.0094
   16MPD2    H3  252   1.937   4.448   1.144  1.6251  0.5065  0.3974
   16MPD2     N  253   2.090   4.035   1.293  0.5836 -0.0807  0.3152
   16MPD2    H5  254   2.087   3.984   1.381  0.9506  3.1150  2.1821
   16MPD2    N1  255   1.812   4.327   1.560  0.3906 -0.6278 -0.3166
   16MPD2    H7  256   1.772   4.419   1.572 -0.6374 -1.2932  1.4028
   17TCq1    O1  257   3.633   0.538  10.157 -0.4879  0.7565  0.6627
   17TCq1    C1  258   3.651   0.404  10.152  0.4038  0.0426 -0.1241
   17TCq1    O2  259   3.611   0.316  10.231 -0.6456  0.3673 -0.2716
   17TCq1    C2  260   3.796   0.413  10.151 -0.3827  0.0546 -0.3440
   17TCq1    C3  261   3.847   0.496  10.057 -0.3539  0.6236  0.1873
   17TCq1    C4  262   3.972   0.544  10.067  0.1082  0.3760  0.2482
   17TCq1    C5  263   4.050   0.519  10.176  0.3698  0.1178  0.1699
   17TCq1    C6  264   3.995   0.441  10.272 -0.5412 -0.4800 -0.1041
   17TCq1    C7  265   3.869   0.388  10.262  0.0259 -0.5315  0.0769
   17TCq1    C8  266   4.076   0.408  10.387 -0.2111 -0.1284  0.3125
   17TCq1    O4  267   4.016   0.377  10.489  0.0424  0.0228 -0.4083
   17TCq1    C9  268   4.032   0.616   9.960  0.3303 -0.1109  0.1947
   17TCq1    O5  269   4.153   0.647   9.969  0.0045  0.4190  0.2492
   17TCq1    O6  270   3.961   0.653   9.864  0.2403  0.3453  0.3636
   17TCq1    H1  271   3.675   0.579  10.078 -0.9023  0.8513  0.4917
   17TCq1    H2  272   3.801   0.496   9.959 -1.1885  0.0272  0.5836
   17TCq1    H3  273   4.152   0.555  10.185  0.0415  0.8022  1.2079
   17TCq1    H4  274   3.828   0.337  10.349  1.1274  1.6774  1.9006
   18MPD2     C  275   4.292   0.362  10.591 -0.0075  0.0552  0.6106
   18MPD2    C1  276   4.313   0.384  10.455 -0.7696  0.4776 -0.0943
   18MPD2    C2  277   4.443   0.378  10.408  0.0980 -0.4025  0.5035
   18MPD2    C3  278   4.549   0.385  10.497 -0.1834  0.0550  0.4182
   18MPD2    C4  279   4.523   0.387  10.636  0.5396 -0.0242 -0.7555
   18MPD2    C5  280   4.395   0.367  10.686 -0.2644  0.5905 -0.0336
   18MPD2     H  281   4.465   0.406  10.306  1.2636 -4.2499 -0.3185
   18MPD2    H1  282   4.607   0.392  10.704 -0.7626  1.6305  0.6988
   18MPD2    H2  283   4.199   0.324  10.631  0.8017 -1.5876  0.9687
   18MPD2    H3  284   4.374   0.338  10.789 -0.0316  0.3519 -0.0533
   18MPD2     N  285   4.686   0.384  10.462 -0.5647 -0.0061  0.0378
   18MPD2    H5  286   0.024   0.386  10.545 -0.7986  0.4838  0.1873
   18MPD2    N1  287   4.210   0.394  10.356 -0.0405  0.6871 -0.3415
   18MPD2    H7  288   4.235   0.404  10.258 -0.5439 -0.4961 -0.5928
   19TMC2    C1  289   1.965   0.572  13.756  0.1131  0.0865 -0.3906
   19TMC2    C2  290   1.871   0.623  13.668 -0.0991  0.1856  0.4714
   19TMC2    C3  291   1.764   0.539  13.646  0.2977  0.2283 -0.2920
   19TMC2    C4  292   1.959   0.439  13.801 -0.2541 -0.6228  0.4648
   19TMC2    C5  293   1.862   0.351  13.758 -0.0802 -0.4862 -0.5372
   19TMC2    C6  294   1.758   0.406  13.688 -1.0702  0.1394  0.5977
   19TMC2     C  295   2.085   0.648  13.757 -0.2524  0.2482  0.0840
   19TMC2     O  296   2.103   0.739  13.676  0.1573  0.2337  0.4934
   19TMC2     H  297   1.882   0.725  13.634  0.9578 -0.1251 -0.0994
   19TMC2    H1  298   2.027   0.410  13.880  1.6585  0.9685 -0.6162
   19TMC2    H2  299   1.665   0.354  13.668 -1.4528  1.0565 -0.0072
   19TMC2    C7  300   1.856   0.217  13.820  0.2474 -0.7933 -0.9684
   19TMC2    C8  301   1.646   0.590  13.579  0.6095  0.1890 -0.3411
   19TMC2    O1  302   1.742   0.177  13.831  0.6239  0.1249  0.1214
   19TMC2    O2  303   1.601   0.526  13.489 -0.0093  0.2956 -0.1258
   19TMC2    O5  304   1.646   0.722  13.579  0.2807  0.8000 -0.2629
   19TMC2    H5  305   1.656   0.766  13.666  0.6352  1.6960 -0.7577
   20MPD2     C  306   2.348   0.761  13.856 -0.9429 -0.1836 -0.4094
   20MPD2    C1  307   2.295   0.643  13.896 -0.0463  0.0534  0.0489
   20MPD2    C2  308   2.365   0.558  13.986  0.3786  0.1358 -1.0319
   20MPD2    C3  309   2.486   0.606  14.036  0.2690  0.4190  0.5042
   20MPD2    C4  310   2.536   0.729  13.997  0.0119 -0.4223 -0.0201
   20MPD2    C5  311   2.469   0.803  13.903  0.0317  0.2482 -0.1076
   20MPD2     H  312   2.322   0.468  14.028  0.4876 -0.0194 -1.2529
   20MPD2    H1  313   2.623   0.777  14.039 -0.4046 -0.4511  0.8712
   20MPD2    H2  314   2.298   0.818  13.779  1.7349  2.2879 -0.3298
   20MPD2    H3  315   2.508   0.904  13.894 -1.8410  0.8323 -1.7556
   20MPD2     N  316   2.560   0.534  14.135  0.1024 -0.6296  0.2331
   20MPD2    H5  317   2.639   0.587  14.171  0.8913 -0.7891 -1.2530
   20MPD2    N1  318   2.170   0.591  13.848 -0.6670 -0.4106 -0.0622
   20MPD2    H7  319   2.124   0.517  13.899  1.6295 -1.1799  0.9134
   21MPD2     C  320   4.382   1.109  14.449 -0.0338 -0.1749 -0.3592
   21MPD2    C1  321   4.405   0.983  14.492  0.3711 -0.5664  0.7672
   21MPD2    C2  322   4.310   0.909  14.555 -0.0121 -0.3690  0.6865
   21MPD2    C3  323   4.182   0.961  14.575 -0.2964  0.5615 -0.0355
   21MPD2    C4  324   4.164   1.094  14.547  0.2323 -0.5767  0.5414
   21MPD2    C5  325   4.261   1.168  14.489  0.1621  0.0640 -0.0508
   21MPD2     H  326   4.344   0.810  14.585  2.0297  0.1694  0.1544
   21MPD2    H1  327   4.069   1.144  14.563  0.3420  0.3908 -1.7372
   21MPD2    H2  328   4.458   1.177  14.413  0.9632 -1.3004 -0.3400
   21MPD2    H3  329   4.241   1.271  14.463  1.4458  0.1994 -0.4869
   21MPD2     N  330   4.091   0.893  14.658  0.3955  0.1434 -0.6389
   21MPD2    H5  331   4.004   0.944  14.675  0.2534 -0.3567  0.1302
   21MPD2    N1  332   4.521   0.916  14.471  0.1099  0.2349 -0.5982
   21MPD2    H7  333   4.512   0.821  14.503  1.3740 -0.1682 -1.4486
   22TCq2    C1  334   4.112   0.776  14.728 -0.3034 -1.2098  0.6508
   22TCq2    O2  335   4.214   0.707  14.741  0.5634 -0.2160  0.3466
   22TCq2    C2  336   4.000   0.743  14.816  0.5898  0.6240 -0.0948
   22TCq2    C3  337   4.019   0.679  14.932 -0.1407  0.0968 -0.6609
   22TCq2    C4  338   3.920   0.685  15.027  0.5312 -0.2993 -0.3417
   22TCq2    C5  339   3.796   0.736  15.007 -0.0759 -0.1372  0.0183
   22TCq2    C6  340   3.774   0.780  14.883 -0.2857 -0.3105 -0.1912
   22TCq2    C7  341   3.879   0.806  14.796 -0.5679 -0.2932 -0.1961
   22TCq2    C8  342   3.640   0.845  14.858 -0.3221  0.0587 -0.0290
   22TCq2    O4  343   3.551   0.799  14.931 -0.1016 -0.0226  0.1628
   22TCq2    C9  344   3.941   0.650  15.165  0.4402  0.4173 -0.5009
   22TCq2    O5  345   3.853   0.678  15.246 -0.5232 -0.4159  0.7585
   22TCq2    O6  346   4.034   0.565  15.183 -0.6244  0.4898 -0.2649
   22TCq2    H2  347   4.123   0.659  14.954 -0.4583 -0.3627  0.4196
   22TCq2    H3  348   3.722   0.726  15.086 -0.6715  1.0824 -0.3945
   22TCq2    H4  349   3.863   0.855  14.701 -0.5886 -0.4922 -0.2958
   23MPD2     C  350   1.131   1.729  14.452 -0.2135 -0.2226 -0.0298
   23MPD2    C1  351   1.035   1.691  14.538  0.1404 -0.5807  0.2456
   23MPD2    C2  352   0.902   1.730  14.511 -0.3007 -0.1612  0.2533
   23MPD2    C3  353   0.866   1.810  14.399 -0.0857  0.0788 -0.5848
   23MPD2    C4  354   0.968   1.849  14.315  0.4264  0.4500 -0.7306
   23MPD2    C5  355   1.095   1.806  14.338 -0.1463  0.3087  0.0751
   23MPD2     H  356   0.819   1.702  14.574 -0.0076 -1.2045  0.1850
   23MPD2    H1  357   0.948   1.922  14.237  1.0726  0.4435 -0.9000
   23MPD2    H2  358   1.235   1.704  14.469  0.3632  1.8563 -0.4968
   23MPD2    H3  359   1.173   1.837  14.270  0.3182  0.6715  0.7757
   23MPD2     N  360   0.736   1.848  14.364  0.0813  0.1141  0.2658
   23MPD2    H5  361   0.728   1.924  14.297  2.3109 -0.4652 -0.6641
   23MPD2    N1  362   1.061   1.613  14.655 -0.3598  0.3163  0.3629
   23MPD2    H7  363   0.981   1.596  14.715 -1.2339  1.4710 -0.4672
   24TCq2    C1  364   0.627   1.786  14.417 -0.4634 -0.2138  0.0909
   24TCq2    O2  365   0.610   1.683  14.478 -0.1246  0.3005 -0.3045
   24TCq2    C2  366   0.500   1.850  14.369 -0.5588 -0.3405  0.1421
   24TCq2    C3  367   0.508   1.979  14.313 -0.2547  0.6213 -0.3857
   24TCq2    C4  368   0.385   2.032  14.279 -0.5206 -0.1087  0.4497
   24TCq2    C5  369   0.268   1.961  14.285  0.2721  0.4029  0.6448
   24TCq2    C6  370   0.270   1.829  14.328 -0.1948  0.6244 -0.1559
   24TCq2    C7  371   0.391   1.775  14.372 -0.0708 -0.9609  0.3927
   24TCq2    C8  372   0.148   1.748  14.336  0.3511 -0.2281 -0.0098
   24TCq2    O4  373   0.167   1.643  14.393  0.3348  0.2933  0.0218
   24TCq2    C9  374   0.378   2.178  14.247  0.1705 -0.1289 -0.4137
   24TCq2    O5  375   0.268   2.235  14.254  0.5891 -0.2080  0.3298
   24TCq2    O6  376   0.489   2.235  14.223  0.9015 -0.8066 -0.1677
   24TCq2    H2  377   0.595   2.043  14.315  0.2597 -0.0531 -1.2921
   24TCq2    H3  378   0.172   2.010  14.270  0.0821 -0.5014 -1.1702
   24TCq2    H4  379   0.403   1.674  14.409 -0.5413 -1.3024 -0.3958
   25TMC2    C1  380   0.290   3.717  11.589 -0.5841 -0.4933  1.0191
   25TMC2    C2  381   0.407   3.752  11.646 -0.8984 -0.5269  0.0348
   25TMC2    C3  382   0.411   3.849  11.744 -0.0931  0.1249 -0.6671
   25TMC2    C4  383   0.173   3.787  11.627  0.7328  0.3287  0.2956
   25TMC2    C5  384   0.183   3.877  11.725  0.3156 -0.1676  0.6777
   25TMC2    C6  385   0.299   3.909  11.787  0.2218  0.0801  0.3385
   25TMC2     C  386   0.304   3.643  11.466 -0.1262  1.1276 -0.4000
   25TMC2     O  387   0.419   3.620  11.434  0.0030  0.0087 -0.4745
   25TMC2     H  388   0.497   3.696  11.624 -0.7041  0.2450 -1.1951
   25TMC2    H1  389   0.076   3.767  11.582  0.3886  2.8516 -0.0321
   25TMC2    H2  390   0.310   3.981  11.867 -1.9611  1.6150 -0.7267
   25TMC2    C7  391   0.062   3.935  11.789  0.3073  0.1299 -0.0079
   25TMC2    C8  392   0.527   3.861  11.835 -0.4083 -1.0092 -0.3521
   25TMC2    O1  393   0.070   3.961  11.908  0.7557  0.5010 -0.0742
   25TMC2    O2  394   0.526   3.879  11.954 -0.7574  0.9679 -0.7669
   25TMC2    O5  395   0.639   3.856  11.757 -0.3094 -0.3674 -0.2675
   25TMC2    H5  396   0.620   3.864  11.661 -2.6924  1.7642  0.3508
   26MPD2     C  397   0.135   3.414  11.041 -0.1455 -0.2085  0.6233
   26MPD2    C1  398   0.034   3.488  11.092  0.7352 -0.5262 -0.2739
   26MPD2    C2  399   0.059   3.567  11.202  0.9137  0.6078  0.1968
   26MPD2    C3  400   0.178   3.574  11.268  0.6258 -0.3867 -0.2036
   26MPD2    C4  401   0.273   3.485  11.225  0.1280 -0.1680  0.2504
   26MPD2    C5  402   0.256   3.411  11.107 -0.2213  0.4721 -0.0652
   26MPD2     H  403   4.697   3.630  11.234  0.5751  0.4359 -0.3463
   26MPD2    H1  404   0.371   3.468  11.269 -0.5799  0.0008  1.8877
   26MPD2    H2  405   0.122   3.349  10.956  0.6446  1.0301 -0.4335
   26MPD2    H3  406   0.329   3.337  11.076  0.3574  0.3268  1.6079
   26MPD2     N  407   0.187   3.645  11.393 -0.0584  0.1712  0.0931
   26MPD2    H5  408   0.104   3.693  11.426 -0.2068  0.9278 -1.3811
   26MPD2    N1  409   4.630   3.483  11.025  0.6553  0.2219 -0.3025
   26MPD2    H7  410   4.621   3.430  10.938  3.8380 -0.2785 -0.3609
   27TMC2    C1  411   3.258   1.052  11.719  0.2294  0.2451  1.4291
   27TMC2    C2  412   3.205   0.991  11.612  0.1815 -0.1580 -0.2936
   27TMC2    C3  413   3.133   1.081  11.536 -0.3700  0.1673  0.2381
   27TMC2    C4  414   3.250   1.181  11.750 -0.3074 -0.6566  0.1476
   27TMC2    C5  415   3.197   1.268  11.664  0.1360  0.6424  0.8851
   27TMC2    C6  416   3.129   1.223  11.552  0.5788  0.0087  0.4376
   27TMC2     C  417   3.258   0.972  11.830  0.0197  0.0593 -0.2627
   27TMC2     O  418   3.324   0.864  11.817  0.1225 -0.0750  0.5490
   27TMC2     H  419   3.201   0.883  11.603  2.9026 -0.0727 -2.3343
   27TMC2    H1  420   3.295   1.219  11.841  0.7051 -2.0399  0.2220
   27TMC2    H2  421   3.070   1.281  11.482 -1.9349 -0.2277  2.3660
   27TMC2    C7  422   3.164   1.398  11.717  0.4347  0.5323  0.0990
   27TMC2    C8  423   3.040   1.033  11.444  0.5761  0.0453 -0.4320
   27TMC2    O1  424   3.200   1.420  11.834 -0.1731 -0.5918  0.5433
   27TMC2    O2  425   2.927   1.075  11.447  0.4281  0.1762 -0.6262
   27TMC2    O5  426   3.073   0.909  11.385  0.4134 -0.9954 -0.6382
   27TMC2    H5  427   3.168   0.888  11.397  1.2538  2.8469 -0.4276
   28MPD2     C  428   3.206   0.957  12.350 -0.3543  0.2025 -0.1571
   28MPD2    C1  429   3.098   1.028  12.294  0.0310  0.2814  0.0195
   28MPD2    C2  430   3.092   1.044  12.158 -0.4850  0.7154  0.2846
   28MPD2    C3  431   3.189   0.996  12.074 -0.3470  0.0628  0.3911
   28MPD2    C4  432   3.298   0.940  12.127  0.0750  0.3983 -0.3261
   28MPD2    C5  433   3.303   0.912  12.264  0.3296 -0.5143  0.8216
   28MPD2     H  434   3.006   1.092  12.112  0.3009 -0.6250 -2.5369
   28MPD2    H1  435   3.387   0.923  12.068  0.2847  0.2388  0.0346
   28MPD2    H2  436   3.212   0.931  12.455  0.3546  0.4149 -0.1465
   28MPD2    H3  437   3.393   0.863  12.301 -0.4336 -1.2163  1.7309
   28MPD2     N  438   3.181   1.026  11.933  0.4218  0.1870  0.1968
   28MPD2    H5  439   3.114   1.096  11.906 -1.5147 -1.9611 -0.5647
   28MPD2    N1  440   3.000   1.057  12.386 -0.2154 -0.3626 -0.2189
   28MPD2    H7  441   3.024   1.031  12.481  1.9723  0.2393 -0.6156
   29MPD2     C  442   2.279   3.561  14.628 -0.4022  0.4608  0.2212
   29MPD2    C1  443   2.396   3.519  14.687 -1.3416 -0.8021  0.8655
   29MPD2    C2  444   2.461   3.614  14.765 -1.0789  0.3546 -0.4759
   29MPD2    C3  445   2.403   3.739  14.800  0.6305  0.7238 -0.3917
   29MPD2    C4  446   2.274   3.768  14.754  0.4421 -0.4123  0.0263
   29MPD2    C5  447   2.212   3.681  14.663 -0.4322  0.3974  0.2891
   29MPD2     H  448   2.550   3.571  14.811 -1.6489 -1.4223 -1.0557
   29MPD2    H1  449   2.237   3.865  14.785  1.4391 -0.3114  0.8890
   29MPD2    H2  450   2.223   3.501  14.557  0.1807  0.7617 -0.4963
   29MPD2    H3  451   2.111   3.701  14.631 -0.5387 -1.5904 -0.6552
   29MPD2     N  452   2.466   3.839  14.874 -0.0711  0.4304  0.2977
   29MPD2    H5  453   2.428   3.932  14.866 -1.9036 -0.5968 -2.8821
   29MPD2    N1  454   2.466   3.395  14.652  0.5229  0.3401 -0.0551
   29MPD2    H7  455   2.555   3.373  14.695 -0.0064 -0.3478  0.6876
   30TCq2    C1  456   2.584   3.827  14.937 -0.3577  0.7098 -0.6949
   30TCq2    O2  457   2.642   3.724  14.964  0.5039  0.2203  0.3367
   30TCq2    C2  458   2.636   3.954  14.970  0.1193  0.0675 -0.1124
   30TCq2    C3  459   2.668   3.981  15.102  0.4917  0.0345 -0.7304
   30TCq2    C4  460   2.726   4.101  15.126 -0.2516  0.6327  0.5915
   30TCq2    C5  461   2.734   4.199  15.031 -0.4482 -0.0017  0.4460
   30TCq2    C6  462   2.695   4.176  14.905  0.3818 -0.1757  0.3543
   30TCq2    C7  463   2.647   4.047  14.874  0.0327 -0.1851  0.0503
   30TCq2    C8  464   2.725   4.255  14.792 -0.3125  0.7718  0.1076
   30TCq2    O4  465   2.698   4.220  14.678  0.3390  0.1545  0.0540
   30TCq2    C9  466   2.751   4.128  15.261  0.7645 -0.5869  0.4202
   30TCq2    O5  467   2.762   4.251  15.297  0.5651 -0.3160  0.1775
   30TCq2    O6  468   2.745   4.029  15.333  0.3390  0.3168  0.1601
   30TCq2    H2  469   2.636   3.920  15.185  1.3495  0.3691 -0.1594
   30TCq2    H3  470   2.756   4.297  15.073 -1.3118  0.3334  0.1110
   30TCq2    H4  471   2.615   4.018  14.775 -0.8206  2.7262 -0.5296
   31MPD2     C  472   1.082   2.558  14.722  0.3945 -0.0995 -0.0522
   31MPD2    C1  473   0.953   2.606  14.730 -0.5179 -0.2373  0.1103
   31MPD2    C2  474   0.889   2.590  14.852  0.6612  0.2967 -0.4029
   31MPD2    C3  475   0.956   2.534  14.959 -0.1228  1.5053 -0.8793
   31MPD2    C4  476   1.075   2.466  14.944 -0.2065  0.0279  0.2254
   31MPD2    C5  477   1.146   2.490  14.824  0.6434  0.0491 -0.8290
   31MPD2     H  478   0.789   2.630  14.864 -0.4573 -2.5609 -0.1028
   31MPD2    H1  479   1.121   2.421  15.032  0.5201 -0.8914 -0.6237
   31MPD2    H2  480   1.132   2.581  14.628 -0.3521 -1.1734 -0.7057
   31MPD2    H3  481   1.250   2.460  14.818  1.3028  1.8099  1.9275
   31MPD2     N  482   0.899   2.521  15.087  0.3943 -0.0948  0.2518
   31MPD2    H5  483   0.964   2.497  15.161 -1.0299 -3.5936  0.3388
   31MPD2    N1  484   0.897   2.673  14.620 -0.5274  0.3018 -0.1094
   31MPD2    H7  485   0.958   2.689  14.540  0.8960  0.7529  1.0684
   32TCq2    C1  486   0.765   2.538  15.122  0.4975 -0.2018  0.0162
   32TCq2    O2  487   0.666   2.561  15.053  0.5339  0.0213 -0.1751
   32TCq2    C2  488   0.740   2.490  15.261  0.0709  0.7312 -0.6319
   32TCq2    C3  489   0.617   2.505  15.314  0.8910  0.0417  0.0045
   32TCq2    C4  490   0.604   2.473  15.445 -0.2537 -0.3343 -0.1527
   32TCq2    C5  491   0.703   2.433  15.522  0.4804 -0.2751 -0.3089
   32TCq2    C6  492   0.819   2.403  15.461 -0.3009 -0.3137  0.1778
   32TCq2    C7  493   0.838   2.419  15.326  0.4490 -0.6546 -0.4507
   32TCq2    C8  494   0.939   2.399  15.537 -1.1852  0.3205 -0.0923
   32TCq2    O4  495   1.022   2.316  15.505  0.5097  0.1602 -0.4532
   32TCq2    C9  496   0.478   2.505  15.516  0.3186  0.5110  0.5208
   32TCq2    O5  497   0.474   2.486  15.638 -0.3092  0.3640 -0.3324
   32TCq2    O6  498   0.381   2.530  15.442 -0.3880 -0.1897 -0.0212
   32TCq2    H2  499   0.542   2.556  15.255  1.8097 -0.9249 -2.0099
   32TCq2    H3  500   0.694   2.427  15.630 -1.7759  1.0044 -0.4273
   32TCq2    H4  501   0.933   2.396  15.279 -0.7722 -1.9442 -2.2976
   33MPD2     C  502   0.774   0.644  10.329 -0.3202 -0.6927 -0.1143
   33MPD2    C1  503   0.678   0.592  10.246 -0.6539  0.3645  0.0792
   33MPD2    C2  504   0.700   0.585  10.111  0.3106 -0.1496  0.1980
   33MPD2    C3  505   0.815   0.640  10.054  0.0341  0.3213  0.4449
   33MPD2    C4  506   0.899   0.705  10.138  0.6257 -0.6564 -0.4897
   33MPD2    C5  507   0.882   0.702  10.272  0.1840  0.4109 -0.0186
   33MPD2     H  508   0.630   0.528  10.050  1.0129 -1.2977  0.4700
   33MPD2    H1  509   0.986   0.762  10.107  1.0217  1.0573  3.8455
   33MPD2    H2  510   0.769   0.646  10.437  1.1125 -0.0252 -0.0623
   33MPD2    H3  511   0.966   0.753  10.317  0.3336  0.0664  0.0937
   33MPD2     N  512   0.869   0.623   9.925  0.1062  0.3738 -0.1519
   33MPD2    H5  513   0.956   0.670   9.905  1.0147 -1.4340 -0.4465
   33MPD2    N1  514   0.569   0.527  10.305  0.0405 -0.2980  0.4660
   33MPD2    H7  515   0.570   0.524  10.407  2.9589  1.5446  0.4843
   34TCq2    C1  516   0.805   0.564   9.817 -0.2146 -0.4152 -0.1018
   34TCq2    O2  517   0.694   0.512   9.828  0.4888  0.2924  0.6184
   34TCq2    C2  518   0.863   0.583   9.686  0.2326  0.1559 -0.2352
   34TCq2    C3  519   0.782   0.535   9.578  0.5553 -0.3961  0.0624
   34TCq2    C4  520   0.799   0.590   9.454 -0.1969 -0.2604  0.2464
   34TCq2    C5  521   0.891   0.692   9.442 -0.5200 -0.2463 -0.5152
   34TCq2    C6  522   0.975   0.732   9.539 -0.2957  0.5432 -0.1450
   34TCq2    C7  523   0.966   0.679   9.662  0.1397 -0.0561 -0.2723
   34TCq2    C8  524   1.038   0.865   9.543 -0.4200 -1.5237 -0.1087
   34TCq2    O4  525   1.132   0.885   9.618  0.0681 -0.4911 -0.5052
   34TCq2    C9  526   0.713   0.560   9.347  0.3201  0.3024  0.0716
   34TCq2    O5  527   0.732   0.625   9.241 -0.2890 -1.4184 -0.5045
   34TCq2    O6  528   0.606   0.506   9.381  0.7832 -0.1571  0.6090
   34TCq2    H2  529   0.703   0.465   9.597 -0.8966  0.8420 -1.3956
   34TCq2    H3  530   0.898   0.731   9.341  0.1445 -1.2331 -0.8423
   34TCq2    H4  531   1.011   0.730   9.745 -1.0905 -2.1857  1.7043
   35MPD2     C  532   1.900   1.173  11.408 -0.7827  0.5670 -0.3936
   35MPD2    C1  533   1.916   1.086  11.509 -0.8914 -0.1719 -0.0790
   35MPD2    C2  534   1.839   0.969  11.511 -0.2069  0.1760 -0.3768
   35MPD2    C3  535   1.733   0.956  11.419 -0.4550 -1.4183  0.1000
   35MPD2    C4  536   1.720   1.046  11.318  0.0466 -0.2782 -0.0606
   35MPD2    C5  537   1.803   1.156  11.317  0.0783  0.9078  0.4418
   35MPD2     H  538   1.848   0.897  11.592 -1.5344  0.8861  0.4147
   35MPD2    H1  539   1.633   1.055  11.254 -0.6756  0.2803  1.0051
   35MPD2    H2  540   1.970   1.255  11.413  1.0929 -1.0833  0.8164
   35MPD2    H3  541   1.792   1.232  11.240  0.8563 -0.8567 -1.3924
   35MPD2     N  542   1.640   0.856  11.453  0.2681  0.7906 -0.8655
   35MPD2    H5  543   1.654   0.811  11.543 -0.5527  0.9446 -0.6608
   35MPD2    N1  544   2.005   1.119  11.613  0.7053 -1.0031  0.1243
   35MPD2    H7  545   2.036   1.041  11.671  0.9258  0.6029  2.1836
   36TCq2    C1  546   1.523   0.825  11.384 -0.6579  0.3288 -0.0497
   36TCq2    O2  547   1.493   0.867  11.273 -0.2412 -0.7860 -0.7553
   36TCq2    C2  548   1.438   0.722  11.448 -0.5316 -0.2058 -0.3689
   36TCq2    C3  549   1.340   0.666  11.372 -0.0369 -0.1359  0.6806
   36TCq2    C4  550   1.242   0.590  11.437 -0.1918  0.3346  0.5391
   36TCq2    C5  551   1.256   0.549  11.563  0.4261  0.2626  0.0425
   36TCq2    C6  552   1.366   0.599  11.629  0.5180 -0.2106 -0.4529
   36TCq2    C7  553   1.462   0.677  11.572 -0.5651  0.2883  0.1678
   36TCq2    C8  554   1.404   0.543  11.756 -0.0181 -0.3306  1.6462
   36TCq2    O4  555   1.526   0.556  11.778  0.4331 -0.6664  0.5053
   36TCq2    C9  556   1.132   0.532  11.358  0.0126 -0.0018 -0.3994
   36TCq2    O5  557   1.131   0.547  11.231  0.2348  0.6292  0.3800
   36TCq2    O6  558   1.038   0.479  11.427 -0.5597 -0.6118  1.1055
   36TCq2    H2  559   1.339   0.687  11.266 -0.6916 -2.5660  0.2171
   36TCq2    H3  560   1.194   0.473  11.608 -2.0190  0.2651 -3.3676
   36TCq2    H4  561   1.552   0.710  11.622 -0.2614 -0.8242  0.3604
   37TMC2    C1  562   4.067   2.174  11.558 -0.2307  0.3438 -0.1968
   37TMC2    C2  563   4.045   2.285  11.484 -0.4117  0.2941 -0.1669
   37TMC2    C3  564   4.120   2.303  11.371 -0.0766  0.7073  0.2305
   37TMC2    C4  565   4.160   2.080  11.530 -0.0652  0.2383  0.4755
   37TMC2    C5  566   4.249   2.111  11.432  0.4152 -0.3310 -0.0376
   37TMC2    C6  567   4.234   2.226  11.355 -0.0726  0.0362 -0.0229
   37TMC2     C  568   3.963   2.145  11.651 -0.4006  0.4823 -0.2610
   37TMC2     O  569   3.860   2.214  11.644  0.1379  0.5657 -0.0308
   37TMC2     H  570   3.958   2.350  11.495  0.3575  0.7745  2.8654
   37TMC2    H1  571   4.181   2.000  11.599  0.9898 -2.1054 -2.5301
   37TMC2    H2  572   4.310   2.254  11.282 -1.9886  1.8610 -1.3248
   37TMC2    C7  573   4.383   2.045  11.445 -0.0016  0.1870 -0.0669
   37TMC2    C8  574   4.113   2.434  11.310 -0.0050 -0.1146 -0.2156
   37TMC2    O1  575   4.409   1.987  11.549  0.2512  0.0677 -0.1274
   37TMC2    O2  576   4.067   2.535  11.361  0.0282  0.3673  0.1612
   37TMC2    O5  577   4.150   2.418  11.180 -0.1660 -0.5983 -0.3120
   37TMC2    H5  578   4.183   2.329  11.155 -0.4793 -0.7401 -0.2061
   38MPD2     C  579   3.773   1.940  12.086  0.1842  0.2797 -0.0529
   38MPD2    C1  580   3.907   1.907  12.078 -0.2341  0.2126  0.4985
   38MPD2    C2  581   3.980   1.940  11.967  0.0766  0.2590 -0.7287
   38MPD2    C3  582   3.923   2.009  11.862  0.1493  0.0411  0.5484
   38MPD2    C4  583   3.789   2.040  11.872  0.3798  0.6751 -0.2902
   38MPD2    C5  584   3.719   2.001  11.982  0.0959 -0.1944 -0.6518
   38MPD2     H  585   4.087   1.932  11.981 -0.0058  1.6130  0.6212
   38MPD2    H1  586   3.740   2.106  11.802 -1.2148 -2.2778 -1.9572
   38MPD2    H2  587   3.709   1.907  12.167 -0.9316 -1.6090 -1.6903
   38MPD2    H3  588   3.613   2.024  11.986 -0.2121 -1.1540 -3.2300
   38MPD2     N  589   4.008   2.063  11.757  0.0619  0.1652  0.0473
   38MPD2    H5  590   4.106   2.037  11.765  0.5705  1.7082 -1.2445
   38MPD2    N1  591   3.976   1.847  12.189  0.8300  0.0684 -0.7049
   38MPD2    H7  592   4.076   1.829  12.181  0.7992 -0.5672  0.2805
   39MPD2     C  593   2.746   3.319   1.328  0.2790  0.2115  0.4908
   39MPD2    C1  594   2.636   3.341   1.406  0.1438  0.1348  0.1738
   39MPD2    C2  595   2.527   3.382   1.347 -0.0233 -0.0677  0.0612
   39MPD2    C3  596   2.515   3.391   1.209 -0.5364  0.7796 -0.3187
   39MPD2    C4  597   2.622   3.372   1.125 -0.1393  0.0915  0.1560
   39MPD2    C5  598   2.740   3.330   1.187  0.0006 -0.0685 -0.0615
   39MPD2     H  599   2.438   3.407   1.404  1.3073 -0.3906  2.2768
   39MPD2    H1  600   2.607   3.370   1.018 -0.6240 -0.6732  0.2328
   39MPD2    H2  601   2.840   3.288   1.372 -0.6015 -3.6034 -0.3211
   39MPD2    H3  602   2.833   3.308   1.136 -0.8072 -0.2549 -1.4528
   39MPD2     N  603   2.396   3.435   1.144  0.1929 -0.2642  0.5502
   39MPD2    H5  604   2.400   3.446   1.043  0.5364  1.3824  0.7431
   39MPD2    N1  605   2.648   3.309   1.543 -0.2680 -0.3214  0.6318
   39MPD2    H7  606   2.739   3.276   1.574  1.1081  1.2236 -1.6277
   40TCq2    C1  607   2.547   3.306   1.638  0.1849  0.8080  0.5077
   40TCq2    O2  608   2.430   3.328   1.627  0.3476  0.0214  0.0476
   40TCq2    C2  609   2.575   3.241   1.766 -0.3220  0.2343  0.1930
   40TCq2    C3  610   2.478   3.223   1.865  0.2816  0.1215 -0.3940
   40TCq2    C4  611   2.502   3.144   1.978  0.1480 -1.0337  0.5379
   40TCq2    C5  612   2.621   3.080   1.995  0.1272 -0.1374  0.1782
   40TCq2    C6  613   2.719   3.097   1.897  0.1017 -0.8131 -0.3035
   40TCq2    C7  614   2.691   3.168   1.781 -0.2805 -0.8533 -0.4476
   40TCq2    C8  615   2.851   3.038   1.936  0.3224 -0.0297  0.7518
   40TCq2    O4  616   2.850   2.941   2.011  0.6062  0.5661  0.3796
   40TCq2    C9  617   2.394   3.123   2.077  0.1470  0.2290  0.2180
   40TCq2    O5  618   2.297   3.205   2.080  0.5838 -0.2693 -0.4360
   40TCq2    O6  619   2.427   3.048   2.172 -0.3747  0.4718  0.1912
   40TCq2    H2  620   2.382   3.272   1.870 -0.4008 -1.1489 -1.0997
   40TCq2    H3  621   2.645   3.022   2.083 -1.4248  1.8709  1.9220
   40TCq2    H4  622   2.769   3.165   1.705  0.0754 -0.6153 -0.0883
   41TMC2    C1  623   1.359   1.467  13.129  0.2768  0.4396  0.0967
   41TMC2    C2  624   1.285   1.470  13.013  0.3879  0.4076  0.2805
   41TMC2    C3  625   1.322   1.559  12.916  0.5542 -0.7824 -0.4374
   41TMC2    C4  626   1.458   1.562  13.156 -0.3181  0.5226  0.2022
   41TMC2    C5  627   1.492   1.648  13.051  0.7144  0.0636 -0.0965
   41TMC2    C6  628   1.420   1.650  12.930  0.1782 -0.1446  0.0019
   41TMC2     C  629   1.359   1.335  13.192 -0.5434 -0.2401  0.0030
   41TMC2     O  630   1.324   1.242  13.121 -0.4082 -0.8792  0.8739
   41TMC2     H  631   1.214   1.391  12.993 -1.3145  2.5341 -2.0484
   41TMC2    H1  632   1.538   1.538  13.225  0.8733  1.0257 -1.0098
   41TMC2    H2  633   1.451   1.713  12.847  0.8470 -1.5791 -0.8229
   41TMC2    C7  634   1.636   1.693  13.046  0.1129  0.4341 -0.5519
   41TMC2    C8  635   1.280   1.525  12.791 -0.0687  0.7706 -0.1115
   41TMC2    O1  636   1.694   1.736  13.145 -0.4250 -0.0432  0.0823
   41TMC2    O2  637   1.346   1.557  12.693  0.0911  0.8346 -0.5818
   41TMC2    O5  638   1.144   1.543  12.801  0.1977  0.3434 -0.1634
   41TMC2    H5  639   1.112   1.520  12.891 -1.4294  0.4625 -0.7077
   42MPD2     C  640   1.389   1.092  13.370 -0.6031  0.6086  0.1797
   42MPD2    C1  641   1.421   1.222  13.402 -0.9490  0.2619 -0.1966
   42MPD2    C2  642   1.485   1.250  13.516 -0.2055  0.6195 -0.3352
   42MPD2    C3  643   1.507   1.149  13.613  1.2275 -0.4188  0.0780
   42MPD2    C4  644   1.459   1.027  13.585 -0.3598  0.2710  0.1707
   42MPD2    C5  645   1.410   0.991  13.461 -0.2223  0.6800 -1.1863
   42MPD2     H  646   1.517   1.353  13.529  0.9679  0.3115 -0.8433
   42MPD2    H1  647   1.459   0.949  13.660  0.3876  0.4589  0.3699
   42MPD2    H2  648   1.354   1.061  13.272 -1.7041  0.7371  0.5255
   42MPD2    H3  649   1.389   0.887  13.438 -2.5042  0.7533  0.5987
   42MPD2     N  650   1.559   1.169  13.743  0.2105 -0.1298  0.1960
   42MPD2    H5  651   1.551   1.098  13.815 -0.1855  0.0888  0.3712
   42MPD2    N1  652   1.401   1.337  13.321  1.0591  0.2645  0.0180
   42MPD2    H7  653   1.418   1.429  13.360  1.0350  0.3439 -0.1586
   43MPD2     C  654   2.913   4.614   0.589 -0.7491 -0.2824  0.0719
   43MPD2    C1  655   2.988   4.616   0.702  0.0796  0.1537  0.3356
   43MPD2    C2  656   2.975   4.717   0.801  0.6303  0.1441  0.4518
   43MPD2    C3  657   2.865   0.078   0.789 -0.0734  0.2383  0.2245
   43MPD2    C4  658   2.778   0.055   0.679 -0.4860  0.1390 -0.1141
   43MPD2    C5  659   2.799   4.687   0.582 -0.3872 -0.0831 -0.0261
   43MPD2     H  660   3.034   4.714   0.892  1.0765  0.4362  0.1700
   43MPD2    H1  661   2.689   0.116   0.678  0.6067  1.7420  1.8379
   43MPD2    H2  662   2.926   4.544   0.508  0.4301  0.0167 -0.0044
   43MPD2    H3  663   2.725   4.666   0.506 -0.8797 -0.4737  0.5622
   43MPD2     N  664   2.821   0.172   0.885 -0.1311  0.2425  0.5866
   43MPD2    H5  665   2.733   0.217   0.861 -0.6884 -1.0215  0.2517
   43MPD2    N1  666   3.093   4.520   0.734 -0.2087  0.8032  0.2284
   43MPD2    H7  667   3.158   4.555   0.805  0.0742  3.2903 -1.2372
   44TCq2    C1  668   2.796   0.328   1.460 -0.6313 -0.5070 -0.1487
   44TCq2    O2  669   2.832   0.212   1.483 -0.2574 -0.4661  0.1614
   44TCq2    C2  670   2.791   0.370   1.321  0.1429 -0.4364 -0.4849
   44TCq2    C3  671   2.701   0.467   1.271 -0.0744  0.4523  0.0029
   44TCq2    C4  672   2.672   0.480   1.139  0.4415 -0.5589  0.0591
   44TCq2    C5  673   2.725   0.393   1.049  0.1425  0.3480 -0.2440
   44TCq2    C6  674   2.809   0.299   1.095  0.1519 -0.0146  0.8380
   44TCq2    C7  675   2.844   0.289   1.228  0.3029  0.6830 -0.7392
   44TCq2    C8  676   2.879   0.205   1.005 -0.1138  0.0247 -0.3282
   44TCq2    O4  677   2.970   0.144   1.060 -0.4533  0.3964  0.5972
   44TCq2    C9  678   2.610   0.604   1.089 -0.0761 -0.6326 -0.8426
   44TCq2    O5  679   2.579   0.613   0.966  0.3470  0.0515  0.0658
   44TCq2    O6  680   2.565   0.692   1.169  0.3439 -0.1124 -0.3919
   44TCq2    H2  681   2.646   0.530   1.338 -0.2137  0.8402 -0.4779
   44TCq2    H3  682   2.706   0.397   0.942 -0.1812 -0.9273 -0.2355
   44TCq2    H4  683   2.906   0.208   1.264  0.9567  1.9737  1.0535
   45TMC2    C1  684   3.600   1.933   9.562  0.3902 -0.4299  0.2208
   45TMC2    C2  685   3.560   1.947   9.431 -0.1538  0.2224 -0.2247
   45TMC2    C3  686   3.654   1.976   9.344 -0.8142  0.0735 -0.5835
   45TMC2    C4  687   3.728   1.964   9.603  0.2257  0.8641  0.1964
   45TMC2    C5  688   3.816   1.990   9.500 -0.1523  0.0262  0.3144
   45TMC2    C6  689   3.787   1.996   9.370 -0.4012 -0.5117 -0.0687
   45TMC2     C  690   3.513   1.895   9.670  0.7328 -0.2577  0.2184
   45TMC2     O  691   3.569   1.870   9.778 -0.7267  0.2588  0.5551
   45TMC2     H  692   3.458   1.951   9.394 -1.0938 -1.9456  2.1487
   45TMC2    H1  693   3.759   1.952   9.705  0.0415 -1.4289 -0.0082
   45TMC2    H2  694   3.868   2.001   9.298 -1.2070  0.4334 -0.9002
   45TMC2    C7  695   3.959   1.999   9.545 -0.4927  0.4817 -0.3675
   45TMC2    C8  696   3.609   1.978   9.207  0.1326 -0.3430  0.2842
   45TMC2    O1  697   4.044   1.984   9.460 -0.0675 -0.1220 -0.7724
   45TMC2    O2  698   3.503   1.927   9.178  0.1156 -0.4152  0.7207
   45TMC2    O5  699   3.689   2.053   9.124  0.6759  0.1718 -0.0264
   45TMC2    H5  700   3.759   2.108   9.166  0.0541  0.2960  0.8455
   46MPD2     C  701   3.331   1.710   9.811  0.6798  1.0102 -0.1575
   46MPD2    C1  702   3.291   1.793   9.714  0.1385 -0.1392  0.8663
   46MPD2    C2  703   3.154   1.800   9.679 -0.3509  0.3372 -0.3809
   46MPD2    C3  704   3.054   1.719   9.740 -1.0268 -1.0070  0.3920
   46MPD2    C4  705   3.103   1.638   9.840  0.3219  0.0600  0.0063
   46MPD2    C5  706   3.237   1.633   9.876  0.6652 -0.5549  0.2189
   46MPD2     H  707   3.126   1.872   9.603 -0.3887  1.3356  0.5756
   46MPD2    H1  708   3.033   1.579   9.897 -0.3174 -0.5902 -1.4529
   46MPD2    H2  709   3.435   1.693   9.836  0.9026  3.4083  0.5390
   46MPD2    H3  710   3.273   1.571   9.957 -1.3772 -0.5153  1.1340
   46MPD2     N  711   2.918   1.734   9.711 -1.0009  0.2568  0.2255
   46MPD2    H5  712   2.902   1.817   9.655 -1.5966 -0.3900 -0.5513
   46MPD2    N1  713   3.386   1.870   9.640  0.3121  0.1652 -1.1019
   46MPD2    H7  714   3.345   1.890   9.549  0.2884  1.9865 -0.6868
   47TMC2    C1  715   1.576   3.060   9.367 -0.3017  0.4366  0.0255
   47TMC2    C2  716   1.649   3.008   9.260 -0.8903  0.2627  0.7819
   47TMC2    C3  717   1.587   2.986   9.146 -0.2659 -0.2818 -0.3236
   47TMC2    C4  718   1.441   3.091   9.360  0.3741 -0.0081 -0.4510
   47TMC2    C5  719   1.380   3.053   9.244  1.2235 -0.8064  0.5082
   47TMC2    C6  720   1.450   3.000   9.138  0.1964 -0.3252  0.2066
   47TMC2     C  721   1.640   3.058   9.498  0.3271  0.2222  0.1756
   47TMC2     O  722   1.595   3.130   9.586  0.3059  0.3123 -0.2957
   47TMC2     H  723   1.757   3.006   9.266 -0.8753 -1.8585 -0.3461
   47TMC2    H1  724   1.387   3.136   9.442  2.5694  0.5498  0.6886
   47TMC2    H2  725   1.409   2.988   9.038  1.4169  0.8200 -0.4248
   47TMC2    C7  726   1.236   3.035   9.250  0.0701  0.1028  0.4608
   47TMC2    C8  727   1.657   2.921   9.040 -0.2416  0.1458  0.3862
   47TMC2    O1  728   1.181   3.112   9.326  0.0906  0.3377  0.1190
   47TMC2    O2  729   1.614   2.921   8.927 -0.4213  0.0721  0.0055
   47TMC2    O5  730   1.719   2.819   9.101  0.2710 -0.1028  0.0178
   47TMC2    H5  731   1.708   2.816   9.199 -0.8205 -1.6986 -0.1534
   48MPD2     C  732   1.815   3.021   9.736  0.4501 -0.2461  0.1904
   48MPD2    C1  733   1.823   2.949   9.622 -0.0577  0.2957 -0.0688
   48MPD2    C2  734   1.914   2.842   9.626 -1.1781 -0.1087 -0.0417
   48MPD2    C3  735   1.983   2.810   9.740  0.4193  0.3125 -0.5508
   48MPD2    C4  736   1.971   2.884   9.852  0.2070  0.4625  0.5814
   48MPD2    C5  737   1.891   2.991   9.844 -0.2023  0.2375  0.5440
   48MPD2     H  738   1.919   2.778   9.539 -3.1938 -0.7326  0.2985
   48MPD2    H1  739   2.029   2.860   9.941  2.5077  0.0445 -1.0438
   48MPD2    H2  740   1.762   3.116   9.733  2.5098  0.9519  2.0833
   48MPD2    H3  741   1.898   3.063   9.924 -2.0728  1.3160 -0.2579
   48MPD2     N  742   2.061   2.693   9.738  0.2552  0.0650 -0.2940
   48MPD2    H5  743   2.077   2.642   9.652 -0.1130  1.3227 -1.0987
   48MPD2    N1  744   1.743   2.970   9.504 -0.4282 -0.3716  0.4424
   48MPD2    H7  745   1.760   2.909   9.425  0.3986 -0.0427  0.3716
   49MPD2     C  746   0.276   4.704  10.323 -1.2340  0.8741  0.3253
   49MPD2    C1  747   0.173   4.679  10.407  0.1943  0.4244 -0.2502
   49MPD2    C2  748   0.197   4.635  10.536 -0.0022  0.0410 -0.3579
   49MPD2    C3  749   0.330   4.630  10.586 -0.4174 -0.1298  0.4511
   49MPD2    C4  750   0.427   4.644  10.495 -0.7827 -0.7861 -0.1319
   49MPD2    C5  751   0.402   4.684  10.369 -0.4279 -0.0150 -0.2317
   49MPD2     H  752   0.116   4.630  10.608 -0.6968  1.3359 -1.0479
   49MPD2    H1  753   0.531   4.626  10.519 -1.0704  0.0714  1.7503
   49MPD2    H2  754   0.277   0.026  10.223 -1.2994  1.4203  0.5533
   49MPD2    H3  755   0.485   4.697  10.301 -0.7067  1.1622 -0.3544
   49MPD2     N  756   0.368   4.625  10.724  0.0159 -0.0023  0.3647
   49MPD2    H5  757   0.464   4.600  10.746 -0.1239 -0.5811  0.3291
   49MPD2    N1  758   0.039   4.702  10.367 -0.1784  0.1284 -0.1018
   49MPD2    H7  759   4.697   4.708  10.447 -0.1724  2.2974 -0.2378
   50TCq2    C1  760   0.001   0.011  10.238 -0.1617  1.2546  0.1413
   50TCq2    O2  761   0.074   0.022  10.140  0.2631 -0.4842  0.0097
   50TCq2    C2  762   4.576   0.040  10.228 -0.3431 -1.5668 -0.3510
   50TCq2    C3  763   4.537   0.122  10.116 -0.3464  0.3458  0.0068
   50TCq2    C4  764   4.408   0.175  10.123 -0.2122 -0.1050  0.5766
   50TCq2    C5  765   4.324   0.131  10.219 -0.0093 -0.7626  0.0899
   50TCq2    C6  766   4.357   0.029  10.310  0.3363  0.6090 -0.3575
   50TCq2    C7  767   4.492   4.718  10.327  0.1934  0.1072 -0.3058
   50TCq2    C8  768   4.267   4.710  10.411  0.1520 -0.0648  0.2567
   50TCq2    O4  769   4.310   4.642  10.503 -0.3243 -0.6955  0.0938
   50TCq2    C9  770   4.378   0.290  10.044  0.5714  0.3025 -0.0801
   50TCq2    O5  771   4.278   0.353  10.091 -0.3586  0.4392 -0.0200
   50TCq2    O6  772   4.460   0.348   9.964 -1.0666 -0.1121 -0.1960
   50TCq2    H2  773   4.603   0.157  10.038 -0.0610  2.2274  1.1210
   50TCq2    H3  774   4.226   0.177  10.224  0.4152 -0.1523  3.1344
   50TCq2    H4  775   4.514   4.630  10.387 -2.0027 -1.0428 -1.1395
   51MPD2     C  776   0.734   3.633   1.235  0.3658 -0.7335  0.7127
   51MPD2    C1  777   0.606   3.600   1.196 -0.2638  0.0160 -0.2070
   51MPD2    C2  778   0.508   3.690   1.234 -0.4911 -0.1482  0.3638
   51MPD2    C3  779   0.527   3.798   1.315 -0.1986  0.1603 -0.1888
   51MPD2    C4  780   0.657   3.834   1.344 -0.2288 -0.0846 -0.8510
   51MPD2    C5  781   0.757   3.747   1.313  0.2551  0.4342  0.0052
   51MPD2     H  782   0.402   3.677   1.215 -0.4087 -0.3580  0.0573
   51MPD2    H1  783   0.675   3.929   1.392  1.6805 -0.6364 -0.4748
   51MPD2    H2  784   0.820   3.568   1.244  0.7174 -0.2696  0.6776
   51MPD2    H3  785   0.860   3.772   1.338  0.6586 -2.4306  1.1638
   51MPD2     N  786   0.423   3.887   1.366 -0.2457  0.1130  0.7666
   51MPD2    H5  787   0.462   3.966   1.418  0.8675  0.0085  0.1011
   51MPD2    N1  788   0.568   3.486   1.119 -0.0330  0.3334  0.2786
   51MPD2    H7  789   0.468   3.476   1.105  0.1054 -1.1749  0.4099
   52TCq2    C1  790   0.288   3.870   1.340  0.4566 -0.7881  0.2606
   52TCq2    O2  791   0.227   3.786   1.278  1.0991  0.2304 -0.3666
   52TCq2    C2  792   0.208   3.979   1.399  0.0987  0.1190  0.1247
   52TCq2    C3  793   0.088   3.985   1.349 -0.4591  0.0899 -0.1436
   52TCq2    C4  794   4.719   4.072   1.411 -0.2696 -0.6204 -0.9016
   52TCq2    C5  795   0.024   4.137   1.524  0.1454  0.5188  0.3868
   52TCq2    C6  796   0.154   4.120   1.581 -0.1773  0.7933 -0.2625
   52TCq2    C7  797   0.253   4.044   1.519  0.3624  0.4129  0.0357
   52TCq2    C8  798   0.203   4.196   1.695  0.6241  0.0453  0.1764
   52TCq2    O4  799   0.322   4.190   1.720 -0.2098 -0.4687 -0.0108
   52TCq2    C9  800   4.593   4.104   1.351 -0.8177  0.4499  0.3730
   52TCq2    O5  801   4.581   4.085   1.229 -0.3570  0.4447  0.7481
   52TCq2    O6  802   4.512   4.169   1.421  0.6182 -0.0463  0.1473
   52TCq2    H2  803   0.055   3.936   1.258 -1.0675 -0.7541  0.5408
   52TCq2    H3  804   4.675   4.216   1.552  1.2058  1.1642  1.1560
   52TCq2    H4  805   0.349   4.018   1.562 -0.0681  0.0442  0.7743
   53TMC2    C1  806   0.343   1.892  11.689 -0.2514 -0.4132  0.0958
   53TMC2    C2  807   0.465   1.948  11.718  0.3870 -0.1712 -0.1661
   53TMC2    C3  808   0.481   2.003  11.840  0.0436  0.1387  0.3749
   53TMC2    C4  809   0.244   1.896  11.782  0.1384 -0.3931  0.1820
   53TMC2    C5  810   0.259   1.954  11.903 -0.0706 -0.3030  0.8922
   53TMC2    C6  811   0.376   2.020  11.924  0.2488 -0.3863 -0.3130
   53TMC2     C  812   0.298   1.927  11.551 -0.0737  0.0415 -0.0894
   53TMC2     O  813   0.392   1.959  11.475 -0.0123 -0.1933 -0.0468
   53TMC2     H  814   0.540   1.952  11.640 -0.5594 -0.7356 -1.1044
   53TMC2    H1  815   0.151   1.845  11.758 -1.2092  1.6708  1.0341
   53TMC2    H2  816   0.397   2.066  12.020  0.2794 -1.8033  0.3621
   53TMC2    C7  817   0.133   2.011  11.951 -0.2021 -0.2260  0.3908
   53TMC2    C8  818   0.607   1.989  11.906 -0.8276  0.4124 -0.5031
   53TMC2    O1  819   0.048   2.020  11.868  0.2437 -0.3405 -0.1849
   53TMC2    O2  820   0.639   2.075  11.987  0.4336 -0.3454  0.2128
   53TMC2    O5  821   0.670   1.889  11.840  0.5767  0.2736 -1.0854
   53TMC2    H5  822   0.618   1.817  11.799 -1.6400  0.2353  1.7351
   54MPD2     C  823   0.144   1.972  11.297  0.3652 -0.2368  0.4317
   54MPD2    C1  824   0.090   1.983  11.421  0.3884  0.2816  0.0930
   54MPD2    C2  825   4.675   2.011  11.429  0.2811  0.3161  0.0942
   54MPD2    C3  826   4.593   2.034  11.322  0.0697  0.0989  0.3295
   54MPD2    C4  827   4.658   2.042  11.200  0.4179  0.6164  0.4809
   54MPD2    C5  828   0.071   2.010  11.187 -0.2378  0.3370 -0.1492
   54MPD2     H  829   4.644   2.020  11.533  1.2068 -0.0583  0.4120
   54MPD2    H1  830   4.612   2.067  11.105 -0.6353 -0.7697  0.6345
   54MPD2    H2  831   0.243   1.932  11.276  0.6327  0.6192  0.0307
   54MPD2    H3  832   0.117   2.000  11.089 -0.8848  2.0022 -0.6229
   54MPD2     N  833   4.455   2.058  11.331 -0.3979  0.1119 -0.2857
   54MPD2    H5  834   4.405   2.061  11.243  2.9611  1.5725 -2.1377
   54MPD2    N1  835   0.158   1.954  11.540  0.2199 -0.0285  0.1237
   54MPD2    H7  836   0.103   1.954  11.625 -2.7254  1.9191 -1.8029
   55MPD2     C  837   1.186   0.129  17.135 -0.6419 -0.3878  0.1069
   55MPD2    C1  838   1.219   0.040  17.242  0.4742  0.0391  0.4674
   55MPD2    C2  839   1.185   0.088  17.366 -0.1668  0.7668 -0.3126
   55MPD2    C3  840   1.107   0.200  17.386  0.3581 -0.2781  0.6898
   55MPD2    C4  841   1.074   0.278  17.275  0.2778  0.0588  0.0061
   55MPD2    C5  842   1.126   0.251  17.152  0.6389 -0.2874 -0.3074
   55MPD2     H  843   1.201   0.046  17.464  0.9807 -0.0789 -0.8640
   55MPD2    H1  844   1.009   0.365  17.279  0.7839  0.3355  2.3141
   55MPD2    H2  845   1.201   0.089  17.036 -3.0939  1.1213 -0.8645
   55MPD2    H3  846   1.107   0.300  17.057 -0.4020 -0.8079 -0.3696
   55MPD2     N  847   1.076   0.237  17.519  0.3317  0.5239 -0.2237
   55MPD2    H5  848   1.115   0.171  17.586 -1.8295 -0.2062  0.3238
   55MPD2    N1  849   1.289   4.637  17.220  0.2953  0.8439 -1.4442
   55MPD2    H7  850   1.310   4.610  17.124 -0.4438 -2.6847 -0.6104
   56TCq2    C1  851   1.306   4.551  17.325 -0.3237  1.0257 -0.0115
   56TCq2    O2  852   1.291   4.569  17.448 -0.4600  0.4827  0.2278
   56TCq2    C2  853   1.350   4.410  17.287 -0.3237  0.1089 -0.0283
   56TCq2    C3  854   1.335   4.357  17.161 -0.1476 -0.0069 -0.5627
   56TCq2    C4  855   1.342   4.215  17.143 -0.2708  0.0519  0.1058
   56TCq2    C5  856   1.359   4.138  17.251 -0.6254 -0.6536 -0.1365
   56TCq2    C6  857   1.352   4.184  17.379 -0.4128 -0.3168 -0.0771
   56TCq2    C7  858   1.339   4.320  17.399  0.5369  0.3200 -0.1836
   56TCq2    C8  859   1.382   4.090  17.492 -0.5095 -0.6827 -0.5324
   56TCq2    O4  860   1.435   3.980  17.462 -0.0308  1.1982 -0.0872
   56TCq2    C9  861   1.361   4.153  17.013  0.0590  0.0667 -0.2410
   56TCq2    O5  862   1.385   4.220  16.911 -0.3230 -0.0984  0.6012
   56TCq2    O6  863   1.365   4.024  17.011 -0.6391  0.7837  0.6246
   56TCq2    H2  864   1.323   4.430  17.082 -1.6811  1.8786  1.4250
   56TCq2    H3  865   1.378   4.032  17.236  0.6696 -0.5467  0.6856
   56TCq2    H4  866   1.362   4.361  17.497  3.0340 -0.1011 -0.6001
   57TMC2    C1  867   0.178   1.051  13.648 -0.1444  0.0536 -0.5255
   57TMC2    C2  868   0.251   1.009  13.761 -0.0074 -0.4340 -0.2255
   57TMC2    C3  869   0.356   0.924  13.729  0.9489 -0.4489 -0.0875
   57TMC2    C4  870   0.212   1.015  13.522 -0.2145  0.3170 -0.5848
   57TMC2    C5  871   0.315   0.924  13.500 -0.6136  0.4730 -0.4781
   57TMC2    C6  872   0.399   0.888  13.602 -0.9165 -0.0947  0.5571
   57TMC2     C  873   0.056   1.127  13.679  0.4841 -0.1402  0.7247
   57TMC2     O  874   0.004   1.192  13.590  0.3991  0.5403 -0.5904
   57TMC2     H  875   0.240   1.060  13.856  1.0118  1.6853 -1.2332
   57TMC2    H1  876   0.151   1.053  13.442 -0.8022 -1.3259 -0.9139
   57TMC2    H2  877   0.495   0.840  13.590 -1.5550 -0.8783 -1.4427
   57TMC2    C7  878   0.353   0.916  13.364  0.6737  0.4288  0.2251
   57TMC2    C8  879   0.439   0.880  13.833 -0.6650  0.3893 -0.4438
   57TMC2    O1  880   0.322   1.003  13.286  0.2430 -0.1203 -0.3171
   57TMC2    O2  881   0.422   0.931  13.943  0.3048  0.7139  0.1088
   57TMC2    O5  882   0.454   0.752  13.798 -0.0920  0.5240  0.1086
   57TMC2    H5  883   0.395   0.729  13.724 -0.4802 -2.9717  1.5184
   58MPD2     C  884   4.400   1.262  14.005 -0.8588  0.0540  0.3478
   58MPD2    C1  885   4.438   1.313  13.883 -0.1070 -0.2006 -0.3791
   58MPD2    C2  886   4.543   1.255  13.811  0.6090 -0.7282 -0.6870
   58MPD2    C3  887   4.624   1.155  13.869 -0.0111 -0.2022 -0.4954
   58MPD2    C4  888   4.590   1.106  13.997  0.1167 -0.5163  0.1014
   58MPD2    C5  889   4.477   1.159  14.060 -0.0443  0.0022  0.6593
   58MPD2     H  890   4.565   1.277  13.707 -0.6488  0.3428 -0.7272
   58MPD2    H1  891   4.657   1.030  14.036  2.3999  1.2206 -0.4093
   58MPD2    H2  892   4.324   1.313  14.064 -0.8052  0.3434  0.1642
   58MPD2    H3  893   4.456   1.123  14.160  0.6751  1.1955  1.2366
   58MPD2     N  894   0.011   1.092  13.805  0.0386  0.2677 -0.3009
   58MPD2    H5  895   0.057   1.017  13.856 -0.9575  0.5658  1.0292
   58MPD2    N1  896   4.363   1.412  13.813  0.0106 -0.7908 -0.7467
   58MPD2    H7  897   4.391   1.444  13.721  0.0446  0.3148 -0.3605
   59MPD2     C  898   2.819   0.549  13.090  0.2833 -0.1098 -0.0697
   59MPD2    C1  899   2.797   0.639  12.991  0.1655 -0.3953 -0.0244
   59MPD2    C2  900   2.875   0.755  12.991 -0.7485 -0.3363  0.3789
   59MPD2    C3  901   2.958   0.782  13.100 -0.0223 -0.2219 -0.0851
   59MPD2    C4  902   2.958   0.696  13.205  0.6881 -0.6376 -0.7352
   59MPD2    C5  903   2.897   0.574  13.199  0.0051 -0.0060 -0.8253
   59MPD2     H  904   2.878   0.823  12.906 -3.1947 -0.5347  0.1366
   59MPD2    H1  905   3.024   0.702  13.291  1.2334  0.5003 -1.2178
   59MPD2    H2  906   2.763   0.458  13.106 -0.8232  0.9442  2.0947
   59MPD2    H3  907   2.900   0.498  13.275 -1.6679  1.5688  0.8283
   59MPD2     N  908   3.021   0.908  13.124 -0.0763 -0.2082  0.8104
   59MPD2    H5  909   3.064   0.916  13.216  1.7746 -1.4801  0.0615
   59MPD2    N1  910   2.736   0.603  12.872  0.9164  0.9436 -0.2243
   59MPD2    H7  911   2.724   0.664  12.792 -2.0216 -0.2947 -0.7231
   60TCq2    C1  912   2.677   0.483  12.842  0.1047 -0.7363  0.0324
   60TCq2    O2  913   2.630   0.394  12.919 -0.2744  1.1401  0.2206
   60TCq2    C2  914   2.618   0.468  12.705 -0.1835 -0.0822  0.2583
   60TCq2    C3  915   2.496   0.414  12.695  0.3873  0.2298  0.8740
   60TCq2    C4  916   2.434   0.422  12.570  0.3042 -0.5760 -0.8847
   60TCq2    C5  917   2.482   0.485  12.464 -0.8123  0.2589 -0.6177
   60TCq2    C6  918   2.609   0.540  12.481 -0.5776 -0.8273  0.3103
   60TCq2    C7  919   2.676   0.529  12.598  0.0001  0.2402  0.4765
   60TCq2    C8  920   2.675   0.627  12.378 -0.1732  0.0963 -0.4589
   60TCq2    O4  921   2.795   0.631  12.395 -0.2155 -0.0734 -0.0308
   60TCq2    C9  922   2.300   0.358  12.569  0.0167 -0.7685  0.7704
   60TCq2    O5  923   2.276   0.281  12.478  0.2157 -0.5731  0.0397
   60TCq2    O6  924   2.252   0.336  12.684  0.1208 -0.3555 -0.0869
   60TCq2    H2  925   2.450   0.366  12.781  1.0128 -0.1763  0.9805
   60TCq2    H3  926   2.421   0.492  12.374  0.2335  0.2418 -1.3377
   60TCq2    H4  927   2.767   0.585  12.617  0.1879  0.9225 -2.3677
   61MPD2     C  928   1.763   1.740  15.476 -0.0212  0.1182 -0.1017
   61MPD2    C1  929   1.856   1.837  15.479  0.0151 -0.2774 -0.8901
   61MPD2    C2  930   1.896   1.906  15.365 -0.0626  0.1136  0.3684
   61MPD2    C3  931   1.848   1.859  15.246 -0.0579 -0.1394  0.0321
   61MPD2    C4  932   1.762   1.747  15.240 -0.1929 -0.2843  0.0937
   61MPD2    C5  933   1.723   1.685  15.358  0.2197 -0.5013 -0.3196
   61MPD2     H  934   1.961   1.993  15.368  2.4934 -1.8023  1.3594
   61MPD2    H1  935   1.723   1.703  15.149  1.6918  0.2532 -0.9702
   61MPD2    H2  936   1.733   1.687  15.566 -0.4033 -0.8516 -0.8048
   61MPD2    H3  937   1.655   1.601  15.352 -0.9282  0.3777  0.4303
   61MPD2     N  938   1.889   1.922  15.124  0.0336 -0.2976  0.0275
   61MPD2    H5  939   1.963   1.990  15.141  1.9037 -2.3345  0.0303
   61MPD2    N1  940   1.916   1.883  15.602 -0.1943  0.2199  0.1427
   61MPD2    H7  941   1.974   1.965  15.606  1.8342 -1.2375  0.6302
   62TCq2    C1  942   1.911   1.822  15.728  0.6129 -0.1701 -0.9591
   62TCq2    O2  943   1.863   1.721  15.771 -0.0339  0.0955  0.7709
   62TCq2    C2  944   1.968   1.912  15.831  0.5673 -0.3179 -0.5376
   62TCq2    C3  945   1.979   1.862  15.958 -0.0373 -0.6834  0.0316
   62TCq2    C4  946   2.042   1.947  16.043  0.1892  0.2620 -0.2722
   62TCq2    C5  947   2.080   2.074  16.010  0.4085 -0.0401 -0.1822
   62TCq2    C6  948   2.067   2.124  15.886 -0.7273  0.7907  0.4210
   62TCq2    C7  949   2.020   2.040  15.787 -0.3697  0.3172 -0.7065
   62TCq2    C8  950   2.109   2.255  15.844  0.5609  0.3284 -0.6207
   62TCq2    O4  951   2.099   2.285  15.728  0.6889 -0.1398 -0.2732
   62TCq2    C9  952   2.077   1.907  16.181 -0.2426 -0.2841 -0.4891
   62TCq2    O5  953   2.083   1.786  16.217  0.2658 -0.5208  0.4802
   62TCq2    O6  954   2.114   1.997  16.258 -0.4073  0.9042  0.2424
   62TCq2    H2  955   1.955   1.758  15.979 -2.5436 -0.4204 -1.5200
   62TCq2    H3  956   2.118   2.135  16.091 -0.0823 -0.3885  0.3112
   62TCq2    H4  957   2.010   2.081  15.687  3.0194 -1.0943 -1.6435
   63TMC2    C1  958   1.868   2.392  10.863  0.8021 -0.0138  0.0460
   63TMC2    C2  959   1.961   2.443  10.950 -0.6796  0.4249  0.5037
   63TMC2    C3  960   2.043   2.550  10.909  0.2784  0.6086  0.0193
   63TMC2    C4  961   1.869   2.434  10.730  0.5710  1.1506 -0.6058
   63TMC2    C5  962   1.955   2.537  10.696  0.7304  0.5603  0.4663
   63TMC2    C6  963   2.044   2.598  10.781  0.2125 -0.4235 -0.7341
   63TMC2     C  964   1.755   2.323  10.931 -0.4347  0.2618  0.3776
   63TMC2     O  965   1.743   2.338  11.058  0.5076 -0.3201 -0.3697
   63TMC2     H  966   1.952   2.425  11.056 -0.1376 -0.7681  0.3469
   63TMC2    H1  967   1.790   2.394  10.668  0.6199 -0.4530  0.3610
   63TMC2    H2  968   2.093   2.693  10.764 -0.2067  0.1505  1.2582
   63TMC2    C7  969   1.954   2.571  10.552 -0.1440  0.0344  0.1283
   63TMC2    C8  970   2.096   2.647  11.007 -0.3272 -0.6585 -1.2430
   63TMC2    O1  971   1.863   2.533  10.488 -0.7249 -0.3564  0.2726
   63TMC2    O2  972   2.112   2.765  10.990 -0.7934 -0.4189  0.2178
   63TMC2    O5  973   2.147   2.577  11.112  0.3981  0.2203 -0.1628
   63TMC2    H5  974   2.125   2.481  11.106  1.0312 -0.0359  1.5476
   64MPD2     C  975   1.414   1.951  10.977 -0.3979  0.5228  0.1936
   64MPD2    C1  976   1.470   1.944  10.853 -0.0229  0.4827  0.3325
   64MPD2    C2  977   1.563   2.036  10.808 -0.0268  0.2764 -0.2459
   64MPD2    C3  978   1.591   2.143  10.892  0.1100  0.4300  0.4467
   64MPD2    C4  979   1.525   2.154  11.015 -0.2410 -0.6351 -0.3680
   64MPD2    C5  980   1.440   2.056  11.059 -0.3160  0.7623  0.2630
   64MPD2     H  981   1.610   2.015  10.713 -0.9804 -0.5426 -0.5331
   64MPD2    H1  982   1.525   2.234  11.088 -1.7436 -0.7243 -0.2705
   64MPD2    H2  983   1.355   1.869  11.017 -0.4632  0.1132 -0.7510
   64MPD2    H3  984   1.391   2.053  11.155  0.8946 -0.6984  0.8437
   64MPD2     N  985   1.690   2.231  10.848  0.2014  0.4086 -0.5418
   64MPD2    H5  986   1.723   2.229  10.752  0.0256  1.2722 -0.6196
   64MPD2    N1  987   1.433   1.838  10.772  0.0384 -0.0373 -0.2117
   64MPD2    H7  988   1.478   1.837  10.681 -0.4879 -2.3297 -0.4384
   65MPD2     C  989   3.048   1.841  15.840  0.5996 -0.1765  0.1380
   65MPD2    C1  990   3.027   1.847  15.707  0.5589 -0.4610 -1.2642
   65MPD2    C2  991   2.974   1.738  15.645 -0.0915 -0.0070  0.6729
   65MPD2    C3  992   2.941   1.622  15.705  0.3282 -0.8187 -0.2881
   65MPD2    C4  993   2.954   1.618  15.841 -0.2511  0.5308 -0.0201
   65MPD2    C5  994   3.010   1.724  15.904  0.7532 -0.5962 -0.5684
   65MPD2     H  995   2.953   1.740  15.539  0.4794  3.7511  0.6376
   65MPD2    H1  996   2.916   1.543  15.908 -1.6512  2.2023  1.0573
   65MPD2    H2  997   3.107   1.918  15.888 -2.1110  1.8853  0.1769
   65MPD2    H3  998   3.028   1.702  16.008 -0.7064 -0.5745 -0.3109
   65MPD2     N  999   2.877   1.513  15.646  0.3143  0.4653  0.8216
   65MPD2    H5 1000   2.848   1.437  15.707  3.3054  0.0577  1.7306
   65MPD2    N1 1001   3.047   1.961  15.626 -0.7661  0.0124  0.3793
   65MPD2    H7 1002   3.009   1.963  15.532 -1.8649 -0.1033  0.8233
   66TCq2    C1 1003   3.093   2.079  15.667 -0.0240  0.1240 -0.3379
   66TCq2    O2 1004   3.115   2.117  15.780 -0.2311  0.2181  0.2605
   66TCq2    C2 1005   3.118   2.178  15.552  0.0945 -0.6837 -0.0222
   66TCq2    C3 1006   3.136   2.134  15.423  0.6069  0.2525  0.3712
   66TCq2    C4 1007   3.133   2.231  15.328  0.4190  0.5745 -0.0821
   66TCq2    C5 1008   3.125   2.361  15.351 -0.2237  0.4252 -0.0080
   66TCq2    C6 1009   3.126   2.396  15.481 -0.1776  1.0739  0.2968
   66TCq2    C7 1010   3.122   2.311  15.585 -0.6736  0.1749  0.4401
   66TCq2    C8 1011   3.091   2.537  15.497 -0.5197 -0.5971  0.0063
   66TCq2    O4 1012   3.031   2.594  15.407  0.0629 -0.4422  0.2196
   66TCq2    C9 1013   3.121   2.187  15.193 -0.7952  0.1751 -0.6120
   66TCq2    O5 1014   3.093   2.277  15.105 -0.1620 -0.1487 -0.1295
   66TCq2    O6 1015   3.143   2.064  15.170  0.6286  0.0071  0.0578
   66TCq2    H2 1016   3.129   2.029  15.395  0.9829  0.2022  0.4715
   66TCq2    H3 1017   3.126   2.443  15.281 -5.0817  1.3810  1.0886
   66TCq2    H4 1018   3.113   2.340  15.689 -1.0804  2.7753 -0.3276
   67MPD2     C 1019   2.506   0.885  14.352 -0.3575  0.3573  0.3147
   67MPD2    C1 1020   2.480   1.011  14.302 -0.1803 -0.3035  0.5266
   67MPD2    C2 1021   2.366   1.035  14.222  0.6748  0.0353 -0.0078
   67MPD2    C3 1022   2.287   0.933  14.181  0.4755 -0.4547  0.1375
   67MPD2    C4 1023   2.308   0.807  14.234 -0.2731 -0.0824 -0.0313
   67MPD2    C5 1024   2.417   0.787  14.313  0.6590  0.1452  0.2597
   67MPD2     H 1025   2.348   1.136  14.186 -0.4034 -0.1854 -0.0815
   67MPD2    H1 1026   2.249   0.718  14.213 -0.8437  0.6127 -1.3648
   67MPD2    H2 1027   2.589   0.862  14.417 -0.8746 -1.1714  0.4224
   67MPD2    H3 1028   2.448   0.689  14.348  0.9139  0.3245  0.5380
   67MPD2     N 1029   2.173   0.956  14.101 -0.2363  0.0432 -0.1090
   67MPD2    H5 1030   2.112   0.876  14.085 -0.8645  0.3541  0.7257
   67MPD2    N1 1031   2.569   1.118  14.327 -0.8433 -0.4853 -0.7469
   67MPD2    H7 1032   2.535   1.205  14.288 -0.7112  0.2229  0.6889
   68TCq2    C1 1033   2.691   1.116  14.395  0.1999  0.1352  0.0456
   68TCq2    O2 1034   2.757   1.019  14.428 -0.4098 -0.8109  0.0788
   68TCq2    C2 1035   2.732   1.245  14.449  0.7782  0.2541 -0.8195
   68TCq2    C3 1036   2.639   1.320  14.513  0.5574  0.4555 -0.8481
   68TCq2    C4 1037   2.677   1.415  14.602 -0.1632 -0.8845 -0.1606
   68TCq2    C5 1038   2.812   1.450  14.622  0.4682 -0.1609  0.0533
   68TCq2    C6 1039   2.903   1.373  14.554  0.0550  0.2293  0.4072
   68TCq2    C7 1040   2.871   1.265  14.480  0.3872  0.1285 -0.5492
   68TCq2    C8 1041   3.041   1.405  14.578  0.0645 -0.1292  0.8016
   68TCq2    O4 1042   3.123   1.384  14.487 -0.1799  0.1400  0.1474
   68TCq2    C9 1043   2.575   1.462  14.695 -0.8071 -0.6166  0.3543
   68TCq2    O5 1044   2.457   1.462  14.654 -0.0515 -0.0087 -0.2905
   68TCq2    O6 1045   2.609   1.491  14.811 -0.2713 -0.1883  0.7840
   68TCq2    H2 1046   2.532   1.305  14.501  0.4930 -0.6981  1.2361
   68TCq2    H3 1047   2.841   1.540  14.675 -1.3617  0.4093  0.0908
   68TCq2    H4 1048   2.951   1.203  14.440  0.2689 -0.8887  0.8116
   69TMC2    C1 1049   0.273   2.338  11.962 -0.4933 -0.9825 -0.4658
   69TMC2    C2 1050   0.260   2.324  11.824 -0.1469  0.2327  0.0361
   69TMC2    C3 1051   0.380   2.343  11.756 -0.3462  0.1602  1.0408
   69TMC2    C4 1052   0.393   2.354  12.027  0.1995  0.1666 -0.0142
   69TMC2    C5 1053   0.505   2.378  11.954  0.2834 -0.7695  0.4393
   69TMC2    C6 1054   0.504   2.352  11.816  0.0383  0.0820 -0.3678
   69TMC2     C 1055   0.153   2.358  12.049  0.3296  0.1448 -0.5832
   69TMC2     O 1056   0.156   2.338  12.170  0.5138  0.1390  0.0716
   69TMC2     H 1057   0.168   2.316  11.768 -0.2816 -2.0467  0.5928
   69TMC2    H1 1058   0.394   2.361  12.135  1.4642  1.8965 -0.1336
   69TMC2    H2 1059   0.598   2.361  11.763 -0.7135  2.5310 -1.2773
   69TMC2    C7 1060   0.634   2.398  12.014 -0.1319 -0.1530 -0.4267
   69TMC2    C8 1061   0.380   2.356  11.609  0.8309  0.9079 -0.6046
   69TMC2    O1 1062   0.727   2.406  11.935 -0.4668  0.6958  0.0190
   69TMC2    O2 1063   0.471   2.316  11.536  0.2792 -0.2323  0.1068
   69TMC2    O5 1064   0.255   2.388  11.565 -0.1216  0.3630 -0.2610
   69TMC2    H5 1065   0.214   2.449  11.629  2.7511  0.9405  1.0242
   70MPD2     C 1066   4.574   2.545  11.953  0.3126  0.4595 -0.5478
   70MPD2    C1 1067   4.654   2.468  12.032  0.0473  0.3587 -0.2451
   70MPD2    C2 1068   4.603   2.424  12.156 -0.1616 -0.6371 -0.6275
   70MPD2    C3 1069   4.482   2.472  12.209  0.1389  0.0796 -0.4971
   70MPD2    C4 1070   4.416   2.567  12.139  0.1777 -0.0518  0.4351
   70MPD2    C5 1071   4.459   2.596  12.006 -0.3674  0.4261  0.3336
   70MPD2     H 1072   4.656   2.342  12.203  1.0656  0.5443  0.0427
   70MPD2    H1 1073   4.322   2.612  12.169 -0.3549  0.2462 -1.6470
   70MPD2    H2 1074   4.605   2.576  11.853  2.0006 -2.4170 -0.9100
   70MPD2    H3 1075   4.400   2.662  11.944  2.0400 -0.4356 -2.8777
   70MPD2     N 1076   4.442   2.422  12.339 -0.4514 -0.0877 -0.3744
   70MPD2    H5 1077   4.505   2.356  12.384  0.8704  1.3598 -0.0879
   70MPD2    N1 1078   0.062   2.439  11.983 -0.2050 -0.2858 -0.1820
   70MPD2    H7 1079   0.079   2.471  11.888  1.7453 -0.2696  0.1653
   71TMC2    C1 1080   1.829   2.975   1.147 -0.8231  0.8345 -0.7946
   71TMC2    C2 1081   1.902   2.957   1.270 -0.2236  0.2047 -0.0876
   71TMC2    C3 1082   1.837   2.986   1.386  0.1115  0.0552 -0.1860
   71TMC2    C4 1083   1.706   3.034   1.145  0.1383  0.5103 -0.1056
   71TMC2    C5 1084   1.638   3.043   1.269  0.0660  0.2643  0.2206
   71TMC2    C6 1085   1.704   3.013   1.384 -0.5646  0.3124 -0.0819
   71TMC2     C 1086   1.906   2.971   1.023  0.2905 -0.4150  0.3682
   71TMC2     O 1087   2.027   2.968   1.034 -0.2460  0.4507 -0.3282
   71TMC2     H 1088   2.005   2.924   1.270 -1.1711 -2.7681 -0.8526
   71TMC2    H1 1089   1.663   3.065   1.051  0.8807  1.5454 -0.1013
   71TMC2    H2 1090   1.654   3.033   1.479 -0.8661  0.8120 -0.3460
   71TMC2    C7 1091   1.513   3.114   1.271  0.0745  0.2225  0.1077
   71TMC2    C8 1092   1.893   2.950   1.513 -0.0641  0.1660  0.5989
   71TMC2    O1 1093   1.478   3.141   1.385 -0.0040 -0.0386 -0.1400
   71TMC2    O2 1094   1.825   2.897   1.601 -0.2431  0.1579 -0.2649
   71TMC2    O5 1095   2.033   2.958   1.507  0.0115  0.0289  0.1805
   71TMC2    H5 1096   2.076   3.026   1.451 -0.3923  0.4401  0.3622
   72MPD2     C 1097   1.946   3.008   0.517  0.3168  0.2772 -0.6218
   72MPD2    C1 1098   2.044   2.997   0.610 -0.2640  0.1594 -0.2059
   72MPD2    C2 1099   2.014   2.978   0.743 -0.5843  0.4529 -0.1732
   72MPD2    C3 1100   1.883   2.962   0.781 -0.1205  0.5661 -0.0601
   72MPD2    C4 1101   1.782   2.973   0.687 -0.1663  0.1494  0.1818
   72MPD2    C5 1102   1.816   3.008   0.553  0.4267  0.1200  0.4941
   72MPD2     H 1103   2.099   2.972   0.810 -0.1316  1.8878 -0.6253
   72MPD2    H1 1104   1.676   2.971   0.709 -0.0012 -2.7854  0.7008
   72MPD2    H2 1105   1.956   3.027   0.411 -0.7487 -2.1720 -1.1671
   72MPD2    H3 1106   1.737   3.002   0.480  1.4509  2.3479 -0.7732
   72MPD2     N 1107   1.833   2.956   0.909  0.7379 -0.1767 -0.2919
   72MPD2    H5 1108   1.732   2.956   0.920  0.5604 -2.4369 -1.6735
   72MPD2    N1 1109   2.182   3.013   0.585  0.0721 -1.2616  0.2904
   72MPD2    H7 1110   2.253   3.013   0.658  2.4859  0.2854 -2.0493
   73TMC2    C1 1111   1.929   4.484  13.541  0.5660 -0.4142 -0.2611
   73TMC2    C2 1112   1.812   4.482  13.607  0.1933 -0.0947 -0.2251
   73TMC2    C3 1113   1.795   4.401  13.715  0.3898 -0.9645  0.1715
   73TMC2    C4 1114   2.024   4.390  13.572 -0.7274 -1.0246 -0.1678
   73TMC2    C5 1115   2.016   4.322  13.688  1.1854 -0.4966 -0.7606
   73TMC2    C6 1116   1.894   4.323  13.761 -1.0350 -1.2456 -0.0943
   73TMC2     C 1117   1.990   4.614  13.527  0.9243 -0.7169  0.3134
   73TMC2     O 1118   2.111   4.621  13.548  0.0228 -0.8357 -0.0616
   73TMC2     H 1119   1.744   4.561  13.578 -1.7217 -2.0637 -1.1482
   73TMC2    H1 1120   2.123   4.389  13.527  0.1713  1.7822  1.7937
   73TMC2    H2 1121   1.884   4.257  13.846 -0.4315 -2.6670 -1.1121
   73TMC2    C7 1122   2.141   4.313  13.767 -0.1012  0.1022 -0.0032
   73TMC2    C8 1123   1.666   4.336  13.735  0.6446 -0.8184  0.1875
   73TMC2    O1 1124   2.152   4.222  13.852  0.1810  0.2525  0.2568
   73TMC2    O2 1125   1.662   4.220  13.766 -0.2024 -0.3290 -0.0883
   73TMC2    O5 1126   1.574   4.395  13.653  0.2736  0.1051  0.1337
   73TMC2    H5 1127   1.584   4.492  13.648  0.2914  0.0275 -1.4281
   74MPD2     C 1128   2.005   0.394  13.402 -0.4819  0.0555  0.4760
   74MPD2    C1 1129   2.092   0.311  13.482 -0.4161 -0.1119 -0.2054
   74MPD2    C2 1130   2.055   0.180  13.511 -0.1286 -0.4397  0.2973
   74MPD2    C3 1131   1.946   0.129  13.451 -0.1032 -0.2572 -0.4362
   74MPD2    C4 1132   1.860   0.210  13.379 -0.3346  0.2106  0.0237
   74MPD2    C5 1133   1.892   0.339  13.350  0.3806  0.6840  0.5029
   74MPD2     H 1134   2.123   0.119  13.570  0.4015  0.6666  0.8171
   74MPD2    H1 1135   1.768   0.171  13.335 -2.0849  1.7280  2.3284
   74MPD2    H2 1136   2.029   0.499  13.387 -1.2188  0.5309  2.5457
   74MPD2    H3 1137   1.827   0.404  13.292 -1.4777 -0.6261  1.1336
   74MPD2     N 1138   1.901   4.711  13.478 -0.1561 -0.0129 -0.9432
   74MPD2    H5 1139   1.810   4.679  13.445 -1.9194  2.5806  1.3954
   74MPD2    N1 1140   2.209   0.362  13.532  0.5683  0.3478  0.3289
   74MPD2    H7 1141   2.255   0.440  13.486 -1.4649  1.1365 -0.3694
   75TCq2    C1 1142   2.147   1.071  14.028  0.0463  0.1464  0.2172
   75TCq2    O2 1143   2.217   1.170  14.018  0.0034  0.5811 -0.3137
   75TCq2    C2 1144   2.023   1.067  13.952  0.4140 -0.1084  0.2121
   75TCq2    C3 1145   1.941   0.961  13.970  0.1629  0.3248 -0.4612
   75TCq2    C4 1146   1.848   0.947  13.867  0.6009 -0.8526 -0.6378
   75TCq2    C5 1147   1.855   1.011  13.745  0.1136  0.0874 -0.5800
   75TCq2    C6 1148   1.954   1.099  13.724 -0.4279 -0.0819  0.2980
   75TCq2    C7 1149   2.032   1.137  13.831 -0.2465 -0.0555  0.7595
   75TCq2    C8 1150   1.924   1.198  13.620  0.4793 -0.3802 -0.4510
   75TCq2    O4 1151   1.960   1.312  13.640 -0.1025 -0.6369 -0.3189
   75TCq2    C9 1152   1.742   0.854  13.888  0.4372 -0.3713  0.5385
   75TCq2    O5 1153   1.757   0.769  13.984 -0.7326  0.4421  0.3931
   75TCq2    O6 1154   1.651   0.850  13.794 -0.2889 -0.2660  0.4209
   75TCq2    H2 1155   1.926   0.925  14.071 -1.0232 -1.7967 -1.3875
   75TCq2    H3 1156   1.787   0.980  13.666 -0.2798  0.7486 -0.5053
   75TCq2    H4 1157   2.102   1.218  13.820 -0.0976 -0.7429 -3.4581
   76MPD2     C 1158   1.434   1.905  12.176  0.1852  0.5723 -0.0680
   76MPD2    C1 1159   1.376   1.923  12.053 -0.0365  0.6597 -0.4251
   76MPD2    C2 1160   1.334   1.805  11.981  0.1474  0.2982  0.2994
   76MPD2    C3 1161   1.350   1.680  12.036 -0.5087  0.1363  0.5046
   76MPD2    C4 1162   1.405   1.670  12.159 -0.1294  0.0458  0.5838
   76MPD2    C5 1163   1.439   1.782  12.229  0.0952  0.1669  0.0150
   76MPD2     H 1164   1.304   1.810  11.877 -2.5461  1.6436  1.1304
   76MPD2    H1 1165   1.408   1.572  12.206  0.6002 -1.4059 -2.4838
   76MPD2    H2 1166   1.477   1.983  12.238  0.5657  0.6436 -0.4250
   76MPD2    H3 1167   1.471   1.767  12.331 -1.0799 -1.7140  0.1113
   76MPD2     N 1168   1.318   1.560  11.960 -0.0073  0.0065 -0.0045
   76MPD2    H5 1169   1.335   1.472  12.008  1.5491  2.0517  3.2610
   76MPD2    N1 1170   1.353   2.055  11.995  0.2493 -0.4570  0.1571
   76MPD2    H7 1171   1.311   2.059  11.903  2.1095  2.7667 -0.5490
   77TCq2    C1 1172   1.241   1.549  11.846  0.5167 -0.3247 -0.0598
   77TCq2    O2 1173   1.166   1.631  11.795 -0.3261 -0.3379 -0.1139
   77TCq2    C2 1174   1.237   1.419  11.788  0.1134  0.2828 -0.1338
   77TCq2    C3 1175   1.138   1.399  11.694 -0.0442 -0.0552 -0.1389
   77TCq2    C4 1176   1.156   1.290  11.620 -0.0204 -0.0625 -0.0162
   77TCq2    C5 1177   1.258   1.202  11.638 -0.6791 -0.0992 -0.0218
   77TCq2    C6 1178   1.358   1.229  11.723 -0.2226 -0.1363  0.0694
   77TCq2    C7 1179   1.352   1.343  11.801  0.0112 -0.0387  0.3671
   77TCq2    C8 1180   1.460   1.129  11.737  1.3570 -1.2356  0.6857
   77TCq2    O4 1181   1.434   1.010  11.724  0.3697  0.3519  0.2526
   77TCq2    C9 1182   1.065   1.267  11.509 -0.5809 -0.0938  0.4370
   77TCq2    O5 1183   0.956   1.334  11.509  0.0461  0.2841 -0.3567
   77TCq2    O6 1184   1.099   1.202  11.413 -0.0534  0.1053  0.0199
   77TCq2    H2 1185   1.060   1.471  11.676  0.8076  1.1399  0.9248
   77TCq2    H3 1186   1.263   1.112  11.577 -0.6728  0.8661 -1.4574
   77TCq2    H4 1187   1.430   1.364  11.873 -1.8027  0.4402  2.1738
   78MPD1     C 1188   2.615   1.257   2.167 -0.3129  0.1924  0.2015
   78MPD1    C1 1189   2.597   1.383   2.121  0.8291 -0.7396  0.2390
   78MPD1    C2 1190   2.652   1.494   2.182  0.5155 -0.7792  0.1089
   78MPD1    C3 1191   2.747   1.476   2.277  0.6128 -0.0314 -0.1802
   78MPD1    C4 1192   2.784   1.350   2.314  0.1946  0.3577 -0.3326
   78MPD1    C5 1193   2.718   1.242   2.260  0.1559 -0.1387 -0.2531
   78MPD1     H 1194   2.620   1.596   2.162 -0.1839 -1.2070 -0.9118
   78MPD1    H1 1195   2.853   1.342   2.397  0.4661 -3.0644 -0.8568
   78MPD1    H2 1196   2.554   1.178   2.124 -2.6529  1.7063  0.8232
   78MPD1    H3 1197   2.727   1.140   2.297 -1.5639 -0.6784 -1.2668
   78MPD1     N 1198   2.814   1.586   2.338  0.0329 -0.1134  0.6173
   78MPD1    H5 1199   2.884   1.561   2.407 -0.8344 -1.5990  0.9639
   78MPD1    N1 1200   2.485   1.408   2.034 -0.5829  0.6333 -0.2383
   78MPD1    H6 1201   2.505   1.481   1.966  1.3088  0.7856  0.4655
   78MPD1    H7 1202   2.458   1.322   1.987  1.7687  0.5714 -1.4857
   79TCq2    C1 1203   2.798   1.720   2.299 -0.3047 -0.2812  0.8069
   79TCq2    O2 1204   2.736   1.767   2.204  0.0437  0.0240  0.2384
   79TCq2    C2 1205   2.876   1.819   2.370  1.0263 -0.5021  0.3292
   79TCq2    C3 1206   2.919   1.798   2.499  0.4182 -0.5242  0.3468
   79TCq2    C4 1207   2.993   1.899   2.560 -0.1033 -0.3653  0.8092
   79TCq2    C5 1208   3.033   2.011   2.494 -0.6877  0.1033  0.3739
   79TCq2    C6 1209   2.992   2.026   2.367  0.0858 -0.0375  0.0615
   79TCq2    C7 1210   2.912   1.937   2.299 -0.2454 -0.8863  0.3452
   79TCq2    C8 1211   3.090   2.093   2.279  0.4736  0.1271  0.9164
   79TCq2    O4 1212   3.201   2.113   2.315  0.9009 -0.2329 -0.3983
   79TCq2    C9 1213   3.036   1.875   2.698  0.2656  0.5519  0.5226
   79TCq2    O5 1214   3.009   1.765   2.748  0.1865 -0.2592 -0.4743
   79TCq2    O6 1215   3.094   1.969   2.756 -0.0746  0.0698 -0.2669
   79TCq2    H2 1216   2.889   1.708   2.551  3.1746 -2.4665 -1.3959
   79TCq2    H3 1217   3.105   2.077   2.542 -1.0781  0.2516  0.7484
   79TCq2    H4 1218   2.881   1.947   2.196 -0.5707 -1.1539  0.4182
   80MPD2     C 1219   0.154   1.700  12.403 -0.0735 -0.2288 -0.0281
   80MPD2    C1 1220   0.061   1.675  12.304  0.0375  0.3339  0.2657
   80MPD2    C2 1221   4.642   1.667  12.344 -0.3937 -0.2183 -0.4568
   80MPD2    C3 1222   4.597   1.704  12.473  0.0254  0.6294 -0.0086
   80MPD2    C4 1223   4.694   1.717  12.572  0.1645  0.0210  0.0710
   80MPD2    C5 1224   0.107   1.704  12.538  0.3874 -0.7243  0.2340
   80MPD2     H 1225   4.569   1.642  12.268  0.1807  0.7556 -1.3231
   80MPD2    H1 1226   4.673   1.734  12.677 -0.6977 -0.3029 -0.0561
   80MPD2    H2 1227   0.261   1.698  12.387  0.1067  1.3701  1.0198
   80MPD2    H3 1228   0.178   1.726  12.617 -0.0766 -1.7276  0.9235
   80MPD2     N 1229   4.464   1.726  12.512  0.3912  0.1710 -0.5434
   80MPD2    H5 1230   4.437   1.739  12.609 -1.7840 -1.4264 -0.9405
   80MPD2    N1 1231   0.091   1.639  12.170 -0.0662  0.5034  0.1065
   80MPD2    H7 1232   0.010   1.623  12.111 -0.2840 -2.5723  1.2286
   81TCq2    C1 1233   0.219   1.639  12.118  0.1214  0.6021 -0.0386
   81TCq2    O2 1234   0.324   1.676  12.171 -0.2847  0.4826  0.0062
   81TCq2    C2 1235   0.234   1.579  11.987 -0.3403 -0.4753 -0.2156
   81TCq2    C3 1236   0.345   1.608  11.908  0.2592 -0.8476  0.6318
   81TCq2    C4 1237   0.358   1.565  11.780 -0.3118 -0.4043 -0.0583
   81TCq2    C5 1238   0.261   1.487  11.729 -0.0659  0.2761  0.0033
   81TCq2    C6 1239   0.156   1.454  11.803 -0.4579 -0.2117  0.1853
   81TCq2    C7 1240   0.133   1.509  11.925  0.8472 -0.7634  0.3261
   81TCq2    C8 1241   0.048   1.379  11.739 -0.2960  0.1066  0.4591
   81TCq2    O4 1242   0.031   1.375  11.617 -0.1744 -0.4649  0.1761
   81TCq2    C9 1243   0.485   1.579  11.709  0.7237  0.0929 -0.1241
   81TCq2    O5 1244   0.556   1.676  11.739 -0.5075  1.1678  0.0282
   81TCq2    O6 1245   0.496   1.526  11.595 -0.4170 -0.0627  0.0569
   81TCq2    H2 1246   0.438   1.642  11.954 -0.8220  1.0116  1.4357
   81TCq2    H3 1247   0.281   1.445  11.631 -0.1741 -1.3927  0.7031
   81TCq2    H4 1248   0.044   1.486  11.983  0.6151  0.9208  0.6512
   82MPD2     C 1249   3.460   1.716  10.971  0.5788 -0.1393 -0.1846
   82MPD2    C1 1250   3.352   1.642  11.005 -0.1562  0.2869  0.5676
   82MPD2    C2 1251   3.373   1.524  11.073  0.0625  1.2281 -0.7175
   82MPD2    C3 1252   3.500   1.494  11.128 -0.0134  0.7578 -0.0136
   82MPD2    C4 1253   3.604   1.582  11.102  0.3652  0.0584 -0.2243
   82MPD2    C5 1254   3.586   1.682  11.018 -0.8018 -0.2210  0.1525
   82MPD2     H 1255   3.289   1.457  11.085 -1.0640  3.0867  1.6762
   82MPD2    H1 1256   3.703   1.573  11.143 -0.0247 -0.6110  0.5789
   82MPD2    H2 1257   3.444   1.811  10.922 -1.0658 -0.1539  0.3086
   82MPD2    H3 1258   3.669   1.751  11.006 -0.9639  0.5413  3.6513
   82MPD2     N 1259   3.526   1.389  11.215  0.0691 -0.1608  0.4967
   82MPD2    H5 1260   3.621   1.368  11.243  1.1226  1.1286 -2.1608
   82MPD2    N1 1261   3.228   1.681  10.953 -0.1120 -0.4728 -0.2953
   82MPD2    H7 1262   3.228   1.767  10.901  1.9204  0.6281  1.5209
   83TCq2    C1 1263   3.436   1.295  11.259  0.2214  0.1593 -0.0094
   83TCq2    O2 1264   3.321   1.280  11.230  0.1133  0.8843  0.1779
   83TCq2    C2 1265   3.493   1.202  11.365  0.1937  0.2345  0.1216
   83TCq2    C3 1266   3.595   1.245  11.439  0.1986 -0.2692 -0.8872
   83TCq2    C4 1267   3.663   1.158  11.521  0.0669 -0.0644 -0.1847
   83TCq2    C5 1268   3.617   1.028  11.526 -0.2438 -0.5140  0.2120
   83TCq2    C6 1269   3.509   0.988  11.455  0.2548 -0.4848 -0.2468
   83TCq2    C7 1270   3.450   1.070  11.361 -0.3067  0.1284  0.1745
   83TCq2    C8 1271   3.460   0.852  11.475 -0.1085  0.3490 -0.5314
   83TCq2    O4 1272   3.358   0.816  11.422  0.0879 -0.0308  0.4745
   83TCq2    C9 1273   3.781   1.205  11.593  0.0907 -0.2761  0.4485
   83TCq2    O5 1274   3.823   1.321  11.564  0.0961  0.4395 -0.3371
   83TCq2    O6 1275   3.851   1.120  11.656 -0.2732 -0.5671  0.2323
   83TCq2    H2 1276   3.615   1.351  11.435 -0.5608 -0.1519 -1.4687
   83TCq2    H3 1277   3.689   0.961  11.572  0.6796 -0.6109 -1.3896
   83TCq2    H4 1278   3.367   1.041  11.297  0.3263  1.1552 -1.1191
   84TCq2    C1 1279   0.290   4.621  10.837 -0.4834  0.7184  0.7689
   84TCq2    O2 1280   0.167   4.648  10.849  0.1817  0.5915 -0.2366
   84TCq2    C2 1281   0.382   4.579  10.948 -0.5125  0.5731 -0.5363
   84TCq2    C3 1282   0.520   4.579  10.938 -0.8652  0.6081 -0.2105
   84TCq2    C4 1283   0.592   4.493  11.014  0.6041  0.2511  0.3881
   84TCq2    C5 1284   0.529   4.404  11.096  0.3863  0.1385 -0.3883
   84TCq2    C6 1285   0.393   4.408  11.110  0.2516 -0.0076 -0.4819
   84TCq2    C7 1286   0.317   4.500  11.046  0.4678 -0.0316  0.2030
   84TCq2    C8 1287   0.332   4.358  11.229 -0.2414 -0.0815  0.1265
   84TCq2    O4 1288   0.363   4.245  11.261 -0.3439  0.3496 -0.1843
   84TCq2    C9 1289   0.737   4.501  11.009 -0.6814  0.3696 -0.0848
   84TCq2    O5 1290   0.783   4.556  10.905  0.1106 -0.3411 -0.5039
   84TCq2    O6 1291   0.803   4.427  11.086  0.3397 -0.5426 -0.2979
   84TCq2    H2 1292   0.576   4.650  10.877 -0.3328 -0.5347 -1.0447
   84TCq2    H3 1293   0.584   4.344  11.168 -0.7122  2.0901  2.0909
   84TCq2    H4 1294   0.210   4.508  11.055  0.4983 -1.4487  1.9043
   85MPD2     C 1295   0.101   2.732  16.114  0.4225 -0.6431 -0.0171
   85MPD2    C1 1296   0.145   2.656  16.010  1.0683  0.8895 -0.4662
   85MPD2    C2 1297   0.278   2.678  15.971  0.3707  0.0740  0.7298
   85MPD2    C3 1298   0.361   2.761  16.041 -0.6683 -0.4524  0.7710
   85MPD2    C4 1299   0.313   2.839  16.144 -0.4352 -0.5075 -0.2096
   85MPD2    C5 1300   0.181   2.825  16.176 -0.1889 -0.5809 -0.2043
   85MPD2     H 1301   0.324   2.624  15.888  0.1717 -0.4726  0.9780
   85MPD2    H1 1302   0.366   2.911  16.205 -0.5680 -2.2952  2.0137
   85MPD2    H2 1303   0.003   2.724  16.161  0.9379  0.6210  1.2951
   85MPD2    H3 1304   0.154   2.881  16.264  0.6058  2.2711 -1.7980
   85MPD2     N 1305   0.494   2.768  16.006 -0.2867  0.4058  0.4875
   85MPD2    H5 1306   0.524   2.727  15.918 -0.0444 -0.1518  0.8235
   85MPD2    N1 1307   0.064   2.574  15.927 -0.3452  0.4992 -0.4492
   85MPD2    H7 1308   0.117   2.507  15.871  2.0345  1.4341  0.7078
   86TCq2    C1 1309   0.597   2.825  16.085 -0.2662 -0.5734  0.3127
   86TCq2    O2 1310   0.591   2.839  16.203 -0.0874 -0.3032 -0.4817
   86TCq2    C2 1311   0.726   2.852  16.023  0.7207 -0.3405 -0.6874
   86TCq2    C3 1312   0.847   2.858  16.089  0.1792  0.1697  0.3800
   86TCq2    C4 1313   0.951   2.920  16.034 -0.4636  0.4371  0.4916
   86TCq2    C5 1314   0.953   2.959  15.903 -0.7035  0.4590 -0.5076
   86TCq2    C6 1315   0.834   2.954  15.840  0.3989  0.6259  0.9700
   86TCq2    C7 1316   0.722   2.895  15.895  0.2861 -0.1653  0.1084
   86TCq2    C8 1317   0.819   3.059  15.735 -0.1374  0.0327 -0.0994
   86TCq2    O4 1318   0.739   3.042  15.641  0.1637  0.0097  0.1970
   86TCq2    C9 1319   1.073   2.941  16.106 -0.1557 -0.3192  0.2821
   86TCq2    O5 1320   1.054   2.915  16.228 -0.0659  0.3337  0.2866
   86TCq2    O6 1321   1.172   2.992  16.055  0.1869  0.0154 -0.0116
   86TCq2    H2 1322   0.836   2.828  16.193  0.6025  0.0289  0.3857
   86TCq2    H3 1323   1.042   3.004  15.860  0.4539 -0.2902  1.1085
   86TCq2    H4 1324   0.628   2.914  15.845  0.1563  1.3960  0.9261
   87MPD2     C 1325   3.053   2.206   1.147 -0.2011  0.2533  1.1208
   87MPD2    C1 1326   2.934   2.132   1.131  0.6417 -0.3680 -0.0155
   87MPD2    C2 1327   2.846   2.156   1.027 -0.2936  0.0651  0.3288
   87MPD2    C3 1328   2.877   2.258   0.932 -0.3163  0.4707  0.0531
   87MPD2    C4 1329   2.998   2.326   0.946 -0.3983 -0.6433 -0.3973
   87MPD2    C5 1330   3.085   2.300   1.046 -0.2799 -0.2875 -0.0778
   87MPD2     H 1331   2.758   2.094   1.015  0.5273 -0.4567 -3.0268
   87MPD2    H1 1332   3.024   2.409   0.882 -0.5950 -1.9045 -2.1247
   87MPD2    H2 1333   3.115   2.194   1.235  1.7087 -0.4222 -0.3007
   87MPD2    H3 1334   3.174   2.359   1.062 -2.0416  1.8852  1.6154
   87MPD2     N 1335   2.804   2.297   0.822 -0.1661  0.3265  0.5253
   87MPD2    H5 1336   2.846   2.368   0.763  0.2657 -0.0881  0.3282
   87MPD2    N1 1337   2.905   2.043   1.232 -0.3536  0.0714 -0.3437
   87MPD2    H7 1338   2.984   2.004   1.283 -1.0327  0.0334  0.6911
   88TCq2    C1 1339   2.775   2.000   1.260 -0.0656  0.5778 -0.1029
   88TCq2    O2 1340   2.671   2.056   1.233  0.2855 -0.3191  0.2464
   88TCq2    C2 1341   2.773   1.879   1.337 -0.2329  0.2095  0.1215
   88TCq2    C3 1342   2.656   1.874   1.405  0.0287 -0.5141  0.5028
   88TCq2    C4 1343   2.590   1.749   1.415 -0.5474  0.8971  0.4165
   88TCq2    C5 1344   2.640   1.635   1.355  0.0373  0.1470 -1.2093
   88TCq2    C6 1345   2.749   1.649   1.279 -0.5052 -0.4290 -0.5146
   88TCq2    C7 1346   2.820   1.766   1.271 -0.7375  0.0224  0.2912
   88TCq2    C8 1347   2.786   1.544   1.182 -0.4454 -0.3171 -0.0738
   88TCq2    O4 1348   2.872   1.569   1.097 -0.0040 -0.2539 -0.0798
   88TCq2    C9 1349   2.456   1.735   1.487 -0.0671  0.0708 -0.0500
   88TCq2    O5 1350   2.417   1.838   1.541  0.5101  0.4699 -0.6869
   88TCq2    O6 1351   2.420   1.615   1.517  0.1565 -0.1676 -0.2919
   88TCq2    H2 1352   2.608   1.962   1.447 -0.8368 -0.7457  0.0033
   88TCq2    H3 1353   2.587   1.542   1.372  2.1234 -0.7661  0.2592
   88TCq2    H4 1354   2.899   1.780   1.198  0.1644 -2.5857  0.7888
   89MPD2     C 1355   3.147   2.981   1.960  0.1815 -0.7892  0.0428
   89MPD2    C1 1356   3.088   3.096   1.896 -0.2839 -0.6572  0.0109
   89MPD2    C2 1357   3.175   3.192   1.850 -0.1557  0.8525 -0.0733
   89MPD2    C3 1358   3.313   3.186   1.881 -0.7644 -0.2486  0.2176
   89MPD2    C4 1359   3.367   3.079   1.943 -0.1725 -0.0846 -0.4263
   89MPD2    C5 1360   3.283   2.979   1.982 -0.7156  0.1301 -0.0402
   89MPD2     H 1361   3.138   3.279   1.797  3.2538  0.2346 -3.4695
   89MPD2    H1 1362   3.471   3.052   1.956 -0.0683  0.8740  0.7058
   89MPD2    H2 1363   3.098   2.898   2.008 -2.7990  1.6354  1.2100
   89MPD2    H3 1364   3.334   2.896   2.030 -0.5249  0.6235  0.6078
   89MPD2     N 1365   3.382   3.296   1.828 -1.0551 -0.0873 -0.4039
   89MPD2    H5 1366   3.329   3.377   1.797  1.4160  0.5160 -3.0889
   89MPD2    N1 1367   2.949   3.109   1.874  0.0782 -0.3275  0.9189
   89MPD2    H7 1368   2.925   3.189   1.818  0.8123 -0.0091  1.0586
   90TCq2    C1 1369   3.517   3.311   1.842  1.2508  0.4761 -0.0419
   90TCq2    O2 1370   3.605   3.231   1.868  0.3251  0.0359 -0.3101
   90TCq2    C2 1371   3.567   3.444   1.817  0.7210  0.1299 -0.1643
   90TCq2    C3 1372   3.695   3.455   1.775 -0.3158  0.8215 -0.2715
   90TCq2    C4 1373   3.737   3.569   1.706 -0.1111  0.6779  0.3088
   90TCq2    C5 1374   3.655   3.677   1.700 -1.0148 -0.2907 -0.9608
   90TCq2    C6 1375   3.527   3.671   1.756  0.7144 -0.3184 -0.2130
   90TCq2    C7 1376   3.481   3.555   1.820 -0.0234  0.1202  0.7953
   90TCq2    C8 1377   3.453   3.797   1.773 -0.2736  0.0434  0.0164
   90TCq2    O4 1378   3.386   3.805   1.877  0.4966 -0.4149  0.3084
   90TCq2    C9 1379   3.876   3.570   1.653 -0.3927  0.0378  0.4452
   90TCq2    O5 1380   3.953   3.494   1.717  0.4847  0.2163  0.2174
   90TCq2    O6 1381   3.904   3.665   1.580  0.2516 -0.0386 -0.3974
   90TCq2    H2 1382   3.760   3.368   1.779 -0.5547  0.6074 -1.0852
   90TCq2    H3 1383   3.695   3.769   1.660 -0.0988 -1.5111 -2.8884
   90TCq2    H4 1384   3.375   3.556   1.842 -0.3825  0.8875 -0.9943
   91TMC2    C1 1385   0.266   3.684  16.625  1.0360  0.0056 -0.2667
   91TMC2    C2 1386   0.335   3.677  16.749 -0.0692 -0.1044  0.0487
   91TMC2    C3 1387   0.266   3.731  16.850  0.0648 -0.4934  0.2098
   91TMC2    C4 1388   0.146   3.736  16.608  0.5338  0.4809  0.2724
   91TMC2    C5 1389   0.091   3.801  16.713 -0.1348 -0.8313  0.2419
   91TMC2    C6 1390   0.149   3.808  16.834 -0.1193 -0.5240  0.3935
   91TMC2     C 1391   0.339   3.662  16.504 -0.3345  0.2561  0.1859
   91TMC2     O 1392   0.276   3.630  16.405 -0.1436  0.0344  0.2993
   91TMC2     H 1393   0.431   3.628  16.763 -0.1148  0.3650  2.0829
   91TMC2    H1 1394   0.102   3.734  16.509 -0.7253 -1.2519  0.8593
   91TMC2    H2 1395   0.095   3.844  16.921 -0.1051  0.5642 -0.0476
   91TMC2    C7 1396   4.689   3.874  16.697 -0.6591  0.5231  0.3559
   91TMC2    C8 1397   0.297   3.687  16.981  0.2241  0.3983  0.0496
   91TMC2    O1 1398   4.637   3.908  16.803 -0.3593  0.0676 -0.1810
   91TMC2    O2 1399   0.264   3.574  17.015 -1.0873  0.1885 -0.1939
   91TMC2    O5 1400   0.396   3.760  17.033  0.2541 -0.2769  0.4601
   91TMC2    H5 1401   0.421   3.847  16.996  3.0714 -1.3793 -0.2463
   92MPD2     C 1402   0.536   3.617  16.286 -0.1213 -0.1579  0.1627
   92MPD2    C1 1403   0.567   3.661  16.410  0.6877  0.6546  0.7079
   92MPD2    C2 1404   0.697   3.695  16.437  0.3099 -0.0843  0.2785
   92MPD2    C3 1405   0.804   3.669  16.355 -0.6481  0.5489  0.4878
   92MPD2    C4 1406   0.770   3.632  16.226 -0.1040  0.2205  0.1749
   92MPD2    C5 1407   0.637   3.613  16.194 -0.9608 -0.3994  0.5958
   92MPD2     H 1408   0.711   3.726  16.540  0.3073 -0.9173  0.5260
   92MPD2    H1 1409   0.849   3.606  16.156  0.1634 -2.4367  1.4644
   92MPD2    H2 1410   0.436   3.593  16.253  0.8071 -3.5105 -0.2478
   92MPD2    H3 1411   0.612   3.575  16.095  1.1447  3.0076 -1.2379
   92MPD2     N 1412   0.930   3.701  16.394 -0.3169  0.2944  0.0186
   92MPD2    H5 1413   0.944   3.752  16.481  0.9994 -0.8717  0.4857
   92MPD2    N1 1414   0.476   3.674  16.517  0.0257 -0.0091  0.0508
   92MPD2    H7 1415   0.509   3.712  16.605  2.5765  1.5064 -1.5671
   93MPD2     C 1416   1.824   3.325  13.739 -0.2703 -0.2518  0.1826
   93MPD2    C1 1417   1.882   3.442  13.702  0.5614  0.0326 -0.7935
   93MPD2    C2 1418   1.809   3.557  13.670 -0.1853  0.1428  0.3250
   93MPD2    C3 1419   1.672   3.549  13.653 -0.8555  0.0335  0.4195
   93MPD2    C4 1420   1.614   3.433  13.690  0.6305  0.4740  0.2943
   93MPD2    C5 1421   1.687   3.324  13.740  0.0602 -0.5294  0.0415
   93MPD2     H 1422   1.859   3.653  13.665 -0.2398  0.2113  1.1461
   93MPD2    H1 1423   1.507   3.419  13.676  1.1198 -1.5596 -1.4317
   93MPD2    H2 1424   1.878   3.237  13.774  0.7172  0.6579  0.9435
   93MPD2    H3 1425   1.641   3.229  13.762 -2.4978  0.2940 -1.7829
   93MPD2     N 1426   1.600   3.668  13.624  0.0482 -0.1447  0.2052
   93MPD2    H5 1427   1.501   3.652  13.611  0.1472 -0.6652  0.0848
   93MPD2    N1 1428   2.020   3.466  13.708 -0.0345  0.2731  0.0271
   93MPD2    H7 1429   2.055   3.551  13.664  0.4514 -0.3417 -0.7795
   94TCq2    C1 1430   2.124   3.383  13.745 -0.5020 -0.0905 -0.2172
   94TCq2    O2 1431   2.135   3.278  13.804  0.0979  0.2529 -0.1230
   94TCq2    C2 1432   2.247   3.457  13.720  0.1423 -0.2594  0.1276
   94TCq2    C3 1433   2.237   3.557  13.624 -0.4094 -0.7608  0.1128
   94TCq2    C4 1434   2.325   3.661  13.630 -0.0770 -0.0358 -0.3240
   94TCq2    C5 1435   2.407   3.684  13.734 -0.2048 -0.0860  0.1085
   94TCq2    C6 1436   2.420   3.590  13.831  0.3124 -0.2218  0.7280
   94TCq2    C7 1437   2.338   3.477  13.823  0.1343  0.4890  0.2082
   94TCq2    C8 1438   2.549   3.575  13.883 -0.3533 -0.4518  0.0285
   94TCq2    O4 1439   2.619   3.473  13.888 -0.7444 -0.4955 -0.4335
   94TCq2    C9 1440   2.329   3.753  13.523  0.1147 -0.1282 -0.4618
   94TCq2    O5 1441   2.349   3.880  13.552 -0.2336 -0.2766 -0.1204
   94TCq2    O6 1442   2.282   3.713  13.413  0.0217  0.2353 -0.3777
   94TCq2    H2 1443   2.178   3.545  13.534 -0.2611 -1.7660  0.1448
   94TCq2    H3 1444   2.469   3.773  13.734  0.9167 -0.8760 -1.0218
   94TCq2    H4 1445   2.355   3.399  13.897  0.4610  0.4927  0.1387
   95TMC2    C1 1446   2.013   0.852  15.952 -0.5877  0.2031  0.0522
   95TMC2    C2 1447   1.986   0.849  16.089  0.2526 -0.6574  0.4637
   95TMC2    C3 1448   1.893   0.756  16.136 -0.1609 -0.3568  0.4429
   95TMC2    C4 1449   1.945   0.771  15.864 -0.1946 -0.0385 -0.3495
   95TMC2    C5 1450   1.848   0.687  15.918  0.0713  0.4608 -0.5204
   95TMC2    C6 1451   1.826   0.676  16.050 -0.0741  0.1120  0.0604
   95TMC2     C 1452   2.112   0.935  15.884  0.5539  0.3182 -0.2860
   95TMC2     O 1453   2.170   0.894  15.789  0.6183  0.0349 -0.0727
   95TMC2     H 1454   2.044   0.914  16.153 -2.5880  1.6451  0.6513
   95TMC2    H1 1455   1.968   0.786  15.759  0.9685  0.2671 -0.0557
   95TMC2    H2 1456   1.766   0.595  16.091 -0.9801  0.3427 -0.8093
   95TMC2    C7 1457   1.764   0.603  15.834  0.3896 -0.5110 -0.2671
   95TMC2    C8 1458   1.877   0.736  16.281  0.0712  0.3074 -0.0844
   95TMC2    O1 1459   1.685   0.528  15.885  0.2296 -0.3285  0.7382
   95TMC2    O2 1460   1.865   0.624  16.327  0.3456 -0.3281 -0.2883
   95TMC2    O5 1461   1.887   0.851  16.346 -0.0500  0.6408  0.1949
   95TMC2    H5 1462   1.873   0.921  16.278 -1.2462  0.1164 -0.0943
   96MPD2     C 1463   2.282   1.420  15.832 -0.3948  0.1477  0.4396
   96MPD2    C1 1464   2.320   1.296  15.773  0.2755  0.7397  0.6372
   96MPD2    C2 1465   2.277   1.174  15.817  0.2972 -0.1633 -0.3305
   96MPD2    C3 1466   2.173   1.171  15.909 -0.2044 -0.2421 -0.5187
   96MPD2    C4 1467   2.142   1.291  15.977  0.7470 -0.2397  0.2211
   96MPD2    C5 1468   2.200   1.413  15.944 -0.4410  0.0681  0.5670
   96MPD2     H 1469   2.315   1.084  15.769 -0.9988 -0.8482 -0.0566
   96MPD2    H1 1470   2.054   1.300  16.040  0.3623 -0.5396 -0.2713
   96MPD2    H2 1471   2.310   1.519  15.798  1.4149 -0.4933  0.0771
   96MPD2    H3 1472   2.172   1.505  15.994  3.3843  1.0305  0.9048
   96MPD2     N 1473   2.107   1.057  15.946  0.9730 -0.7244  0.6017
   96MPD2    H5 1474   2.044   1.066  16.025  0.1846  0.0747 -0.1240
   96MPD2    N1 1475   2.410   1.316  15.663  0.0426  0.4750 -0.5687
   96MPD2    H7 1476   2.435   1.411  15.636 -1.1977  1.0469  0.2949
   97MPD2     C 1477   4.516   3.368   1.236  0.0319  0.5311 -0.1183
   97MPD2    C1 1478   4.447   3.265   1.171  0.2942  0.2393  0.2010
   97MPD2    C2 1479   4.406   3.287   1.044  0.5698 -0.6876 -0.1639
   97MPD2    C3 1480   4.431   3.405   0.975 -0.2237  0.1483  0.2909
   97MPD2    C4 1481   4.509   3.502   1.042 -0.0959  0.9302 -0.3012
   97MPD2    C5 1482   4.543   3.484   1.170  0.2251  0.3920  0.7095
   97MPD2     H 1483   4.352   3.211   0.990 -0.2804  0.0320 -0.3223
   97MPD2    H1 1484   4.531   3.594   0.989  0.7398 -0.8345 -2.9884
   97MPD2    H2 1485   4.550   3.361   1.338 -1.4574 -0.3449  0.3165
   97MPD2    H3 1486   4.600   3.562   1.220 -3.2963  2.9614  0.6656
   97MPD2     N 1487   4.388   3.445   0.843  0.3635  0.2014 -0.0377
   97MPD2    H5 1488   4.405   3.541   0.813  1.0989  0.2733  0.6166
   97MPD2    N1 1489   4.407   3.152   1.252  0.8410  0.2430  0.2148
   97MPD2    H7 1490   4.452   3.140   1.342  0.1499 -1.4248  0.3291
   98TCq2    C1 1491   4.324   3.366   0.754  0.2976 -0.8829  0.2609
   98TCq2    O2 1492   4.292   3.250   0.767 -0.6009  0.3448 -0.3871
   98TCq2    C2 1493   4.280   3.434   0.640  0.0528 -0.8241 -0.1112
   98TCq2    C3 1494   4.150   3.421   0.597 -0.4911 -0.7449 -0.0258
   98TCq2    C4 1495   4.095   3.523   0.525 -0.2419 -0.3492  0.4768
   98TCq2    C5 1496   4.167   3.627   0.481 -1.0717 -0.3218 -0.2886
   98TCq2    C6 1497   4.299   3.632   0.503 -0.2465 -0.3371 -0.5935
   98TCq2    C7 1498   4.360   3.531   0.578 -0.2451  0.4912  1.0346
   98TCq2    C8 1499   4.378   3.754   0.472  0.1224 -0.5680  0.0267
   98TCq2    O4 1500   4.500   3.744   0.486 -0.5278 -0.4678  0.2561
   98TCq2    C9 1501   3.967   3.506   0.476 -0.4751  0.2756  0.1768
   98TCq2    O5 1502   3.903   3.414   0.521  0.7164  0.0278  0.2025
   98TCq2    O6 1503   3.931   3.583   0.384 -0.1212  0.1392 -0.1280
   98TCq2    H2 1504   4.084   3.347   0.641 -1.8921  0.4734 -0.0446
   98TCq2    H3 1505   4.113   3.701   0.423  0.1022  0.8800  0.1434
   98TCq2    H4 1506   4.464   3.533   0.606  0.2508 -1.7553 -0.6768
   99MPD2     C 1507   2.746   0.418   1.977 -1.1343  0.2832 -0.5063
   99MPD2    C1 1508   2.670   0.514   1.905  0.3373 -0.1386 -0.5395
   99MPD2    C2 1509   2.672   0.508   1.768  0.2975  0.2012 -0.8014
   99MPD2    C3 1510   2.734   0.408   1.697  1.1601  0.7974 -0.2604
   99MPD2    C4 1511   2.785   0.304   1.772  0.9100  0.3140  0.3576
   99MPD2    C5 1512   2.794   0.307   1.916 -0.6835 -0.1300 -0.1597
   99MPD2     H 1513   2.610   0.579   1.715 -0.9163 -0.5227 -0.3600
   99MPD2    H1 1514   2.837   0.221   1.724  1.7326  0.3414  1.1946
   99MPD2    H2 1515   2.762   0.418   2.084 -0.9293 -1.5539 -0.5419
   99MPD2    H3 1516   2.842   0.221   1.962  1.2879  0.6471 -0.7685
   99MPD2     N 1517   2.739   0.418   1.550  0.4434  0.3799  0.0933
   99MPD2    H5 1518   2.717   0.511   1.515 -0.5887  1.2087  2.9886
   99MPD2    N1 1519   2.615   0.632   1.963  0.1052 -0.1675  0.4936
   99MPD2    H7 1520   2.573   0.698   1.898  0.2918 -0.1047  0.4382
  100TCq2    C1 1521   2.623   0.662   2.097  0.3710  0.0011 -0.3930
  100TCq2    O2 1522   2.696   0.613   2.181  0.5530  0.5367  0.0382
  100TCq2    C2 1523   2.547   0.779   2.126 -1.3363  0.4109 -0.1979
  100TCq2    C3 1524   2.575   0.842   2.244 -0.0096 -0.3074  0.3970
  100TCq2    C4 1525   2.495   0.940   2.293  0.2640  0.6335  0.0903
  100TCq2    C5 1526   2.390   0.992   2.216  0.1353 -0.1228 -0.5140
  100TCq2    C6 1527   2.376   0.937   2.093 -0.5462 -0.0256 -0.3915
  100TCq2    C7 1528   2.447   0.824   2.049 -0.5480  0.0989 -0.2296
  100TCq2    C8 1529   2.278   0.988   2.000  0.6825 -0.2558  0.2379
  100TCq2    O4 1530   2.277   1.111   2.005 -0.2471 -0.6003 -0.4973
  100TCq2    C9 1531   2.517   0.983   2.425 -0.3628 -0.4336 -0.4676
  100TCq2    O5 1532   2.442   1.074   2.469  0.2555 -0.1613 -0.2109
  100TCq2    O6 1533   2.624   0.958   2.480 -0.3356  0.2528 -0.0291
  100TCq2    H2 1534   2.651   0.801   2.309  1.0121 -0.5780 -0.9796
  100TCq2    H3 1535   2.334   1.078   2.252 -1.4174 -2.0788  1.7094
  100TCq2    H4 1536   2.420   0.782   1.953 -0.1069 -0.8121  0.0521
  101MPD2     C 1537   3.556   1.579  12.599 -0.5891 -0.5070  0.4240
  101MPD2    C1 1538   3.423   1.609  12.624 -0.0914 -0.8659  0.6294
  101MPD2    C2 1539   3.348   1.546  12.725 -0.3868 -0.1286  0.3410
  101MPD2    C3 1540   3.413   1.449  12.797  0.4967 -0.5085  0.2711
  101MPD2    C4 1541   3.539   1.414  12.767 -0.2909 -0.3788  1.0620
  101MPD2    C5 1542   3.618   1.472  12.667 -0.3283 -0.0461  0.1323
  101MPD2     H 1543   3.242   1.561  12.742 -0.6391 -0.5820 -0.8021
  101MPD2    H1 1544   3.592   1.330  12.811  1.9422  2.0209  2.9102
  101MPD2    H2 1545   3.608   1.637  12.524 -1.1398  3.4085  3.0827
  101MPD2    H3 1546   3.723   1.453  12.648 -0.2964  0.2592  0.0004
  101MPD2     N 1547   3.337   1.393  12.899  0.1829  0.0484 -0.0062
  101MPD2    H5 1548   3.236   1.404  12.892  0.4380  1.1942 -1.7447
  101MPD2    N1 1549   3.377   1.715  12.542  0.6852  0.7081 -0.7180
  101MPD2    H7 1550   3.427   1.744  12.459  1.6251  0.1684 -0.3313
  102TCq2    C1 1551   3.384   2.092  12.212  0.5867  0.5693  0.0643
  102TCq2    O2 1552   3.494   2.033  12.212 -0.2657  0.1338 -1.4007
  102TCq2    C2 1553   3.283   2.048  12.307  0.3399  0.3103  0.1248
  102TCq2    C3 1554   3.164   2.106  12.318 -0.2506  1.2332 -0.5543
  102TCq2    C4 1555   3.070   2.054  12.401 -0.0731  0.1741  0.4324
  102TCq2    C5 1556   3.093   1.940  12.477  0.0535  0.0841  0.1330
  102TCq2    C6 1557   3.216   1.884  12.470 -0.1274  0.1978  0.1560
  102TCq2    C7 1558   3.309   1.945  12.387 -0.3412 -0.6554  0.1072
  102TCq2    C8 1559   3.263   1.787  12.575 -0.0845 -0.0575 -0.0489
  102TCq2    O4 1560   3.179   1.762  12.661 -0.3220  0.5719  0.0807
  102TCq2    C9 1561   2.945   2.129  12.424 -0.6727  0.1834 -0.3470
  102TCq2    O5 1562   2.936   2.244  12.367  0.6368  0.3489 -0.2532
  102TCq2    O6 1563   2.851   2.090  12.499  0.6909  0.2603 -0.1634
  102TCq2    H2 1564   3.132   2.196  12.267 -0.4668  0.7192 -1.3275
  102TCq2    H3 1565   3.013   1.899  12.537  0.4581  0.4646  0.9390
  102TCq2    H4 1566   3.412   1.912  12.399 -0.8707 -2.1453  0.6355
  103TMC2    C1 1567   2.055   1.316  12.238 -0.4156 -0.5197 -0.8607
  103TMC2    C2 1568   2.138   1.216  12.280  0.3833  0.8966  0.4702
  103TMC2    C3 1569   2.175   1.225  12.410 -0.7285  0.1541 -0.8181
  103TMC2    C4 1570   2.014   1.425  12.309  0.0144 -0.0291 -0.0035
  103TMC2    C5 1571   2.065   1.428  12.441 -0.3942  0.5517  0.2839
  103TMC2    C6 1572   2.140   1.328  12.491 -1.0669  0.4962 -0.4557
  103TMC2     C 1573   1.986   1.302  12.113  0.4324 -0.0141  0.0374
  103TMC2     O 1574   1.932   1.396  12.062  0.1093  0.0891 -0.3921
  103TMC2     H 1575   2.172   1.138  12.213 -1.7827  0.6927 -0.3962
  103TMC2    H1 1576   1.958   1.506  12.265 -0.7954 -1.3865 -1.4770
  103TMC2    H2 1577   2.172   1.322  12.595 -1.5861 -0.8691 -0.3747
  103TMC2    C7 1578   1.990   1.503  12.535 -0.6545 -0.2067  0.7605
  103TMC2    C8 1579   2.288   1.144  12.468 -0.5221  0.0555 -0.0037
  103TMC2    O1 1580   1.868   1.505  12.514  0.2049  0.1841 -0.3829
  103TMC2    O2 1581   2.362   1.170  12.555 -0.0695  0.4479 -0.4202
  103TMC2    O5 1582   2.251   1.025  12.424  0.0047  0.4580  0.1869
  103TMC2    H5 1583   2.172   1.024  12.364 -1.0850  0.4323  1.6303
  104MPD2     C 1584   1.901   0.971  11.970  0.3501 -0.0516 -1.1445
  104MPD2    C1 1585   1.888   1.111  11.982 -0.4716 -0.0270  0.4123
  104MPD2    C2 1586   1.788   1.177  11.912 -0.0153 -0.2713  0.1154
  104MPD2    C3 1587   1.693   1.105  11.838 -0.4059  0.5682 -0.1066
  104MPD2    C4 1588   1.709   0.966  11.824 -0.1064 -0.7031 -0.6906
  104MPD2    C5 1589   1.809   0.905  11.894 -0.3820  0.2417  0.2683
  104MPD2     H 1590   1.763   1.282  11.922  0.1848  0.0404 -2.4443
  104MPD2    H1 1591   1.636   0.914  11.763 -0.9910 -1.4528  0.9842
  104MPD2    H2 1592   1.968   0.914  12.033  0.1209  1.2057  0.2347
  104MPD2    H3 1593   1.808   0.797  11.891  0.5098  0.2559 -0.6733
  104MPD2     N 1594   1.579   1.181  11.788  0.9301 -0.7014  0.1798
  104MPD2    H5 1595   1.585   1.282  11.793 -2.5266 -0.6170  3.0607
  104MPD2    N1 1596   1.980   1.169  12.074 -0.1823  0.1736 -0.1019
  104MPD2    H7 1597   2.036   1.103  12.126 -0.5489 -0.2187 -0.1998
  105MPD2     C 1598   3.436   0.916  17.629  0.2862 -0.4631 -0.1311
  105MPD2    C1 1599   3.392   1.045  17.605 -0.0487  0.0284  0.2598
  105MPD2    C2 1600   3.322   1.116   0.017 -0.0379 -0.3035  0.6982
  105MPD2    C3 1601   3.271   1.043   0.127 -0.0476  0.1356 -0.2430
  105MPD2    C4 1602   3.296   0.910   0.133 -0.0955 -0.6807 -0.7068
  105MPD2    C5 1603   3.385   0.850   0.052 -0.2931  0.5206 -0.1421
  105MPD2     H 1604   3.294   1.220   0.009  0.7112 -0.3133 -2.3085
  105MPD2    H1 1605   3.252   0.850   0.211 -0.8376 -3.0094 -2.9144
  105MPD2    H2 1606   3.476   0.851  17.551  1.7123  1.4658 -0.9936
  105MPD2    H3 1607   3.388   0.742   0.049  1.2953  0.6067 -1.6690
  105MPD2     N 1608   3.198   1.118   0.220 -0.6340 -0.7771  0.6014
  105MPD2    H5 1609   3.210   1.218   0.206 -1.2021 -0.4185  2.6358
  105MPD2    N1 1610   3.419   1.102  17.478  0.6031  0.1899 -0.4745
  105MPD2    H7 1611   3.369   1.189  17.461  2.0518  0.5791 -2.7346
  106TCq2    C1 1612   3.125   1.074   0.325 -0.3794  0.2050  0.1976
  106TCq2    O2 1613   3.096   0.957   0.353  0.1428  0.6138  0.1328
  106TCq2    C2 1614   3.060   1.177   0.402  0.4346 -0.1114  0.3795
  106TCq2    C3 1615   3.102   1.307   0.394 -0.2259  0.2664  0.0183
  106TCq2    C4 1616   3.020   1.403   0.441  0.0435  0.4940 -0.0541
  106TCq2    C5 1617   2.911   1.374   0.508 -0.1523 -0.0941 -0.4762
  106TCq2    C6 1618   2.869   1.245   0.520  0.0016  0.5139 -0.6216
  106TCq2    C7 1619   2.944   1.144   0.465  0.2251  0.2117 -0.3521
  106TCq2    C8 1620   2.770   1.213   0.616  0.1950  0.3665  0.8018
  106TCq2    O4 1621   2.717   1.104   0.605 -0.2259  0.1714 -0.7249
  106TCq2    C9 1622   3.057   1.538   0.429 -0.0101 -0.2925  0.0550
  106TCq2    O5 1623   3.144   1.572   0.343  0.0730 -0.3363  0.0469
  106TCq2    O6 1624   2.976   1.618   0.482  0.3433  0.1612  0.2106
  106TCq2    H2 1625   3.200   1.328   0.350 -0.5709 -0.3648 -1.0598
  106TCq2    H3 1626   2.842   1.452   0.537 -1.3785 -0.4870 -2.3326
  106TCq2    H4 1627   2.903   1.043   0.469  2.6227 -0.6658  1.7259
  107TMC2    C1 1628   4.339   0.208  11.795 -0.6483 -0.0339 -0.4531
  107TMC2    C2 1629   4.427   0.315  11.794 -0.6066  0.1315 -0.1767
  107TMC2    C3 1630   4.543   0.292  11.733  0.0018  0.5289  0.1536
  107TMC2    C4 1631   4.372   0.085  11.745  0.1481  0.2337 -0.3752
  107TMC2    C5 1632   4.496   0.068  11.688  0.0574 -0.1310 -0.3687
  107TMC2    C6 1633   4.577   0.178  11.671 -0.4623  0.3205 -0.1180
  107TMC2     C 1634   4.235   0.217  11.898  0.1876 -0.3193 -0.4272
  107TMC2     O 1635   4.182   0.108  11.915 -0.3746  0.0206 -0.2624
  107TMC2     H 1636   4.415   0.406  11.851  2.1377  1.6189 -1.9160
  107TMC2    H1 1637   4.303   0.002  11.758  2.0802 -1.0489  1.6823
  107TMC2    H2 1638   4.678   0.166  11.633 -0.4057 -0.8287  0.3965
  107TMC2    C7 1639   4.521   4.654  11.649 -0.5838  0.2835  0.1328
  107TMC2    C8 1640   4.641   0.398  11.722 -0.9529 -0.9020  0.7007
  107TMC2    O1 1641   4.474   4.572  11.728 -0.0435 -0.0304  0.3765
  107TMC2    O2 1642   0.034   0.403  11.764  0.3931  0.0280 -0.1117
  107TMC2    O5 1643   4.582   0.509  11.668 -0.2722  0.1887  0.1652
  107TMC2    H5 1644   4.505   0.479  11.616  0.8278 -1.7473 -0.3552
  108MPD2     C 1645   4.123   0.455  12.157  0.6975 -0.5180  0.3459
  108MPD2    C1 1646   4.127   0.340  12.086  0.3295 -0.0299 -0.4296
  108MPD2    C2 1647   4.039   0.238  12.126 -0.3457  0.5183  0.2216
  108MPD2    C3 1648   3.957   0.256  12.236  0.1574  0.7429  0.6931
  108MPD2    C4 1649   3.959   0.371  12.304  0.2976  0.4284  0.8586
  108MPD2    C5 1650   4.043   0.474  12.264  0.4393 -1.1381  0.0405
  108MPD2     H 1651   4.036   0.140  12.080 -0.1038 -0.4141  2.2058
  108MPD2    H1 1652   3.888   0.375  12.385 -1.4093 -2.3184 -0.5209
  108MPD2    H2 1653   4.192   0.536  12.136 -0.0292 -0.1908 -0.7841
  108MPD2    H3 1654   4.048   0.564  12.323  2.1046 -0.3677 -1.2810
  108MPD2     N 1655   3.873   0.158  12.290  0.1853 -0.6991  0.5657
  108MPD2    H5 1656   3.829   0.170  12.381  0.9665 -2.1231  1.1274
  108MPD2    N1 1657   4.213   0.334  11.973  0.2967  0.3658 -0.5492
  108MPD2    H7 1658   4.259   0.422  11.955  0.3295  0.7331  1.3705
  109MPD2     C 1659   4.043   2.032   2.225  0.0523 -0.5345  0.3972
  109MPD2    C1 1660   4.066   2.136   2.136  0.2028  0.2085  0.5976
  109MPD2    C2 1661   4.193   2.184   2.123 -0.2721 -0.1719 -0.7353
  109MPD2    C3 1662   4.301   2.139   2.202  0.1480  0.1454 -0.1879
  109MPD2    C4 1663   4.276   2.034   2.289  0.0994 -0.6480 -0.2272
  109MPD2    C5 1664   4.146   1.976   2.290  0.4211 -0.5772  0.0489
  109MPD2     H 1665   4.199   2.271   2.058 -0.6214 -0.9645 -1.8282
  109MPD2    H1 1666   4.350   1.996   2.358  1.8125  2.1034 -0.5520
  109MPD2    H2 1667   3.945   1.991   2.246 -0.4921  0.3205 -0.4345
  109MPD2    H3 1668   4.121   1.894   2.357 -0.1983  1.6603  2.5098
  109MPD2     N 1669   4.424   2.206   2.200  0.2743 -0.0162  0.7246
  109MPD2    H5 1670   4.434   2.291   2.144 -2.4980  0.2730  0.6433
  109MPD2    N1 1671   3.957   2.187   2.057  0.3843 -0.7744  0.5608
  109MPD2    H7 1672   3.865   2.144   2.057  0.7966 -1.6682  0.7446
  110TCq2    C1 1673   4.539   2.172   2.267 -0.6216 -0.1696  0.5540
  110TCq2    O2 1674   4.556   2.082   2.350  0.4229  0.0569 -0.3528
  110TCq2    C2 1675   4.640   2.265   2.222  0.1787 -1.0330  0.0139
  110TCq2    C3 1676   0.049   2.252   2.272 -0.1088  0.1929 -0.2186
  110TCq2    C4 1677   0.136   2.352   2.253 -0.3062 -0.2459 -0.1179
  110TCq2    C5 1678   0.105   2.458   2.174 -0.4092 -0.6337 -0.2442
  110TCq2    C6 1679   4.703   2.453   2.109  0.0887 -1.0458  0.0906
  110TCq2    C7 1680   4.606   2.360   2.133 -0.0428 -0.5064 -0.6343
  110TCq2    C8 1681   4.669   2.554   2.009  0.6181  0.0383 -0.2243
  110TCq2    O4 1682   4.550   2.584   2.002  0.1226 -0.2084 -0.3444
  110TCq2    C9 1683   0.270   2.362   2.313  0.3017  0.0841 -0.0079
  110TCq2    O5 1684   0.311   2.280   2.396  0.1761  0.5579 -0.0260
  110TCq2    O6 1685   0.358   2.433   2.253  0.5428  0.0329  0.5831
  110TCq2    H2 1686   0.081   2.182   2.348  0.8788 -0.7458 -1.4897
  110TCq2    H3 1687   0.167   2.546   2.167 -0.9454 -0.1852  0.6201
  110TCq2    H4 1688   4.517   2.368   2.071  1.4825 -0.0912 -2.7720
  111TMC2    C1 1689   4.202   2.765  11.059 -0.1839  0.8191  0.1957
  111TMC2    C2 1690   4.284   2.738  10.951 -0.1480 -0.4766 -0.2818
  111TMC2    C3 1691   4.411   2.682  10.970  0.0138  0.0934 -0.6547
  111TMC2    C4 1692   4.249   2.749  11.184 -0.2431 -0.2941 -0.1344
  111TMC2    C5 1693   4.373   2.703  11.201 -0.1008  0.0998  0.5848
  111TMC2    C6 1694   4.459   2.664  11.098  0.0350 -0.1277  0.4048
  111TMC2     C 1695   4.060   2.757  11.023 -0.2054  0.1527  1.1603
  111TMC2     O 1696   4.034   2.773  10.903  0.3181 -0.3004 -0.1002
  111TMC2     H 1697   4.243   2.744  10.851 -0.2837 -0.0172 -0.2018
  111TMC2    H1 1698   4.181   2.758  11.268 -0.7004 -2.4059 -0.2838
  111TMC2    H2 1699   4.560   2.632  11.120  0.3271  0.6991  0.2712
  111TMC2    C7 1700   4.392   2.651  11.336  0.0535  0.5936 -0.1283
  111TMC2    C8 1701   4.435   2.559  10.895  0.0259  0.6348 -0.1106
  111TMC2    O1 1702   4.315   2.693  11.418  0.2145 -0.0301 -0.2119
  111TMC2    O2 1703   4.337   2.504  10.853 -0.5810 -0.1179 -0.3241
  111TMC2    O5 1704   4.561   2.574  10.841 -0.0744 -0.1669 -0.1601
  111TMC2    H5 1705   4.606   2.650  10.883  0.0737 -0.3788  0.0615
  112MPD2     C 1706   3.561   2.666  11.109 -0.5909 -0.3553 -0.0307
  112MPD2    C1 1707   3.626   2.727  11.005 -0.0469 -0.0540 -0.3658
  112MPD2    C2 1708   3.763   2.746  10.999 -0.1875 -0.6635 -0.2409
  112MPD2    C3 1709   3.833   2.701  11.107 -0.2182  0.6236 -0.3539
  112MPD2    C4 1710   3.770   2.640  11.211  0.9354 -0.2038 -0.1521
  112MPD2    C5 1711   3.635   2.621  11.215 -0.4739  0.7402 -0.2764
  112MPD2     H 1712   3.803   2.811  10.922  0.5455 -0.3135  0.4323
  112MPD2    H1 1713   3.820   2.601  11.299  1.0510  1.2877  0.4407
  112MPD2    H2 1714   3.455   2.645  11.115 -0.6975  0.8379  2.2878
  112MPD2    H3 1715   3.582   2.573  11.297  0.3608 -0.6429 -0.5585
  112MPD2     N 1716   3.972   2.726  11.120  0.6393  0.5344 -0.1252
  112MPD2    H5 1717   4.012   2.689  11.206 -1.7989 -1.3956  0.1878
  112MPD2    N1 1718   3.550   2.775  10.895 -0.3514  0.3937  0.0950
  112MPD2    H7 1719   3.597   2.827  10.822 -3.3458  1.5238 -1.0457
  113MPD2     C 1720   2.323   0.409   1.171 -0.5606 -0.4799 -0.2930
  113MPD2    C1 1721   2.236   0.512   1.148  0.1826  0.4144 -0.3235
  113MPD2    C2 1722   2.143   0.501   1.047  0.5215 -0.4460 -0.3212
  113MPD2    C3 1723   2.143   0.392   0.964  0.2363  0.3794  0.1822
  113MPD2    C4 1724   2.227   0.284   0.988 -0.2131  0.0352 -0.3406
  113MPD2    C5 1725   2.318   0.295   1.093  0.7650  0.5950 -0.2933
  113MPD2     H 1726   2.076   0.582   1.020 -0.9868 -1.1656  1.2711
  113MPD2    H1 1727   2.220   0.194   0.929 -1.7173 -0.5014  0.6581
  113MPD2    H2 1728   2.399   0.413   1.248 -1.7028 -1.7998  0.8849
  113MPD2    H3 1729   2.394   0.220   1.113  1.0643  1.0797  0.3683
  113MPD2     N 1730   2.058   0.376   0.854  0.2159 -0.3690 -0.5828
  113MPD2    H5 1731   2.050   0.284   0.813  1.7696 -0.7450 -0.0326
  113MPD2    N1 1732   2.243   0.627   1.229  0.2134 -0.0079 -0.1483
  113MPD2    H7 1733   2.173   0.698   1.211  1.5066  0.6437 -2.7182
  114TCq2    C1 1734   1.962   0.464   0.810  0.5954 -0.0812  0.0664
  114TCq2    O2 1735   1.946   0.583   0.841 -0.1477 -0.0309 -0.4177
  114TCq2    C2 1736   1.875   0.396   0.708  0.2460  0.3198  0.3616
  114TCq2    C3 1737   1.802   0.474   0.623 -0.8557  0.3870  0.1860
  114TCq2    C4 1738   1.748   0.422   0.510  0.8654  0.4969  0.3802
  114TCq2    C5 1739   1.776   0.294   0.479  0.1573  0.0280  0.2501
  114TCq2    C6 1740   1.844   0.209   0.566  0.2077 -0.6107  0.0779
  114TCq2    C7 1741   1.890   0.262   0.682  0.8191  0.4337  0.7046
  114TCq2    C8 1742   1.814   0.066   0.552 -0.2484 -0.7861  0.5963
  114TCq2    O4 1743   1.795   0.026   0.439  0.5800 -0.3169  0.7381
  114TCq2    C9 1744   1.686   0.507   0.408 -0.0359 -0.2201 -0.6735
  114TCq2    O5 1745   1.619   0.448   0.318  0.3595 -0.0665 -1.0039
  114TCq2    O6 1746   1.720   0.624   0.399  0.1064 -0.1743  0.1676
  114TCq2    H2 1747   1.798   0.581   0.641 -2.7802  0.4025 -0.2637
  114TCq2    H3 1748   1.735   0.249   0.389  0.8992 -2.5263  1.1766
  114TCq2    H4 1749   1.958   0.203   0.743  0.3648 -0.8147  0.0081
  115TMC2    C1 1750   3.524   3.574  17.230  0.1219  0.5824 -1.1585
  115TMC2    C2 1751   3.623   3.488  17.213  0.0965 -0.2343  0.0483
  115TMC2    C3 1752   3.754   3.526  17.258 -1.0028  0.1106 -0.2312
  115TMC2    C4 1753   3.532   3.689  17.298 -0.8986  0.2288 -0.2565
  115TMC2    C5 1754   3.660   3.729  17.324  0.7752  0.7049 -0.7497
  115TMC2    C6 1755   3.768   3.646  17.306 -0.3131 -0.3378 -0.8045
  115TMC2     C 1756   3.394   3.533  17.187 -0.2596 -0.0210 -0.0730
  115TMC2     O 1757   3.373   3.413  17.190  0.0634  0.0858 -0.1247
  115TMC2     H 1758   3.599   3.390  17.174  0.0158 -1.2340  2.5863
  115TMC2    H1 1759   3.447   3.744  17.337 -0.1843  0.9327  0.2833
  115TMC2    H2 1760   3.863   3.682  17.343 -0.7767 -1.5020  1.5111
  115TMC2    C7 1761   3.690   3.847  17.390 -0.7334  0.8120  0.1212
  115TMC2    C8 1762   3.873   3.455  17.226  0.0249  0.4853  0.7557
  115TMC2    O1 1763   3.781   3.845  17.471 -0.4259  0.1984  0.6022
  115TMC2    O2 1764   3.969   3.519  17.187 -0.8637 -0.3073  0.1718
  115TMC2    O5 1765   3.841   3.331  17.202  0.3182 -0.7067 -0.2817
  115TMC2    H5 1766   3.759   3.314  17.253  0.3898 -2.7901 -0.8668
  116MPD2     C 1767   2.929   3.642  17.027  0.4633 -0.0881  0.3209
  116MPD2    C1 1768   2.980   3.519  17.064 -0.0633  0.1148  0.3067
  116MPD2    C2 1769   3.112   3.520  17.099 -0.0554 -0.4660  0.3543
  116MPD2    C3 1770   3.187   3.637  17.091 -0.0954  0.2904 -0.2142
  116MPD2    C4 1771   3.134   3.757  17.056  0.3217 -0.5377 -0.2132
  116MPD2    C5 1772   3.005   3.758  17.019  0.4444 -0.6486 -0.4039
  116MPD2     H 1773   3.167   3.430  17.124  1.5797  0.5561  0.5064
  116MPD2    H1 1774   3.188   3.850  17.058  1.6564 -1.3001 -0.7852
  116MPD2    H2 1775   2.825   3.652  16.999  0.3910  0.3290  0.7339
  116MPD2    H3 1776   2.967   3.856  16.991  0.3909 -0.5429  0.0483
  116MPD2     N 1777   3.325   3.643  17.137 -0.1131 -0.3639 -0.5427
  116MPD2    H5 1778   3.376   3.731  17.141  0.4147 -0.7331  0.7237
  116MPD2    N1 1779   2.893   3.407  17.081 -0.0060 -0.0734  0.2323
  116MPD2    H7 1780   2.797   3.417  17.051  0.5257  0.0002 -1.4207
  117TMC2    C1 1781   1.359   4.311  14.077  0.4834 -0.2360  0.5314
  117TMC2    C2 1782   1.374   4.238  14.194 -0.3659 -0.9743  0.4281
  117TMC2    C3 1783   1.494   4.256  14.256 -0.3135  0.5111 -0.3616
  117TMC2    C4 1784   1.466   4.380  14.025  0.6855 -0.2073  0.1388
  117TMC2    C5 1785   1.580   4.383  14.091  0.6227  0.1457  0.1068
  117TMC2    C6 1786   1.600   4.327  14.213  0.5945  1.0348 -0.4927
  117TMC2     C 1787   1.229   4.358  14.028 -0.0037  0.2986  0.5095
  117TMC2     O 1788   1.224   4.477  14.009  0.3318 -0.0169 -0.4632
  117TMC2     H 1789   1.287   4.192  14.238 -0.3793 -1.8551 -0.5141
  117TMC2    H1 1790   1.464   4.435  13.931 -0.1074 -0.5230 -0.0252
  117TMC2    H2 1791   1.691   4.342  14.271  1.2696 -3.1923 -0.4964
  117TMC2    C7 1792   1.667   4.494  14.055 -0.3506 -0.4467 -0.3203
  117TMC2    C8 1793   1.490   4.223  14.393 -0.1752 -0.5535 -0.1243
  117TMC2    O1 1794   1.620   4.578  13.982  0.1284  0.6605 -0.5165
  117TMC2    O2 1795   1.381   4.221  14.448 -0.6687  0.1279 -0.3996
  117TMC2    O5 1796   1.585   4.124  14.401  0.3536 -0.4207 -0.0635
  117TMC2    H5 1797   1.649   4.126  14.327  0.4245  1.7013  0.0554
  118MPD2     C 1798   2.031   4.535  14.077 -0.0058 -0.0786 -0.7559
  118MPD2    C1 1799   1.903   4.569  14.049  0.5824  0.2146 -0.2136
  118MPD2    C2 1800   1.880   4.694  13.987 -0.0872  0.5785  0.1818
  118MPD2    C3 1801   1.988   0.047  13.937 -0.0293  0.0847 -0.9805
  118MPD2    C4 1802   2.113   0.016  13.980 -0.0207  1.1244  0.0251
  118MPD2    C5 1803   2.134   4.611  14.035 -0.1922  0.3003  0.7387
  118MPD2     H 1804   1.781   0.007  13.956  0.6835  0.2849 -2.6487
  118MPD2    H1 1805   2.198   0.078  13.952  3.4200 -2.9774  1.3450
  118MPD2    H2 1806   2.048   4.440  14.127 -1.4147 -0.2735 -0.6380
  118MPD2    H3 1807   2.232   4.577  14.066  0.0433  1.1299  0.8917
  118MPD2     N 1808   1.972   0.162  13.854 -0.4603  0.0241  0.4425
  118MPD2    H5 1809   2.054   0.218  13.833 -0.7675 -0.1024 -1.0858
  118MPD2    N1 1810   1.798   4.479  14.083 -0.2723 -0.6214 -0.2348
  118MPD2    H7 1811   1.835   4.398  14.132  0.0670 -0.2794  0.0795
  119MPD2     C 1812   4.362   1.224  13.163  0.1437 -0.7902  0.1565
  119MPD2    C1 1813   4.374   1.262  13.296 -0.3610  0.0450  0.4707
  119MPD2    C2 1814   4.421   1.173  13.393 -0.1171 -0.0307  0.4621
  119MPD2    C3 1815   4.474   1.051  13.349 -0.1665  0.1247  0.2206
  119MPD2    C4 1816   4.474   1.021  13.215  0.0107  0.7677 -0.3519
  119MPD2    C5 1817   4.409   1.106  13.119 -0.1705  0.4108 -0.4492
  119MPD2     H 1818   4.414   1.189  13.500  0.0099 -0.8717  0.5943
  119MPD2    H1 1819   4.501   0.920  13.187 -1.6344 -0.2204  1.6005
  119MPD2    H2 1820   4.330   1.294  13.087  0.0482  0.6565  1.5286
  119MPD2    H3 1821   4.404   1.082  13.014 -0.0728  0.7843 -0.5372
  119MPD2     N 1822   4.514   0.962  13.456 -0.4449 -0.4370  0.4256
  119MPD2    H5 1823   4.509   0.983  13.555  0.8346 -0.7313  0.5625
  119MPD2    N1 1824   4.299   1.374  13.338  0.2018 -0.3033 -0.3459
  119MPD2    H7 1825   4.217   1.406  13.287  0.1464  0.8723  0.4819
  120TCq2    C1 1826   4.580   0.846  13.431  0.1365  0.3596 -0.2515
  120TCq2    O2 1827   4.638   0.808  13.330 -0.4818 -0.1451 -0.0577
  120TCq2    C2 1828   4.584   0.778  13.552  0.2365 -0.6604  0.1395
  120TCq2    C3 1829   4.700   0.722  13.588 -0.8169  0.5527 -0.0656
  120TCq2    C4 1830   0.005   0.718  13.721  0.9239 -0.3880 -0.0072
  120TCq2    C5 1831   4.630   0.754  13.817 -0.4800 -1.0213 -0.2121
  120TCq2    C6 1832   4.505   0.796  13.771 -0.2756 -0.1747 -0.5096
  120TCq2    C7 1833   4.481   0.807  13.635 -0.4396  0.5694 -0.1431
  120TCq2    C8 1834   4.393   0.841  13.854 -0.6408 -0.9496  0.2596
  120TCq2    O4 1835   4.317   0.923  13.805  0.7645  0.1301 -0.1480
  120TCq2    C9 1836   0.141   0.671  13.763  0.5132 -0.1217  0.2286
  120TCq2    O5 1837   0.156   0.637  13.883  0.1052  0.1108  0.3592
  120TCq2    O6 1838   0.235   0.655  13.677 -0.0885 -0.0565  0.1829
  120TCq2    H2 1839   0.069   0.715  13.527  0.4566  3.1772  1.5217
  120TCq2    H3 1840   4.651   0.740  13.922 -0.1892  2.1105  0.1474
  120TCq2    H4 1841   4.379   0.831  13.605 -0.9567  1.6978  2.5434
  121TMC2    C1 1842   0.855   2.571  14.158 -0.1715 -0.3021  1.2248
  121TMC2    C2 1843   0.844   2.500  14.275  0.0421  0.4893  0.3440
  121TMC2    C3 1844   0.722   2.452  14.311 -0.7346  1.1503 -0.2522
  121TMC2    C4 1845   0.741   2.611  14.089 -0.1366  0.3637  0.8372
  121TMC2    C5 1846   0.623   2.568  14.143  0.5905 -0.1268 -0.4296
  121TMC2    C6 1847   0.605   2.485  14.252  0.5445  0.0117  1.1491
  121TMC2     C 1848   0.984   2.635  14.139  0.3545  0.6567 -0.4066
  121TMC2     O 1849   1.059   2.640  14.233  0.4894 -0.3747  0.0094
  121TMC2     H 1850   0.932   2.455  14.320  0.5280  0.9356 -0.1493
  121TMC2    H1 1851   0.749   2.682  14.008 -0.1507 -0.8813 -0.2475
  121TMC2    H2 1852   0.507   2.454  14.288  0.9821 -1.0790  1.3732
  121TMC2    C7 1853   0.506   2.586  14.056 -0.4413  0.5778  0.2764
  121TMC2    C8 1854   0.714   2.378  14.430 -0.2049  0.2431 -0.4661
  121TMC2    O1 1855   0.514   2.675  13.971 -0.1552 -0.7489  0.1685
  121TMC2    O2 1856   0.807   2.366  14.507  0.4889  0.3339  0.3987
  121TMC2    O5 1857   0.597   2.302  14.433  0.2635 -0.8191 -0.2440
  121TMC2    H5 1858   0.559   2.291  14.344  2.4061  0.2584 -1.2929
  122MPD2     C 1859   1.183   2.832  14.083  0.2194 -0.4933  0.3915
  122MPD2    C1 1860   1.102   2.788  13.985 -0.4801  0.3237  0.4460
  122MPD2    C2 1861   1.130   2.818  13.851 -0.1483 -0.6485  0.0665
  122MPD2    C3 1862   1.239   2.900  13.814  0.0488  0.3727 -0.0746
  122MPD2    C4 1863   1.316   2.945  13.918  0.0017  0.3004 -0.1622
  122MPD2    C5 1864   1.287   2.915  14.047 -0.3228  0.6179 -0.6873
  122MPD2     H 1865   1.067   2.771  13.776 -0.8598  0.8805 -0.2959
  122MPD2    H1 1866   1.396   3.017  13.898  0.6469 -0.2229  0.5171
  122MPD2    H2 1867   1.144   2.835  14.184 -0.4998  2.3953  0.0289
  122MPD2    H3 1868   1.340   2.980  14.117 -0.9046  2.1991 -1.7177
  122MPD2     N 1869   1.279   2.929  13.679 -0.1460  0.5729  0.0931
  122MPD2    H5 1870   1.365   2.983  13.674 -1.3000  2.1682 -2.2104
  122MPD2    N1 1871   0.995   2.696  14.018  0.5225 -0.1108 -0.0898
  122MPD2    H7 1872   0.931   2.678  13.941  1.2477  0.9310 -0.9417
  123MPD2     C 1873   4.082   1.013  10.568  0.7419 -0.7511 -0.1180
  123MPD2    C1 1874   4.051   0.978  10.442  0.6028 -0.1722 -0.3078
  123MPD2    C2 1875   4.140   0.998  10.338  0.0806 -0.4670 -0.2652
  123MPD2    C3 1876   4.268   1.048  10.364  0.1030  0.5154  0.5084
  123MPD2    C4 1877   4.300   1.081  10.491 -0.4110  0.1644 -0.4689
  123MPD2    C5 1878   4.205   1.070  10.588  0.0492  0.9512  0.4205
  123MPD2     H 1879   4.118   0.969  10.235  1.7937  0.1571 -0.8064
  123MPD2    H1 1880   4.395   1.122  10.524 -1.1746  0.1252  1.7268
  123MPD2    H2 1881   4.012   0.999  10.650  1.1526 -0.0093  0.3664
  123MPD2    H3 1882   4.250   1.091  10.685  1.3382 -1.7742  0.4019
  123MPD2     N 1883   4.365   1.050  10.258 -0.2035 -0.4017 -0.5099
  123MPD2    H5 1884   4.336   1.007  10.171 -0.7797  0.9367 -0.9604
  123MPD2    N1 1885   3.928   0.910  10.430  0.4044 -0.3321  0.5344
  123MPD2    H7 1886   3.883   0.883  10.517 -0.0449 -0.6818  0.1925
  124TCq2    C1 1887   4.497   1.070  10.280  0.1504  0.4895 -0.4348
  124TCq2    O2 1888   4.552   1.102  10.381  0.3345  0.3954 -0.0156
  124TCq2    C2 1889   4.577   1.049  10.161 -0.6486  0.3900  0.0921
  124TCq2    C3 1890   4.704   1.023  10.167  0.1303 -0.0235 -0.3899
  124TCq2    C4 1891   0.061   1.024  10.054 -0.2541 -0.5261  0.0236
  124TCq2    C5 1892   0.010   1.060   9.934 -0.2832  0.6408  0.5840
  124TCq2    C6 1893   4.600   1.082   9.934  0.3868  0.1878  0.1839
  124TCq2    C7 1894   4.516   1.077  10.044 -0.0290 -0.4793  0.0034
  124TCq2    C8 1895   4.537   1.126   9.808 -0.2262 -0.8236 -0.0548
  124TCq2    O4 1896   4.414   1.133   9.808  0.1074 -0.5844  0.8437
  124TCq2    C9 1897   0.202   1.005  10.077  0.4936 -0.8036 -1.0647
  124TCq2    O5 1898   0.247   0.968  10.191 -0.3052  0.4492 -0.1015
  124TCq2    O6 1899   0.274   0.996   9.978 -0.3752  0.5967  0.1167
  124TCq2    H2 1900   0.021   1.002  10.267  3.0897  2.9193 -0.8721
  124TCq2    H3 1901   0.070   1.057   9.844  0.6054 -0.1545  1.1942
  124TCq2    H4 1902   4.417   1.121  10.039 -0.1701 -1.2678 -3.4535
  125TMC2    C1 1903   0.544   2.824   9.795  0.9045  0.3500 -0.3445
  125TMC2    C2 1904   0.554   2.949   9.840 -0.0631  0.1465  0.0240
  125TMC2    C3 1905   0.602   3.043   9.749  0.7557 -0.4078 -0.1810
  125TMC2    C4 1906   0.571   2.787   9.667 -0.4763 -0.2007  0.2652
  125TMC2    C5 1907   0.609   2.886   9.583  0.0297 -0.0677  0.3623
  125TMC2    C6 1908   0.635   3.011   9.622 -1.1076 -0.5752 -0.3685
  125TMC2     C 1909   0.523   2.726   9.893 -0.6921 -0.4545  0.0045
  125TMC2     O 1910   0.575   2.745  10.004 -0.0429  0.4770 -0.3801
  125TMC2     H 1911   0.516   2.972   9.939  0.1074  2.8498 -0.5551
  125TMC2    H1 1912   0.553   2.687   9.630 -2.4641 -0.1900  1.1873
  125TMC2    H2 1913   0.648   3.092   9.550 -1.9408 -1.4284 -1.4837
  125TMC2    C7 1914   0.654   2.838   9.450  0.7381 -0.5957 -0.1274
  125TMC2    C8 1915   0.621   3.172   9.808  0.4304  0.6366  0.4625
  125TMC2    O1 1916   0.593   2.746   9.398 -0.2397  0.3346  0.8074
  125TMC2    O2 1917   0.566   3.199   9.913  0.1966 -0.7382  0.7137
  125TMC2    O5 1918   0.750   3.189   9.783  0.1404  0.1942 -0.7922
  125TMC2    H5 1919   0.780   3.117   9.724 -1.3906 -0.6561 -0.5402
  126MPD1     C 1920   0.377   2.255  10.036  0.0965 -0.3675  0.1338
  126MPD1    C1 1921   0.293   2.303   9.946  0.1900 -0.1366  0.5399
  126MPD1    C2 1922   0.321   2.423   9.885 -0.0957 -0.0544  0.6088
  126MPD1    C3 1923   0.428   2.498   9.926 -0.1539  0.2172  0.5601
  126MPD1    C4 1924   0.506   2.457  10.035  1.1329 -0.4265 -0.6613
  126MPD1    C5 1925   0.486   2.328  10.077 -0.2027  0.9123 -0.8625
  126MPD1     H 1926   0.258   2.464   9.806  1.6053  0.2332 -0.5994
  126MPD1    H1 1927   0.580   2.522  10.082  0.4399  1.0319 -1.5804
  126MPD1    H2 1928   0.364   2.158  10.082  1.6075 -0.6779 -0.0929
  126MPD1    H3 1929   0.556   2.297  10.154 -1.9630  1.5980  1.0032
  126MPD1     N 1930   0.435   2.623   9.859  0.5873  1.0817 -0.5074
  126MPD1    H5 1931   0.374   2.640   9.779 -0.7386 -3.3185 -0.4070
  126MPD1    N1 1932   0.188   2.225   9.903  0.3594 -0.8499 -0.3869
  126MPD1    H6 1933   0.148   2.169   9.978 -0.4078  0.0845 -0.0986
  126MPD1    H7 1934   0.113   2.280   9.862 -0.3581 -0.5470  1.3580
  127MPD2     C 1935   1.733   1.880   9.419 -0.2613  0.5710 -0.6893
  127MPD2    C1 1936   1.719   1.879   9.553 -0.1127 -0.1060 -0.0439
  127MPD2    C2 1937   1.788   1.970   9.635 -0.1996 -0.4005  0.7450
  127MPD2    C3 1938   1.868   2.066   9.578 -0.2384  0.1789  0.1946
  127MPD2    C4 1939   1.891   2.058   9.443  0.0729  0.1207 -0.4822
  127MPD2    C5 1940   1.825   1.969   9.361  0.1214  0.2411  0.1131
  127MPD2     H 1941   1.759   1.975   9.740  0.3155 -1.8003  0.9534
  127MPD2    H1 1942   1.968   2.113   9.390  0.6320 -0.0930  0.0983
  127MPD2    H2 1943   1.683   1.802   9.362  3.3263 -1.6141 -0.8847
  127MPD2    H3 1944   1.826   1.985   9.254  1.5685  1.2312  0.2796
  127MPD2     N 1945   1.938   2.160   9.652 -0.2988 -0.6270 -0.5381
  127MPD2    H5 1946   1.934   2.137   9.751 -0.2258  0.9704 -0.1650
  127MPD2    N1 1947   1.636   1.776   9.609  0.5172  0.4482 -0.3159
  127MPD2    H7 1948   1.575   1.727   9.544  0.6226 -0.5821  0.3590
  128TCq2    C1 1949   1.630   1.750   9.745 -0.9379  0.2296 -0.4748
  128TCq2    O2 1950   1.715   1.768   9.831 -0.3318 -0.5419 -0.2580
  128TCq2    C2 1951   1.528   1.649   9.778  0.1289  0.4814  0.0282
  128TCq2    C3 1952   1.537   1.571   9.895  0.0187 -0.4940  0.7228
  128TCq2    C4 1953   1.458   1.456   9.897  0.2260  0.5222 -0.6596
  128TCq2    C5 1954   1.362   1.425   9.801  0.6382 -0.4576  0.5218
  128TCq2    C6 1955   1.346   1.517   9.701 -0.3451 -0.6616  0.3196
  128TCq2    C7 1956   1.425   1.628   9.689  0.2428  0.3718  0.2082
  128TCq2    C8 1957   1.248   1.489   9.593 -0.3658  0.6742  0.2250
  128TCq2    O4 1958   1.209   1.582   9.521 -0.4133  0.2529  0.5434
  128TCq2    C9 1959   1.498   1.352   9.993  0.2271  0.0663 -1.0239
  128TCq2    O5 1960   1.493   1.234   9.953 -0.1449  0.0334  0.0924
  128TCq2    O6 1961   1.540   1.391  10.102 -0.2325 -0.4839 -0.2401
  128TCq2    H2 1962   1.621   1.570   9.963 -2.1725 -0.3802  3.4691
  128TCq2    H3 1963   1.300   1.339   9.822  0.3989 -0.5735 -0.6582
  128TCq2    H4 1964   1.403   1.692   9.605  0.5794 -0.2568 -0.3664
  129MPD2     C 1965   4.615   2.833   1.184  0.0215 -0.8370  0.0127
  129MPD2    C1 1966   0.007   2.844   1.263  0.0814  0.1145  0.1145
  129MPD2    C2 1967   0.114   2.927   1.233 -0.6453 -0.8853 -0.0992
  129MPD2    C3 1968   0.096   3.014   1.125 -0.0360 -0.4159 -0.0249
  129MPD2    C4 1969   4.695   3.008   1.047 -0.0095 -0.0531  0.6654
  129MPD2    C5 1970   4.600   2.909   1.075 -0.4693 -0.0210  0.8881
  129MPD2     H 1971   0.203   2.920   1.294 -0.6159 -3.1562 -0.3803
  129MPD2    H1 1972   4.681   3.074   0.962  0.9219 -1.6572 -0.7388
  129MPD2    H2 1973   4.553   2.745   1.196  0.6722 -1.6066 -2.3344
  129MPD2    H3 1974   4.513   2.901   1.011  0.9295 -1.4008 -0.8805
  129MPD2     N 1975   0.218   3.083   1.083 -0.0894  0.3952  0.4121
  129MPD2    H5 1976   0.298   3.068   1.144 -0.3227  0.1370  0.6570
  129MPD2    N1 1977   0.045   2.745   1.367  0.0405  0.0355  0.1575
  129MPD2    H7 1978   0.137   2.754   1.409 -1.3841  1.6133  2.9330
  130TCq2    C1 1979   4.685   2.633   1.386 -0.9074 -0.6590  0.0434
  130TCq2    O2 1980   4.560   2.630   1.390 -0.0578 -0.3894 -0.1265
  130TCq2    C2 1981   0.041   2.535   1.461 -0.1863 -0.4434 -0.5667
  130TCq2    C3 1982   0.180   2.540   1.465  0.3688  0.2289  0.7364
  130TCq2    C4 1983   0.247   2.474   1.562 -0.0281 -0.9569  0.4846
  130TCq2    C5 1984   0.181   2.415   1.667 -0.9834 -0.5364 -0.5584
  130TCq2    C6 1985   0.040   2.415   1.665 -0.6677  0.8014  0.4186
  130TCq2    C7 1986   4.691   2.474   1.565 -0.0750  0.0714 -0.0965
  130TCq2    C8 1987   4.693   2.311   1.741  0.3339  0.1981 -0.7600
  130TCq2    O4 1988   4.571   2.328   1.756 -0.3006  0.3020  0.1153
  130TCq2    C9 1989   0.385   2.469   1.569 -0.0351 -0.2646  0.2049
  130TCq2    O5 1990   0.442   2.386   1.648  0.2494  0.2605  0.1804
  130TCq2    O6 1991   0.439   2.548   1.488 -0.4995  0.2280 -0.3148
  130TCq2    H2 1992   0.240   2.588   1.388 -1.1691 -1.0668 -1.2846
  130TCq2    H3 1993   0.240   2.375   1.748  0.1803 -1.0164 -1.6527
  130TCq2    H4 1994   4.583   2.460   1.564 -0.0046 -0.4374 -1.4532
  131MPD2     C 1995   3.136   1.232  10.046  0.6706 -0.1993  0.0364
  131MPD2    C1 1996   3.264   1.230   9.989 -0.1739  0.1721 -0.1964
  131MPD2    C2 1997   3.364   1.143  10.037 -0.0816  0.0312 -0.6658
  131MPD2    C3 1998   3.332   1.048  10.137  0.0213 -0.5194  0.0763
  131MPD2    C4 1999   3.210   1.070  10.200 -0.1091  0.2106 -1.0960
  131MPD2    C5 2000   3.113   1.158  10.159  0.1027 -0.4512  0.3052
  131MPD2     H 2001   3.460   1.121   9.992 -0.2697  0.3898 -1.2430
  131MPD2    H1 2002   3.171   1.007  10.278 -2.6318  2.0334 -0.8739
  131MPD2    H2 2003   3.060   1.297  10.005 -0.7225 -1.1737  1.0673
  131MPD2    H3 2004   3.010   1.141  10.187 -0.0005  3.4677  2.2675
  131MPD2     N 2005   3.434   0.952  10.174  0.0699  0.4595  0.4412
  131MPD2    H5 2006   3.524   0.950  10.127 -1.4334 -2.4012 -2.2719
  131MPD2    N1 2007   3.294   1.311   9.875 -0.4142  0.0006 -0.1215
  131MPD2    H7 2008   3.209   1.352   9.839 -1.7437 -3.1210 -0.5618
  132TCq2    C1 2009   3.603   1.591   9.452 -0.0160  0.3635 -0.2004
  132TCq2    O2 2010   3.578   1.627   9.337 -0.0841  0.0245 -0.2530
  132TCq2    C2 2011   3.495   1.532   9.521  0.4901  0.4891 -0.2631
  132TCq2    C3 2012   3.368   1.551   9.451  0.0751  0.4502 -0.3047
  132TCq2    C4 2013   3.261   1.475   9.497  0.2251  0.0663 -0.5035
  132TCq2    C5 2014   3.274   1.413   9.621 -0.7659  1.1062  0.7151
  132TCq2    C6 2015   3.402   1.399   9.676 -0.6230  0.6673  0.0917
  132TCq2    C7 2016   3.516   1.449   9.626  0.0059  0.0527 -0.4625
  132TCq2    C8 2017   3.415   1.326   9.807  0.1744 -0.9083  0.5958
  132TCq2    O4 2018   3.525   1.303   9.849  0.3306  0.2067  0.9180
  132TCq2    C9 2019   3.137   1.491   9.428 -0.6001 -0.0738  0.9920
  132TCq2    O5 2020   3.129   1.586   9.345  0.2350 -0.4135 -0.1894
  132TCq2    O6 2021   3.048   1.408   9.464 -0.1467  1.5014 -0.1481
  132TCq2    H2 2022   3.352   1.609   9.361  0.3512  0.3655 -0.4093
  132TCq2    H3 2023   3.186   1.364   9.661 -0.0056  1.3203  2.6889
  132TCq2    H4 2024   3.611   1.429   9.674 -0.3574  0.9631  0.6202
  133MPD2     C 2025   2.162   1.093   9.849 -0.0750  0.3320 -0.0378
  133MPD2    C1 2026   2.134   1.167   9.737 -0.3095 -0.0078  0.3754
  133MPD2    C2 2027   2.202   1.288   9.716  0.6207 -0.1000  0.0946
  133MPD2    C3 2028   2.297   1.331   9.810 -0.4439 -1.0428 -0.0900
  133MPD2    C4 2029   2.327   1.249   9.916  0.0872  0.2283  0.4106
  133MPD2    C5 2030   2.255   1.132   9.935 -0.2865  0.5002  0.4374
  133MPD2     H 2031   2.191   1.346   9.625  2.2524  1.1298  0.6921
  133MPD2    H1 2032   2.399   1.278   9.992  2.4335 -0.6838 -1.4794
  133MPD2    H2 2033   2.111   1.000   9.868  2.9068 -1.1401  0.8540
  133MPD2    H3 2034   2.274   1.072  10.024  1.6727 -0.4464 -0.6204
  133MPD2     N 2035   2.368   1.457   9.795 -0.7959  0.4092  0.1720
  133MPD2    H5 2036   2.430   1.480   9.872 -0.5282 -0.7744  0.3126
  133MPD2    N1 2037   2.034   1.118   9.650  0.7316  0.4806  0.2313
  133MPD2    H7 2038   1.969   1.050   9.689 -1.2546  0.6814 -2.7266
  134TCq2    C1 2039   2.005   1.170   9.527  0.7365 -0.0864  0.3112
  134TCq2    O2 2040   2.044   1.267   9.461  0.2668  0.5752  0.1125
  134TCq2    C2 2041   1.908   1.094   9.450 -0.0198 -0.6081  0.2445
  134TCq2    C3 2042   1.924   0.953   9.452 -0.3518 -0.1457  0.1399
  134TCq2    C4 2043   1.854   0.882   9.359 -0.4250 -0.5315  0.2215
  134TCq2    C5 2044   1.794   0.946   9.259 -0.3309  0.1760  0.7808
  134TCq2    C6 2045   1.784   1.083   9.245  0.8448  0.0019 -0.6891
  134TCq2    C7 2046   1.839   1.157   9.346 -0.0519  0.1144 -0.6222
  134TCq2    C8 2047   1.706   1.140   9.135  0.4449  0.3150 -0.5512
  134TCq2    O4 2048   1.648   1.064   9.060  0.2832 -0.1931 -0.2300
  134TCq2    C9 2049   1.869   0.739   9.359  0.2225  0.3230 -0.4527
  134TCq2    O5 2050   1.866   0.679   9.248 -0.2516 -0.1707  0.0282
  134TCq2    O6 2051   1.889   0.681   9.467  0.0582  0.2667 -0.2327
  134TCq2    H2 2052   1.980   0.903   9.529 -1.3861  1.7167  2.0950
  134TCq2    H3 2053   1.752   0.882   9.182 -0.0858  2.6865 -1.4414
  134TCq2    H4 2054   1.843   1.265   9.353  1.2067 -0.1355  2.4933
  135MPD2     C 2055   0.558   3.702   9.820  0.4718  0.3935 -0.4200
  135MPD2    C1 2056   0.550   3.570   9.817  0.2895  0.8353 -0.7320
  135MPD2    C2 2057   0.615   3.501   9.716 -0.8205  0.0496  0.1462
  135MPD2    C3 2058   0.679   3.576   9.619 -0.8811  0.3760 -0.1001
  135MPD2    C4 2059   0.693   3.712   9.633  0.1419  0.2576  0.0624
  135MPD2    C5 2060   0.631   3.774   9.731 -0.2731  0.1591  0.0465
  135MPD2     H 2061   0.626   3.393   9.712  1.9752  0.3478  0.2129
  135MPD2    H1 2062   0.749   3.774   9.563  0.9308 -1.1725 -0.5651
  135MPD2    H2 2063   0.512   3.759   9.899 -0.1610  1.1648 -1.3345
  135MPD2    H3 2064   0.643   3.881   9.739 -0.6056  0.3635 -2.0068
  135MPD2     N 2065   0.749   3.519   9.510 -0.0122 -0.1168 -0.2818
  135MPD2    H5 2066   0.812   3.572   9.451  1.7688 -1.7966  0.1250
  135MPD2    N1 2067   0.473   3.493   9.917 -0.3918  0.0365 -0.3330
  135MPD2    H7 2068   0.458   3.393   9.906  0.8836 -0.2086  0.2176
  136TCq2    C1 2069   0.443   3.536  10.048 -0.3262  0.1156 -0.0117
  136TCq2    O2 2070   0.458   3.642  10.105 -0.2083  0.9304  0.1711
  136TCq2    C2 2071   0.368   3.436  10.127  0.1659  0.0716 -0.0398
  136TCq2    C3 2072   0.403   3.420  10.255 -0.0272  0.2180 -0.7091
  136TCq2    C4 2073   0.390   3.298  10.316 -0.0272  0.5811  1.3811
  136TCq2    C5 2074   0.346   3.187  10.250 -0.1089  0.0505 -0.0831
  136TCq2    C6 2075   0.309   3.203  10.116 -0.0275  0.5810  0.2619
  136TCq2    C7 2076   0.322   3.326  10.050 -0.1127  0.3167  0.1533
  136TCq2    C8 2077   0.269   3.095  10.029 -0.2791 -0.1174 -0.6321
  136TCq2    O4 2078   0.220   3.122   9.917  0.1493 -0.5775 -0.1869
  136TCq2    C9 2079   0.428   3.291  10.449  0.3278  0.8851  0.3390
  136TCq2    O5 2080   0.461   3.175  10.500  0.0752 -0.0119 -0.2274
  136TCq2    O6 2081   0.471   3.393  10.510  0.0800 -0.5112 -0.4611
  136TCq2    H2 2082   0.437   3.509  10.307 -2.3925  1.0095 -0.5261
  136TCq2    H3 2083   0.349   3.094  10.306 -1.2665  0.7668  1.1526
  136TCq2    H4 2084   0.277   3.335   9.952 -0.3981 -2.0641  0.0659
  137MPD2     C 2085   0.927   1.399   9.814 -0.2743 -0.1063 -0.2922
  137MPD2    C1 2086   0.959   1.520   9.758 -0.1419  0.4711 -0.0217
  137MPD2    C2 2087   1.045   1.589   9.831  0.8265  0.0002 -0.1432
  137MPD2    C3 2088   1.100   1.546   9.951 -0.1866 -0.1598 -0.7669
  137MPD2    C4 2089   1.064   1.423  10.001  0.9541 -0.1502 -0.1572
  137MPD2    C5 2090   0.971   1.348   9.935 -0.3334 -0.3130  0.5772
  137MPD2     H 2091   1.097   1.673   9.786  0.1887  0.8161  0.6569
  137MPD2    H1 2092   1.106   1.377  10.089 -1.7070 -1.3719  0.4713
  137MPD2    H2 2093   0.863   1.333   9.756 -0.7791  0.0547  0.0746
  137MPD2    H3 2094   0.948   1.248   9.969 -1.4720 -0.0926  0.4628
  137MPD2     N 2095   1.179   1.639  10.022  0.6184  0.3340 -0.1593
  137MPD2    H5 2096   1.178   1.731   9.979  1.3391  0.2616 -0.3435
  137MPD2    N1 2097   0.894   1.571   9.644  0.1671 -0.0871  0.0864
  137MPD2    H7 2098   0.924   1.655   9.597 -0.0549  0.9603  1.8210
  138TCq2    C1 2099   0.789   1.517   9.577  0.1514 -0.2824 -0.2030
  138TCq2    O2 2100   0.705   1.443   9.630  0.1770  0.1333  0.1698
  138TCq2    C2 2101   0.760   1.578   9.447  0.8410  0.5927 -0.7949
  138TCq2    C3 2102   0.855   1.639   9.383 -0.2243 -0.2150  0.2228
  138TCq2    C4 2103   0.826   1.701   9.264  0.1012 -0.3186 -0.3023
  138TCq2    C5 2104   0.697   1.707   9.213 -0.3256 -0.1217  0.0308
  138TCq2    C6 2105   0.601   1.641   9.286  0.3690 -0.2030  0.5115
  138TCq2    C7 2106   0.627   1.574   9.410 -0.2315 -0.0050 -0.1886
  138TCq2    C8 2107   0.468   1.668   9.230 -0.3107 -0.1185 -0.4707
  138TCq2    O4 2108   0.461   1.685   9.112  0.4731  0.1718  0.0637
  138TCq2    C9 2109   0.935   1.763   9.195  1.0203 -0.1674  0.2267
  138TCq2    O5 2110   0.905   1.816   9.082 -0.2726 -0.2147  0.1364
  138TCq2    O6 2111   1.047   1.768   9.252 -0.1190  0.5121  0.2998
  138TCq2    H2 2112   0.960   1.636   9.409 -0.0236  0.2241 -0.5336
  138TCq2    H3 2113   0.673   1.758   9.121  0.6509 -1.7053 -1.1014
  138TCq2    H4 2114   0.556   1.526   9.477 -0.3563 -0.5711 -0.7245
  139TMC2    C1 2115   0.883   0.883  13.135 -0.1038 -0.5160 -0.0835
  139TMC2    C2 2116   0.867   0.913  13.001  0.4549  0.1332 -0.4555
  139TMC2    C3 2117   0.789   1.023  12.971  0.2825 -0.1179 -0.6335
  139TMC2    C4 2118   0.819   0.949  13.234  0.0183 -0.1515 -0.1626
  139TMC2    C5 2119   0.742   1.051  13.192 -0.0624 -0.4674 -0.3130
  139TMC2    C6 2120   0.733   1.097  13.067  0.1652  0.2002  0.4709
  139TMC2     C 2121   0.996   0.807  13.170 -0.2777 -0.5845  0.3297
  139TMC2     O 2122   1.084   0.794  13.085  0.3142 -0.3769 -0.5171
  139TMC2     H 2123   0.940   0.878  12.929  0.7517 -0.2696  0.0439
  139TMC2    H1 2124   0.861   0.933  13.332  1.2766  0.1711 -0.6530
  139TMC2    H2 2125   0.679   1.187  13.041 -0.6751 -0.4337  0.0035
  139TMC2    C7 2126   0.663   1.128  13.288 -0.6029  0.2668 -0.3367
  139TMC2    C8 2127   0.738   1.047  12.838 -0.5216  0.1085 -0.2070
  139TMC2    O1 2128   0.630   1.239  13.254  0.3044 -0.4122  0.3369
  139TMC2    O2 2129   0.621   1.064  12.814 -0.0935  0.1470  0.7033
  139TMC2    O5 2130   0.830   1.009  12.741 -0.3922 -0.0106  0.1129
  139TMC2    H5 2131   0.922   1.029  12.767 -0.4760 -1.4908  1.5418
  140MPD2     C 2132   1.008   0.531  13.423  0.6896  0.4475  0.0227
  140MPD2    C1 2133   1.046   0.611  13.319 -0.5982 -0.0136  0.3398
  140MPD2    C2 2134   1.168   0.573  13.253 -0.4271 -0.9446  0.4113
  140MPD2    C3 2135   1.239   0.462  13.291 -0.0991  0.7217  0.0564
  140MPD2    C4 2136   1.204   0.388  13.400  0.5444 -0.0635  0.3766
  140MPD2    C5 2137   1.082   0.421  13.463  0.5969 -0.7040  0.6267
  140MPD2     H 2138   1.203   0.624  13.164 -1.1935  2.8244  2.2305
  140MPD2    H1 2139   1.254   0.302  13.444 -0.5019 -0.2556  1.2163
  140MPD2    H2 2140   0.907   0.545  13.459 -0.0036 -0.3111 -1.6039
  140MPD2    H3 2141   1.058   0.354  13.544  1.9006  0.5846  2.0897
  140MPD2     N 2142   1.361   0.431  13.219 -0.8599  0.6839 -0.3122
  140MPD2    H5 2143   1.391   0.495  13.145  0.3327  0.2725 -0.1894
  140MPD2    N1 2144   0.965   0.723  13.271  0.0077  0.1063 -0.0196
  140MPD2    H7 2145   0.889   0.755  13.330  1.9567  1.8623  1.5284
  141TCq2    C1 2146   1.622   1.288  13.778 -0.6582  0.6625 -0.0598
  141TCq2    O2 2147   1.635   1.395  13.718 -0.0886 -0.5000 -0.0352
  141TCq2    C2 2148   1.707   1.280  13.891 -0.5696 -0.8115  0.3171
  141TCq2    C3 2149   1.686   1.192  13.997 -0.0010 -0.1621 -0.7774
  141TCq2    C4 2150   1.747   1.202  14.115  0.1087  0.2230 -0.5092
  141TCq2    C5 2151   1.843   1.296  14.129 -0.3476  0.4304  0.3501
  141TCq2    C6 2152   1.864   1.389  14.026  0.6356  0.3366  0.2171
  141TCq2    C7 2153   1.792   1.383  13.908 -0.1111 -0.4215  0.3282
  141TCq2    C8 2154   1.947   1.510  14.046 -0.3398  0.2980 -0.7148
  141TCq2    O4 2155   2.004   1.551  13.947  0.7023  0.2804  0.8374
  141TCq2    C9 2156   1.706   1.113  14.215 -0.1202 -0.2926 -0.2593
  141TCq2    O5 2157   1.630   1.017  14.186  0.1275 -0.3503  0.0602
  141TCq2    O6 2158   1.780   1.115  14.316  0.1343 -0.2363 -0.3122
  141TCq2    H2 2159   1.611   1.114  13.986  1.3407 -1.7913  1.6884
  141TCq2    H3 2160   1.900   1.304  14.221  0.1638 -1.3000  0.1974
  141TCq2    H4 2161   1.802   1.456  13.827 -1.3197 -0.0335  0.5379
  142MPD2     C 2162   3.229   1.131   9.269 -0.5181  0.3484 -0.1434
  142MPD2    C1 2163   3.303   1.129   9.384 -0.0754  0.4452  0.2277
  142MPD2    C2 2164   3.429   1.183   9.381  0.3373 -0.4373 -0.7130
  142MPD2    C3 2165   3.480   1.228   9.258 -0.3598 -0.4032  0.3532
  142MPD2    C4 2166   3.403   1.240   9.141 -0.1218  0.7044  0.1697
  142MPD2    C5 2167   3.271   1.194   9.151  0.4546  0.4875  0.5102
  142MPD2     H 2168   3.493   1.166   9.467 -1.7525 -4.0164  0.1715
  142MPD2    H1 2169   3.437   1.283   9.048 -1.6010  0.0838 -0.6591
  142MPD2    H2 2170   3.124   1.105   9.264 -0.1903 -1.0439  0.3401
  142MPD2    H3 2171   3.205   1.202   9.065  1.5562  0.3043 -0.3421
  142MPD2     N 2172   3.610   1.277   9.250 -0.1996 -0.2914  0.2372
  142MPD2    H5 2173   3.639   1.326   9.166 -1.3328 -1.2545 -0.7121
  142MPD2    N1 2174   3.239   1.085   9.506 -0.5679  0.1345  0.0503
  142MPD2    H7 2175   3.147   1.047   9.487 -0.5176  0.8360 -1.6168
  143TCq2    C1 2176   3.716   1.238   9.329 -0.3889 -0.4110  0.3290
  143TCq2    O2 2177   3.719   1.178   9.438  0.5402  0.3629 -0.2349
  143TCq2    C2 2178   3.849   1.264   9.270  0.6267 -0.1065 -0.7602
  143TCq2    C3 2179   3.862   1.347   9.165 -0.3036 -0.1195 -0.5860
  143TCq2    C4 2180   3.990   1.374   9.114 -0.0352  0.0864 -0.7977
  143TCq2    C5 2181   4.099   1.334   9.192 -0.2913  0.4183 -0.0895
  143TCq2    C6 2182   4.081   1.261   9.302 -0.1348  0.8218 -0.2324
  143TCq2    C7 2183   3.955   1.221   9.338  0.2016  0.3920  0.4873
  143TCq2    C8 2184   4.200   1.220   9.383 -0.7325  0.0062  0.0486
  143TCq2    O4 2185   4.186   1.140   9.473  0.3108 -0.4717 -0.3291
  143TCq2    C9 2186   4.012   1.462   9.007  0.2282 -0.3481 -0.4213
  143TCq2    O5 2187   3.910   1.496   8.947 -0.8972 -0.5693 -0.3137
  143TCq2    O6 2188   4.134   1.496   8.983  0.2153 -0.8654 -0.5013
  143TCq2    H2 2189   3.780   1.379   9.101 -0.7615 -0.5507 -0.2218
  143TCq2    H3 2190   4.198   1.351   9.151 -0.0077 -2.9674 -0.8501
  143TCq2    H4 2191   3.946   1.158   9.426 -1.0387  1.4807  1.1445
  144MPD2     C 2192   2.065   4.412   0.676 -0.0964 -0.2357  0.0405
  144MPD2    C1 2193   2.130   4.293   0.653 -0.2375  0.3163 -0.7138
  144MPD2    C2 2194   2.212   4.244   0.755 -0.6926 -1.0893 -0.1833
  144MPD2    C3 2195   2.235   4.323   0.873  0.2633 -0.0580  0.3102
  144MPD2    C4 2196   2.173   4.445   0.892 -0.3967 -0.1659  0.1529
  144MPD2    C5 2197   2.086   4.485   0.794  0.1109 -0.1171 -0.1165
  144MPD2     H 2198   2.269   4.153   0.737 -1.1833 -0.4929 -4.6840
  144MPD2    H1 2199   2.184   4.501   0.984 -1.8774  0.9939 -0.3761
  144MPD2    H2 2200   2.001   4.461   0.604 -0.5352 -0.6509  0.1518
  144MPD2    H3 2201   2.030   4.577   0.809 -1.9413 -1.5886  1.3769
  144MPD2     N 2202   2.335   4.294   0.967 -0.0426  0.4418 -0.2983
  144MPD2    H5 2203   2.341   4.350   1.051 -0.6912  2.7902 -1.8456
  144MPD2    N1 2204   2.123   4.227   0.527 -0.1467 -0.1155  0.1160
  144MPD2    H7 2205   2.177   4.141   0.522  0.5975  0.4195 -0.8759
  145TCq2    C1 2206   2.401   4.178   0.979 -0.5643  0.0510 -0.3541
  145TCq2    O2 2207   2.433   4.097   0.891  0.1578  0.0688  0.2556
  145TCq2    C2 2208   2.475   4.162   1.101 -0.2968 -0.1177 -0.5255
  145TCq2    C3 2209   2.584   4.086   1.107 -0.3981 -0.2947 -0.0706
  145TCq2    C4 2210   2.655   4.067   1.225  0.3452  0.4473 -0.0122
  145TCq2    C5 2211   2.607   4.115   1.343 -0.2027  0.2674  0.1085
  145TCq2    C6 2212   2.497   4.194   1.331  0.3136 -0.0573  0.6329
  145TCq2    C7 2213   2.425   4.218   1.218 -0.0054 -0.5562 -0.7026
  145TCq2    C8 2214   2.450   4.247   1.459  0.5450  0.0071 -0.0388
  145TCq2    O4 2215   2.480   4.182   1.562  0.5386 -0.1784 -0.0685
  145TCq2    C9 2216   2.763   3.974   1.233 -0.7490 -0.2273 -0.1674
  145TCq2    O5 2217   2.748   3.863   1.192 -0.2523 -0.2912 -0.1297
  145TCq2    O6 2218   2.833   4.004   1.335  0.9683 -0.7146 -0.1362
  145TCq2    H2 2219   2.625   4.025   1.027 -0.4495  0.2823 -0.5295
  145TCq2    H3 2220   2.649   4.090   1.439  2.1207 -1.8294 -1.4554
  145TCq2    H4 2221   2.330   4.271   1.218 -0.0372 -0.5836 -2.5870
  146TMC2    C1 2222   2.815   2.816  12.382  0.1393  0.2608  0.0115
  146TMC2    C2 2223   2.723   2.838  12.285 -0.0946 -0.0460 -0.1900
  146TMC2    C3 2224   2.742   2.772  12.170  0.2159  0.4700 -0.8335
  146TMC2    C4 2225   2.905   2.724  12.384 -0.2417  0.0876 -0.1491
  146TMC2    C5 2226   2.920   2.649  12.274  1.0096 -0.2462  0.8749
  146TMC2    C6 2227   2.837   2.667  12.163  0.6027  0.0417  1.0314
  146TMC2     C 2228   2.821   2.918  12.492 -0.3462 -0.3884  0.7068
  146TMC2     O 2229   2.760   3.026  12.488 -0.2104  0.0729 -0.0186
  146TMC2     H 2230   2.655   2.923  12.291  1.4867  0.9530  3.4314
  146TMC2    H1 2231   2.977   2.705  12.463 -1.4890  0.9290  1.2056
  146TMC2    H2 2232   2.861   2.608  12.075 -0.1933  1.2574 -0.0067
  146TMC2    C7 2233   3.059   2.615  12.239  0.3456  0.2151  0.2630
  146TMC2    C8 2234   2.675   2.827  12.050  0.3484 -0.1686 -0.1581
  146TMC2    O1 2235   3.095   2.651  12.126 -0.0686  0.0726 -0.5129
  146TMC2    O2 2236   2.737   2.899  11.972  0.0609 -0.7422  0.3192
  146TMC2    O5 2237   2.619   2.707  12.012 -0.0755 -0.3159  0.1785
  146TMC2    H5 2238   2.587   2.657  12.089 -2.0620  0.8347  0.0938
  147MPD2     C 2239   3.542   2.467  12.339  0.5653  0.9201 -1.0922
  147MPD2    C1 2240   3.453   2.417  12.439 -0.2585 -0.3219 -0.7967
  147MPD2    C2 2241   3.315   2.451  12.429  0.5740 -0.2818  0.1070
  147MPD2    C3 2242   3.271   2.530  12.333  0.7470 -0.1451  0.4893
  147MPD2    C4 2243   3.355   2.585  12.238 -0.5154  0.4963  0.3145
  147MPD2    C5 2244   3.491   2.551  12.245 -0.4963  0.1333  0.3009
  147MPD2     H 2245   3.241   2.413  12.498  1.9051 -0.2234  1.5713
  147MPD2    H1 2246   3.321   2.647  12.156  2.5105  1.7371 -0.0197
  147MPD2    H2 2247   3.647   2.439  12.333  0.4687  0.2428  0.4925
  147MPD2    H3 2248   3.561   2.579  12.167  0.6053 -1.8072  0.6078
  147MPD2     N 2249   3.129   2.560  12.338 -0.0654 -0.9234  0.0396
  147MPD2    H5 2250   3.069   2.514  12.406 -3.5830  0.6539 -1.9987
  147MPD2    N1 2251   3.523   2.341  12.538 -0.4588  0.2151  0.2355
  147MPD2    H7 2252   3.623   2.345  12.524 -0.6628 -0.5291 -1.5342
  148MPD2     C 2253   4.373   1.719  10.622 -0.0816  0.3906 -0.7814
  148MPD2    C1 2254   4.335   1.587  10.596  0.8350 -0.0582  0.0458
  148MPD2    C2 2255   4.216   1.538  10.655 -0.2597 -0.0807 -0.1609
  148MPD2    C3 2256   4.130   1.617  10.725  0.5066 -0.7869 -1.2883
  148MPD2    C4 2257   4.163   1.743  10.756  0.5274 -0.8102  0.5100
  148MPD2    C5 2258   4.291   1.784  10.711  0.8637  0.0781 -0.7902
  148MPD2     H 2259   4.190   1.435  10.631 -1.0731  0.4798 -1.6399
  148MPD2    H1 2260   4.111   1.812  10.823  0.0811 -0.2146 -0.4385
  148MPD2    H2 2261   4.461   1.770  10.587  0.6170 -0.3352 -0.1020
  148MPD2    H3 2262   4.320   1.886  10.733  2.1769 -0.5846  0.5344
  148MPD2     N 2263   4.000   1.574  10.767  0.5710  0.1073  0.0738
  148MPD2    H5 2264   3.938   1.651  10.789 -1.1523 -1.6215  1.2705
  148MPD2    N1 2265   4.411   1.503  10.507 -0.0841  0.0424 -0.2243
  148MPD2    H7 2266   4.366   1.414  10.487  0.7007 -0.4471  0.1634
  149TCq2    C1 2267   4.514   1.533  10.420  0.6433  0.2896 -0.8064
  149TCq2    O2 2268   4.581   1.635  10.411 -0.4452 -0.2536 -0.5941
  149TCq2    C2 2269   4.534   1.434  10.314 -0.4532 -0.1627  0.6601
  149TCq2    C3 2270   4.647   1.444  10.246  0.2347  0.1245  0.5973
  149TCq2    C4 2271   4.646   1.408  10.111 -0.5008  0.2492 -0.3888
  149TCq2    C5 2272   4.530   1.397  10.042  0.2511 -0.1716 -0.0964
  149TCq2    C6 2273   4.421   1.385  10.122  0.0422  0.1139 -0.8327
  149TCq2    C7 2274   4.420   1.412  10.251 -0.4446 -0.5134  0.1839
  149TCq2    C8 2275   4.295   1.417  10.065 -0.0931 -0.4038 -0.0629
  149TCq2    O4 2276   4.216   1.485  10.131 -0.4019 -0.4107  0.6739
  149TCq2    C9 2277   0.026   1.472  10.041 -0.4890 -0.4514  0.0624
  149TCq2    O5 2278   0.109   1.543  10.098  0.4170 -0.1032 -0.2995
  149TCq2    O6 2279   0.035   1.449   9.918  0.5258 -0.0862 -0.0941
  149TCq2    H2 2280   0.013   1.482  10.301  0.3780 -1.4755  1.5051
  149TCq2    H3 2281   4.532   1.380   9.934 -1.9731 -3.0293  0.3067
  149TCq2    H4 2282   4.326   1.413  10.304 -0.4702 -0.9597  0.1525
  150MPD2     C 2283   0.583   0.507  12.198  0.7924  0.4506 -0.0430
  150MPD2    C1 2284   0.521   0.625  12.166 -0.0031 -0.4926 -0.0511
  150MPD2    C2 2285   0.610   0.728  12.135 -0.4316 -0.3859  0.1929
  150MPD2    C3 2286   0.749   0.714  12.129  1.0532 -0.6718  0.6879
  150MPD2    C4 2287   0.802   0.601  12.175 -0.5474 -0.0917  0.1161
  150MPD2    C5 2288   0.718   0.495  12.204 -0.0735  0.3041  0.7191
  150MPD2     H 2289   0.587   0.830  12.104 -0.6457 -0.5084 -0.0461
  150MPD2    H1 2290   0.908   0.581  12.177 -0.9700 -1.8424  3.6385
  150MPD2    H2 2291   0.530   0.412  12.205 -0.4397  1.1796  0.3755
  150MPD2    H3 2292   0.764   0.405  12.244  0.6609  0.5771  0.4750
  150MPD2     N 2293   0.822   0.829  12.090 -0.3506 -0.2844 -0.1599
  150MPD2    H5 2294   0.760   0.901  12.054  0.7713  0.7500  0.0193
  150MPD2    N1 2295   0.382   0.623  12.170  0.0560  0.0563  0.4476
  150MPD2    H7 2296   0.337   0.536  12.197 -0.9882  0.7484  0.9165
  151TCq2    C1 2297   0.963   0.825  12.075 -0.1880 -1.3559 -0.7481
  151TCq2    O2 2298   1.043   0.745  12.123  0.2590  0.7128 -1.1272
  151TCq2    C2 2299   1.019   0.954  12.027 -0.0570  0.0331  0.6475
  151TCq2    C3 2300   0.941   1.028  11.945 -0.1501  0.2060 -0.2413
  151TCq2    C4 2301   0.969   1.159  11.935 -0.5111  0.1219 -0.2533
  151TCq2    C5 2302   1.075   1.212  11.998 -1.0696  0.2699 -0.1475
  151TCq2    C6 2303   1.158   1.132  12.072 -0.2571 -0.1415  0.5293
  151TCq2    C7 2304   1.135   0.995  12.089 -0.3642 -0.1138 -0.2366
  151TCq2    C8 2305   1.286   1.189  12.112  0.3384 -0.7500  0.0561
  151TCq2    O4 2306   1.296   1.309  12.100 -0.3030  0.2083  0.3123
  151TCq2    C9 2307   0.883   1.245  11.857  0.3508 -0.5764  0.2885
  151TCq2    O5 2308   0.783   1.199  11.802  0.1067 -0.2210 -0.2571
  151TCq2    O6 2309   0.898   1.372  11.876 -0.1176 -0.4270 -0.3445
  151TCq2    H2 2310   0.854   0.984  11.899 -0.7520  2.3542 -1.1848
  151TCq2    H3 2311   1.097   1.318  11.986  0.8978 -0.0916  0.3153
  151TCq2    H4 2312   1.169   0.943  12.178 -2.4384 -0.1166  0.5604
  152MPD2     C 2313   0.217   0.328  12.508 -0.3370  0.6708  0.3019
  152MPD2    C1 2314   0.248   0.462  12.489 -0.6681 -0.0610  0.1948
  152MPD2    C2 2315   0.138   0.545  12.457  0.0592  0.1783 -0.3654
  152MPD2    C3 2316   0.007   0.501  12.455  0.0137  0.5593 -0.5382
  152MPD2    C4 2317   4.698   0.371  12.480 -0.3142 -0.9726 -0.1476
  152MPD2    C5 2318   0.088   0.292  12.508 -0.2702  0.5958 -0.1345
  152MPD2     H 2319   0.154   0.652  12.453 -1.4031  0.3380 -1.7647
  152MPD2    H1 2320   4.600   0.326  12.479 -1.9149  2.5208 -0.7423
  152MPD2    H2 2321   0.283   0.251  12.544 -0.1745  1.5928  1.9726
  152MPD2    H3 2322   0.071   0.186  12.524 -0.8907  0.6219 -0.6011
  152MPD2     N 2323   4.635   0.603  12.432  0.2082  0.4163  0.2851
  152MPD2    H5 2324   4.674   0.694  12.408 -0.4042  0.1347 -1.8457
  152MPD2    N1 2325   0.381   0.498  12.512  0.9080 -0.1865  0.6410
  152MPD2    H7 2326   0.451   0.424  12.516  2.1381  0.9856  0.6833
  153TCq2    C1 2327   0.423   0.630  12.508 -0.4540 -0.2251 -0.1941
  153TCq2    O2 2328   0.368   0.729  12.457 -0.2247  0.0354  0.1965
  153TCq2    C2 2329   0.563   0.638  12.540  1.0398 -0.0751  0.0889
  153TCq2    C3 2330   0.626   0.544  12.615  0.5833 -0.2883  0.3238
  153TCq2    C4 2331   0.759   0.572  12.641 -0.7117  0.1023  0.3966
  153TCq2    C5 2332   0.820   0.675  12.585  0.2186 -0.1594  0.1608
  153TCq2    C6 2333   0.752   0.766  12.512 -0.0711  0.3459  0.5927
  153TCq2    C7 2334   0.623   0.748  12.483  0.0530 -0.0658 -0.3603
  153TCq2    C8 2335   0.816   0.878  12.437  0.2882  0.2672 -0.0968
  153TCq2    O4 2336   0.740   0.948  12.366  0.3784  0.2011 -0.1301
  153TCq2    C9 2337   0.818   0.493  12.756  0.7626  0.5454  0.1615
  153TCq2    O5 2338   0.928   0.532  12.801 -0.2672  1.0065  0.3364
  153TCq2    O6 2339   0.766   0.387  12.792 -0.4577  0.1220  0.6382
  153TCq2    H2 2340   0.572   0.466  12.669  0.8920  0.1842  1.3198
  153TCq2    H3 2341   0.917   0.706  12.622  1.6732 -1.8877 -2.1794
  153TCq2    H4 2342   0.566   0.824  12.430 -1.8202 -1.0510  0.2341
  154MPD2     C 2343   2.941   1.360   0.022  0.6316  0.0260 -0.1449
  154MPD2    C1 2344   2.886   1.473   0.070  1.1267 -0.2521 -0.2907
  154MPD2    C2 2345   2.772   1.459   0.151 -0.3737 -0.2493 -1.2154
  154MPD2    C3 2346   2.731   1.343   0.195 -0.6471 -0.2260 -0.1644
  154MPD2    C4 2347   2.800   1.225   0.158  0.1701  0.0497 -0.6003
  154MPD2    C5 2348   2.901   1.236   0.068 -0.1877  0.5509  0.4399
  154MPD2     H 2349   2.700   1.538   0.167  0.6013  0.2149  0.8478
  154MPD2    H1 2350   2.761   1.126   0.177  0.9546 -0.0589  0.4533
  154MPD2    H2 2351   3.023   1.361  17.634  1.4639  0.5608  0.8073
  154MPD2    H3 2352   2.943   1.148   0.022  0.8136  1.1820  0.1651
  154MPD2     N 2353   2.608   1.338   0.259  0.8933  0.5990 -0.0145
  154MPD2    H5 2354   2.558   1.424   0.283  0.1096  0.1223  0.0523
  154MPD2    N1 2355   2.939   1.598   0.029 -0.0836  0.1304 -0.2174
  154MPD2    H7 2356   3.016   1.597  17.647 -0.3148 -0.5232 -0.4815
  155TCq2    C1 2357   2.889   1.723   0.076 -0.4342 -0.1912 -0.3982
  155TCq2    O2 2358   2.799   1.749   0.155  0.3227 -0.0993 -0.4258
  155TCq2    C2 2359   2.967   1.834   0.035 -0.3544 -0.0087  0.5731
  155TCq2    C3 2360   3.098   1.827   0.006  0.0553 -0.0680 -0.0898
  155TCq2    C4 2361   3.174   1.939   0.009  0.4221  0.2823  0.1517
  155TCq2    C5 2362   3.113   2.060   0.009  0.7125 -0.0954  1.0685
  155TCq2    C6 2363   2.980   2.062   0.030 -0.2932 -0.3428  0.1290
  155TCq2    C7 2364   2.907   1.951   0.045 -0.1426  0.0616 -0.4980
  155TCq2    C8 2365   2.917   2.199   0.035  0.0015 -0.0204 -0.3879
  155TCq2    O4 2366   2.993   2.285  17.676 -0.2778  0.7383 -0.0199
  155TCq2    C9 2367   3.318   1.934  17.681  0.6005 -0.3711 -0.0645
  155TCq2    O5 2368   3.378   2.045  17.659  0.3260 -0.5508  0.2409
  155TCq2    O6 2369   3.371   1.828   0.036 -0.3027 -0.1229  0.1325
  155TCq2    H2 2370   3.147   1.731  17.674 -2.1868 -1.5068  1.5562
  155TCq2    H3 2371   3.162   2.151  17.661 -2.0070  0.3316 -1.9433
  155TCq2    H4 2372   2.800   1.959   0.061 -0.3076 -3.3911  0.3291
  156MPD2     C 2373   1.500   2.728  12.184  0.4037  0.0044 -0.1576
  156MPD2    C1 2374   1.421   2.783  12.082 -0.8903 -0.6955  0.2618
  156MPD2    C2 2375   1.328   2.874  12.112 -0.1362  0.2491  0.4927
  156MPD2    C3 2376   1.314   2.927  12.238  0.4247  0.0912  0.5587
  156MPD2    C4 2377   1.393   2.883  12.341 -0.5371  0.1433 -0.2467
  156MPD2    C5 2378   1.475   2.776  12.313  0.5256  0.2357 -0.2492
  156MPD2     H 2379   1.257   2.906  12.036 -0.4584  1.1772  1.1788
  156MPD2    H1 2380   1.386   2.915  12.444 -3.7481 -1.2720 -0.0247
  156MPD2    H2 2381   1.572   2.649  12.163  3.0874  2.6747 -0.9353
  156MPD2    H3 2382   1.520   2.725  12.398 -0.6472  1.0950  0.8850
  156MPD2     N 2383   1.218   3.026  12.249 -0.0663  0.4700  0.0475
  156MPD2    H5 2384   1.158   3.037  12.168  3.1542  1.2749 -2.2517
  156MPD2    N1 2385   1.436   2.737  11.946 -0.3984  0.0970  0.1168
  156MPD2    H7 2386   1.487   2.649  11.934 -0.9789 -0.2085 -0.1024
  157TCq2    C1 2387   1.421   2.819  11.831  0.5046 -1.1544  0.0309
  157TCq2    O2 2388   1.370   2.931  11.825  0.0898 -0.7923  0.3823
  157TCq2    C2 2389   1.452   2.761  11.698  0.1039  0.4802  0.1171
  157TCq2    C3 2390   1.479   2.633  11.670  0.6304  0.1735 -0.5011
  157TCq2    C4 2391   1.471   2.584  11.542 -0.4390  0.1390 -0.7562
  157TCq2    C5 2392   1.450   2.668  11.440 -0.2227 -0.8193 -0.3032
  157TCq2    C6 2393   1.407   2.795  11.463  0.6457  0.3789 -0.4703
  157TCq2    C7 2394   1.409   2.842  11.592 -0.0547 -0.4750  0.0754
  157TCq2    C8 2395   1.309   2.854  11.380 -0.4464 -0.0967 -0.3453
  157TCq2    O4 2396   1.290   2.975  11.382  0.2164  0.0410 -0.5097
  157TCq2    C9 2397   1.521   2.451  11.511  0.8581 -0.5853  0.4658
  157TCq2    O5 2398   1.596   2.446  11.411  0.5902  0.0549  0.6947
  157TCq2    O6 2399   1.487   2.350  11.578  0.5149 -0.2865  0.3025
  157TCq2    H2 2400   1.514   2.565  11.746  1.1063 -0.2149 -1.0693
  157TCq2    H3 2401   1.455   2.619  11.343 -1.9632  0.2005 -0.9037
  157TCq2    H4 2402   1.381   2.946  11.599 -1.5449 -1.0754  3.1002
  158TMC2    C1 2403   1.077   2.179  13.102  0.3145 -0.3899  0.2323
  158TMC2    C2 2404   1.140   2.236  12.994  0.1169 -0.0847 -0.5455
  158TMC2    C3 2405   1.065   2.290  12.895 -0.3900 -0.0058 -0.2259
  158TMC2    C4 2406   0.940   2.188  13.116  1.5313 -0.0443 -0.5232
  158TMC2    C5 2407   0.864   2.239  13.005 -0.4323  0.3413 -0.4662
  158TMC2    C6 2408   0.929   2.292  12.896 -0.3488 -0.1814  0.6046
  158TMC2     C 2409   1.148   2.154  13.226 -0.1913 -0.4641  0.4940
  158TMC2     O 2410   1.272   2.176  13.223 -0.1707 -0.1055 -0.4035
  158TMC2     H 2411   1.247   2.241  12.983  0.4968 -0.4976  3.0657
  158TMC2    H1 2412   0.877   2.151  13.196  0.5286 -2.4624 -2.4284
  158TMC2    H2 2413   0.870   2.342  12.820  0.9801  2.3996  1.2613
  158TMC2    C7 2414   0.722   2.235  13.007 -0.7764  1.0195  0.3104
  158TMC2    C8 2415   1.144   2.344  12.782  0.4315 -0.2005  0.2985
  158TMC2    O1 2416   0.677   2.312  12.925 -0.2598  0.3010 -0.5270
  158TMC2    O2 2417   1.254   2.387  12.800 -0.4308  0.3754  0.0068
  158TMC2    O5 2418   1.101   2.273  12.672  0.0775 -0.3999 -0.7362
  158TMC2    H5 2419   1.009   2.238  12.676  0.1845 -0.0110  4.2600
  159MPD2     C 2420   1.197   2.075  13.737  0.2223 -0.1819  0.3732
  159MPD2    C1 2421   1.072   2.040  13.696  0.2475 -0.6743 -0.6489
  159MPD2    C2 2422   1.036   2.049  13.564  0.1924 -0.0310 -0.0488
  159MPD2    C3 2423   1.123   2.099  13.468 -0.1498 -0.0819 -0.7870
  159MPD2    C4 2424   1.250   2.140  13.507 -0.2721 -0.8114 -0.5287
  159MPD2    C5 2425   1.292   2.124  13.639  0.0745 -0.2996  0.6112
  159MPD2     H 2426   0.937   2.019  13.530  1.0079 -2.9982  0.1955
  159MPD2    H1 2427   1.328   2.185  13.448  0.8606 -2.4288 -0.2815
  159MPD2    H2 2428   1.226   2.069  13.841  0.4343 -1.4006  0.2400
  159MPD2    H3 2429   1.392   2.157  13.663  1.3539 -1.5128 -2.9938
  159MPD2     N 2430   1.073   2.111  13.336 -0.4024 -0.0414  0.1921
  159MPD2    H5 2431   0.975   2.090  13.324 -0.7927  2.8807 -1.8262
  159MPD2    N1 2432   0.988   1.973  13.791  0.1984 -0.5826  0.4942
  159MPD2    H7 2433   1.022   1.967  13.886 -0.0146  1.3547  0.6878
  160TMC2    C1 2434   0.817   0.054   1.627  0.1752  0.5228 -0.5841
  160TMC2    C2 2435   0.870   0.180   1.633 -0.0983  0.2351 -0.8903
  160TMC2    C3 2436   0.981   0.196   1.562 -0.1345  0.1664  0.9903
  160TMC2    C4 2437   0.872   4.671   1.554  0.5086  0.3774 -0.8200
  160TMC2    C5 2438   0.978   4.695   1.472 -0.9111 -0.7282  0.1523
  160TMC2    C6 2439   1.039   0.100   1.482  0.0565 -0.1574  0.0672
  160TMC2     C 2440   0.679   0.035   1.665 -1.1823  0.0007  0.2168
  160TMC2     O 2441   0.643   4.639   1.685  0.2261 -0.1413  0.1469
  160TMC2     H 2442   0.830   0.264   1.689  0.9018  0.7396 -0.9486
  160TMC2    H1 2443   0.827   4.572   1.557  1.2796  0.1374  3.1817
  160TMC2    H2 2444   1.135   0.116   1.434 -0.7213  1.1838 -1.0522
  160TMC2    C7 2445   1.015   4.600   1.366  0.4002  0.1417  0.0081
  160TMC2    C8 2446   1.033   0.330   1.573 -0.2387 -0.6561 -0.4909
  160TMC2    O1 2447   0.961   4.488   1.381 -0.6086 -0.7927  0.2194
  160TMC2    O2 2448   1.015   0.402   1.668 -0.3155  0.0048 -0.1128
  160TMC2    O5 2449   1.088   0.359   1.451  0.0169  0.2440  0.6533
  160TMC2    H5 2450   1.065   0.291   1.385 -1.1880 -0.0446  1.3744
  161MPD2     C 2451   0.408   0.085   1.765  0.2379 -0.4729 -0.2991
  161MPD2    C1 2452   0.474   0.176   1.688  0.2372 -0.2245  0.0019
  161MPD2    C2 2453   0.400   0.288   1.647 -0.3242  0.1019  0.0730
  161MPD2    C3 2454   0.263   0.301   1.677  0.1597 -0.0570 -0.1597
  161MPD2    C4 2455   0.198   0.211   1.761 -0.2292 -0.1059 -0.2949
  161MPD2    C5 2456   0.279   0.108   1.805 -1.1053  0.3534  0.1873
  161MPD2     H 2457   0.450   0.361   1.583  2.7279 -0.8902  1.3330
  161MPD2    H1 2458   0.092   0.223   1.779  0.1069  0.4240  1.3005
  161MPD2    H2 2459   0.452   4.710   1.792  0.2875 -1.3839 -3.5787
  161MPD2    H3 2460   0.233   0.025   1.858 -1.4924  1.2348  1.2433
  161MPD2     N 2461   0.188   0.407   1.626  0.1814 -0.1949  0.1196
  161MPD2    H5 2462   0.087   0.402   1.632  0.0279  2.6348 -0.2300
  161MPD2    N1 2463   0.610   0.154   1.646  0.6767 -0.1347 -0.0718
  161MPD2    H7 2464   0.657   0.226   1.592 -2.5124 -0.3379 -3.0970
  162TMC2    C1 2465   3.944   2.327   0.976  0.1343  0.0002  0.8160
  162TMC2    C2 2466   3.883   2.410   0.884 -0.2882  0.0305 -0.0655
  162TMC2    C3 2467   3.751   2.450   0.912 -0.1229  0.1744 -0.2515
  162TMC2    C4 2468   3.875   2.281   1.089 -0.3696 -0.2921  0.4577
  162TMC2    C5 2469   3.752   2.322   1.111  0.2926 -0.2547 -0.3784
  162TMC2    C6 2470   3.691   2.413   1.029  0.5341 -0.2505  0.8368
  162TMC2     C 2471   4.058   2.256   0.928  0.7352  0.2474 -0.5710
  162TMC2     O 2472   4.076   2.249   0.808 -0.0706  0.2412  0.6083
  162TMC2     H 2473   3.916   2.422   0.782  0.1275 -1.3529 -0.0947
  162TMC2    H1 2474   3.912   2.198   1.149  3.9288 -0.1858 -2.0882
  162TMC2    H2 2475   3.587   2.438   1.041  0.2370 -1.3992  0.7038
  162TMC2    C7 2476   3.692   2.307   1.251  0.4015  0.0875 -0.6782
  162TMC2    C8 2477   3.677   2.522   0.814  1.0791  0.2073  0.8060
  162TMC2    O1 2478   3.587   2.365   1.270  0.4444 -0.0349  0.4678
  162TMC2    O2 2479   3.558   2.511   0.808  0.1312  0.0341 -0.0541
  162TMC2    O5 2480   3.748   2.611   0.756  0.3170  0.2266 -0.3281
  162TMC2    H5 2481   3.846   2.599   0.756  0.4450  1.3090  0.2134
  163MPD2     C 2482   4.458   1.922   0.996 -0.5892  1.0585 -0.0259
  163MPD2    C1 2483   4.388   1.958   0.880  0.3420 -0.0383  0.2900
  163MPD2    C2 2484   4.278   2.046   0.889  0.2944 -0.8034 -0.0311
  163MPD2    C3 2485   4.245   2.114   1.009 -0.0728  0.3821  0.6710
  163MPD2    C4 2486   4.317   2.075   1.127 -0.1515  0.1144  0.6054
  163MPD2    C5 2487   4.422   1.986   1.114  0.1692  0.2622  0.3713
  163MPD2     H 2488   4.220   2.056   0.798 -0.6295  0.1875  0.6790
  163MPD2    H1 2489   4.308   2.120   1.225  2.1686  0.1271  0.7937
  163MPD2    H2 2490   4.550   1.865   0.994 -0.8604  0.6008  0.8828
  163MPD2    H3 2491   4.481   1.967   1.203  1.9277 -0.8126 -1.0454
  163MPD2     N 2492   4.138   2.204   1.029  0.5784  0.3785  0.4689
  163MPD2    H5 2493   4.115   2.230   1.124 -2.4007 -1.8183  0.3489
  163MPD2    N1 2494   4.420   1.889   0.763  0.1160  0.3141 -0.3917
  163MPD2    H7 2495   4.461   1.797   0.777  1.5218  0.4897 -3.3263
  164TCq2    C1 2496   4.043   1.639  11.185 -1.0632 -0.1359 -0.0706
  164TCq2    O2 2497   3.952   1.572  11.233 -0.1230 -0.0713  0.5313
  164TCq2    C2 2498   4.046   1.785  11.199 -0.0238  0.0992 -0.5900
  164TCq2    C3 2499   4.149   1.856  11.150  0.1369  0.1470 -0.0609
  164TCq2    C4 2500   4.128   1.984  11.110 -0.4344  0.4795  0.1784
  164TCq2    C5 2501   4.012   2.050  11.139  0.1261  0.0459  0.3815
  164TCq2    C6 2502   3.916   1.981  11.208 -0.2067 -0.0957  0.2147
  164TCq2    C7 2503   3.925   1.843  11.224  0.3305 -0.2413 -0.2238
  164TCq2    C8 2504   3.801   2.053  11.249  0.1545 -0.2854 -0.3120
  164TCq2    O4 2505   3.779   2.152  11.178 -0.3894 -0.3762 -0.1654
  164TCq2    C9 2506   4.238   2.070  11.059  0.0114 -1.1153 -0.0749
  164TCq2    O5 2507   4.357   2.027  11.070 -0.0899  0.8069 -1.3892
  164TCq2    O6 2508   4.206   2.192  11.063  0.2847  0.4742  0.3159
  164TCq2    H2 2509   4.251   1.820  11.137 -0.4202 -0.5608 -2.6542
  164TCq2    H3 2510   3.994   2.153  11.110 -0.5381 -0.2097 -0.1143
  164TCq2    H4 2511   3.837   1.790  11.257  0.6067  0.6498  1.9291
  165MPD2     C 2512   4.717   4.419   1.907 -0.1481 -0.6809  0.5796
  165MPD2    C1 2513   0.111   4.361   1.859  0.8514  0.2065 -0.5198
  165MPD2    C2 2514   0.230   4.408   1.906 -0.3732 -1.0525 -0.2294
  165MPD2    C3 2515   0.242   4.506   2.004  0.7584 -0.1150  0.4180
  165MPD2    C4 2516   0.132   4.567   2.045 -0.1583 -0.3957  0.0026
  165MPD2    C5 2517   0.006   4.518   2.005  0.4452 -0.1090 -0.3866
  165MPD2     H 2518   0.319   4.360   1.868  0.0536 -0.7974  0.4448
  165MPD2    H1 2519   0.143   4.645   2.119 -2.5845  1.9735 -2.0950
  165MPD2    H2 2520   4.620   4.384   1.875 -0.9550  3.3333 -1.4040
  165MPD2    H3 2521   4.635   4.557   2.049  0.5344  0.0023 -0.2982
  165MPD2     N 2522   0.365   4.551   2.043 -0.2473 -0.2270  0.4277
  165MPD2    H5 2523   0.347   4.621   2.115  1.4175 -0.3294  0.9525
  165MPD2    N1 2524   0.104   4.259   1.765  0.2552 -0.2450  0.4239
  165MPD2    H7 2525   0.010   4.243   1.732  0.5708 -2.4054  0.5126
  166TCq2    C1 2526   0.494   4.520   2.012 -0.3101 -0.0225 -1.3030
  166TCq2    O2 2527   0.534   4.436   1.929 -0.1339 -0.5712  0.0221
  166TCq2    C2 2528   0.593   4.619   2.056 -0.1215  0.0097 -0.0569
  166TCq2    C3 2529   0.556   0.020   2.109  0.2406 -0.2788 -0.3238
  166TCq2    C4 2530   0.654   0.115   2.114  0.0862 -0.1650  0.4279
  166TCq2    C5 2531   0.784   0.088   2.078 -0.5334  0.1333  0.6649
  166TCq2    C6 2532   0.821   4.685   2.031 -0.0790 -0.1514 -0.4642
  166TCq2    C7 2533   0.727   4.586   2.016  0.1771  0.3562  0.3831
  166TCq2    C8 2534   0.939   4.667   1.943  0.1814 -0.3039 -0.5318
  166TCq2    O4 2535   0.948   4.570   1.868 -0.5204 -0.1366 -0.3406
  166TCq2    C9 2536   0.627   0.238   2.179 -0.5194  0.1823 -0.1714
  166TCq2    O5 2537   0.526   0.243   2.251 -0.0695 -0.1646  0.2784
  166TCq2    O6 2538   0.710   0.330   2.167  0.2698 -0.6356  0.7087
  166TCq2    H2 2539   0.457   0.035   2.152  0.2441 -1.2740  0.0436
  166TCq2    H3 2540   0.856   0.167   2.100 -0.2020  0.7291 -2.5886
  166TCq2    H4 2541   0.751   4.485   1.987 -0.8911  0.5492 -1.1770
  167TMC2    C1 2542   2.711   1.822  12.141 -0.3881  0.4378 -0.6455
  167TMC2    C2 2543   2.640   1.930  12.193 -0.0844 -0.0204 -0.3847
  167TMC2    C3 2544   2.628   1.944  12.325  0.8820  0.2736 -0.4399
  167TMC2    C4 2545   2.775   1.735  12.224 -0.5169 -0.0356 -0.5328
  167TMC2    C5 2546   2.751   1.754  12.354 -0.0040  0.9055  0.0611
  167TMC2    C6 2547   2.678   1.855  12.416 -0.0725  0.0287  0.2197
  167TMC2     C 2548   2.739   1.820  11.996 -0.0766  0.2014  0.8065
  167TMC2     O 2549   2.661   1.894  11.934  0.1682  0.3755  0.1432
  167TMC2     H 2550   2.577   1.990  12.129 -1.5912  0.0441  1.1621
  167TMC2    H1 2551   2.816   1.640  12.193  0.7771  0.2094  0.4129
  167TMC2    H2 2552   2.655   1.863  12.521  0.3950 -1.5589  0.4381
  167TMC2    C7 2553   2.825   1.677  12.451 -0.3422 -0.5221 -0.3308
  167TMC2    C8 2554   2.544   2.050  12.380 -0.2325  0.2668 -0.0024
  167TMC2    O1 2555   2.795   1.680  12.572  0.4457 -0.3720 -0.0932
  167TMC2    O2 2556   2.452   2.102  12.314 -0.0492 -0.3808 -0.1684
  167TMC2    O5 2557   2.592   2.099  12.494 -0.5322 -0.1171  0.2309
  167TMC2    H5 2558   2.686   2.074  12.494 -0.2282  1.0125 -0.3051
  168MPD2     C 2559   2.836   1.790  11.711  0.2731 -0.3560  0.1184
  168MPD2    C1 2560   2.891   1.728  11.822  0.3980 -0.6544 -0.3029
  168MPD2    C2 2561   2.974   1.620  11.794  0.5420  0.5221  0.1669
  168MPD2    C3 2562   3.003   1.575  11.664 -0.5816 -0.2136 -0.5856
  168MPD2    C4 2563   2.941   1.642  11.559 -0.2618 -0.1236 -0.1678
  168MPD2    C5 2564   2.883   1.757  11.585 -0.1111 -0.0161  0.1018
  168MPD2     H 2565   3.011   1.563  11.879  1.7198  1.1574  0.0748
  168MPD2    H1 2566   2.954   1.616  11.455  0.8472 -0.4353  0.0527
  168MPD2    H2 2567   2.776   1.878  11.729 -0.0378 -0.4153 -0.6385
  168MPD2    H3 2568   2.851   1.828  11.510 -2.7904  0.2695  1.5143
  168MPD2     N 2569   3.076   1.457  11.633  0.4381 -0.2469  0.1193
  168MPD2    H5 2570   3.072   1.425  11.537  0.9012  0.6814 -0.2151
  168MPD2    N1 2571   2.844   1.738  11.956 -0.3424 -0.2535  0.5722
  168MPD2    H7 2572   2.897   1.696  12.032  3.1783  1.1087 -1.1140
  169MPD1     C 2573   0.991   1.473   8.773 -0.0069 -0.1316 -0.6479
  169MPD1    C1 2574   0.987   1.530   8.895 -0.3281 -0.3644 -0.2190
  169MPD1    C2 2575   1.051   1.458   8.995 -0.5905  0.1673  0.4112
  169MPD1    C3 2576   1.127   1.345   8.969 -0.5009 -0.1690 -0.2649
  169MPD1    C4 2577   1.146   1.303   8.840  0.0873 -0.7614 -0.2333
  169MPD1    C5 2578   1.074   1.370   8.739 -0.1506  0.1926 -0.1229
  169MPD1     H 2579   1.047   1.492   9.097 -0.1955  0.7256  0.2426
  169MPD1    H1 2580   1.203   1.215   8.812  3.5815  1.8788 -1.3467
  169MPD1    H2 2581   0.939   1.513   8.687 -0.8523 -0.6597 -0.3868
  169MPD1    H3 2582   1.075   1.335   8.637 -0.0321 -0.5467  0.1272
  169MPD1     N 2583   1.191   1.282   9.075 -1.0389 -0.3697 -0.5633
  169MPD1    H5 2584   1.182   1.331   9.163  1.5190  1.8098 -1.5170
  169MPD1    N1 2585   0.879   1.617   8.922 -0.1189 -0.3172  0.3714
  169MPD1    H6 2586   0.903   1.690   8.989  1.6481 -3.2436  2.9275
  169MPD1    H7 2587   0.860   1.676   8.841  0.3859  1.0361  1.2297
  170MPD1     C 2588   0.147   3.462  12.562  0.1157 -0.4959  0.0621
  170MPD1    C1 2589   0.252   3.449  12.649 -0.1897  0.4004  0.0216
  170MPD1    C2 2590   0.242   3.500  12.778 -0.6281  0.8909  0.2665
  170MPD1    C3 2591   0.126   3.569  12.819 -0.1156 -0.1388  0.4138
  170MPD1    C4 2592   0.018   3.579  12.734 -0.1973 -0.4136 -0.5834
  170MPD1    C5 2593   0.034   3.520  12.606  0.1927 -0.7317 -1.2727
  170MPD1     H 2594   0.329   3.482  12.841 -1.2095  1.2134  1.1535
  170MPD1    H1 2595   4.647   3.632  12.758 -0.3459 -1.1025  0.3724
  170MPD1    H2 2596   0.152   3.430  12.459  0.4100 -0.6284  0.1189
  170MPD1    H3 2597   4.670   3.536  12.539 -0.7767  0.7348  0.2954
  170MPD1     N 2598   0.104   3.615  12.954  0.0154 -0.1891 -0.0221
  170MPD1    H5 2599   0.018   3.666  12.969 -0.3387 -0.8152  0.0787
  170MPD1    N1 2600   0.372   3.405  12.592 -0.0883 -0.1280  0.2712
  170MPD1    H6 2601   0.354   3.329  12.526  0.2974 -0.9650  1.1218
  170MPD1    H7 2602   0.432   3.370  12.666 -0.1432 -0.1982  0.2827
  171MPD1     C 2603   3.060   0.641  15.299 -0.9130  0.2624  0.8665
  171MPD1    C1 2604   3.072   0.534  15.213 -0.5106 -0.1050 -0.7244
  171MPD1    C2 2605   3.117   0.415  15.264 -0.3614 -0.6723 -0.6877
  171MPD1    C3 2606   3.149   0.399  15.399  0.5294  0.5804 -0.5500
  171MPD1    C4 2607   3.141   0.508  15.483  0.2934 -0.4194  0.0818
  171MPD1    C5 2608   3.100   0.624  15.428 -0.3138 -0.8555  0.3535
  171MPD1     H 2609   3.110   0.328  15.200  1.5802 -1.2621 -0.0890
  171MPD1    H1 2610   3.162   0.495  15.589  3.1232 -0.8466 -0.5445
  171MPD1    H2 2611   3.018   0.738  15.274 -0.6663 -0.5012 -2.4708
  171MPD1    H3 2612   3.084   0.707  15.496  1.5777 -0.7189  0.6234
  171MPD1     N 2613   3.172   0.274  15.458 -0.4700 -0.1790 -0.1187
  171MPD1    H5 2614   3.156   0.270  15.558 -0.1276  0.7878 -0.0245
  171MPD1    N1 2615   3.025   0.553  15.084  0.3224 -0.0175  0.3655
  171MPD1    H6 2616   3.085   0.514  15.012  3.4270  0.4241  2.7258
  171MPD1    H7 2617   3.013   0.651  15.061  1.0385 -0.0398 -0.1020
  172MPD1     C 2618   2.952   4.128   0.940  0.3182  0.2275  0.1039
  172MPD1    C1 2619   2.923   4.255   0.970  0.2196 -0.2131 -0.2524
  172MPD1    C2 2620   2.815   4.316   0.913  0.2287 -0.2097  0.0587
  172MPD1    C3 2621   2.735   4.246   0.817  0.7997  0.1755 -0.0742
  172MPD1    C4 2622   2.767   4.120   0.779  0.6908  0.1355 -0.7494
  172MPD1    C5 2623   2.868   4.056   0.849  0.1420 -0.2543 -0.0901
  172MPD1     H 2624   2.785   4.420   0.926  0.7321 -0.1487  0.7294
  172MPD1    H1 2625   2.699   4.065   0.715 -0.0755 -2.2898  2.1910
  172MPD1    H2 2626   3.040   4.077   0.976  0.8529 -0.0796 -1.6072
  172MPD1    H3 2627   2.890   3.951   0.832 -0.6464 -0.5514  0.7416
  172MPD1     N 2628   2.631   4.306   0.744 -0.7925  0.4963 -0.3025
  172MPD1    H5 2629   2.591   4.248   0.671 -0.1602 -0.5168  0.1573
  172MPD1    N1 2630   3.010   4.337   1.042  0.2265 -0.5692  0.4687
  172MPD1    H6 2631   2.953   4.405   1.092  0.2347  0.2890 -0.7023
  172MPD1    H7 2632   3.054   4.282   1.116 -2.3056  1.1014  3.2404
  173MPD1     C 2633   3.319   4.436  14.603  0.1504 -0.4030 -0.3023
  173MPD1    C1 2634   3.229   4.390  14.512  0.5089  0.2119 -0.3020
  173MPD1    C2 2635   3.155   4.276  14.551 -0.4158 -0.4799 -0.0660
  173MPD1    C3 2636   3.161   4.224  14.676 -0.6413 -0.0738 -0.1795
  173MPD1    C4 2637   3.251   4.275  14.766 -0.2559  0.0617  0.6466
  173MPD1    C5 2638   3.331   4.376  14.724  0.9642 -0.2801  0.0402
  173MPD1     H 2639   3.093   4.223  14.480 -0.4622  1.4796 -1.4875
  173MPD1    H1 2640   3.286   4.233  14.860  1.8523  0.2203 -0.0792
  173MPD1    H2 2641   3.393   4.513  14.585  0.3145 -0.1697  1.3811
  173MPD1    H3 2642   3.414   4.407  14.786  0.5848 -0.2033  0.5054
  173MPD1     N 2643   3.078   4.118  14.708 -0.1604 -0.1442  0.5053
  173MPD1    H5 2644   3.023   4.079  14.632 -0.3322 -0.2400  0.6769
  173MPD1    N1 2645   3.245   4.419  14.374  0.5091  0.5199 -0.4824
  173MPD1    H6 2646   3.271   4.516  14.357 -1.0359  1.3956  2.2045
  173MPD1    H7 2647   3.171   4.389  14.312  1.6505 -2.3578 -0.4440
  174MPD1     C 2648   2.482   3.526  14.238 -0.1180  0.1942 -1.0957
  174MPD1    C1 2649   2.435   3.625  14.322  0.3358 -0.0183  0.2889
  174MPD1    C2 2650   2.521   3.686  14.412 -0.0107  0.8693  0.4182
  174MPD1    C3 2651   2.649   3.634  14.426  0.1313 -0.5649 -0.0220
  174MPD1    C4 2652   2.696   3.536  14.336  0.1481 -0.9568  0.0875
  174MPD1    C5 2653   2.606   3.480  14.256 -0.6924 -0.2440 -0.0505
  174MPD1     H 2654   2.494   3.763  14.484 -0.5167  0.9269  0.1660
  174MPD1    H1 2655   2.799   3.504  14.328  0.3093  0.0067 -1.7890
  174MPD1    H2 2656   2.424   3.476  14.160 -0.3403  0.2301 -0.9546
  174MPD1    H3 2657   2.650   3.406  14.191 -0.4722 -0.6464  0.5518
  174MPD1     N 2658   2.740   3.670  14.523  0.1079 -0.1273 -0.3174
  174MPD1    H5 2659   2.816   3.606  14.541 -0.4806 -0.4891  0.8909
  174MPD1    N1 2660   2.307   3.668  14.299  0.0752  0.0844  0.2313
  174MPD1    H6 2661   2.257   3.707  14.378 -1.7588 -1.9541  0.0740
  174MPD1    H7 2662   2.246   3.590  14.274  2.7533 -1.9782  0.0070
  175MPD1     C 2663   2.237   0.481  15.392  0.2346 -0.1292  0.1285
  175MPD1    C1 2664   2.178   0.360  15.424  0.7183  0.6256 -0.7273
  175MPD1    C2 2665   2.128   0.349  15.551 -1.0340  0.9247 -0.2074
  175MPD1    C3 2666   2.125   0.451  15.648 -0.0438  0.1723  0.4073
  175MPD1    C4 2667   2.179   0.570  15.611  0.3354  0.1137  0.2946
  175MPD1    C5 2668   2.235   0.585  15.486  0.4672  0.1967 -0.2455
  175MPD1     H 2669   2.074   0.258  15.577  2.3880 -0.3973  2.1475
  175MPD1    H1 2670   2.177   0.658  15.674 -1.2327  2.2326 -2.7365
  175MPD1    H2 2671   2.289   0.485  15.298  0.2089  0.7335  0.1484
  175MPD1    H3 2672   2.266   0.684  15.452 -0.3724  0.4626 -0.2238
  175MPD1     N 2673   2.093   0.439  15.782  0.0268  0.2958 -0.0832
  175MPD1    H5 2674   2.113   0.514  15.847  0.9193  0.5025 -0.5951
  175MPD1    N1 2675   2.157   0.255  15.328  0.6901  0.3532 -0.1682
  175MPD1    H6 2676   2.166   0.164  15.373 -2.2053  0.3409  0.3897
  175MPD1    H7 2677   2.227   0.257  15.255 -0.8052  1.0641 -1.5888
  176MPD1     C 2678   4.321   2.486  16.866  0.3757 -0.4244 -0.0743
  176MPD1    C1 2679   4.379   2.602  16.816 -0.8443 -0.1589 -0.7062
  176MPD1    C2 2680   4.351   2.726  16.877  0.0920 -0.1979 -0.5522
  176MPD1    C3 2681   4.271   2.723  16.991  0.2757 -0.0857  0.0443
  176MPD1    C4 2682   4.207   2.612  17.037  0.0620  0.3433 -0.3355
  176MPD1    C5 2683   4.242   2.493  16.980 -0.0147 -0.7937 -0.1038
  176MPD1     H 2684   4.394   2.821  16.848 -0.4013  0.1286 -0.2011
  176MPD1    H1 2685   4.147   2.607  17.127 -0.1263  1.7552 -0.3844
  176MPD1    H2 2686   4.332   2.386  16.826 -0.3685 -1.0110  1.1755
  176MPD1    H3 2687   4.206   2.394  17.004 -0.1223 -1.4213 -2.8650
  176MPD1     N 2688   4.249   2.852  17.047 -0.1181  0.2095  0.0737
  176MPD1    H5 2689   4.283   2.932  16.996  2.7556 -1.8589 -1.2138
  176MPD1    N1 2690   4.453   2.597  16.694  0.1043 -0.1315  0.0934
  176MPD1    H6 2691   4.483   2.502  16.675  1.9279  0.3033  0.7903
  176MPD1    H7 2692   4.541   2.649  16.698  0.5495 -0.9162  0.4824
  177MPD1     C 2693   2.293   1.790  10.287  0.8497 -0.2894 -0.5309
  177MPD1    C1 2694   2.261   1.757  10.160  0.3440  0.5318 -0.4282
  177MPD1    C2 2695   2.254   1.863  10.068 -1.0094  0.0381  0.4659
  177MPD1    C3 2696   2.265   1.995  10.102 -0.0703 -0.0261  0.3505
  177MPD1    C4 2697   2.286   2.023  10.235 -0.3036 -0.2017  0.3180
  177MPD1    C5 2698   2.310   1.922  10.321  0.7899  0.0394  0.3385
  177MPD1     H 2699   2.238   1.834   9.964  1.5456 -0.7839  0.2881
  177MPD1    H1 2700   2.303   2.121  10.279 -0.6219 -0.6616  1.4748
  177MPD1    H2 2701   2.313   1.704  10.349 -1.1453  1.1766  2.1547
  177MPD1    H3 2702   2.351   1.951  10.417  0.6050  0.2355  0.3571
  177MPD1     N 2703   2.249   2.093  10.001  0.2341 -0.0145  0.4153
  177MPD1    H5 2704   2.211   2.060   9.913 -0.1233  1.1389  0.1419
  177MPD1    N1 2705   2.268   1.625  10.119 -0.2786 -0.0412  0.1089
  177MPD1    H6 2706   2.199   1.599  10.049 -1.0628 -1.3991  1.3867
  177MPD1    H7 2707   2.268   1.561  10.199  0.0346 -0.3855 -0.1676
  178MPD1     C 2708   4.509   2.507   0.188 -0.4587  0.5244  0.2648
  178MPD1    C1 2709   4.582   2.626   0.199 -0.2051 -0.9171 -0.1032
  178MPD1    C2 2710   4.666   2.653   0.092 -0.9817 -0.1171 -0.2568
  178MPD1    C3 2711   4.680   2.571  17.660 -1.0711 -0.3314  0.0541
  178MPD1    C4 2712   4.607   2.455  17.664 -0.2933 -0.5061 -0.2656
  178MPD1    C5 2713   4.528   2.423   0.085  0.0747  0.2306  0.3259
  178MPD1     H 2714   4.706   2.753   0.076 -0.3917 -0.2498  0.3877
  178MPD1    H1 2715   4.601   2.382  17.584  1.5314  0.4320 -1.2588
  178MPD1    H2 2716   4.438   2.475   0.264  0.7770  1.1325  1.6723
  178MPD1    H3 2717   4.466   2.334   0.082  0.0964  0.2876 -1.6090
  178MPD1     N 2718   0.041   2.598  17.548  0.1203 -0.0261 -0.2789
  178MPD1    H5 2719   0.035   2.530  17.473  0.6530 -0.9617  0.5198
  178MPD1    N1 2720   4.554   2.716   0.302 -0.2380 -0.5015  0.2001
  178MPD1    H6 2721   4.650   2.734   0.332 -0.5018  1.7214 -0.2641
  178MPD1    H7 2722   4.502   2.668   0.375 -0.0101  0.5118  1.0380
  179MPD1     C 2723   0.162   0.889  15.766  0.7128 -0.0990 -0.2849
  179MPD1    C1 2724   0.079   0.851  15.663  0.0315  0.3139 -0.2839
  179MPD1    C2 2725   4.666   0.886  15.677 -0.7072  0.0866 -1.3774
  179MPD1    C3 2726   4.612   0.957  15.784  0.3158  0.6757  0.1439
  179MPD1    C4 2727   4.703   0.984  15.886  0.4951  0.2770 -0.1149
  179MPD1    C5 2728   0.116   0.948  15.881  0.4593  0.7811  0.3674
  179MPD1     H 2729   4.597   0.873  15.594 -1.5109  1.8145 -0.9687
  179MPD1    H1 2730   4.677   1.039  15.975 -0.9944  0.8252 -0.8861
  179MPD1    H2 2731   0.267   0.865  15.760  1.0263  1.2770 -0.2188
  179MPD1    H3 2732   0.188   0.974  15.957  1.9351  0.9448 -1.0768
  179MPD1     N 2733   4.485   1.014  15.793  0.1613 -0.0169 -0.5186
  179MPD1    H5 2734   4.470   1.088  15.862 -1.2529 -0.6000 -0.1956
  179MPD1    N1 2735   0.135   0.810  15.542  0.3041 -0.0536 -0.6861
  179MPD1    H6 2736   0.069   0.755  15.487 -2.5710  0.3439  2.4109
  179MPD1    H7 2737   0.218   0.752  15.550 -0.0352 -0.5923 -1.0458
  180MPD1     C 2738   4.113   3.195  14.491  0.1470  0.3089  0.1509
  180MPD1    C1 2739   4.093   3.263  14.372 -0.6046  0.6107  0.3958
  180MPD1    C2 2740   3.973   3.227  14.303  0.4481  0.4443  0.1852
  180MPD1    C3 2741   3.892   3.127  14.345  0.3516 -0.0441 -0.0192
  180MPD1    C4 2742   3.927   3.056  14.458 -0.8014  0.1398  0.6158
  180MPD1    C5 2743   4.035   3.085  14.532  0.2277  0.1099 -0.3190
  180MPD1     H 2744   3.943   3.274  14.210 -1.7428  0.5312  0.9437
  180MPD1    H1 2745   3.871   2.970  14.494 -1.8364  1.0327  1.1343
  180MPD1    H2 2746   4.189   3.218  14.565  0.0116  0.2574  0.3064
  180MPD1    H3 2747   4.052   3.030  14.623  1.4888 -0.8689 -1.1469
  180MPD1     N 2748   3.784   3.085  14.264  0.6687 -0.0432 -0.2955
  180MPD1    H5 2749   3.770   3.135  14.176  1.8521 -0.3988 -0.6861
  180MPD1    N1 2750   4.172   3.377  14.335 -0.0880 -0.1630 -0.3426
  180MPD1    H6 2751   4.159   3.396  14.236  0.2425 -1.6423 -0.6656
  180MPD1    H7 2752   4.273   3.368  14.344  0.3369  1.6777 -3.1546
  181MPD1     C 2753   0.265   4.282  10.253 -0.8239 -0.7337 -0.5569
  181MPD1    C1 2754   0.359   4.335  10.338 -0.0002 -0.6885 -0.0649
  181MPD1    C2 2755   0.474   4.376  10.280 -0.1666 -0.6323  0.1212
  181MPD1    C3 2756   0.490   4.388  10.144 -0.2063  0.6933  0.3540
  181MPD1    C4 2757   0.392   4.338  10.064 -0.2670  0.3132  0.2011
  181MPD1    C5 2758   0.281   4.280  10.118 -0.0917 -0.5991 -0.7777
  181MPD1     H 2759   0.564   4.382  10.340 -1.5181  0.2249  2.0692
  181MPD1    H1 2760   0.399   4.348   9.957 -0.0043 -1.6101  0.0243
  181MPD1    H2 2761   0.185   4.230  10.305 -2.2693  1.8944 -0.1750
  181MPD1    H3 2762   0.206   4.236  10.054  0.6732 -1.3027 -1.1951
  181MPD1     N 2763   0.617   4.418  10.087  0.3987 -0.1079  0.9337
  181MPD1    H5 2764   0.622   4.391   9.989 -0.3141 -2.0003  1.4149
  181MPD1    N1 2765   0.343   4.304  10.471 -0.3483  0.0035  0.3158
  181MPD1    H6 2766   0.383   4.377  10.530 -1.0915  1.1385 -0.5878
  181MPD1    H7 2767   0.246   4.302  10.502 -0.2124 -0.2233  0.7273
  182MPD1     C 2768   1.773   3.329   1.583  0.5130  0.3718 -0.1332
  182MPD1    C1 2769   1.843   3.342   1.468  0.1926  0.2971 -0.0131
  182MPD1    C2 2770   1.777   3.389   1.361 -0.4283 -0.2392  0.3388
  182MPD1    C3 2771   1.647   3.417   1.359  0.0080  0.3003  0.0577
  182MPD1    C4 2772   1.574   3.397   1.478  0.3914  0.0450 -1.3305
  182MPD1    C5 2773   1.638   3.345   1.579 -0.5076  0.5452 -0.2775
  182MPD1     H 2774   1.840   3.414   1.276 -0.8881  0.1890  0.1251
  182MPD1    H1 2775   1.468   3.419   1.485  0.4403 -0.5076  1.0658
  182MPD1    H2 2776   1.817   3.305   1.679  1.3505  3.9312  0.3823
  182MPD1    H3 2777   1.574   3.318   1.663 -0.4709 -0.7140 -0.6553
  182MPD1     N 2778   1.564   3.464   1.246 -0.3319  0.4488  0.6787
  182MPD1    H5 2779   1.469   3.486   1.276  0.4891  1.6757  2.3613
  182MPD1    N1 2780   1.989   3.329   1.475  0.4899  0.1105  0.0471
  182MPD1    H6 2781   2.019   3.267   1.550  2.2397  0.2783 -0.5027
  182MPD1    H7 2782   2.021   3.289   1.386  0.9224  0.3550  0.0905
  183MPD1     C 2783   1.875   4.408   8.887 -0.6824  0.5294 -0.1269
  183MPD1    C1 2784   1.934   4.288   8.885 -0.2817 -0.4383 -0.6909
  183MPD1    C2 2785   1.999   4.232   8.993 -0.2859 -0.2572  0.1010
  183MPD1    C3 2786   2.018   4.314   9.103 -0.0216 -0.0002 -0.1599
  183MPD1    C4 2787   1.961   4.438   9.104  0.3534 -0.0871 -0.1875
  183MPD1    C5 2788   1.881   4.478   9.001 -0.3061 -0.0090 -0.1001
  183MPD1     H 2789   2.042   4.132   8.995  1.3730  0.4968  2.2881
  183MPD1    H1 2790   1.962   4.495   9.196  1.8026  0.5107 -0.5759
  183MPD1    H2 2791   1.816   4.443   8.803 -0.3913 -1.6762 -1.2368
  183MPD1    H3 2792   1.847   4.581   8.998 -0.6830 -0.0986  1.2804
  183MPD1     N 2793   2.088   4.261   9.214  0.1581  0.0758  0.0115
  183MPD1    H5 2794   2.113   4.163   9.205  1.9584  0.5240  0.0513
  183MPD1    N1 2795   1.918   4.212   8.765  0.2802  0.0832  0.1960
  183MPD1    H6 2796   1.917   4.275   8.685  2.4276  2.0432  1.7144
  183MPD1    H7 2797   1.987   4.138   8.752 -0.7473 -0.8755  0.1316
  184MPD1     C 2798   0.645   1.885   9.773 -0.4874 -0.3414 -0.0685
  184MPD1    C1 2799   0.750   1.835   9.851 -0.3456  0.7764  0.2470
  184MPD1    C2 2800   0.879   1.865   9.802  0.4891 -0.1577 -0.8551
  184MPD1    C3 2801   0.907   1.907   9.673  0.5698  0.3987 -0.4083
  184MPD1    C4 2802   0.802   1.929   9.588 -1.4624  0.1448 -0.5761
  184MPD1    C5 2803   0.677   1.913   9.641  0.7084  0.0247  0.5145
  184MPD1     H 2804   0.961   1.861   9.873 -0.3031 -0.2589  0.0615
  184MPD1    H1 2805   0.815   1.962   9.486  1.9455  1.5321  0.3004
  184MPD1    H2 2806   0.545   1.901   9.811 -0.1397 -0.8009  1.0406
  184MPD1    H3 2807   0.599   1.940   9.571  2.2471  1.3400 -0.7143
  184MPD1     N 2808   1.038   1.934   9.615 -0.2363 -1.0025 -0.2252
  184MPD1    H5 2809   1.046   1.967   9.519  1.1738 -0.1414  0.1937
  184MPD1    N1 2810   0.728   1.826   9.987  0.4320 -0.0835  0.8667
  184MPD1    H6 2811   0.635   1.796  10.014  0.8170 -0.2805  1.9711
  184MPD1    H7 2812   0.797   1.774  10.041  0.5723 -0.7237  0.0647
  185MPD1     C 2813   1.324   1.858   8.761 -0.0331  0.3480  0.7725
  185MPD1    C1 2814   1.414   1.946   8.821  0.0975 -0.0628  0.4975
  185MPD1    C2 2815   1.412   1.973   8.959  0.1632 -0.3329  0.4964
  185MPD1    C3 2816   1.318   1.908   9.041 -0.1658 -0.3380  0.2471
  185MPD1    C4 2817   1.232   1.822   8.976 -0.3893 -0.1464  0.9463
  185MPD1    C5 2818   1.238   1.792   8.842 -0.0135 -0.4001  0.5247
  185MPD1     H 2819   1.486   2.038   9.004  1.1121 -0.9762 -0.1529
  185MPD1    H1 2820   1.149   1.774   9.025 -2.8443  1.8025 -1.2913
  185MPD1    H2 2821   1.328   1.834   8.656 -1.3386 -0.6354  0.9339
  185MPD1    H3 2822   1.161   1.728   8.801 -0.5324  0.4040  0.2479
  185MPD1     N 2823   1.305   1.933   9.179 -0.2693  0.4095  0.0472
  185MPD1    H5 2824   1.230   1.884   9.227 -1.4720 -0.1424 -2.4388
  185MPD1    N1 2825   1.502   2.011   8.733 -0.3495  0.7830  0.0285
  185MPD1    H6 2826   1.534   1.940   8.669 -0.0341  0.3337  0.6847
  185MPD1    H7 2827   1.588   2.045   8.776  0.7232 -2.3018  0.2920
  186MPD1     C 2828   4.422   1.175  15.312  0.7268  0.0450  0.2683
  186MPD1    C1 2829   4.358   1.291  15.331  0.5686  0.3586  0.8639
  186MPD1    C2 2830   4.373   1.359  15.453 -0.1279 -0.1013  0.3366
  186MPD1    C3 2831   4.460   1.313  15.551  0.0827 -0.5321  0.4956
  186MPD1    C4 2832   4.535   1.205  15.518  0.6752  0.1629 -0.4043
  186MPD1    C5 2833   4.519   1.133  15.403  0.0630 -0.4328 -0.4635
  186MPD1     H 2834   4.318   1.452  15.458  0.4544  0.3456 -1.5790
  186MPD1    H1 2835   4.612   1.174  15.588  0.0123 -0.6711 -0.0540
  186MPD1    H2 2836   4.399   1.103  15.234  1.6676  1.4103 -1.2701
  186MPD1    H3 2837   4.563   1.034  15.398 -2.2054 -1.3545 -1.9191
  186MPD1     N 2838   4.480   1.387  15.670 -0.0384 -0.7276  0.4835
  186MPD1    H5 2839   4.567   1.369  15.721 -0.5044 -0.3689  1.4036
  186MPD1    N1 2840   4.260   1.334  15.237 -0.0825 -0.0090  0.0892
  186MPD1    H6 2841   4.238   1.431  15.257 -0.4589 -0.2115  0.6573
  186MPD1    H7 2842   4.292   1.320  15.141  0.1841 -0.3747  0.2296
  187MPD1     C 2843   4.583   3.662   0.031 -0.3687 -0.0127 -0.1222
  187MPD1    C1 2844   4.585   3.643  17.580 -0.5893  0.1997 -0.0169
  187MPD1    C2 2845   4.482   3.689  17.498  0.6870  0.6826  0.1494
  187MPD1    C3 2846   4.383   3.775  17.552 -0.7257  0.6014 -0.1576
  187MPD1    C4 2847   4.397   3.813   0.005  0.8048  0.3940 -1.6147
  187MPD1    C5 2848   4.497   3.758   0.080 -0.2873 -0.1615 -0.2710
  187MPD1     H 2849   4.476   3.656  17.395  1.4673  0.7874  0.0650
  187MPD1    H1 2850   4.330   3.885   0.051  0.8091  0.0142 -1.0202
  187MPD1    H2 2851   4.647   3.607   0.099  0.8718 -0.2016 -1.4553
  187MPD1    H3 2852   4.516   3.788   0.182 -1.8001 -1.2533  0.3370
  187MPD1     N 2853   4.278   3.836  17.482  0.3680 -0.7166  0.4735
  187MPD1    H5 2854   4.225   3.905  17.535  1.1544  1.4967 -1.6456
  187MPD1    N1 2855   4.681   3.545  17.531 -0.2751  0.4122  0.5026
  187MPD1    H6 2856   0.034   3.540  17.602  0.8763 -1.3587 -0.8050
  187MPD1    H7 2857   0.013   3.576  17.449 -0.5938  0.3193  0.2654
  188MPD1     C 2858   4.557   2.084   9.368 -0.5924  0.5948 -0.9216
  188MPD1    C1 2859   4.586   2.103   9.503  0.0357 -0.9402  0.3741
  188MPD1    C2 2860   4.516   2.198   9.573  0.5908  0.2527  0.4602
  188MPD1    C3 2861   4.446   2.288   9.494  0.9072 -0.4637 -0.2045
  188MPD1    C4 2862   4.450   2.293   9.362 -0.3283  0.2489  0.3635
  188MPD1    C5 2863   4.495   2.183   9.297  0.1946  0.6630  0.0468
  188MPD1     H 2864   4.519   2.196   9.682  0.7476 -2.8382  0.4089
  188MPD1    H1 2865   4.386   2.365   9.313  0.4832 -0.5114 -1.7965
  188MPD1    H2 2866   4.606   2.006   9.310  0.8463  0.9114 -0.1287
  188MPD1    H3 2867   4.481   2.171   9.190  0.0137  1.6140 -0.0286
  188MPD1     N 2868   4.351   2.374   9.540 -0.1766  0.4182  0.1073
  188MPD1    H5 2869   4.302   2.430   9.471 -0.5843 -0.7320 -0.5147
  188MPD1    N1 2870   4.683   2.019   9.568 -0.0029 -0.6286  0.0924
  188MPD1    H6 2871   4.676   2.011   9.669  1.8302  1.7007  0.4064
  188MPD1    H7 2872   0.008   1.940   9.521  4.1096  1.5509  0.3431
  189MPD1     C 2873   0.847   3.785   0.232 -0.2936 -0.2280  0.9988
  189MPD1    C1 2874   0.730   3.721   0.275 -0.0890 -0.0760 -0.2060
  189MPD1    C2 2875   0.630   3.806   0.308 -0.0466 -0.4360 -0.3303
  189MPD1    C3 2876   0.648   3.950   0.305  0.0203  0.0629  0.2393
  189MPD1    C4 2877   0.770   4.001   0.276 -0.8739  0.4486  0.1152
  189MPD1    C5 2878   0.867   3.917   0.228  0.0748 -0.3823  0.5050
  189MPD1     H 2879   0.536   3.773   0.349  1.8105 -2.5687  2.2172
  189MPD1    H1 2880   0.790   4.107   0.269  0.4482  0.0455 -2.1618
  189MPD1    H2 2881   0.939   3.729   0.219 -1.3734 -1.0965 -2.6778
  189MPD1    H3 2882   0.964   3.959   0.202 -0.6928  0.7268 -0.5365
  189MPD1     N 2883   0.534   4.037   0.314  0.1157 -0.2607  0.2439
  189MPD1    H5 2884   0.441   4.001   0.330 -0.3434 -0.0297 -1.9499
  189MPD1    N1 2885   0.733   3.582   0.300  0.5433 -0.2271  0.2748
  189MPD1    H6 2886   0.792   3.533   0.233 -1.6782 -0.8112 -1.2261
  189MPD1    H7 2887   0.644   3.534   0.300  0.2917  0.2403  0.2171
  190MPD1     C 2888   4.161   1.897  15.718  0.3854  0.7691 -0.5401
  190MPD1    C1 2889   4.246   1.875  15.618 -0.2040  0.5545 -0.2279
  190MPD1    C2 2890   4.307   1.985  15.565 -0.2568  0.1921  0.9000
  190MPD1    C3 2891   4.296   2.110  15.613  0.0766 -0.2738  0.1630
  190MPD1    C4 2892   4.202   2.129  15.712  0.2826 -0.5563  0.3072
  190MPD1    C5 2893   4.153   2.022  15.777 -0.4558  0.2979 -0.0932
  190MPD1     H 2894   4.363   1.953  15.478 -1.9368 -1.7539  0.5128
  190MPD1    H1 2895   4.171   2.223  15.757  0.1413  0.7688 -2.5480
  190MPD1    H2 2896   4.104   1.822  15.771  2.3354 -1.2517 -1.3170
  190MPD1    H3 2897   4.092   2.038  15.864  0.0246  2.8531 -0.2268
  190MPD1     N 2898   4.348   2.224  15.545  0.0770 -0.4817  0.3355
  190MPD1    H5 2899   4.395   2.195  15.460  1.2974  1.7834  0.2431
  190MPD1    N1 2900   4.253   1.744  15.559 -0.3531 -0.4600  0.0395
  190MPD1    H6 2901   4.339   1.718  15.511  0.1542  1.0987  0.1291
  190MPD1    H7 2902   4.236   1.668  15.625 -3.3130  1.0163  0.9773
  191MPD1     C 2903   2.953   4.252  12.707  0.8010 -0.3411  0.2022
  191MPD1    C1 2904   3.049   4.348  12.657 -0.9442  1.2734 -0.1687
  191MPD1    C2 2905   3.147   4.294  12.576  0.4291 -0.4574 -0.0065
  191MPD1    C3 2906   3.147   4.158  12.538  0.9630 -0.5385 -0.0385
  191MPD1    C4 2907   3.043   4.078  12.571  0.2575  0.1263  0.0687
  191MPD1    C5 2908   2.951   4.128  12.660  0.0748  0.6563  0.2098
  191MPD1     H 2909   3.229   4.358  12.543  0.6857 -0.9896 -0.4116
  191MPD1    H1 2910   3.024   3.977  12.537 -0.3409 -0.8993  3.4515
  191MPD1    H2 2911   2.881   4.276  12.784 -1.5676 -1.6807 -1.5832
  191MPD1    H3 2912   2.864   4.066  12.678  0.6278  0.1133  0.9436
  191MPD1     N 2913   3.258   4.114  12.462  0.5573  0.6902 -0.1294
  191MPD1    H5 2914   3.340   4.174  12.457  0.4755  0.7450 -0.8054
  191MPD1    N1 2915   3.059   4.472  12.712 -0.0182  0.0258  0.0372
  191MPD1    H6 2916   2.962   4.499  12.722  0.6968  3.1659 -1.2695
  191MPD1    H7 2917   3.094   4.538  12.642 -0.1311  1.4577  1.3500
  192MPD1     C 2918   3.405   3.227  11.994 -0.4450  0.0171 -0.0277
  192MPD1    C1 2919   3.482   3.321  11.920  0.3575 -0.2067  0.0433
  192MPD1    C2 2920   3.510   3.447  11.979  0.0359 -0.1341 -0.2525
  192MPD1    C3 2921   3.440   3.489  12.092 -0.0728 -0.0582  0.4185
  192MPD1    C4 2922   3.351   3.399  12.153  0.1920  0.0042 -0.1294
  192MPD1    C5 2923   3.342   3.270  12.110 -0.2227 -0.0041  0.0623
  192MPD1     H 2924   3.588   3.506  11.931 -1.6659  1.0606 -1.5423
  192MPD1    H1 2925   3.296   3.412  12.245  0.8508 -0.4392  0.3302
  192MPD1    H2 2926   3.377   3.125  11.968 -2.5238  0.8036 -0.8669
  192MPD1    H3 2927   3.276   3.205  12.166 -0.2222 -0.3997 -0.3902
  192MPD1     N 2928   3.445   3.617  12.151 -0.7369  0.6684 -0.5557
  192MPD1    H5 2929   3.383   3.634  12.229 -1.9749 -1.9536 -0.9564
  192MPD1    N1 2930   3.562   3.279  11.811 -0.3919  0.1541 -0.0256
  192MPD1    H6 2931   3.509   3.211  11.757  1.9970  0.8973 -3.3239
  192MPD1    H7 2932   3.590   3.360  11.756 -0.9833  1.0415  0.9805
  193MPD1     C 2933   2.653   0.461  16.328 -0.5161 -0.2096 -0.2026
  193MPD1    C1 2934   2.770   0.506  16.269  0.2366  0.3569  0.1072
  193MPD1    C2 2935   2.870   0.543  16.356 -0.4385  0.1091 -0.2591
  193MPD1    C3 2936   2.862   0.531  16.492 -0.2619 -0.1581  0.0594
  193MPD1    C4 2937   2.747   0.489  16.543  0.1586 -0.0219  0.9497
  193MPD1    C5 2938   2.646   0.444  16.459  0.2833  0.4117 -0.0123
  193MPD1     H 2939   2.961   0.583  16.313 -0.3118  0.4523  0.3249
  193MPD1    H1 2940   2.731   0.481  16.650  0.1943  1.9743  1.1012
  193MPD1    H2 2941   2.567   0.434  16.268  0.8367  0.4389 -2.4270
  193MPD1    H3 2942   2.550   0.408  16.494  1.0596 -0.5960  1.0458
  193MPD1     N 2943   2.973   0.537  16.582 -0.0111 -0.3925 -0.1126
  193MPD1    H5 2944   2.954   0.549  16.681 -1.4980  3.2887 -0.8340
  193MPD1    N1 2945   2.777   0.547  16.133 -0.5422  0.4618 -0.0436
  193MPD1    H6 2946   2.872   0.550  16.095 -0.4917  1.0916  0.1443
  193MPD1    H7 2947   2.722   0.490  16.069  2.1672 -0.9219 -1.1301
  194MPD1     C 2948   1.427   2.423  16.804 -0.2443  1.3203  0.0701
  194MPD1    C1 2949   1.351   2.357  16.716 -0.3146  0.4776 -0.2112
  194MPD1    C2 2950   1.367   2.225  16.688 -0.4345  0.0268 -0.1226
  194MPD1    C3 2951   1.468   2.150  16.760  0.1627  0.6868  0.2131
  194MPD1    C4 2952   1.549   2.217  16.842 -0.3425  0.0559 -0.0338
  194MPD1    C5 2953   1.530   2.349  16.862 -0.0790  0.1088 -0.0100
  194MPD1     H 2954   1.293   2.179  16.623  0.3184 -1.3879  0.0271
  194MPD1    H1 2955   1.619   2.155  16.897  0.5308 -0.3242 -1.5769
  194MPD1    H2 2956   1.417   2.526  16.834 -0.4654  1.2494  0.2404
  194MPD1    H3 2957   1.595   2.414  16.918 -0.1937 -1.0495  1.4581
  194MPD1     N 2958   1.496   2.011  16.749 -0.0846 -0.8513 -0.5483
  194MPD1    H5 2959   1.565   1.968  16.810 -2.2480  0.1654  2.5744
  194MPD1    N1 2960   1.267   2.442  16.637  0.3176 -0.0412 -0.6726
  194MPD1    H6 2961   1.194   2.387  16.593  1.9248 -0.2581 -3.0749
  194MPD1    H7 2962   1.240   2.528  16.683 -0.6912 -0.9129  0.3649
  195MPD1     C 2963   3.258   4.528   0.375 -0.0634 -0.4378 -0.2045
  195MPD1    C1 2964   3.392   4.535   0.347 -0.3884  0.3558  0.4629
  195MPD1    C2 2965   3.461   4.421   0.296 -0.0177 -0.0600  0.5069
  195MPD1    C3 2966   3.393   4.304   0.269  0.7591 -0.2719  0.3321
  195MPD1    C4 2967   3.260   4.298   0.301  0.2252  0.2445 -0.6446
  195MPD1    C5 2968   3.197   4.407   0.350 -1.0655  0.4992  0.4101
  195MPD1     H 2969   3.567   4.413   0.275  0.1161  3.9149 -0.2619
  195MPD1    H1 2970   3.195   4.218   0.269  0.4831 -0.4174  0.4780
  195MPD1    H2 2971   3.195   4.608   0.413  1.8969  1.6917 -1.4937
  195MPD1    H3 2972   3.090   4.399   0.362 -1.7096  3.7595 -3.1933
  195MPD1     N 2973   3.442   4.178   0.213  0.8687  0.5659 -0.4598
  195MPD1    H5 2974   3.377   4.101   0.201 -0.2454  1.4656 -0.2846
  195MPD1    N1 2975   3.448   4.663   0.351  0.3533  0.1817  0.0215
  195MPD1    H6 2976   3.399   4.719   0.420 -0.1111 -0.2528  0.0477
  195MPD1    H7 2977   3.548   4.651   0.366  0.1302 -1.6216  0.0758
  196MPD1     C 2978   2.507   3.067  17.374 -0.6403  0.2026 -0.2810
  196MPD1    C1 2979   2.567   3.179  17.433  0.0582  0.0983 -0.1260
  196MPD1    C2 2980   2.575   3.188  17.574  0.1630  0.4261  0.1592
  196MPD1    C3 2981   2.550   3.071  17.652 -0.1717  0.6412 -0.5638
  196MPD1    C4 2982   2.491   2.959  17.587 -0.2330  0.3180 -0.0443
  196MPD1    C5 2983   2.464   2.965  17.457 -0.9989 -0.2380 -0.3272
  196MPD1     H 2984   2.623   3.273  17.622  0.0876 -0.6829  2.1952
  196MPD1    H1 2985   2.475   2.867  17.643 -2.3045  0.2759 -0.6955
  196MPD1    H2 2986   2.476   3.054  17.271 -1.7297 -0.1413  0.0907
  196MPD1    H3 2987   2.395   2.893  17.414  0.0422 -1.5163  0.1663
  196MPD1     N 2988   2.548   3.067   0.110  0.6463  0.7923 -0.2139
  196MPD1    H5 2989   2.522   2.976   0.147 -0.9160  0.8696 -1.1339
  196MPD1    N1 2990   2.575   3.297  17.354 -0.0888  0.9747  0.0561
  196MPD1    H6 2991   2.656   3.352  17.382  1.3331 -0.6143 -0.9909
  196MPD1    H7 2992   2.585   3.273  17.256 -0.6872 -0.4192  0.3323
  197MPD1     C 2993   2.155   0.823   0.082  0.5324 -0.7899  1.0369
  197MPD1    C1 2994   2.181   0.954   0.096 -0.6175  0.3005  0.1613
  197MPD1    C2 2995   2.157   1.036  17.669 -0.2578 -0.2908 -0.2463
  197MPD1    C3 2996   2.131   0.985  17.547 -0.2928  0.4652  0.0955
  197MPD1    C4 2997   2.118   0.850  17.533 -0.3662 -0.3336  0.0920
  197MPD1    C5 2998   2.132   0.768  17.643 -0.3151  0.2664 -0.1932
  197MPD1     H 2999   2.157   1.142   0.005 -1.5452 -0.3540  0.1157
  197MPD1    H1 3000   2.116   0.807  17.433 -1.2656  1.3235 -0.6041
  197MPD1    H2 3001   2.168   0.755   0.166  1.6090 -0.0578  1.4767
  197MPD1    H3 3002   2.119   0.661  17.630  0.4267  0.3568 -1.6450
  197MPD1     N 3003   2.116   1.059  17.425 -0.3134  0.1275  0.4249
  197MPD1    H5 3004   2.119   1.007  17.338  0.4458 -0.9009  1.0610
  197MPD1    N1 3005   2.202   1.001   0.225 -0.1282 -0.1726 -0.2249
  197MPD1    H6 3006   2.268   1.078   0.222  0.1421 -0.3215  2.3209
  197MPD1    H7 3007   2.249   0.930   0.280  0.9898  0.5273 -0.2854
  198MPD1     C 3008   3.833   4.179  15.259  0.3950  0.1930 -0.4027
  198MPD1    C1 3009   3.809   4.192  15.396 -1.5098  0.2185 -0.1005
  198MPD1    C2 3010   3.909   4.169  15.490  0.0601  0.2283 -0.4188
  198MPD1    C3 3011   4.041   4.156  15.454  0.0946  0.2171  0.4180
  198MPD1    C4 3012   4.073   4.153  15.315  0.4052 -0.5243 -0.8150
  198MPD1    C5 3013   3.967   4.163  15.223  0.2236 -0.2035  0.1412
  198MPD1     H 3014   3.881   4.158  15.595  2.7749  0.5321  0.3539
  198MPD1    H1 3015   4.176   4.139  15.284  0.6780  1.8566 -0.9621
  198MPD1    H2 3016   3.755   4.186  15.184  0.7546 -0.6459 -0.8545
  198MPD1    H3 3017   3.988   4.147  15.118 -0.6377 -1.4204  0.1495
  198MPD1     N 3018   4.138   4.132  15.553 -0.4760  0.4870 -0.2638
  198MPD1    H5 3019   4.224   4.093  15.517 -0.2737  1.5714 -0.9559
  198MPD1    N1 3020   3.673   4.197  15.441 -0.2399 -0.0039  0.0327
  198MPD1    H6 3021   3.666   4.259  15.521  0.3980  0.5804 -0.3617
  198MPD1    H7 3022   3.621   4.246  15.369 -0.6071  1.3996  1.2410
  199MPD1     C 3023   0.878   0.199  10.238  0.3227  0.0540 -0.1097
  199MPD1    C1 3024   0.763   0.162  10.166  0.1072  0.2799 -0.0455
  199MPD1    C2 3025   0.771   0.148  10.026 -0.1438 -0.2595  0.3535
  199MPD1    C3 3026   0.900   0.154   9.966  0.2878  1.0390  0.1789
  199MPD1    C4 3027   1.006   0.192  10.035  0.0026 -0.1508 -0.5404
  199MPD1    C5 3028   0.995   0.214  10.169 -0.3912  0.4724 -0.1609
  199MPD1     H 3029   0.678   0.137   9.972  0.4976 -0.7173 -0.6537
  199MPD1    H1 3030   1.102   0.203   9.987  0.0557  2.1758  0.0617
  199MPD1    H2 3031   0.877   0.214  10.345 -2.3746  0.1775 -0.1368
  199MPD1    H3 3032   1.088   0.250  10.212 -0.4976 -1.8377  2.0639
  199MPD1     N 3033   0.911   0.143   9.827 -0.3659 -0.0630 -0.4751
  199MPD1    H5 3034   1.000   0.166   9.784  0.1328 -0.8361  0.1647
  199MPD1    N1 3035   0.641   0.156  10.233 -0.3017  0.7019 -0.6347
  199MPD1    H6 3036   0.566   0.107  10.184  0.5151 -1.4692  0.2899
  199MPD1    H7 3037   0.659   0.131  10.330  0.1552  0.7091 -0.7161
  200MPD1     C 3038   0.266   4.403  14.762  0.3424  0.3873  0.0471
  200MPD1    C1 3039   0.367   4.342  14.693  0.1911  0.1906 -0.2227
  200MPD1    C2 3040   0.472   4.419  14.663 -0.8929 -0.2102  0.6697
  200MPD1    C3 3041   0.479   4.551  14.697  0.4335 -0.6951  0.0613
  200MPD1    C4 3042   0.385   4.613  14.770  0.5676  0.6218  0.3553
  200MPD1    C5 3043   0.280   4.532  14.802  0.5804 -0.2253 -0.1225
  200MPD1     H 3044   0.552   4.380  14.601 -0.7379 -1.6055  1.7516
  200MPD1    H1 3045   0.385   4.716  14.801  1.3227  1.0062 -0.9313
  200MPD1    H2 3046   0.171   4.354  14.781 -0.8455  1.1608 -3.8781
  200MPD1    H3 3047   0.212   4.585  14.867  0.2683 -0.4305 -0.2829
  200MPD1     N 3048   0.592   4.613  14.643 -0.4078  0.6395 -0.7965
  200MPD1    H5 3049   0.660   4.552  14.599 -2.1766 -1.2163 -0.9853
  200MPD1    N1 3050   0.342   4.209  14.646  0.0642  0.4509  0.0887
  200MPD1    H6 3051   0.273   4.158  14.701  0.9251 -0.6777  0.0997
  200MPD1    H7 3052   0.429   4.160  14.663  0.4109  1.3744  0.9494
  201MPD1     C 3053   2.666   4.003  13.072  0.3104 -0.1664  0.1568
  201MPD1    C1 3054   2.646   3.942  13.199 -0.1015  0.2435  0.1911
  201MPD1    C2 3055   2.632   3.803  13.201  0.3595  0.0614 -0.5985
  201MPD1    C3 3056   2.628   3.733  13.083 -0.7683  0.3181 -0.0978
  201MPD1    C4 3057   2.645   3.786  12.962  0.7519 -0.1779 -0.5894
  201MPD1    C5 3058   2.664   3.919  12.962 -0.6633  0.1498  0.2812
  201MPD1     H 3059   2.623   3.760  13.299  1.2600  1.5907  0.1546
  201MPD1    H1 3060   2.652   3.733  12.867  0.1926 -0.3197 -0.5549
  201MPD1    H2 3061   2.700   4.104  13.056 -1.5193  1.1245  4.2321
  201MPD1    H3 3062   2.692   3.961  12.866 -1.4744  0.0569  0.0036
  201MPD1     N 3063   2.616   3.595  13.092 -0.1325  0.2761  0.0748
  201MPD1    H5 3064   2.571   3.567  13.178  1.0262 -2.6079 -0.2793
  201MPD1    N1 3065   2.636   4.014  13.313 -0.0439  0.4299 -0.5076
  201MPD1    H6 3066   2.547   3.990  13.357 -0.0028  2.1514  0.5416
  201MPD1    H7 3067   2.636   4.115  13.295 -3.5891  1.0323  2.6687
  202MPD1     C 3068   2.331   3.340   8.893  0.1097  0.0075 -0.2065
  202MPD1    C1 3069   2.335   3.271   9.015  0.0503 -0.2700  0.1549
  202MPD1    C2 3070   2.448   3.293   9.091 -0.4432 -0.0212  0.6033
  202MPD1    C3 3071   2.531   3.400   9.076 -0.1574 -0.7581  0.0314
  202MPD1    C4 3072   2.504   3.484   8.978  0.0690  0.7906  0.5881
  202MPD1    C5 3073   2.406   3.450   8.890 -0.1521  0.3941  0.2055
  202MPD1     H 3074   2.468   3.239   9.183 -0.1053 -0.3455  0.3428
  202MPD1    H1 3075   2.564   3.573   8.960  2.1076 -0.5777  0.6682
  202MPD1    H2 3076   2.249   3.325   8.824  1.6471 -1.8710 -1.6239
  202MPD1    H3 3077   2.393   3.517   8.806 -1.1449 -1.0763 -0.8204
  202MPD1     N 3078   2.647   3.431   9.160 -1.0240 -0.6690  0.7143
  202MPD1    H5 3079   2.696   3.520   9.153  0.1854 -1.4826 -1.0947
  202MPD1    N1 3080   2.278   3.145   9.019 -0.7928 -0.6955 -0.0825
  202MPD1    H6 3081   2.189   3.153   8.970 -0.7194 -0.2558 -0.1373
  202MPD1    H7 3082   2.269   3.107   9.113  0.5217 -0.1862  0.2412
  203MPD1     C 3083   1.331   4.631  12.912 -0.2600  0.7469 -0.6586
  203MPD1    C1 3084   1.386   4.537  12.990  0.5299  0.2172 -0.2901
  203MPD1    C2 3085   1.379   4.406  12.955  0.1466 -0.1117  0.1312
  203MPD1    C3 3086   1.309   4.368  12.839 -0.4462  0.3077 -0.4205
  203MPD1    C4 3087   1.248   4.466  12.764 -0.5518  0.3918 -0.2774
  203MPD1    C5 3088   1.256   4.598  12.801  0.0578  0.0659  0.6073
  203MPD1     H 3089   1.425   4.327  13.013 -0.2032  0.8646  1.7385
  203MPD1    H1 3090   1.181   4.451  12.680 -0.2966 -1.8948 -0.0599
  203MPD1    H2 3091   1.339   0.017  12.930  1.7406 -0.0746  3.3080
  203MPD1    H3 3092   1.198   4.668  12.742 -1.8521 -1.6900  0.3761
  203MPD1     N 3093   1.312   4.236  12.797  0.0613 -0.8756  0.0480
  203MPD1    H5 3094   1.352   4.166  12.858  1.5974 -0.9218 -0.9971
  203MPD1    N1 3095   1.450   4.571  13.108  0.5646 -0.0326 -0.0864
  203MPD1    H6 3096   1.395   4.643  13.154  0.0603  0.3901 -1.3785
  203MPD1    H7 3097   1.458   4.487  13.167 -2.1780 -0.6281 -0.5487
  204MPD1     C 3098   0.561   0.264  17.579  0.2751 -0.1237 -0.1821
  204MPD1    C1 3099   0.651   0.313  17.483 -0.0375  0.4055 -0.9811
  204MPD1    C2 3100   0.738   0.220  17.430  0.0949  0.0987 -0.1084
  204MPD1    C3 3101   0.755   0.093  17.482  0.6196 -0.1484  0.7036
  204MPD1    C4 3102   0.661   0.051  17.585  0.0820 -0.5348 -0.4097
  204MPD1    C5 3103   0.568   0.136  17.631  0.0279 -0.5723  0.4298
  204MPD1     H 3104   0.803   0.246  17.347 -0.0241 -1.1382 -0.5829
  204MPD1    H1 3105   0.652   4.668  17.615  1.2430 -0.9802 -1.6017
  204MPD1    H2 3106   0.476   0.323  17.613  0.3132 -1.2177  1.8036
  204MPD1    H3 3107   0.492   0.095   0.013 -2.0066 -0.2326 -1.7188
  204MPD1     N 3108   0.834   4.717  17.410 -0.2223  0.4189 -0.0489
  204MPD1    H5 3109   0.886   0.032  17.331  0.5264  1.1162  0.7561
  204MPD1    N1 3110   0.653   0.446  17.424  0.2130  0.9048 -0.2475
  204MPD1    H6 3111   0.613   0.509  17.493 -0.3432 -0.0339  0.2914
  204MPD1    H7 3112   0.749   0.481  17.421  0.0010  1.3372 -1.5926
  205MPD1     C 3113   0.368   3.034  16.901  0.3324  0.5759 -0.0400
  205MPD1    C1 3114   0.486   2.965  16.869 -0.4814 -0.0185  0.1958
  205MPD1    C2 3115   0.602   3.031  16.893  0.2842  0.8697 -0.5811
  205MPD1    C3 3116   0.609   3.154  16.959  0.2460 -0.0137 -0.5861
  205MPD1    C4 3117   0.493   3.209  17.001 -0.5938 -0.5595  0.4476
  205MPD1    C5 3118   0.376   3.150  16.966 -0.7009 -0.2737 -0.2473
  205MPD1     H 3119   0.697   2.982  16.877 -0.6849 -0.9067 -0.9450
  205MPD1    H1 3120   0.493   3.311  17.038  2.1003  0.1306 -1.3856
  205MPD1    H2 3121   0.270   3.003  16.866 -0.1678  0.4830  1.4746
  205MPD1    H3 3122   0.288   3.214  16.966  1.2921  2.4749 -0.3826
  205MPD1     N 3123   0.728   3.223  16.980  0.1781  0.4149 -0.1069
  205MPD1    H5 3124   0.723   3.316  17.020  0.0386  1.7065 -3.1170
  205MPD1    N1 3125   0.485   2.852  16.780  0.1079 -0.8408  0.2644
  205MPD1    H6 3126   0.406   2.791  16.800  0.4786 -0.6303  2.3589
  205MPD1    H7 3127   0.561   2.790  16.808 -1.5936 -2.1275  2.0679
  206MPD1     C 3128   1.931   1.995  16.629  0.7520 -0.7871  0.4730
  206MPD1    C1 3129   1.890   1.880  16.565 -0.0469 -0.1565 -0.8693
  206MPD1    C2 3130   1.800   1.894  16.467 -1.6927  0.5944 -0.6914
  206MPD1    C3 3131   1.724   2.012  16.464  0.6925  0.4571  0.1458
  206MPD1    C4 3132   1.748   2.120  16.547  0.1045  0.3237 -0.3932
  206MPD1    C5 3133   1.857   2.107  16.628 -0.6427  0.4150 -0.1013
  206MPD1     H 3134   1.789   1.812  16.398  0.9117  0.0831 -0.5285
  206MPD1    H1 3135   1.685   2.207  16.552 -0.9791 -0.4495 -0.5209
  206MPD1    H2 3136   2.017   1.991  16.695 -0.0793  1.7349  1.7004
  206MPD1    H3 3137   1.878   2.189  16.695 -0.4262 -1.8122  2.5302
  206MPD1     N 3138   1.607   2.020  16.382 -1.0290 -0.6484  0.2468
  206MPD1    H5 3139   1.557   2.108  16.389  1.9675  1.3106 -3.3526
  206MPD1    N1 3140   1.978   1.770  16.558  0.5060 -0.3147 -0.7359
  206MPD1    H6 3141   2.008   1.744  16.652 -0.0460  1.1053 -0.1695
  206MPD1    H7 3142   1.929   1.686  16.526  2.4229 -1.4558 -0.6614
  207MPD1     C 3143   2.452   1.100   9.546 -0.6428 -0.0901 -0.6448
  207MPD1    C1 3144   2.465   0.987   9.624  0.2668 -0.6155  0.1998
  207MPD1    C2 3145   2.591   0.966   9.684  0.1971  1.0581  0.5577
  207MPD1    C3 3146   2.686   1.059   9.668 -0.0409  0.1342  0.1578
  207MPD1    C4 3147   2.659   1.179   9.609 -0.0812  0.0222 -0.6868
  207MPD1    C5 3148   2.543   1.202   9.551 -0.0845  0.2478 -0.2640
  207MPD1     H 3149   2.608   0.865   9.719  1.9836  0.3980 -2.1832
  207MPD1    H1 3150   2.737   1.254   9.595  0.0780 -0.3804 -1.9070
  207MPD1    H2 3151   2.364   1.109   9.482 -0.0685 -0.2188 -1.4487
  207MPD1    H3 3152   2.543   1.293   9.491 -1.6784  1.3586  1.4215
  207MPD1     N 3153   2.818   1.046   9.716 -0.0769  0.4756 -0.2021
  207MPD1    H5 3154   2.882   1.124   9.705 -0.5447  0.7741 -0.8281
  207MPD1    N1 3155   2.370   0.885   9.629  0.3129  0.0430 -0.6377
  207MPD1    H6 3156   2.275   0.917   9.615  0.4427  0.0387 -1.5244
  207MPD1    H7 3157   2.371   0.844   9.722  0.8886  0.8580 -0.2910
  208MPD1     C 3158   2.660   3.811   0.042 -0.3957  0.1272 -0.0154
  208MPD1    C1 3159   2.646   3.710  17.632 -0.8243 -0.2658 -1.1352
  208MPD1    C2 3160   2.527   3.635  17.628  1.3466  0.4374  0.1209
  208MPD1    C3 3161   2.418   3.658   0.025 -0.1937 -0.2005 -1.0855
  208MPD1    C4 3162   2.440   3.760   0.123  0.3217  0.9383  0.6009
  208MPD1    C5 3163   2.557   3.835   0.125 -0.1651  0.8567  0.0889
  208MPD1     H 3164   2.528   3.562  17.548  0.3880 -1.6327  2.0097
  208MPD1    H1 3165   2.357   3.793   0.185  2.3021 -0.6280  4.0722
  208MPD1    H2 3166   2.741   3.884   0.041 -0.2504 -0.0343 -0.0089
  208MPD1    H3 3167   2.567   3.923   0.187  0.1451 -0.2097  1.5605
  208MPD1     N 3168   2.294   3.601  17.676 -0.2118 -0.9413  0.2281
  208MPD1    H5 3169   2.299   3.534  17.599 -0.3730  1.0156 -1.4887
  208MPD1    N1 3170   2.746   3.697  17.534 -0.1620  0.3030 -0.1251
  208MPD1    H6 3171   2.838   3.731  17.563  0.0684 -1.3058  1.0677
  208MPD1    H7 3172   2.757   3.598  17.511  2.4711  0.4204  0.5401
  209MPD1     C 3173   2.835   4.214  10.001 -0.3439 -0.0703 -0.2848
  209MPD1    C1 3174   2.829   4.348   9.961  0.1500  0.0652  0.3142
  209MPD1    C2 3175   2.941   4.426   9.978 -0.3043 -0.0493  0.2095
  209MPD1    C3 3176   3.063   4.372  10.018 -0.4125  0.7645  0.3049
  209MPD1    C4 3177   3.068   4.236  10.046 -0.2673 -0.2461  0.4114
  209MPD1    C5 3178   2.956   4.158  10.032  0.8761 -0.4297  0.6698
  209MPD1     H 3179   2.927   4.533   9.966  2.9732  0.2383 -1.0053
  209MPD1    H1 3180   3.164   4.185  10.058 -0.0796 -0.3320 -1.4610
  209MPD1    H2 3181   2.746   4.154  10.009  0.5994 -1.2703  1.4115
  209MPD1    H3 3182   2.958   4.052  10.052  1.7049 -0.6661 -0.6857
  209MPD1     N 3183   3.176   4.458  10.029 -0.7959  0.5095 -0.2011
  209MPD1    H5 3184   3.159   4.550   9.989 -1.0418  0.5587  0.0166
  209MPD1    N1 3185   2.704   4.413   9.951 -0.3406  0.6190 -0.0251
  209MPD1    H6 3186   2.707   4.507   9.911 -0.4679  0.4372 -0.4663
  209MPD1    H7 3187   2.636   4.355   9.903  1.0937  0.5238 -1.9721
  210MPD1     C 3188   4.232   4.516  10.113  0.0211 -0.1126 -0.3024
  210MPD1    C1 3189   4.154   4.469  10.211  0.1583  0.2254 -0.5298
  210MPD1    C2 3190   4.018   4.509  10.202  0.1354 -0.8928 -0.4100
  210MPD1    C3 3191   3.965   4.601  10.117 -0.1870 -0.1386 -0.6763
  210MPD1    C4 3192   4.053   4.655  10.029  0.2457 -0.6111 -0.8796
  210MPD1    C5 3193   4.182   4.610  10.021 -0.5030  0.0858 -0.1092
  210MPD1     H 3194   3.951   4.466  10.276  1.3910 -1.0365  0.6417
  210MPD1    H1 3195   4.009   4.720   9.954  0.2741 -2.3579 -2.4032
  210MPD1    H2 3196   4.330   4.470  10.104  1.1370  2.0273  1.0327
  210MPD1    H3 3197   4.247   4.636   9.939  1.0089 -0.2561  0.9789
  210MPD1     N 3198   3.829   4.635  10.109  0.2536  0.1850 -0.1382
  210MPD1    H5 3199   3.811   4.708  10.040  1.5228  0.9424  0.3265
  210MPD1    N1 3200   4.198   4.357  10.288  0.4633 -0.4867  0.5455
  210MPD1    H6 3201   4.298   4.341  10.277  0.0944 -1.8858 -0.7201
  210MPD1    H7 3202   4.155   4.352  10.380  0.7319 -2.5536  0.5568
  211MPD1     C 3203   2.007   3.510  16.394  0.1759 -1.0709  0.0397
  211MPD1    C1 3204   1.999   3.650  16.411 -0.4048  0.6996 -0.2426
  211MPD1    C2 3205   1.872   3.700  16.432  0.4338 -0.4478 -0.1131
  211MPD1    C3 3206   1.753   3.623  16.407  0.5009  0.2160  0.8991
  211MPD1    C4 3207   1.769   3.488  16.371 -0.7553 -0.2114  0.1264
  211MPD1    C5 3208   1.890   3.435  16.382 -0.2037  0.1991  0.6097
  211MPD1     H 3209   1.864   3.805  16.459 -0.5595 -0.6730  0.4945
  211MPD1    H1 3210   1.684   3.421  16.362 -0.1762 -1.0389  0.7917
  211MPD1    H2 3211   2.104   3.463  16.397 -0.8680 -3.0798  3.2053
  211MPD1    H3 3212   1.897   3.328  16.373 -0.8082  0.2788 -0.8101
  211MPD1     N 3213   1.629   3.686  16.420 -1.1247 -0.0682  0.0652
  211MPD1    H5 3214   1.617   3.784  16.441 -1.8451  0.3339 -2.2910
  211MPD1    N1 3215   2.109   3.732  16.431 -0.6187  0.7785 -0.0312
  211MPD1    H6 3216   2.183   3.711  16.364  1.6509  1.8899  2.1382
  211MPD1    H7 3217   2.083   3.829  16.416 -1.4607  0.1993 -2.3040
  212MPD1     C 3218   0.056   2.475  16.397  0.1386 -0.2993 -0.8792
  212MPD1    C1 3219   4.716   2.352  16.385  0.3762 -0.0667 -0.2551
  212MPD1    C2 3220   0.075   2.245  16.425  0.4430  0.2847  0.0376
  212MPD1    C3 3221   0.204   2.256  16.481 -1.2636  0.3957  0.1181
  212MPD1    C4 3222   0.250   2.384  16.502  0.0539 -0.2778  0.8078
  212MPD1    C5 3223   0.179   2.488  16.449 -0.2155 -0.5500  0.0882
  212MPD1     H 3224   0.040   2.145  16.401  0.5458  0.2755 -0.0733
  212MPD1    H1 3225   0.345   2.408  16.549 -0.6588  0.1693  2.0331
  212MPD1    H2 3226   0.003   2.567  16.370 -0.9027  0.3137  3.2107
  212MPD1    H3 3227   0.220   2.588  16.461  3.3711 -1.9108 -0.7733
  212MPD1     N 3228   0.279   2.146  16.536 -0.1857 -0.7298  0.2282
  212MPD1    H5 3229   0.343   2.164  16.613 -0.8492  1.1433  0.3478
  212MPD1    N1 3230   4.584   2.338  16.329 -0.1011 -0.2017 -0.1244
  212MPD1    H6 3231   4.535   2.250  16.341  0.0017 -0.0207  1.7617
  212MPD1    H7 3232   4.526   2.420  16.345  2.6394  1.2693  2.1951
  213MPD1     C 3233   3.617   2.722  15.350 -0.3826 -0.4821 -0.3129
  213MPD1    C1 3234   3.483   2.710  15.387 -1.2363 -0.5980 -0.0037
  213MPD1    C2 3235   3.396   2.746  15.287 -0.8214  0.4629 -0.3254
  213MPD1    C3 3236   3.431   2.825  15.178  0.5792 -0.3851 -0.4658
  213MPD1    C4 3237   3.565   2.869  15.158 -0.4150 -0.5724  0.2553
  213MPD1    C5 3238   3.654   2.818  15.253  0.1985 -0.3105  1.2003
  213MPD1     H 3239   3.291   2.723  15.299 -0.4670 -1.5203 -0.9274
  213MPD1    H1 3240   3.594   2.928  15.071 -1.2108 -0.7335 -0.1230
  213MPD1    H2 3241   3.703   2.680  15.401 -0.7159  0.7428  1.2590
  213MPD1    H3 3242   3.759   2.841  15.239  0.3128 -0.1295  2.3931
  213MPD1     N 3243   3.323   2.859  15.087 -0.0471  0.1339 -0.2593
  213MPD1    H5 3244   3.234   2.818  15.113  0.9464 -0.8474  1.5873
  213MPD1    N1 3245   3.449   2.609  15.476  0.4718 -0.0878  0.0584
  213MPD1    H6 3246   3.361   2.635  15.518  0.5481  2.3175 -1.2614
  213MPD1    H7 3247   3.515   2.606  15.554 -1.1616  0.8793  1.4686
  214MPD1     C 3248   2.653   2.405  15.080  0.0548  0.3404 -0.1506
  214MPD1    C1 3249   2.601   2.490  14.985 -0.4772  0.2779  0.0042
  214MPD1    C2 3250   2.676   2.602  14.953 -0.4354 -0.2426 -0.3954
  214MPD1    C3 3251   2.802   2.616  15.009  0.3629 -0.5972 -0.1496
  214MPD1    C4 3252   2.858   2.526  15.098 -0.0087 -0.0297  0.0670
  214MPD1    C5 3253   2.781   2.418  15.130  0.2499  0.4186 -0.6755
  214MPD1     H 3254   2.629   2.670  14.883 -0.1570  0.6831  0.3147
  214MPD1    H1 3255   2.961   2.532  15.130  0.2939 -0.0852 -0.8938
  214MPD1    H2 3256   2.609   2.311  15.114 -1.1837  1.7728  2.2135
  214MPD1    H3 3257   2.814   2.341  15.198  2.2066  1.9366  0.0912
  214MPD1     N 3258   2.886   2.725  14.980  0.5451 -0.1283 -0.1911
  214MPD1    H5 3259   2.960   2.736  15.048 -0.5784  1.6649  0.7751
  214MPD1    N1 3260   2.471   2.474  14.939 -0.3320 -0.7427  0.3587
  214MPD1    H6 3261   2.445   2.533  14.861  1.2389 -0.4558  0.0504
  214MPD1    H7 3262   2.448   2.378  14.912  0.1558 -0.7297 -0.1200
  215MPD1     C 3263   4.058   3.333  10.075  0.0107  0.0023 -0.9409
  215MPD1    C1 3264   3.927   3.357  10.026  0.4554  1.2574  0.1700
  215MPD1    C2 3265   3.831   3.417  10.110  0.0917 -0.5132 -0.8355
  215MPD1    C3 3266   3.872   3.456  10.240  0.2851  0.4573  0.4273
  215MPD1    C4 3267   4.003   3.432  10.279  0.0573  0.1273 -0.0816
  215MPD1    C5 3268   4.095   3.372  10.198 -0.0594  0.0437 -0.5174
  215MPD1     H 3269   3.731   3.428  10.069 -0.5482  1.0080  1.1357
  215MPD1    H1 3270   4.042   3.453  10.378 -1.8370  0.8675  0.5192
  215MPD1    H2 3271   4.128   3.272  10.019  0.9027 -0.0381  0.1957
  215MPD1    H3 3272   4.196   3.342  10.226 -1.3211  0.0253  3.9350
  215MPD1     N 3273   3.774   3.513  10.323  0.8914 -0.1889  0.3564
  215MPD1    H5 3274   3.688   3.516  10.268  0.5303 -0.1593  0.9275
  215MPD1    N1 3275   3.883   3.300   9.910 -0.5258 -0.0494  0.1657
  215MPD1    H6 3276   3.801   3.347   9.873  0.2193 -0.5186 -2.0599
  215MPD1    H7 3277   3.961   3.298   9.845  0.0952 -0.5857  0.9134
  216MPD1     C 3278   0.651   1.803  17.118  0.1976 -0.8961 -0.1172
  216MPD1    C1 3279   0.758   1.779  17.039  0.2288  0.0740 -0.3591
  216MPD1    C2 3280   0.762   1.651  16.985  0.5970  0.2583 -0.3225
  216MPD1    C3 3281   0.663   1.558  17.005  0.1168  0.4666 -0.1673
  216MPD1    C4 3282   0.558   1.591  17.096 -0.3350  0.7550 -0.2705
  216MPD1    C5 3283   0.554   1.711  17.148  0.2859  0.3169  0.6113
  216MPD1     H 3284   0.839   1.619  16.916  1.5460  0.2174  0.7520
  216MPD1    H1 3285   0.486   1.514  17.121 -0.8791  1.0754 -0.8561
  216MPD1    H2 3286   0.637   1.901  17.162 -0.8989 -1.4232  0.6931
  216MPD1    H3 3287   0.472   1.740  17.211 -0.9603  1.8998 -1.7342
  216MPD1     N 3288   0.666   1.440  16.934 -0.2192  0.3273 -0.2680
  216MPD1    H5 3289   0.742   1.427  16.868 -0.4677  0.6980 -0.6257
  216MPD1    N1 3290   0.842   1.887  17.011 -0.8297 -0.0783  0.1098
  216MPD1    H6 3291   0.840   1.970  17.070 -1.6336 -1.5944  2.2164
  216MPD1    H7 3292   0.928   1.867  16.962 -1.6404 -2.1448 -0.4851
  217MPD1     C 3293   0.526   2.858   8.729  0.5067 -0.3501 -0.0315
  217MPD1    C1 3294   0.664   2.867   8.735 -0.5622  0.4133  0.6504
  217MPD1    C2 3295   0.708   2.954   8.834 -0.2374 -0.1699 -0.8401
  217MPD1    C3 3296   0.627   3.016   8.928 -0.8592 -0.9980 -0.1851
  217MPD1    C4 3297   0.490   2.997   8.917  0.3820  0.1687  0.3419
  217MPD1    C5 3298   0.446   2.930   8.809  0.2542  0.6469 -0.3412
  217MPD1     H 3299   0.815   2.970   8.839 -0.2476 -1.0269  2.5623
  217MPD1    H1 3300   0.423   3.055   8.979  1.0059  0.0777  1.1102
  217MPD1    H2 3301   0.487   2.800   8.646 -0.8317  0.2467  0.1696
  217MPD1    H3 3302   0.341   2.935   8.785  1.1138 -1.0811 -4.5710
  217MPD1     N 3303   0.675   3.109   9.030  0.4016  0.3513  0.0860
  217MPD1    H5 3304   0.603   3.157   9.082  0.4166 -0.0373  0.4633
  217MPD1    N1 3305   0.753   2.782   8.662  0.2766  0.0202  0.5638
  217MPD1    H6 3306   0.761   2.685   8.692 -1.6618  0.0372  1.1450
  217MPD1    H7 3307   0.849   2.815   8.673  0.4178 -1.4564  3.6876
  218MPD1     C 3308   2.319   3.660  12.275 -0.1325 -0.8397  0.9659
  218MPD1    C1 3309   2.398   3.547  12.260  0.5150 -0.0633  0.2447
  218MPD1    C2 3310   2.509   3.540  12.344 -0.3785 -0.3935  0.3971
  218MPD1    C3 3311   2.558   3.636  12.426  0.4433  0.0244  0.5874
  218MPD1    C4 3312   2.487   3.756  12.423  0.8246 -0.4191 -0.1234
  218MPD1    C5 3313   2.367   3.765  12.357  0.1133  0.5940  0.0672
  218MPD1     H 3314   2.571   3.452  12.329 -0.2463 -0.1705 -0.3882
  218MPD1    H1 3315   2.516   3.847  12.474 -0.6128  0.1840 -0.3719
  218MPD1    H2 3316   2.227   3.671  12.218 -1.1632 -1.3220  2.5165
  218MPD1    H3 3317   2.325   3.864  12.348  0.0067  0.5320 -0.1211
  218MPD1     N 3318   2.669   3.609  12.503  0.2695 -0.4840  0.1181
  218MPD1    H5 3319   2.702   3.513  12.499 -2.3465 -1.3221 -1.1441
  218MPD1    N1 3320   2.354   3.433  12.191  0.4826  0.0421 -0.3779
  218MPD1    H6 3321   2.431   3.371  12.166  0.2652 -0.8440  1.1021
  218MPD1    H7 3322   2.307   3.448  12.102 -1.6047 -3.5660  0.0965
  219MPD1     C 3323   3.348   3.767  13.339 -0.0068 -0.1531 -0.0664
  219MPD1    C1 3324   3.302   3.867  13.254 -0.0226 -0.3762  0.2057
  219MPD1    C2 3325   3.245   3.827  13.132 -0.3170  0.1157  0.2937
  219MPD1    C3 3326   3.215   3.698  13.103 -0.1155  0.0488 -0.4198
  219MPD1    C4 3327   3.248   3.598  13.193  0.1591  0.2526 -0.0957
  219MPD1    C5 3328   3.315   3.637  13.310 -0.2424 -0.5597  0.0402
  219MPD1     H 3329   3.230   3.899  13.052 -1.0023 -1.9048 -1.4009
  219MPD1    H1 3330   3.234   3.492  13.176 -0.1042 -0.1165  2.3652
  219MPD1    H2 3331   3.392   3.791  13.435 -2.5046 -0.6185  1.1944
  219MPD1    H3 3332   3.354   3.558  13.374  0.4987 -1.2062 -1.2187
  219MPD1     N 3333   3.152   3.662  12.983  0.3114  0.0997  0.6482
  219MPD1    H5 3334   3.136   3.563  12.964  0.9976 -0.1445  1.3192
  219MPD1    N1 3335   3.338   3.999  13.279 -0.0975 -1.1554  0.7326
  219MPD1    H6 3336   3.356   4.024  13.376  1.1733 -3.3695  1.0474
  219MPD1    H7 3337   3.270   4.064  13.239  0.9502 -0.4598  0.0731
  220MPD1     C 3338   2.965   4.462  10.905  0.3020 -0.4296 -0.2951
  220MPD1    C1 3339   3.038   4.447  10.788 -0.1393  0.1020  0.3243
  220MPD1    C2 3340   2.972   4.428  10.671 -0.4858 -0.1212  0.2557
  220MPD1    C3 3341   2.835   4.426  10.665  0.5765 -0.2923  0.2278
  220MPD1    C4 3342   2.761   4.428  10.782 -0.6928 -0.2504  0.1652
  220MPD1    C5 3343   2.833   4.447  10.893  0.0397  0.4492 -0.0544
  220MPD1     H 3344   3.024   4.403  10.579 -1.1527  2.9412 -0.9461
  220MPD1    H1 3345   2.654   4.418  10.781 -0.7270  0.3394 -2.2440
  220MPD1    H2 3346   3.012   4.466  11.002 -0.6696 -1.4273  0.2019
  220MPD1    H3 3347   2.781   4.430  10.987 -2.9333  3.7481 -1.1181
  220MPD1     N 3348   2.768   4.392  10.542 -0.3097  0.0048  0.3449
  220MPD1    H5 3349   2.823   4.375  10.459  0.9582  0.2330  1.1365
  220MPD1    N1 3350   3.177   4.425  10.794 -0.3463  0.1647 -0.6501
  220MPD1    H6 3351   3.231   4.461  10.716 -3.0427  3.2966 -1.1038
  220MPD1    H7 3352   3.211   4.471  10.878  1.2651 -0.3372 -1.0385
  221MPD1     C 3353   2.279   2.623  16.512 -0.2215 -0.1593  0.2655
  221MPD1    C1 3354   2.243   2.742  16.555 -0.4549  0.2774  0.5063
  221MPD1    C2 3355   2.207   2.840  16.458  0.2306  0.2602  0.1819
  221MPD1    C3 3356   2.184   2.804  16.328 -0.2673  0.0416  0.6499
  221MPD1    C4 3357   2.213   2.672  16.290  0.6744  0.0421 -0.5638
  221MPD1    C5 3358   2.265   2.589  16.381 -0.0453  0.4158  0.7769
  221MPD1     H 3359   2.189   2.940  16.498 -1.0021  0.4351 -0.8015
  221MPD1    H1 3360   2.210   2.649  16.184 -3.4795 -0.8125 -0.2510
  221MPD1    H2 3361   2.318   2.552  16.585  1.1328 -1.0724 -1.3472
  221MPD1    H3 3362   2.288   2.486  16.356  0.6125  0.8083 -0.2153
  221MPD1     N 3363   2.118   2.882  16.228  0.4179 -0.8871  0.0832
  221MPD1    H5 3364   2.098   2.854  16.133  0.6766 -1.6739  0.2610
  221MPD1    N1 3365   2.285   2.775  16.686  0.2325 -0.1658  0.0033
  221MPD1    H6 3366   2.285   2.696  16.751 -2.3628  0.1696  0.4255
  221MPD1    H7 3367   2.232   2.847  16.735  0.7790 -0.4179  0.9804
  222MPD1     C 3368   1.344   1.574  17.033  0.0011  0.5732  0.2474
  222MPD1    C1 3369   1.236   1.576  16.953  0.0288 -0.8952  0.0489
  222MPD1    C2 3370   1.182   1.699  16.923  0.5658 -0.2644  0.1326
  222MPD1    C3 3371   1.248   1.820  16.960 -0.0354  0.6554  0.5977
  222MPD1    C4 3372   1.364   1.809  17.025  0.4374  0.4549 -0.1965
  222MPD1    C5 3373   1.407   1.690  17.070  0.7937 -0.1875 -0.8503
  222MPD1     H 3374   1.091   1.692  16.864  1.2060 -1.0881 -0.7680
  222MPD1    H1 3375   1.419   1.892  17.068 -1.5003  1.2731  0.7103
  222MPD1    H2 3376   1.386   1.483  17.075  2.3900  1.0577 -1.1077
  222MPD1    H3 3377   1.493   1.678  17.136  1.4319 -4.3122 -2.4268
  222MPD1     N 3378   1.202   1.948  16.919 -0.3679 -0.1109 -0.5124
  222MPD1    H5 3379   1.245   2.031  16.958 -0.2720 -1.6249  2.5762
  222MPD1    N1 3380   1.173   1.449  16.939 -0.6022 -0.3542 -0.6493
  222MPD1    H6 3381   1.100   1.449  16.868 -3.0815  0.9626  1.9009
  222MPD1    H7 3382   1.232   1.368  16.921 -1.9644 -1.6783  0.8403
  223MPD1     C 3383   0.564   2.165  16.191  0.3613 -0.4376  0.1710
  223MPD1    C1 3384   0.679   2.095  16.185  0.8076 -0.5936  0.0558
  223MPD1    C2 3385   0.769   2.116  16.290  0.2076  0.1305 -1.3230
  223MPD1    C3 3386   0.736   2.193  16.403  0.5030 -0.5534  0.3297
  223MPD1    C4 3387   0.612   2.248  16.411  0.8677 -0.7851  0.4656
  223MPD1    C5 3388   0.524   2.234  16.301 -0.8066 -0.3751  0.4493
  223MPD1     H 3389   0.869   2.077  16.275  0.6813  0.6347  0.5661
  223MPD1    H1 3390   0.578   2.317  16.487 -0.5013 -1.7588  0.7294
  223MPD1    H2 3391   0.485   2.153  16.117  0.1130  2.4519 -0.0354
  223MPD1    H3 3392   0.423   2.270  16.309 -0.9891 -1.2750  2.1555
  223MPD1     N 3393   0.833   2.204  16.505 -0.1226 -0.2418  0.3729
  223MPD1    H5 3394   0.923   2.159  16.491 -0.1929 -0.1689 -0.3186
  223MPD1    N1 3395   0.705   2.030  16.065  0.0066 -0.1795 -0.8449
  223MPD1    H6 3396   0.760   1.946  16.085  0.2989  0.3806  0.7268
  223MPD1    H7 3397   0.615   2.005  16.024 -0.2609  0.3256 -0.5643
  224MPD1     C 3398   1.314   3.670   8.901 -0.2184  0.2100 -0.2368
  224MPD1    C1 3399   1.215   3.764   8.879 -0.1354  0.8692 -0.8399
  224MPD1    C2 3400   1.238   3.899   8.885 -0.0278  0.6856  0.8086
  224MPD1    C3 3401   1.355   3.944   8.941  0.4817  0.7752 -0.5020
  224MPD1    C4 3402   1.451   3.852   8.978 -0.2384 -0.8249 -0.1141
  224MPD1    C5 3403   1.436   3.718   8.958 -0.2283 -0.1318  0.0779
  224MPD1     H 3404   1.166   3.969   8.845 -1.4691 -1.7047 -0.7908
  224MPD1    H1 3405   1.548   3.883   9.015 -0.0913  1.5495 -2.4726
  224MPD1    H2 3406   1.307   3.565   8.873  0.2608  0.5209 -1.5281
  224MPD1    H3 3407   1.518   3.650   8.978  0.0333  0.4421  0.9715
  224MPD1     N 3408   1.393   4.084   8.949  0.2004 -0.1744 -0.0131
  224MPD1    H5 3409   1.468   4.108   9.013 -1.1977 -1.8390  2.2369
  224MPD1    N1 3410   1.092   3.733   8.825 -0.5455 -0.4035 -0.0744
  224MPD1    H6 3411   1.026   3.804   8.856 -0.5488 -0.9771  1.2178
  224MPD1    H7 3412   1.055   3.638   8.835  1.5373 -1.3873 -1.7991
  225MPD1     C 3413   2.677   4.485  12.859  0.2389 -0.4150  0.5889
  225MPD1    C1 3414   2.621   4.391  12.776 -1.0491 -0.8205 -0.1967
  225MPD1    C2 3415   2.619   4.423  12.639  0.1310 -0.5228  0.0811
  225MPD1    C3 3416   2.681   4.536  12.589  0.8493  0.2982 -0.2051
  225MPD1    C4 3417   2.740   4.628  12.683 -0.2226 -0.3913 -0.9033
  225MPD1    C5 3418   2.732   4.600  12.817  0.0634  0.2786 -0.1498
  225MPD1     H 3419   2.568   4.347  12.581 -4.8937  1.1397  2.3119
  225MPD1    H1 3420   2.776   0.008  12.661 -0.9671  0.2563  0.8595
  225MPD1    H2 3421   2.675   4.458  12.964  0.8972 -1.3781  0.3539
  225MPD1    H3 3422   2.759   4.676  12.890  1.6763 -0.0275 -0.4105
  225MPD1     N 3423   2.683   4.562  12.450  0.0309  0.7752  0.8748
  225MPD1    H5 3424   2.731   4.646  12.420  1.7646 -0.8430 -0.8829
  225MPD1    N1 3425   2.547   4.295  12.839 -0.2647  0.5655  0.4050
  225MPD1    H6 3426   2.538   4.213  12.779  0.7692 -0.6505  1.9141
  225MPD1    H7 3427   2.587   4.271  12.929  0.8535 -2.4065 -0.8682
  226MPD1     C 3428   3.095   2.560   9.580  0.4091  0.4281 -0.6134
  226MPD1    C1 3429   3.142   2.684   9.597  0.6760 -0.7466  0.0634
  226MPD1    C2 3430   3.056   2.788   9.626 -0.1471  0.4326 -0.4063
  226MPD1    C3 3431   2.921   2.773   9.614  0.0392  0.2090  0.0900
  226MPD1    C4 3432   2.876   2.647   9.577  0.3117  0.0313 -0.7726
  226MPD1    C5 3433   2.960   2.542   9.557  0.7166  0.3499  0.0250
  226MPD1     H 3434   3.091   2.890   9.637 -1.5201  0.7244  1.2488
  226MPD1    H1 3435   2.769   2.640   9.561  0.3939  1.0230 -1.7621
  226MPD1    H2 3436   3.162   2.475   9.571  1.8336  1.4606  0.3126
  226MPD1    H3 3437   2.929   2.439   9.542 -0.7572  0.6424  0.9716
  226MPD1     N 3438   2.850   2.886   9.637 -0.0159 -0.2760  0.1689
  226MPD1    H5 3439   2.903   2.968   9.662  0.8021 -1.3058  1.8388
  226MPD1    N1 3440   3.278   2.690   9.642 -0.3713  0.3841 -0.4963
  226MPD1    H6 3441   3.305   2.788   9.631  0.0241  0.2919 -0.3546
  226MPD1    H7 3442   3.338   2.637   9.580 -0.5750  0.4835 -0.7784
  227MPD1     C 3443   3.230   3.464   9.971  0.6193  0.1184  0.3159
  227MPD1    C1 3444   3.159   3.539   9.886 -0.4315 -0.2375  0.2786
  227MPD1    C2 3445   3.043   3.476   9.842 -0.0236 -0.1777 -0.1541
  227MPD1    C3 3446   2.988   3.364   9.894  0.1455  0.0504  0.1741
  227MPD1    C4 3447   3.066   3.292   9.975  0.4615  0.2621 -0.0190
  227MPD1    C5 3448   3.190   3.342  10.011  0.3257  0.1677  0.2023
  227MPD1     H 3449   3.007   3.523   9.751 -0.4546  1.9648  1.1286
  227MPD1    H1 3450   3.042   3.192  10.009 -1.6866  1.0621  0.7855
  227MPD1    H2 3451   3.324   3.501  10.010 -0.0854  1.1412  1.0503
  227MPD1    H3 3452   3.256   3.290  10.079  0.5078 -0.0330 -0.1265
  227MPD1     N 3453   2.869   3.303   9.836 -0.2893  0.8206 -0.7674
  227MPD1    H5 3454   2.847   3.208   9.865  2.4859  0.5071  0.2946
  227MPD1    N1 3455   3.204   3.659   9.824 -0.0293  0.0807  0.4055
  227MPD1    H6 3456   3.265   3.712   9.885 -0.7963  0.2744  1.0102
  227MPD1    H7 3457   3.126   3.723   9.805  1.1528  1.5851  0.6438
  228MPD1     C 3458   4.255   2.698  12.773 -0.2298  0.2912  1.3032
  228MPD1    C1 3459   4.188   2.658  12.659  0.3832  0.8757  0.7362
  228MPD1    C2 3460   4.077   2.583  12.670 -0.2417  0.3581  0.7963
  228MPD1    C3 3461   4.038   2.528  12.791  0.0415  0.5200  0.0171
  228MPD1    C4 3462   4.121   2.551  12.902  0.3951  0.4199  0.0443
  228MPD1    C5 3463   4.223   2.644  12.894  0.0784  0.0834 -1.1533
  228MPD1     H 3464   4.012   2.561  12.586  1.5139  2.5394 -1.1258
  228MPD1    H1 3465   4.114   2.504  13.000  0.9117 -1.2800 -0.7358
  228MPD1    H2 3466   4.344   2.760  12.781  0.6877 -0.8673  0.0846
  228MPD1    H3 3467   4.274   2.674  12.984  1.1867  1.3043 -2.1782
  228MPD1     N 3468   3.918   2.451  12.796 -0.2148 -0.4212 -0.3165
  228MPD1    H5 3469   3.866   2.448  12.708 -1.0746  0.5992  0.1622
  228MPD1    N1 3470   4.218   2.710  12.532 -0.0558 -0.1908 -0.5890
  228MPD1    H6 3471   4.207   2.635  12.465  1.6681 -1.3183  0.3725
  228MPD1    H7 3472   4.312   2.747  12.517 -0.0950  0.2838  0.3042
  229MPD1     C 3473   3.887   1.155  14.944 -0.3082  0.5317  0.1016
  229MPD1    C1 3474   3.886   1.061  15.041  0.4474 -0.7239  0.4431
  229MPD1    C2 3475   4.006   0.998  15.072  0.1781  0.2600 -0.3421
  229MPD1    C3 3476   4.121   1.021  14.997  0.0238  1.1391 -0.4066
  229MPD1    C4 3477   4.113   1.106  14.886 -0.1688  0.3102  0.0756
  229MPD1    C5 3478   3.998   1.179  14.861 -0.0971  0.1310 -0.1472
  229MPD1     H 3479   4.016   0.933  15.158  0.7067 -0.3348 -0.8549
  229MPD1    H1 3480   4.195   1.120  14.817 -1.2192 -2.0673 -1.6494
  229MPD1    H2 3481   3.801   1.219  14.928 -0.0722  1.0481  0.8946
  229MPD1    H3 3482   4.009   1.261  14.792  2.0673 -0.7300 -0.8369
  229MPD1     N 3483   4.237   0.950  15.007  0.0223  0.5382 -0.3914
  229MPD1    H5 3484   4.311   0.975  14.943  0.0439  1.4388 -0.0172
  229MPD1    N1 3485   3.767   1.047  15.123 -0.2628  0.4731 -0.4566
  229MPD1    H6 3486   3.688   1.085  15.072  0.4967  0.2571 -1.8008
  229MPD1    H7 3487   3.756   0.950  15.151  2.3594  0.2828 -0.0938
  230MPD1     C 3488   4.126   0.483  15.649 -0.7987  0.4361  0.2597
  230MPD1    C1 3489   4.131   0.408  15.527  0.3041 -0.5551  0.9555
  230MPD1    C2 3490   4.227   0.444  15.433 -0.1793 -0.8008  0.0345
  230MPD1    C3 3491   4.342   0.518  15.463  0.2766  0.4126 -0.3000
  230MPD1    C4 3492   4.346   0.566  15.592 -0.0474  0.4436  0.5385
  230MPD1    C5 3493   4.237   0.551  15.679 -0.3572 -0.2571 -0.0995
  230MPD1     H 3494   4.228   0.406  15.332  0.8296 -1.2697  0.2189
  230MPD1    H1 3495   4.430   0.623  15.631  0.2091  0.3374  0.1329
  230MPD1    H2 3496   4.052   0.468  15.726  0.3696 -1.8049  0.9464
  230MPD1    H3 3497   4.243   0.604  15.773  1.7138  2.2111 -1.6115
  230MPD1     N 3498   4.425   0.563  15.360 -0.1443  0.4357 -0.7633
  230MPD1    H5 3499   4.394   0.551  15.263  0.5829  0.0150 -0.9408
  230MPD1    N1 3500   4.008   0.349  15.491  0.1926 -0.1475  0.1437
  230MPD1    H6 3501   4.018   0.284  15.413  2.5678 -0.2963  0.5826
  230MPD1    H7 3502   3.962   0.300  15.567 -1.2803 -0.1722 -0.7595
  231MPD1     C 3503   2.834   2.341  15.810  0.3507 -0.1960  0.2654
  231MPD1    C1 3504   2.771   2.283  15.701 -0.1802  0.0251 -0.6395
  231MPD1    C2 3505   2.723   2.360  15.590  0.4472  0.3513  0.3966
  231MPD1    C3 3506   2.730   2.497  15.610 -0.8811  0.0585 -0.1018
  231MPD1    C4 3507   2.816   2.551  15.707 -0.0726  0.1867  0.7210
  231MPD1    C5 3508   2.863   2.472  15.807  0.0397  0.0585  0.6347
  231MPD1     H 3509   2.666   2.306  15.514 -0.1188  2.1648 -0.4717
  231MPD1    H1 3510   2.837   2.656  15.716 -1.4163  0.5012  0.2438
  231MPD1    H2 3511   2.865   2.288  15.899  0.2605  0.5631  0.7515
  231MPD1    H3 3512   2.911   2.522  15.890  1.0040 -0.3154  0.2997
  231MPD1     N 3513   2.683   2.582  15.508  0.7088  0.0927 -0.5538
  231MPD1    H5 3514   2.715   2.678  15.511  1.3484 -0.1533  0.5309
  231MPD1    N1 3515   2.739   2.146  15.715 -0.0049  0.2341 -0.1541
  231MPD1    H6 3516   2.800   2.099  15.782 -1.5113  0.8815  1.6643
  231MPD1    H7 3517   2.737   2.102  15.623  1.7489 -1.0089  0.4057
  232MPD1     C 3518   4.206   0.118   0.641 -0.1507  0.2006 -0.1224
  232MPD1    C1 3519   4.084   0.098   0.701  0.0488  0.0042  0.5501
  232MPD1    C2 3520   4.007   0.212   0.723 -0.1707  0.1128  0.0795
  232MPD1    C3 3521   4.045   0.341   0.681 -0.3927 -0.9886 -0.6234
  232MPD1    C4 3522   4.160   0.361   0.608 -0.4769  0.5167 -0.0708
  232MPD1    C5 3523   4.238   0.243   0.592  0.2404 -0.3766  0.9249
  232MPD1     H 3524   3.907   0.202   0.765 -0.4733  0.4157 -0.5586
  232MPD1    H1 3525   4.201   0.454   0.569 -0.7889  0.2903 -0.9381
  232MPD1    H2 3526   4.282   0.043   0.627 -0.7682 -0.3557 -0.4997
  232MPD1    H3 3527   4.330   0.254   0.536 -0.1843 -0.9922  0.1092
  232MPD1     N 3528   3.955   0.448   0.687 -0.0603  0.4334  0.0009
  232MPD1    H5 3529   3.862   0.418   0.712 -0.2476  0.1426 -1.0481
  232MPD1    N1 3530   4.046   4.701   0.763  0.1006 -0.2774 -0.7397
  232MPD1    H6 3531   3.947   4.688   0.786 -0.2620  0.8666 -1.6527
  232MPD1    H7 3532   4.097   4.623   0.723  0.7658  0.6167 -1.6282
  233MPD1     C 3533   0.230   4.559   1.562 -0.7979  0.3820  1.0847
  233MPD1    C1 3534   0.146   4.514   1.464 -0.0764  0.8537 -0.4838
  233MPD1    C2 3535   0.197   4.431   1.371 -0.8069  0.2633  0.0117
  233MPD1    C3 3536   0.323   4.380   1.389  0.1678 -0.3942  0.2275
  233MPD1    C4 3537   0.401   4.425   1.497 -0.0297  0.2332  0.2584
  233MPD1    C5 3538   0.345   4.505   1.584 -0.2500  0.4129  0.1617
  233MPD1     H 3539   0.130   4.397   1.293  1.1952  0.7477 -1.9209
  233MPD1    H1 3540   0.505   4.398   1.513  0.1933  0.3429 -0.9543
  233MPD1    H2 3541   0.195   4.641   1.624 -1.3569  0.8590  0.1419
  233MPD1    H3 3542   0.399   4.542   1.671  1.4937 -2.0376  0.1271
  233MPD1     N 3543   0.395   4.294   1.302 -0.3110 -0.4553  0.4244
  233MPD1    H5 3544   0.481   4.257   1.340  0.0655  1.1816  1.1352
  233MPD1    N1 3545   0.019   4.569   1.456  0.0943  0.2323 -0.1786
  233MPD1    H6 3546   4.671   4.510   1.410 -0.0037 -0.0485  0.3239
  233MPD1    H7 3547   4.694   4.600   1.542  2.4799  2.0363  0.4410
  234MPD1     C 3548   2.216   3.261  10.147 -0.3331  0.9779  0.2267
  234MPD1    C1 3549   2.191   3.399  10.147 -0.4263  0.6410 -0.9383
  234MPD1    C2 3550   2.127   3.462  10.041 -0.1796 -0.2883  0.5131
  234MPD1    C3 3551   2.078   3.388   9.934  0.0705 -0.5731  0.1755
  234MPD1    C4 3552   2.093   3.255   9.943 -0.5566  0.0600  0.3233
  234MPD1    C5 3553   2.164   3.190  10.039  0.8350 -0.8084 -0.5199
  234MPD1     H 3554   2.097   3.566  10.055 -1.0008 -0.5255  0.5122
  234MPD1    H1 3555   2.045   3.189   9.871 -1.5012  0.2974  0.7333
  234MPD1    H2 3556   2.265   3.200  10.222 -0.5044  1.1637  0.4910
  234MPD1    H3 3557   2.179   3.083  10.047 -0.6183 -0.7577  2.7352
  234MPD1     N 3558   2.026   3.457   9.823  0.3208  0.5275 -0.7832
  234MPD1    H5 3559   2.010   3.556   9.838  0.3993  0.3671  0.3315
  234MPD1    N1 3560   2.228   3.467  10.265  0.1265  0.3989 -0.7669
  234MPD1    H6 3561   2.251   3.566  10.255  2.3115 -0.1354 -0.8888
  234MPD1    H7 3562   2.305   3.418  10.309  0.7400  0.1491 -2.1250
  235MPD1     C 3563   3.387   0.125  10.751 -0.3448  0.0022  1.0311
  235MPD1    C1 3564   3.313   0.190  10.657  0.0496  0.1711 -1.0013
  235MPD1    C2 3565   3.364   0.294  10.584 -1.2902 -0.8372  0.7109
  235MPD1    C3 3566   3.481   0.355  10.619  0.3199  0.1129  0.0288
  235MPD1    C4 3567   3.553   0.306  10.726  0.2000 -0.2230 -0.1024
  235MPD1    C5 3568   3.508   0.185  10.783 -0.3199 -0.4452 -0.2674
  235MPD1     H 3569   3.307   0.331  10.500 -1.5871  0.0268  1.2936
  235MPD1    H1 3570   3.643   0.359  10.754 -0.5004  0.8082  0.2182
  235MPD1    H2 3571   3.361   0.032  10.799  0.9589 -1.0556 -0.2953
  235MPD1    H3 3572   3.579   0.155  10.860 -2.0192 -1.2286  0.9834
  235MPD1     N 3573   3.526   0.464  10.550  0.1355  0.0452  0.3816
  235MPD1    H5 3574   3.461   0.486  10.475 -0.8229 -1.2267  0.8377
  235MPD1    N1 3575   3.210   0.115  10.602 -0.2358  0.3417  0.1549
  235MPD1    H6 3576   3.161   0.175  10.536  3.3459 -0.5392 -3.3126
  235MPD1    H7 3577   3.155   0.074  10.677 -1.8999  1.0008 -0.7200
  236MPD1     C 3578   3.369   2.087  10.521  0.2477  0.7760  0.1392
  236MPD1    C1 3579   3.309   1.969  10.493 -0.4741  0.4238 -0.3908
  236MPD1    C2 3580   3.374   1.849  10.524 -0.4248  0.0199 -0.4791
  236MPD1    C3 3581   3.500   1.853  10.594  0.1877  1.0000  0.0630
  236MPD1    C4 3582   3.559   1.977  10.616 -0.7003  0.2043  0.3397
  236MPD1    C5 3583   3.494   2.098  10.573  0.4841  0.1884 -0.5880
  236MPD1     H 3584   3.320   1.758  10.499 -0.2418 -0.4062  0.7098
  236MPD1    H1 3585   3.658   1.987  10.658 -0.1035 -1.9634 -0.5268
  236MPD1    H2 3586   3.327   2.184  10.498 -1.1303  0.0064 -0.5933
  236MPD1    H3 3587   3.553   2.189  10.575  0.1475  0.3550  2.3516
  236MPD1     N 3588   3.572   1.739  10.642 -0.0471  0.3266 -0.6800
  236MPD1    H5 3589   3.654   1.759  10.699  0.6710 -1.7692 -0.9769
  236MPD1    N1 3590   3.184   1.970  10.434 -0.4692 -0.4277  0.1506
  236MPD1    H6 3591   3.141   1.878  10.446 -0.6429 -0.4993 -1.0175
  236MPD1    H7 3592   3.121   2.047  10.455 -1.3557 -1.5417  1.5665
  237MPD1     C 3593   3.209   4.446  15.069  0.1322 -0.4527  0.3355
  237MPD1    C1 3594   3.186   4.569  15.127  0.1498 -0.0614  0.2487
  237MPD1    C2 3595   3.074   4.589  15.192 -0.0144 -0.3942 -1.0400
  237MPD1    C3 3596   2.989   4.491  15.221  1.0268  0.3737 -0.3938
  237MPD1    C4 3597   3.028   4.363  15.186 -0.1883 -0.1797 -0.2283
  237MPD1    C5 3598   3.144   4.340  15.113  0.1406 -0.5986 -0.0085
  237MPD1     H 3599   3.048   4.691  15.219 -2.2441 -1.0931 -0.5686
  237MPD1    H1 3600   2.973   4.278  15.225  0.9723 -1.9374 -2.4343
  237MPD1    H2 3601   3.292   4.438  15.000  1.0276  0.2583  1.3308
  237MPD1    H3 3602   3.174   4.240  15.085  3.5238  0.1211  1.0470
  237MPD1     N 3603   2.864   4.504  15.277 -0.1432  0.4893 -0.2263
  237MPD1    H5 3604   2.816   4.415  15.283  0.1873  0.3076 -0.2700
  237MPD1    N1 3605   3.263   4.675  15.085 -0.0303  0.1129  0.0037
  237MPD1    H6 3606   3.266   0.027  15.157  0.9214 -0.9205  1.0071
  237MPD1    H7 3607   3.356   4.645  15.057 -0.3953  1.7765 -3.0284
  238MPD1     C 3608   4.402   3.960  14.832  0.3733 -0.0468  0.2257
  238MPD1    C1 3609   4.297   3.928  14.915 -0.1188  0.1480 -0.5819
  238MPD1    C2 3610   4.204   3.838  14.873  0.3807 -0.1757 -0.2404
  238MPD1    C3 3611   4.215   3.773  14.751 -0.4494  0.1815  0.3903
  238MPD1    C4 3612   4.318   3.814  14.669  0.2191  0.0646 -0.2581
  238MPD1    C5 3613   4.410   3.899  14.712  0.8740 -0.1512  0.4943
  238MPD1     H 3614   4.123   3.810  14.939  0.4377 -0.7123 -0.3966
  238MPD1    H1 3615   4.333   3.767  14.572  2.9127 -2.5927  1.4487
  238MPD1    H2 3616   4.482   4.030  14.855  2.3346 -1.9318 -0.9271
  238MPD1    H3 3617   4.493   3.917  14.645  0.8441  0.0011  0.4989
  238MPD1     N 3618   4.124   3.670  14.708 -0.4029  0.6928 -0.4557
  238MPD1    H5 3619   4.121   3.634  14.613  0.4576 -0.0939 -0.1760
  238MPD1    N1 3620   4.285   3.992  15.042 -0.1164  0.0225 -0.5529
  238MPD1    H6 3621   4.242   3.931  15.110 -2.3982 -0.3820 -2.3730
  238MPD1    H7 3622   4.370   4.029  15.085  0.0086  0.1589 -0.9201
  239MPD1     C 3623   0.123   4.097  14.955  0.5980  0.5810  0.2816
  239MPD1    C1 3624   0.030   4.209  14.945 -0.2894  0.0506  0.0973
  239MPD1    C2 3625   4.677   4.215  14.829 -0.1685  0.7043  0.3027
  239MPD1    C3 3626   4.702   4.131  14.721  0.4731 -0.2781 -0.7695
  239MPD1    C4 3627   0.087   4.041  14.727  1.1454  0.3747  0.6675
  239MPD1    C5 3628   0.155   4.023  14.847  0.6986  0.0940 -0.0441
  239MPD1     H 3629   4.594   4.286  14.826 -0.0232  0.8050 -1.3281
  239MPD1    H1 3630   0.108   3.971  14.647  0.2403  2.3953 -1.3299
  239MPD1    H2 3631   0.164   4.075  15.053 -0.1793  1.7343  0.8691
  239MPD1    H3 3632   0.222   3.941  14.870  3.7296  2.3999 -0.7629
  239MPD1     N 3633   4.635   4.138  14.602 -0.3108 -0.0686 -0.3416
  239MPD1    H5 3634   4.661   4.067  14.534  1.1353  1.3303 -1.2433
  239MPD1    N1 3635   4.709   4.284  15.058 -0.0267  0.0859 -0.0713
  239MPD1    H6 3636   4.662   4.374  15.045  1.2428  0.4940 -1.8069
  239MPD1    H7 3637   0.061   4.296  15.128 -1.7943  0.2705  1.7217
  240MPD1     C 3638   3.600   4.147  13.866 -0.9001  0.0690  0.3759
  240MPD1    C1 3639   3.466   4.137  13.898  0.4304 -0.2977 -0.5892
  240MPD1    C2 3640   3.433   4.048  13.998 -0.6904  0.3017 -0.7403
  240MPD1    C3 3641   3.519   3.950  14.048 -0.2923 -0.6465  0.9169
  240MPD1    C4 3642   3.652   3.943  14.002  0.0052 -0.1216 -0.5887
  240MPD1    C5 3643   3.679   4.043  13.905  0.0065  0.7862  0.0018
  240MPD1     H 3644   3.331   4.056  14.034 -0.2072  0.6523  0.5702
  240MPD1    H1 3645   3.716   3.858  14.021 -0.0636 -0.3676 -1.4695
  240MPD1    H2 3646   3.641   4.231  13.811  0.1495 -0.6323  0.0859
  240MPD1    H3 3647   3.776   4.044  13.857  0.0326  2.2680  0.0923
  240MPD1     N 3648   3.471   3.860  14.150  0.5654  0.3413 -0.6588
  240MPD1    H5 3649   3.369   3.863  14.150  0.5535  0.0253  0.2004
  240MPD1    N1 3650   3.374   4.228  13.846 -0.0889  0.0068 -0.1826
  240MPD1    H6 3651   3.399   4.248  13.750 -0.5035  0.5462 -0.1758
  240MPD1    H7 3652   3.282   4.187  13.832  0.3710 -0.0433 -3.0011
  241MPD1     C 3653   3.877   3.810  15.073  0.1044  0.7775 -0.2813
  241MPD1    C1 3654   3.803   3.695  15.071 -0.3623  0.3177 -0.0017
  241MPD1    C2 3655   3.734   3.662  14.947  0.1028  1.0727 -0.8312
  241MPD1    C3 3656   3.738   3.751  14.839 -0.1591  0.5721  0.2782
  241MPD1    C4 3657   3.816   3.860  14.849  1.1071  0.8189  0.2886
  241MPD1    C5 3658   3.879   3.892  14.965 -0.0540 -0.0302  0.1216
  241MPD1     H 3659   3.677   3.569  14.952  0.7091  0.7673  0.2676
  241MPD1    H1 3660   3.834   3.933  14.770  0.8160  2.0322  1.3430
  241MPD1    H2 3661   3.922   3.849  15.164 -1.2999 -0.9241  1.1350
  241MPD1    H3 3662   3.928   3.988  14.976  1.9308 -0.9511 -0.7081
  241MPD1     N 3663   3.671   3.727  14.714  0.9131 -0.2772  0.2405
  241MPD1    H5 3664   3.693   3.796  14.642  0.6103 -0.5486 -0.1102
  241MPD1    N1 3665   3.771   3.634  15.194 -0.6984 -0.4098  0.1801
  241MPD1    H6 3666   3.744   3.538  15.176 -1.7927  0.4707 -2.9551
  241MPD1    H7 3667   3.840   3.645  15.268 -0.2161  1.8020 -0.5963
  242MPD1     C 3668   4.178   2.717  14.680 -0.3434  0.3791  0.0931
  242MPD1    C1 3669   4.273   2.625  14.655 -0.3501 -0.3949  0.6951
  242MPD1    C2 3670   4.249   2.486  14.679  0.0039  1.0503 -0.7990
  242MPD1    C3 3671   4.120   2.445  14.713 -1.1206 -0.2022  0.1433
  242MPD1    C4 3672   4.021   2.540  14.716 -0.2584 -0.2373 -0.4818
  242MPD1    C5 3673   4.048   2.672  14.688  0.1954 -0.3170  0.3404
  242MPD1     H 3674   4.325   2.408  14.668  0.0222  0.9360  0.1728
  242MPD1    H1 3675   3.921   2.516  14.750  0.9520 -0.6363  2.8390
  242MPD1    H2 3676   4.203   2.820  14.657  1.3549  0.1255  0.7958
  242MPD1    H3 3677   3.959   2.734  14.694  1.2543  0.9359  3.2507
  242MPD1     N 3678   4.086   2.313  14.753  0.3669  0.0754 -0.0797
  242MPD1    H5 3679   3.986   2.296  14.761  0.8283 -0.8675  3.7579
  242MPD1    N1 3680   4.407   2.667  14.643 -0.1347 -0.1888  0.1855
  242MPD1    H6 3681   4.422   2.751  14.587  0.5767 -1.3419 -1.3435
  242MPD1    H7 3682   4.469   2.594  14.609 -1.3697 -1.2307  0.1841
  243MPD1     C 3683   4.708   0.516  17.592 -0.4399  0.3831  0.3541
  243MPD1    C1 3684   0.020   0.540  17.459  0.2478  0.1365 -0.4352
  243MPD1    C2 3685   0.119   0.460  17.400  0.9355  0.2287 -0.0298
  243MPD1    C3 3686   0.167   0.350  17.471  0.2821  0.2323  0.0738
  243MPD1    C4 3687   0.127   0.317  17.601 -0.0548 -0.1481 -0.1610
  243MPD1    C5 3688   0.036   0.402  17.658 -0.1276 -0.0002 -0.2867
  243MPD1     H 3689   0.161   0.483  17.303 -0.2022 -0.1087 -0.6109
  243MPD1    H1 3690   0.163   0.232  17.658  1.3450 -2.0033 -3.7445
  243MPD1    H2 3691   4.642   0.582  17.647  0.9566  0.8548  1.4611
  243MPD1    H3 3692   0.005   0.369   0.073 -0.3890  0.5288 -0.1962
  243MPD1     N 3693   0.273   0.272  17.412  1.4321 -0.1495  0.8015
  243MPD1    H5 3694   0.326   0.315  17.337  0.2875 -0.4759 -0.1906
  243MPD1    N1 3695   4.700   0.656  17.396 -0.0553  0.0749 -0.5683
  243MPD1    H6 3696   4.616   0.689  17.442 -0.1075 -2.0838  0.8791
  243MPD1    H7 3697   4.672   0.635  17.300 -1.3675 -0.1830 -0.1269
  244MPD1     C 3698   0.653   3.976  17.192  0.2454 -0.2991 -0.5093
  244MPD1    C1 3699   0.693   4.065  17.096  0.2415 -0.3843 -0.1917
  244MPD1    C2 3700   0.652   4.194  17.107  0.2474  0.5850  0.1401
  244MPD1    C3 3701   0.601   4.244  17.224  0.2615 -0.1014  0.3823
  244MPD1    C4 3702   0.574   4.156  17.328  0.1423  0.6103 -0.4838
  244MPD1    C5 3703   0.610   4.028  17.308 -0.0570 -0.5929 -0.0317
  244MPD1     H 3704   0.648   4.256  17.019 -1.0981  0.3950  0.0617
  244MPD1    H1 3705   0.536   4.184  17.426 -2.5973 -1.0358 -1.0950
  244MPD1    H2 3706   0.679   3.872  17.176  0.6952 -0.0734 -1.2140
  244MPD1    H3 3707   0.583   3.957  17.385  0.1179 -0.2654  0.3332
  244MPD1     N 3708   0.574   4.376  17.226  0.8285  0.0252 -0.6653
  244MPD1    H5 3709   0.585   4.423  17.136  1.0523 -3.8589 -2.6969
  244MPD1    N1 3710   0.732   4.022  16.971 -0.5046 -0.5129 -0.6896
  244MPD1    H6 3711   0.792   4.090  16.924  1.3070 -2.3570 -1.0142
  244MPD1    H7 3712   0.800   3.947  16.978  0.9469  0.5234 -3.8058
  245MPD1     C 3713   2.562   0.803  13.166  0.2080 -0.6282 -0.8072
  245MPD1    C1 3714   2.609   0.806  13.294  0.3763 -0.2540 -0.3627
  245MPD1    C2 3715   2.667   0.927  13.332 -0.7026  0.8386 -0.1640
  245MPD1    C3 3716   2.695   1.029  13.243 -0.8150  0.2988  0.7904
  245MPD1    C4 3717   2.659   1.010  13.110 -0.1252 -0.5376 -0.3012
  245MPD1    C5 3718   2.582   0.908  13.077 -0.8245 -0.7497  0.4169
  245MPD1     H 3719   2.698   0.942  13.435  0.8885 -3.4371  0.0042
  245MPD1    H1 3720   2.694   1.079  13.035 -0.0134  0.3186  0.5304
  245MPD1    H2 3721   2.494   0.724  13.135 -1.1417  0.7570 -1.4053
  245MPD1    H3 3722   2.536   0.909  12.979 -1.3461 -0.3808  0.6646
  245MPD1     N 3723   2.756   1.147  13.293  0.5885  0.1185  0.2287
  245MPD1    H5 3724   2.758   1.153  13.394  1.4614  0.3978  0.1969
  245MPD1    N1 3725   2.573   0.713  13.396  0.6479 -0.1056  0.4217
  245MPD1    H6 3726   2.642   0.723  13.470  2.7198  1.6880 -1.7331
  245MPD1    H7 3727   2.602   0.623  13.358 -0.6802 -0.2957 -0.1395
  246MPD1     C 3728   1.521   1.550   8.898  0.4457  0.7264 -0.4355
  246MPD1    C1 3729   1.570   1.584   9.025  0.3508 -0.7708 -0.6969
  246MPD1    C2 3730   1.638   1.490   9.090 -0.4416 -0.6335 -0.0428
  246MPD1    C3 3731   1.647   1.360   9.050 -0.4783  0.8015 -0.7628
  246MPD1    C4 3732   1.585   1.322   8.931 -0.1476  0.0130 -0.5445
  246MPD1    C5 3733   1.514   1.419   8.865  0.1308  0.1149  0.0003
  246MPD1     H 3734   1.678   1.513   9.188  1.8852  2.0386 -1.6174
  246MPD1    H1 3735   1.583   1.217   8.902  1.2759 -0.0043 -0.5972
  246MPD1    H2 3736   1.477   1.623   8.831  0.5477  1.0914 -0.1066
  246MPD1    H3 3737   1.477   1.391   8.767  2.6914 -0.9365 -0.6756
  246MPD1     N 3738   1.713   1.276   9.138  0.2114 -0.2899  0.9128
  246MPD1    H5 3739   1.760   1.319   9.217  0.1706 -1.2877  1.4854
  246MPD1    N1 3740   1.580   1.718   9.068 -0.0090  0.4123 -0.7989
  246MPD1    H6 3741   1.579   1.729   9.169  0.3927 -1.3845 -0.6035
  246MPD1    H7 3742   1.506   1.770   9.021 -0.1549 -0.1476 -1.1950
  247MPD1     C 3743   1.625   0.430  15.372 -0.4019 -0.1918 -0.4283
  247MPD1    C1 3744   1.622   0.373  15.502 -0.5405  0.0039  0.6466
  247MPD1    C2 3745   1.665   0.442  15.611  0.1782  1.0591 -0.1926
  247MPD1    C3 3746   1.709   0.568  15.602 -0.1215  0.2885 -0.2464
  247MPD1    C4 3747   1.719   0.623  15.473 -0.8227  0.0361 -0.1599
  247MPD1    C5 3748   1.669   0.555  15.366  0.1350 -0.0703 -0.3227
  247MPD1     H 3749   1.668   0.386  15.704  0.8038  0.4804 -0.5612
  247MPD1    H1 3750   1.751   0.724  15.451 -1.1047  0.1154 -0.2065
  247MPD1    H2 3751   1.595   0.374  15.284 -1.9095 -1.2823  0.7733
  247MPD1    H3 3752   1.679   0.603  15.269  2.3548 -0.5832 -0.3364
  247MPD1     N 3753   1.771   0.643  15.701  0.5411  0.0889 -0.0192
  247MPD1    H5 3754   1.826   0.725  15.673  0.4001  0.7548  1.6426
  247MPD1    N1 3755   1.592   0.236  15.511  0.1274  0.1355  0.2592
  247MPD1    H6 3756   1.543   0.221  15.599  1.1532 -2.7108  0.3361
  247MPD1    H7 3757   1.528   0.214  15.436 -0.2203 -2.7051  1.4117
  248MPD1     C 3758   2.516   2.502  17.672  0.5697  0.3621  0.7621
  248MPD1    C1 3759   2.469   2.382   0.050 -0.0442 -0.2141 -0.7600
  248MPD1    C2 3760   2.565   2.284   0.072  0.0823  0.1725 -0.1936
  248MPD1    C3 3761   2.699   2.313   0.051 -0.4030  0.4360  0.4099
  248MPD1    C4 3762   2.738   2.438   0.008  0.1606  0.1290  0.0385
  248MPD1    C5 3763   2.649   2.526  17.650 -0.2924  0.1465  0.4086
  248MPD1     H 3764   2.538   2.189   0.117 -0.6140  0.1383 -0.6957
  248MPD1    H1 3765   2.839   2.455  17.657  0.7988 -1.1582  1.2843
  248MPD1    H2 3766   2.436   2.571  17.646 -0.2462 -1.0205 -0.4181
  248MPD1    H3 3767   2.684   2.614  17.596 -1.9964  0.8972  0.4933
  248MPD1     N 3768   2.784   2.202   0.068 -0.0864 -0.5193 -0.4198
  248MPD1    H5 3769   2.756   2.113   0.107  1.6448 -0.2774  1.3672
  248MPD1    N1 3770   2.334   2.355   0.064 -0.0592 -0.4698  0.2525
  248MPD1    H6 3771   2.318   2.317   0.157  0.8970 -1.5696 -0.0344
  248MPD1    H7 3772   2.284   2.444   0.057 -1.8578 -1.5195 -0.2236
  249MPD1     C 3773   3.811   0.062  10.632  0.2584 -0.2512  0.2146
  249MPD1    C1 3774   3.791   0.094  10.500  0.3359  0.7785 -0.1505
  249MPD1    C2 3775   3.900   0.075  10.418 -0.2081 -0.4428  0.1436
  249MPD1    C3 3776   4.028   0.037  10.462  0.3666  0.2350  0.0417
  249MPD1    C4 3777   4.045   0.018  10.597 -0.1651  0.3294  0.1498
  249MPD1    C5 3778   3.939   0.029  10.678 -0.5127  0.5128 -0.3711
  249MPD1     H 3779   3.887   0.090  10.311 -0.0992 -3.3099 -0.2835
  249MPD1    H1 3780   4.141   0.002  10.644 -0.1307 -1.5138 -0.5603
  249MPD1    H2 3781   3.724   0.075  10.696  1.9984  1.2052  2.2485
  249MPD1    H3 3782   3.950   4.713  10.779 -1.9899 -3.0087 -1.4945
  249MPD1     N 3783   4.142   0.028  10.375  0.0498  0.6610 -0.0889
  249MPD1    H5 3784   4.114   0.060  10.283  0.0063  0.9765  0.0309
  249MPD1    N1 3785   3.658   0.126  10.449 -0.8833 -0.6497  0.1773
  249MPD1    H6 3786   3.596   0.187  10.501 -0.1440  0.5591 -0.3440
  249MPD1    H7 3787   3.671   0.178  10.362  0.9480  0.1043  0.9087
  250MPD2     C 3788   1.074   4.400  13.161 -0.2351 -0.4925 -0.2344
  250MPD2    C1 3789   0.969   4.467  13.110  0.3455  0.1197 -0.4662
  250MPD2    C2 3790   0.865   4.388  13.061  0.6194 -0.7411 -0.2928
  250MPD2    C3 3791   0.870   4.247  13.067 -0.4808  0.0839  0.1610
  250MPD2    C4 3792   0.976   4.180  13.135 -0.4790 -0.0058  0.3890
  250MPD2    C5 3793   1.079   4.263  13.177 -0.1559 -0.0677 -0.2927
  250MPD2     H 3794   0.788   4.433  12.999 -0.2418  0.3244  1.5612
  250MPD2    H1 3795   0.979   4.072  13.143  2.2068 -0.0700 -1.3780
  250MPD2    H2 3796   1.148   4.464  13.207 -0.1119 -1.0247  0.3022
  250MPD2    H3 3797   1.161   4.212  13.226 -0.5673 -0.8794 -0.4369
  250MPD2     N 3798   0.775   4.159  13.013 -0.2311  0.4073  0.2119
  250MPD2    H5 3799   0.799   4.064  13.040 -0.3124 -0.4402 -2.6943
  250MPD2    N1 3800   0.983   4.609  13.096 -0.5601 -0.0064  0.1872
  250MPD2    H7 3801   1.070   4.650  13.129 -1.3624  0.8280  1.2974
  251TMC3    C1 3802   0.928   0.106  13.072 -1.1452 -0.1898 -0.3112
  251TMC3    C2 3803   0.825   0.194  13.108  0.5476  0.1305 -0.1374
  251TMC3    C3 3804   0.858   0.325  13.092  0.3813 -0.0467  0.3664
  251TMC3    C4 3805   1.038   0.151  13.002  0.2308 -1.1484 -0.5670
  251TMC3    C5 3806   1.055   0.287  12.981 -0.0244  0.8369  0.0311
  251TMC3    C6 3807   0.967   0.375  13.034 -0.3797 -0.0902 -0.5973
  251TMC3     C 3808   0.887   4.693  13.056 -0.2577  0.5451 -0.0045
  251TMC3     O 3809   0.770   4.668  13.031 -0.1919 -0.6938  0.2465
  251TMC3     H 3810   0.732   0.164  13.155  0.3127  0.1782 -0.5705
  251TMC3    H1 3811   1.108   0.074  12.975  0.2404 -0.7880 -1.5558
  251TMC3    H2 3812   0.995   0.480  13.029  2.7775 -1.0794 -3.8483
  251TMC3    C7 3813   1.193   0.334  12.935 -0.5454  0.2686 -0.0205
  251TMC3    C8 3814   0.763   0.417  13.156 -0.3919  0.7357  0.2752
  251TMC3    O1 3815   1.292   0.268  12.961 -0.0871 -0.4917 -0.3750
  251TMC3    O2 3816   0.700   0.384  13.257 -1.1425 -0.5817 -0.1070
  252TMC3    C1 3817   1.318   1.135   9.205  0.3964 -0.3430  0.2090
  252TMC3    C2 3818   1.379   1.239   9.272  1.0893 -0.3680 -0.2993
  252TMC3    C3 3819   1.456   1.208   9.378 -0.0995  0.6339 -1.1623
  252TMC3    C4 3820   1.333   1.004   9.243 -0.2883 -0.3535  0.6238
  252TMC3    C5 3821   1.404   0.978   9.356  1.0419 -0.2614  0.0012
  252TMC3    C6 3822   1.472   1.077   9.417  0.7023  0.5323  0.5842
  252TMC3     C 3823   1.253   1.158   9.074  0.0798  0.5961 -0.0208
  252TMC3     O 3824   1.263   1.073   8.984  0.2837  0.3432 -0.1431
  252TMC3     H 3825   1.400   1.334   9.224  2.0612 -0.2473  0.3756
  252TMC3    H1 3826   1.284   0.927   9.185  0.9372 -0.8041  0.1790
  252TMC3    H2 3827   1.546   1.056   9.494  0.7042  0.4786  0.5681
  252TMC3    C7 3828   1.450   0.840   9.388 -0.6478  0.4536 -0.0961
  252TMC3    C8 3829   1.548   1.310   9.431  0.2196 -0.2059  0.8559
  252TMC3    O1 3830   1.544   0.840   9.468 -0.0828  0.2779 -0.2347
  252TMC3    O2 3831   1.561   1.419   9.383  0.4718  0.2040 -0.3245
  253MPD2     C 3832   2.146   4.007  15.026  0.0298  0.0731  0.1870
  253MPD2    C1 3833   2.011   4.038  15.029 -0.0501 -0.1878 -0.0142
  253MPD2    C2 3834   1.968   4.098  15.145  0.2560 -0.6234  0.5787
  253MPD2    C3 3835   2.064   4.125  15.251  0.4439  0.6166  0.5950
  253MPD2    C4 3836   2.199   4.092  15.240  0.2125  0.4833 -0.4018
  253MPD2    C5 3837   2.235   4.026  15.132  0.3216  0.2444 -1.2827
  253MPD2     H 3838   1.866   4.136  15.148  0.1914 -0.9930  3.0708
  253MPD2    H1 3839   2.265   4.109  15.325 -1.8356  0.8841  1.1110
  253MPD2    H2 3840   2.177   3.949  14.940 -1.1133  0.1930 -0.3099
  253MPD2    H3 3841   2.333   3.981  15.121  0.1269  0.1668 -2.7923
  253MPD2     N 3842   2.027   4.189  15.373 -0.0908 -0.1169 -0.1845
  253MPD2    H5 3843   2.103   4.205  15.439 -0.5418  2.1454 -0.2155
  253MPD2    N1 3844   1.918   4.023  14.923 -0.2993  0.1113  0.4635
  253MPD2    H7 3845   1.820   4.038  14.942 -0.1715 -0.3495  1.4966
  254TMC3    C1 3846   1.900   4.323  15.516  0.2453  0.1560 -0.1806
  254TMC3    C2 3847   1.774   4.339  15.570 -0.0474  0.3616  0.0214
  254TMC3    C3 3848   1.742   4.459  15.623 -0.0939  0.2768  0.2262
  254TMC3    C4 3849   1.998   4.423  15.515 -0.5017  0.3284 -0.0123
  254TMC3    C5 3850   1.957   4.548  15.565  0.3468  0.1465 -0.4266
  254TMC3    C6 3851   1.826   4.567  15.612  0.3955  0.5079  0.2374
  254TMC3     C 3852   1.900   4.217  15.420 -0.6885  0.1504  0.3155
  254TMC3     O 3853   1.787   4.184  15.381 -0.4792 -0.4737 -0.1481
  254TMC3     H 3854   1.706   4.255  15.578 -0.5412  0.6960 -0.7914
  254TMC3    H1 3855   2.093   4.409  15.465 -0.2284 -0.0300  0.6121
  254TMC3    H2 3856   1.790   4.658  15.659  0.0520 -1.0541  3.0541
  254TMC3    C7 3857   2.059   4.626  15.635 -0.0812  0.4242  0.2241
  254TMC3    C8 3858   1.684   4.445  15.750 -0.2504  0.6432  0.0092
  254TMC3    O1 3859   2.168   4.637  15.577 -0.4117 -0.0830  0.2507
  254TMC3    O2 3860   1.646   4.553  15.795  0.0341  0.1580 -0.0250
  255MPD2     C 3861   0.631   1.975  10.744 -0.6891 -0.5747  0.3132
  255MPD2    C1 3862   0.619   2.035  10.623 -0.1090  0.3502 -0.4494
  255MPD2    C2 3863   0.727   2.026  10.532 -0.6127 -0.6434 -0.2201
  255MPD2    C3 3864   0.840   1.955  10.559 -0.3494 -0.6922  0.5438
  255MPD2    C4 3865   0.850   1.909  10.691  0.0538  0.5225  0.1147
  255MPD2    C5 3866   0.748   1.909  10.782  0.1248  0.1195 -0.2081
  255MPD2     H 3867   0.715   2.075  10.436 -0.9198  2.3337  1.3442
  255MPD2    H1 3868   0.938   1.857  10.729  0.1164 -0.5033 -1.4431
  255MPD2    H2 3869   0.548   1.973  10.814 -1.1334  2.2052 -0.1489
  255MPD2    H3 3870   0.758   1.859  10.877  1.1238  0.1518 -0.3013
  255MPD2     N 3871   0.942   1.939  10.459  0.5851 -0.1366  0.5905
  255MPD2    H5 3872   0.914   1.975  10.368 -1.2734  0.0732  1.2618
  255MPD2    N1 3873   0.500   2.098  10.591 -0.5961  0.4685 -0.2226
  255MPD2    H7 3874   0.424   2.096  10.659 -0.0526 -1.2498  0.3518
  256TMC3    C1 3875   0.335   2.201  10.468 -0.2106  0.4021  0.7867
  256TMC3    C2 3876   0.312   2.312  10.396  0.1041  0.7344  0.5596
  256TMC3    C3 3877   0.185   2.351  10.387  0.2539 -0.5702 -0.7319
  256TMC3    C4 3878   0.237   2.123  10.521 -0.3590  0.4245 -0.4827
  256TMC3    C5 3879   0.113   2.168  10.498 -0.4620  0.0096  0.0570
  256TMC3    C6 3880   0.079   2.282  10.435  0.3195 -0.0435 -0.6176
  256TMC3     C 3881   0.468   2.157  10.470  0.2412 -0.0262 -0.7351
  256TMC3     O 3882   0.537   2.184  10.373  0.2799 -0.4342  0.3350
  256TMC3     H 3883   0.387   2.376  10.352  2.3302 -1.9458  0.4909
  256TMC3    H1 3884   0.257   2.027  10.569  1.7890  0.9149 -0.3657
  256TMC3    H2 3885   4.697   2.298  10.404 -0.1202  0.3227  0.9994
  256TMC3    C7 3886   0.011   2.057  10.486 -0.3846  0.6137  0.2459
  256TMC3    C8 3887   0.148   2.426  10.269 -0.2890  0.6956 -0.2518
  256TMC3    O1 3888   0.048   1.941  10.473  0.2899  0.2134 -0.1804
  256TMC3    O2 3889   0.053   2.383  10.205  0.2647 -0.1593 -0.1594
  257MPD2     C 3890   4.127   3.972  13.213 -0.0170 -0.3479  0.7038
  257MPD2    C1 3891   4.238   4.022  13.151 -0.1743  0.1081  0.7028
  257MPD2    C2 3892   4.361   3.959  13.159 -0.0792  0.2576  0.5392
  257MPD2    C3 3893   4.370   3.852  13.246  0.0238  0.7323 -0.1328
  257MPD2    C4 3894   4.259   3.801  13.312  0.4088 -0.1090  0.0916
  257MPD2    C5 3895   4.138   3.860  13.282 -0.0736  0.6842 -0.4094
  257MPD2     H 3896   4.443   3.991  13.096  0.4650 -0.2092  1.0064
  257MPD2    H1 3897   4.255   3.711  13.372 -0.1301 -0.2083 -0.0902
  257MPD2    H2 3898   4.032   4.024  13.212 -0.9255 -1.9700  1.8155
  257MPD2    H3 3899   4.051   3.813  13.326 -0.5542  0.6534 -1.4038
  257MPD2     N 3900   4.486   3.777  13.247  0.2850  0.0100  0.3997
  257MPD2    H5 3901   4.556   3.799  13.176 -0.7757 -0.4511 -0.7870
  257MPD2    N1 3902   4.229   4.150  13.087 -0.2499  0.5377 -0.4690
  257MPD2    H7 3903   4.139   4.197  13.094  0.0586  1.4597 -2.5929
  258TMC3    C1 3904   4.660   3.654  13.324 -0.2451 -0.0263 -0.4851
  258TMC3    C2 3905   4.718   3.654  13.194  0.6003 -0.4580  0.6989
  258TMC3    C3 3906   0.131   3.637  13.185  0.1401  0.0698 -0.4223
  258TMC3    C4 3907   0.011   3.627  13.433  0.6104 -0.1190 -0.0520
  258TMC3    C5 3908   0.144   3.602  13.413  0.7578  0.6423 -1.9102
  258TMC3    C6 3909   0.204   3.614  13.297 -0.5688 -0.2157  0.0906
  258TMC3     C 3910   4.517   3.679  13.336  0.5091  0.0915 -0.4124
  258TMC3     O 3911   4.463   3.643  13.442  0.3269  0.3493  0.3184
  258TMC3     H 3912   4.654   3.662  13.107 -2.0329  3.6021  2.9950
  258TMC3    H1 3913   4.679   3.644  13.526  1.3883 -2.2187  0.7750
  258TMC3    H2 3914   0.310   3.595  13.286 -0.8041 -2.0383  0.8369
  258TMC3    C7 3915   0.223   3.567  13.523 -0.1692  0.2537 -0.0930
  258TMC3    C8 3916   0.190   3.608  13.058 -0.4074  0.5651 -0.0027
  258TMC3    O1 3917   0.345   3.576  13.514 -0.5459 -0.0656 -0.3374
  258TMC3    O2 3918   0.306   3.574  13.056 -0.1058 -0.8562  0.4764
  259MPD2     C 3919   3.322   2.046   1.294  0.1718 -0.2785 -0.0176
  259MPD2    C1 3920   3.251   1.931   1.267  0.4311 -0.1932  0.3223
  259MPD2    C2 3921   3.258   1.878   1.140 -0.5722 -0.4756  0.9059
  259MPD2    C3 3922   3.333   1.930   1.039 -0.5953  0.7117 -0.7409
  259MPD2    C4 3923   3.392   2.058   1.059  0.3889 -0.0587 -0.1285
  259MPD2    C5 3924   3.381   2.110   1.186 -0.5294 -0.5421 -0.0798
  259MPD2     H 3925   3.221   1.777   1.127  1.5115 -1.0052 -0.9360
  259MPD2    H1 3926   3.437   2.118   0.981  0.0671  1.0489  0.5472
  259MPD2    H2 3927   3.347   2.088   1.391 -0.0918  0.5029 -0.2861
  259MPD2    H3 3928   3.448   2.195   1.196  0.4406 -1.1550 -1.4090
  259MPD2     N 3929   3.351   1.846   0.925  0.2794 -0.2668 -0.0388
  259MPD2    H5 3930   3.320   1.750   0.925  0.3522 -0.3027  1.4797
  259MPD2    N1 3931   3.201   1.855   1.375  0.0535  0.2158 -0.0608
  259MPD2    H7 3932   3.213   1.900   1.466 -0.4357 -3.5158  1.8410
  260TMC3    C1 3933   3.429   1.784   0.705  0.0717 -0.0285  0.0966
  260TMC3    C2 3934   3.521   1.791   0.602 -0.0570 -0.6439 -0.2387
  260TMC3    C3 3935   3.522   1.694   0.510  0.0992  0.0046  0.2161
  260TMC3    C4 3936   3.327   1.693   0.704  0.2259 -0.2091  0.1610
  260TMC3    C5 3937   3.323   1.599   0.608  0.1294 -0.2253 -0.1726
  260TMC3    C6 3938   3.420   1.604   0.511  0.8683  0.1898 -0.0786
  260TMC3     C 3939   3.430   1.879   0.815 -0.2178  0.5048 -0.8219
  260TMC3     O 3940   3.519   1.969   0.818  0.0696 -0.3316 -0.2378
  260TMC3     H 3941   3.595   1.871   0.605 -0.8624  0.1305 -1.3837
  260TMC3    H1 3942   3.256   1.677   0.784  1.4272  0.6551  1.4038
  260TMC3    H2 3943   3.417   1.535   0.427  1.4920  1.5280 -1.2042
  260TMC3    C7 3944   3.300   1.464   0.657 -0.3095 -0.2500 -0.7224
  260TMC3    C8 3945   3.657   1.637   0.477  0.0200 -0.3218  0.8780
  260TMC3    O1 3946   3.399   1.391   0.630 -0.3362 -0.2005  0.2041
  260TMC3    O2 3947   3.742   1.716   0.431  0.4322  0.3022 -0.1626
  261MPD2     C 3948   0.039   3.920  12.635 -0.1061  0.0712 -0.2149
  261MPD2    C1 3949   0.156   3.993  12.613  0.1219 -0.6928  0.0288
  261MPD2    C2 3950   0.166   4.053  12.486 -1.5072 -0.1604  0.1143
  261MPD2    C3 3951   0.060   4.042  12.396 -0.1123  0.5243  0.8430
  261MPD2    C4 3952   4.673   3.960  12.419 -0.2580 -0.7934  0.3196
  261MPD2    C5 3953   4.663   3.897  12.538 -0.3508  0.5107 -0.2954
  261MPD2     H 3954   0.259   4.103  12.464 -2.6527  1.4166 -1.1997
  261MPD2    H1 3955   4.595   3.934  12.348  0.5328 -3.0546  0.2868
  261MPD2    H2 3956   0.026   3.856  12.722 -1.5592  0.8724  0.1557
  261MPD2    H3 3957   4.591   3.822  12.565 -0.7096  0.9187 -0.1129
  261MPD2     N 3958   0.081   4.109  12.273  0.0205 -0.6450  0.3438
  261MPD2    H5 3959   0.172   4.144  12.242 -1.7811  0.6665 -3.4808
  261MPD2    N1 3960   0.250   4.011  12.718 -0.9000 -0.8991  0.1474
  261MPD2    H7 3961   0.332   4.066  12.698 -1.3961  0.5465  2.1105
  262TMC3    C1 3962   0.025   4.233  12.078 -0.1119 -0.3839 -0.5206
  262TMC3    C2 3963   4.657   4.335  12.048 -0.2865 -0.3514 -0.2043
  262TMC3    C3 3964   4.706   4.436  11.962  0.1694 -0.0892  0.4365
  262TMC3    C4 3965   0.146   4.215  12.021  0.5960 -0.1404 -0.3312
  262TMC3    C5 3966   0.188   4.311  11.927 -0.1403  0.3579  0.1085
  262TMC3    C6 3967   0.113   4.422  11.909  0.1192 -0.5931  0.1911
  262TMC3     C 3968   4.703   4.148  12.185  0.4962 -0.1588  0.8417
  262TMC3     O 3969   4.583   4.128  12.190  0.1800 -0.1693  0.3458
  262TMC3     H 3970   4.559   4.349  12.090 -0.4653 -0.4826 -0.5796
  262TMC3    H1 3971   0.214   4.135  12.048  1.5834  0.4625 -1.0196
  262TMC3    H2 3972   0.142   4.498  11.838  2.1854 -0.2603  1.3632
  262TMC3    C7 3973   0.303   4.270  11.845  0.1167 -1.5734  0.4216
  262TMC3    C8 3974   4.682   4.576  12.002  0.2086  0.0686 -0.3084
  262TMC3    O1 3975   0.387   4.197  11.896 -0.1434 -0.1395 -0.3844
  262TMC3    O2 3976   0.048   4.656  11.969  0.1017  0.1556 -0.2255
  263MPD2     C 3977   1.001   3.701  11.179 -0.3312  0.7159  0.2033
  263MPD2    C1 3978   1.073   3.821  11.210 -0.5122 -0.0003  0.2880
  263MPD2    C2 3979   1.063   3.929  11.126 -0.2675 -0.3047  0.4715
  263MPD2    C3 3980   0.986   3.925  11.010  0.2392  0.4564 -0.0048
  263MPD2    C4 3981   0.924   3.803  10.978 -0.2458 -0.1923  0.1020
  263MPD2    C5 3982   0.934   3.702  11.061  1.1166  0.1080  0.7590
  263MPD2     H 3983   1.096   4.026  11.158  0.7393 -0.6322  0.4196
  263MPD2    H1 3984   0.862   3.790  10.890 -1.1404  0.0349  0.6950
  263MPD2    H2 3985   1.005   3.613  11.241  0.8368  0.3616 -0.3787
  263MPD2    H3 3986   0.892   3.610  11.022  1.0063  0.9975 -1.2106
  263MPD2     N 3987   0.983   4.039  10.933 -0.3985 -0.0562  0.2884
  263MPD2    H5 3988   1.046   4.116  10.952 -0.5923  0.3632 -0.7671
  263MPD2    N1 3989   1.147   3.821  11.325  0.8995  0.3663  0.3815
  263MPD2    H7 3990   1.163   3.732  11.372 -1.5958 -0.7467 -0.8709
  264TMC3    C1 3991   0.958   4.187  10.751 -0.8281  0.3803 -0.3634
  264TMC3    C2 3992   0.979   4.288  10.838 -1.0038 -0.2331 -0.4154
  264TMC3    C3 3993   1.041   4.397  10.782 -0.5408 -0.5611 -0.0799
  264TMC3    C4 3994   0.955   4.199  10.622  0.2093  0.2935  0.7810
  264TMC3    C5 3995   1.006   4.308  10.568  0.0467  0.6415  0.0870
  264TMC3    C6 3996   1.061   4.405  10.652  0.1200 -0.5482  0.0367
  264TMC3     C 3997   0.929   4.055  10.806  0.6790 -0.3576 -0.0727
  264TMC3     O 3998   0.870   3.960  10.749 -0.0600 -0.2126  1.1185
  264TMC3     H 3999   0.965   4.281  10.945  0.2565  1.7243 -0.1044
  264TMC3    H1 4000   0.925   4.111  10.566  1.6336  1.3487 -1.5987
  264TMC3    H2 4001   1.116   4.489  10.610 -0.3599  0.3801  1.2857
  264TMC3    C7 4002   1.055   4.294  10.429 -0.1612 -0.0796  0.4853
  264TMC3    C8 4003   1.121   4.481  10.868  0.0439  0.4036 -0.2465
  264TMC3    O1 4004   1.148   4.367  10.389  0.4816  0.0891  0.0223
  264TMC3    O2 4005   1.215   4.538  10.812  0.1285  0.5141 -0.3397
  265MPD2     C 4006   3.234   4.145  15.434 -0.1378 -0.0121  0.6798
  265MPD2    C1 4007   3.319   4.245  15.382 -0.6030 -0.7471 -0.4057
  265MPD2    C2 4008   3.383   4.224  15.263  0.0996  0.6537  0.0044
  265MPD2    C3 4009   3.385   4.099  15.200  0.1768 -0.3700  0.1631
  265MPD2    C4 4010   3.311   4.001  15.257 -0.5913 -0.0997  0.0720
  265MPD2    C5 4011   3.238   4.023  15.369 -0.2094 -0.0662  0.1280
  265MPD2     H 4012   3.447   4.300  15.218  0.1908 -0.5638 -1.9101
  265MPD2    H1 4013   3.295   3.904  15.213  0.6001 -0.1187 -0.3188
  265MPD2    H2 4014   3.171   4.159  15.522 -0.6742  3.3916 -0.2589
  265MPD2    H3 4015   3.179   3.942  15.409  0.4670 -0.5085  0.2207
  265MPD2     N 4016   3.439   4.071  15.076  0.9937 -0.6945  0.2120
  265MPD2    H5 4017   3.418   3.982  15.032 -2.5643 -0.3946  1.2618
  265MPD2    N1 4018   3.289   4.381  15.426 -0.1771 -0.1109  0.2569
  265MPD2    H7 4019   3.293   4.449  15.351 -2.4351  0.9287  1.0933
  266TMC3    C1 4020   3.175   4.547  15.553  0.4579  0.5394  0.2275
  266TMC3    C2 4021   3.080   4.567  15.653 -0.3105 -0.2331  0.2510
  266TMC3    C3 4022   3.025   4.686  15.659  0.0826 -0.1591  0.0434
  266TMC3    C4 4023   3.220   4.640  15.463 -0.2617  0.0137 -0.6364
  266TMC3    C5 4024   3.155   0.044  15.476 -0.4310  0.2377 -0.3715
  266TMC3    C6 4025   3.057   0.067  15.574 -0.6113 -0.2559 -0.1417
  266TMC3     C 4026   3.225   4.408  15.545  0.1776 -0.2568 -0.1967
  266TMC3     O 4027   3.207   4.332  15.640  0.3380 -0.7393 -0.4334
  266TMC3     H 4028   3.044   4.487  15.717  2.0589 -0.7996  0.8956
  266TMC3    H1 4029   3.302   4.627  15.393  0.7521  1.1383  0.3457
  266TMC3    H2 4030   2.998   0.158  15.573 -0.4760 -0.1517  1.7846
  266TMC3    C7 4031   3.205   0.159  15.395  0.2865 -0.2470  0.3911
  266TMC3    C8 4032   2.990   4.717  15.792 -0.4788  0.3399  0.4497
  266TMC3    O1 4033   3.256   0.139  15.283  0.0535 -0.0495 -0.6352
  266TMC3    O2 4034   2.904   4.652  15.850  0.5968  0.3502  0.1866
  267MPD2     C 4035   1.000   0.617  17.234  0.5316 -0.2452  0.4056
  267MPD2    C1 4036   1.081   0.719  17.189  0.0920 -0.4982 -0.8272
  267MPD2    C2 4037   1.033   0.801  17.087  0.1377  0.7994  0.4034
  267MPD2    C3 4038   0.903   0.785  17.042  0.3685 -0.3155 -0.1166
  267MPD2    C4 4039   0.833   0.673  17.080 -0.5369 -0.2902 -0.6272
  267MPD2    C5 4040   0.883   0.591  17.179  0.6934  0.5820  0.3451
  267MPD2     H 4041   1.085   0.890  17.053 -1.9457  2.2963  1.1058
  267MPD2    H1 4042   0.733   0.649  17.045 -1.2526  0.9188  0.5718
  267MPD2    H2 4043   1.049   0.552  17.306 -0.6911 -1.4057  0.1736
  267MPD2    H3 4044   0.830   0.501  17.210  1.1805  0.3451  0.4867
  267MPD2     N 4045   0.845   0.861  16.933 -0.0576  0.5229  0.4624
  267MPD2    H5 4046   0.755   0.826  16.902 -0.4752 -0.0111  2.2778
  267MPD2    N1 4047   1.216   0.725  17.236 -0.2974  0.1508  0.3312
  267MPD2    H7 4048   1.240   0.669  17.317 -0.5787  1.3500  1.2476
  268TMC3    C1 4049   1.437   0.791  17.265  0.2709 -0.2207 -0.6193
  268TMC3    C2 4050   1.521   0.903  17.263  0.4710 -0.1069 -0.6778
  268TMC3    C3 4051   1.618   0.907  17.357 -0.1772 -0.3138 -0.0270
  268TMC3    C4 4052   1.453   0.687  17.349  0.4347 -0.1752  0.3580
  268TMC3    C5 4053   1.544   0.699  17.450 -0.2220 -1.2286  0.5549
  268TMC3    C6 4054   1.632   0.806  17.455 -0.3224 -0.8535 -0.0581
  268TMC3     C 4055   1.313   0.812  17.191  0.3506 -1.1300  0.4094
  268TMC3     O 4056   1.322   0.892  17.099  0.2282 -0.4555  0.3737
  268TMC3     H 4057   1.499   0.979  17.189  3.6840  0.3987 -1.1012
  268TMC3    H1 4058   1.383   0.604  17.344  2.0752 -1.6157  1.4636
  268TMC3    H2 4059   1.728   0.799  17.504  0.4637  1.6109 -1.1959
  268TMC3    C7 4060   1.560   0.602  17.555  0.9477 -0.2403  0.4434
  268TMC3    C8 4061   1.710   1.018  17.345  0.5761 -0.8253  0.4918
  268TMC3    O1 4062   1.613   0.628  17.664 -0.2193 -0.1113  0.1915
  268TMC3    O2 4063   1.790   1.031  17.440  0.1340  0.3024 -0.3279
  269MPD2     C 4064   1.404   4.506  15.554 -0.3156 -0.0235 -0.7435
  269MPD2    C1 4065   1.282   4.555  15.595 -0.0114 -0.2147 -0.1172
  269MPD2    C2 4066   1.238   4.673  15.558 -0.3431  0.7041 -0.2664
  269MPD2    C3 4067   1.309   0.030  15.466 -0.7966  0.4422 -0.1923
  269MPD2    C4 4068   1.427   4.701  15.413 -0.0645  0.5162  0.3793
  269MPD2    C5 4069   1.473   4.581  15.456  0.2976  0.1547  0.5745
  269MPD2     H 4070   1.140   4.703  15.593 -0.3570 -1.4497  1.5640
  269MPD2    H1 4071   1.488   0.032  15.340  1.7070 -0.3895  1.1991
  269MPD2    H2 4072   1.436   4.406  15.580 -1.8328  0.0607  1.3951
  269MPD2    H3 4073   1.563   4.540  15.410 -0.8259 -0.7880 -0.7691
  269MPD2     N 4074   1.253   0.155  15.433 -0.2169 -0.1135  0.5494
  269MPD2    H5 4075   1.165   0.179  15.476 -2.0301 -0.9240 -2.6602
  269MPD2    N1 4076   1.212   4.462  15.677  0.1119  0.4530  0.5983
  269MPD2    H7 4077   1.255   4.372  15.693 -1.8759 -0.7492 -0.8337
  270TMC3    C1 4078   1.031   4.348  15.752 -0.1180  0.5372 -0.1037
  270TMC3    C2 4079   0.910   4.327  15.693  0.5637  0.6695  0.0319
  270TMC3    C3 4080   0.850   4.205  15.702 -0.7523  0.0684 -0.2904
  270TMC3    C4 4081   1.093   4.244  15.820  0.0353 -0.6788  1.3226
  270TMC3    C5 4082   1.031   4.122  15.821  0.5110 -0.2384  0.0803
  270TMC3    C6 4083   0.908   4.103  15.773 -0.5314  0.0448  0.1017
  270TMC3     C 4084   1.084   4.476  15.717 -0.6427  0.4436 -0.1477
  270TMC3     O 4085   1.007   4.563  15.684 -0.1874 -0.0969  0.3893
  270TMC3     H 4086   0.862   4.413  15.647 -2.0580 -0.0155  1.4671
  270TMC3    H1 4087   1.187   4.262  15.870  0.9611 -0.7849 -0.4042
  270TMC3    H2 4088   0.849   4.013  15.768 -1.7238  0.9398 -1.8161
  270TMC3    C7 4089   1.125   4.023  15.777  0.5521 -0.1670  0.7659
  270TMC3    C8 4090   0.764   4.152  15.604 -0.4788 -0.0082  0.3910
  270TMC3    O1 4091   1.242   4.025  15.822 -0.6383  0.1652  0.2243
  270TMC3    O2 4092   0.673   4.077  15.647 -0.2230 -0.6996  0.3300
  271MPD2     C 4093   0.467   4.080  13.868  0.2644 -0.5545  0.1107
  271MPD2    C1 4094   0.453   4.125  13.995 -0.3708  0.0163  0.0540
  271MPD2    C2 4095   0.371   4.239  14.012 -0.7990 -0.9915 -0.5183
  271MPD2    C3 4096   0.314   4.310  13.906 -0.2894 -0.6892  0.1629
  271MPD2    C4 4097   0.333   4.266  13.776 -0.9698 -0.1111 -0.5942
  271MPD2    C5 4098   0.409   4.153  13.757  0.0989 -0.2172 -0.0412
  271MPD2     H 4099   0.365   4.275  14.114  0.2420 -1.4605 -0.2890
  271MPD2    H1 4100   0.284   4.308  13.690 -1.1183  1.4025  0.2340
  271MPD2    H2 4101   0.522   3.989  13.844  1.8751  0.0109  1.7059
  271MPD2    H3 4102   0.420   4.118  13.655  0.1224 -0.0691 -0.0896
  271MPD2     N 4103   0.230   4.420  13.936  0.2206 -0.8701  0.2681
  271MPD2    H5 4104   0.177   4.462  13.861  2.3797  0.2495 -0.6466
  271MPD2    N1 4105   0.504   4.065  14.109  0.2320  0.0140 -0.0754
  271MPD2    H7 4106   0.481   4.114  14.194 -1.2489  0.9267 -1.0072
  272TMC3    C1 4107   0.682   3.972  14.242 -0.2311 -0.1352  0.9458
  272TMC3    C2 4108   0.816   3.953  14.238  0.0836 -1.1372 -0.6607
  272TMC3    C3 4109   0.878   3.918  14.350  0.3353  0.0299  0.0161
  272TMC3    C4 4110   0.613   3.986  14.360  0.9490 -0.0451  0.2249
  272TMC3    C5 4111   0.687   3.955  14.473 -0.4852  0.3123 -0.2066
  272TMC3    C6 4112   0.818   3.919  14.472 -0.3139  0.6428 -0.2969
  272TMC3     C 4113   0.611   3.982  14.116  1.2022 -0.5910 -0.2376
  272TMC3     O 4114   0.652   3.921  14.017 -0.0472  0.6739 -0.4189
  272TMC3     H 4115   0.867   3.940  14.144 -3.5864  3.0541 -3.2158
  272TMC3    H1 4116   0.506   3.991  14.369  0.8658  1.2981 -1.5126
  272TMC3    H2 4117   0.867   3.883  14.561  2.9725  1.0570 -1.9072
  272TMC3    C7 4118   0.610   3.943  14.592  1.1128  0.1946 -1.3151
  272TMC3    C8 4119   1.020   3.885  14.353 -0.4479  0.0808 -0.0053
  272TMC3    O1 4120   0.497   3.897  14.575  0.4345 -0.1319  0.5889
  272TMC3    O2 4121   1.093   3.925  14.264 -0.6578 -0.0375  0.1713
  273MPD2     C 4122   1.835   2.600  11.863 -0.4588  0.3054  0.1764
  273MPD2    C1 4123   1.812   2.733  11.843  0.0710 -0.1519  0.2433
  273MPD2    C2 4124   1.799   2.784  11.715 -0.6468  0.2681  0.0863
  273MPD2    C3 4125   1.821   2.697  11.609  0.3753 -0.5593 -0.2535
  273MPD2    C4 4126   1.835   2.560  11.628 -0.2290 -0.3015  0.4123
  273MPD2    C5 4127   1.845   2.516  11.759  0.1036  0.2475 -0.6598
  273MPD2     H 4128   1.783   2.890  11.697 -1.9062  0.0140 -0.2661
  273MPD2    H1 4129   1.840   2.492  11.544  0.6500  0.0988  0.1354
  273MPD2    H2 4130   1.847   2.556  11.962  0.8789 -1.0323 -0.5866
  273MPD2    H3 4131   1.852   2.409  11.770 -1.1209  0.1008 -1.2781
  273MPD2     N 4132   1.828   2.738  11.478  0.5300  0.4454 -0.2309
  273MPD2    H5 4133   1.831   2.666  11.407 -2.8234  0.4273 -0.3529
  273MPD2    N1 4134   1.792   2.807  11.960 -0.4380  0.7530 -0.4750
  273MPD2    H7 4135   1.815   2.757  12.045  0.8607  0.3713 -1.0475
  274TMC3    C1 4136   1.853   2.893  11.298  0.0363 -0.5569  0.4042
  274TMC3    C2 4137   1.804   2.801  11.204 -0.1570 -0.6372  0.3806
  274TMC3    C3 4138   1.790   2.836  11.076  0.0327 -1.1823 -0.6469
  274TMC3    C4 4139   1.904   3.012  11.261  0.4177  0.1910 -0.4178
  274TMC3    C5 4140   1.895   3.046  11.127  0.2462 -0.5922 -0.2110
  274TMC3    C6 4141   1.830   2.960  11.032  0.4242 -0.3908 -0.0732
  274TMC3     C 4142   1.855   2.871  11.442  0.5720  0.0971  0.6029
  274TMC3     O 4143   1.877   2.970  11.511 -0.1405  0.2736  0.7837
  274TMC3     H 4144   1.766   2.706  11.240  3.0587 -1.5105  1.4760
  274TMC3    H1 4145   1.955   3.078  11.329 -0.0345 -1.1898  1.2538
  274TMC3    H2 4146   1.796   3.003  10.938  0.0646 -2.4908 -0.8990
  274TMC3    C7 4147   1.912   3.181  11.091 -0.1721 -0.4480  0.0717
  274TMC3    C8 4148   1.713   2.746  10.992  0.2582 -0.2876  0.2830
  274TMC3    O1 4149   1.924   3.193  10.969  0.7134  0.6449 -0.2689
  274TMC3    O2 4150   1.658   2.655  11.053  0.4520 -0.3605  0.0373
  275MPD2     C 4151   2.114   0.371  14.291  0.2401 -0.0462 -0.7661
  275MPD2    C1 4152   2.077   0.317  14.417  0.4462 -0.6571 -0.1010
  275MPD2    C2 4153   1.948   0.259  14.435 -0.9029 -0.1527 -0.4088
  275MPD2    C3 4154   1.862   0.255  14.326  0.4671 -0.5570 -1.0613
  275MPD2    C4 4155   1.906   0.293  14.202 -0.2625 -0.4586  0.0505
  275MPD2    C5 4156   2.028   0.357  14.189 -0.4748  0.3170  0.3965
  275MPD2     H 4157   1.905   0.215  14.525 -0.8571 -1.2179 -0.9054
  275MPD2    H1 4158   1.857   0.285  14.105  0.2987 -1.2318 -0.1783
  275MPD2    H2 4159   2.196   0.439  14.271 -1.0569  1.2273 -1.7958
  275MPD2    H3 4160   2.050   0.394  14.090 -1.2749  0.5958  0.3221
  275MPD2     N 4161   1.726   0.213  14.333  0.5067 -0.0741  0.1670
  275MPD2    H5 4162   1.684   0.191  14.243  2.8737 -1.0636 -0.6922
  275MPD2    N1 4163   2.158   0.330  14.534  0.6204  0.0023  0.2267
  275MPD2    H7 4164   2.124   0.288  14.620 -0.1297  3.5281  1.6406
  276TMC3    C1 4165   2.323   0.392  14.687  0.1493 -0.1649 -0.2651
  276TMC3    C2 4166   2.274   0.298  14.773  0.0623 -0.2977  0.3695
  276TMC3    C3 4167   2.309   0.311  14.904 -0.1220  0.4878  0.0025
  276TMC3    C4 4168   2.385   0.507  14.727  0.4806  0.0727  0.5071
  276TMC3    C5 4169   2.414   0.509  14.865 -0.0695 -0.0763  0.4663
  276TMC3    C6 4170   2.390   0.413  14.955  0.3725  0.4448 -0.4907
  276TMC3     C 4171   2.283   0.386  14.545  0.0795  0.3241  0.4882
  276TMC3     O 4172   2.345   0.451  14.462 -0.5791 -0.2781  0.0380
  276TMC3     H 4173   2.253   0.200  14.733  0.2263 -1.0064  2.0297
  276TMC3    H1 4174   2.417   0.584  14.658 -0.3888  2.1581  2.4267
  276TMC3    H2 4175   2.415   0.416  15.061  0.6531 -2.7783 -0.4567
  276TMC3    C7 4176   2.479   0.619  14.920 -0.7074  0.0202  0.0142
  276TMC3    C8 4177   2.281   0.203  15.000  0.6462  0.2020  0.0336
  276TMC3    O1 4178   2.451   0.642  15.036 -0.1654  0.0429 -0.3415
  276TMC3    O2 4179   2.339   0.214  15.110 -0.0487 -0.2325 -0.1690
  277MPD2     C 4180   3.757   3.989  13.544  0.0583  0.0039  0.4143
  277MPD2    C1 4181   3.624   4.025  13.544 -0.4271  0.3326  0.0485
  277MPD2    C2 4182   3.530   3.938  13.595  0.5263  0.7615  0.7922
  277MPD2    C3 4183   3.573   3.817  13.643 -0.7534 -0.1651  0.5064
  277MPD2    C4 4184   3.703   3.781  13.630 -0.0211  0.0450  0.1873
  277MPD2    C5 4185   3.794   3.865  13.572  0.3143 -0.1736 -0.3477
  277MPD2     H 4186   3.425   3.965  13.604  0.6194  1.3816  0.0475
  277MPD2    H1 4187   3.732   3.681  13.659  1.3344  0.0747 -1.1040
  277MPD2    H2 4188   3.830   4.058  13.505  0.3926  1.1272  3.0244
  277MPD2    H3 4189   3.898   3.837  13.561  0.8577  1.1736  1.3482
  277MPD2     N 4190   3.472   3.730  13.687  0.0707 -0.6756  1.0966
  277MPD2    H5 4191   3.377   3.765  13.687  0.0334 -0.7943  2.1801
  277MPD2    N1 4192   3.598   4.156  13.483 -0.2288 -0.3385  0.2120
  277MPD2    H7 4193   3.674   4.210  13.444  0.1044  0.3007  1.7286
  278TMC3    C1 4194   3.374   3.543  13.774 -0.6791 -1.1544 -0.2347
  278TMC3    C2 4195   3.320   3.419  13.737 -1.0294  0.0583 -0.3128
  278TMC3    C3 4196   3.231   3.368  13.829  0.6933  0.1307 -0.3859
  278TMC3    C4 4197   3.349   3.612  13.893  0.7854  0.1928 -0.3980
  278TMC3    C5 4198   3.259   3.553  13.971 -0.3671  0.1324  0.2736
  278TMC3    C6 4199   3.209   3.428  13.951 -0.3281  0.1105 -0.3485
  278TMC3     C 4200   3.496   3.596  13.703 -0.3542  0.1585 -0.7447
  278TMC3     O 4201   3.584   3.520  13.670  0.3315  0.0344 -0.4909
  278TMC3     H 4202   3.351   3.382  13.640  2.2220 -1.3193  1.2650
  278TMC3    H1 4203   3.388   3.710  13.918 -1.6772  0.8155  0.9992
  278TMC3    H2 4204   3.149   3.370  14.021  0.9264 -1.0806 -0.2601
  278TMC3    C7 4205   3.176   3.652  14.045 -0.0538  0.3166  1.0024
  278TMC3    C8 4206   3.157   3.251  13.793 -0.7335  0.0276 -0.4185
  278TMC3    O1 4207   3.215   3.764  14.050  0.3817  0.5265  0.0876
  278TMC3    O2 4208   3.119   3.183  13.887 -0.5717  0.3416  0.5452
  279MPD2     C 4209   2.634   4.265   0.088 -0.0744 -0.2827 -1.2771
  279MPD2    C1 4210   2.597   4.388   0.133  0.6834  0.4239 -0.3837
  279MPD2    C2 4211   2.619   4.498   0.056 -0.6145 -0.1975 -0.4021
  279MPD2    C3 4212   2.662   4.498  17.613  0.3578  0.7406  0.4773
  279MPD2    C4 4213   2.694   4.373  17.558 -0.1707  0.4770  0.1796
  279MPD2    C5 4214   2.677   4.256  17.638  0.3977  0.2199  0.8161
  279MPD2     H 4215   2.587   4.593   0.097 -0.1538  0.7299 -2.1968
  279MPD2    H1 4216   2.731   4.359  17.457  1.0528 -1.3771  0.8810
  279MPD2    H2 4217   2.596   4.170   0.125  2.2951 -0.3132  1.0709
  279MPD2    H3 4218   2.676   4.165  17.579  0.5578 -0.0835  1.2860
  279MPD2     N 4219   2.664   4.614  17.530 -0.2071  1.0666 -0.4379
  279MPD2    H5 4220   2.689   4.597  17.434 -0.2935  0.1448 -0.2963
  279MPD2    N1 4221   2.533   4.393   0.259  0.0519  0.3131  0.0355
  279MPD2    H7 4222   2.543   4.304   0.307 -0.3354  0.8189  1.0374
  280TMC3    C1 4223   2.409   4.463   0.442  0.2579 -0.0900 -0.3853
  280TMC3    C2 4224   2.489   4.411   0.538  0.3588  1.1627  0.1488
  280TMC3    C3 4225   2.484   4.474   0.661 -0.0476  0.0748  0.0206
  280TMC3    C4 4226   2.312   4.553   0.459 -0.3309 -0.5428 -0.6395
  280TMC3    C5 4227   2.312   4.610   0.579 -0.0500  0.2668 -0.4080
  280TMC3    C6 4228   2.379   4.562   0.683 -0.0530 -0.5656  0.5729
  280TMC3     C 4229   2.489   4.503   0.327 -0.2234  0.0026 -0.2079
  280TMC3     O 4230   2.501   4.620   0.308  0.1575  0.3111  0.1280
  280TMC3     H 4231   2.584   4.367   0.508  0.5922 -0.4818  3.2431
  280TMC3    H1 4232   2.271   4.597   0.368 -2.2830  0.7803  0.8926
  280TMC3    H2 4233   2.378   4.611   0.780  0.3800 -0.2989  0.4418
  280TMC3    C7 4234   2.270   0.034   0.588 -0.5446 -0.1159 -0.1581
  280TMC3    C8 4235   2.578   4.431   0.764  0.4249  0.2312  0.5295
  280TMC3    O1 4236   2.311   0.098   0.679  0.8466 -0.4305  0.1233
  280TMC3    O2 4237   2.590   4.494   0.866 -0.2214  0.7760  0.1533
  281TMC3    C1 4238   1.564   0.304  13.156  0.3257 -0.4946  0.5230
  281TMC3    C2 4239   1.597   0.397  13.061  0.2745  0.0015 -0.3347
  281TMC3    C3 4240   1.670   0.354  12.956 -0.1712 -0.8990  0.1128
  281TMC3    C4 4241   1.599   0.172  13.146 -0.0542 -0.1162 -0.2168
  281TMC3    C5 4242   1.695   0.138  13.050 -0.1969 -0.2206 -0.1368
  281TMC3    C6 4243   1.731   0.232  12.958 -0.0202  0.0176  0.0697
  281TMC3     C 4244   1.455   0.329  13.249  0.1659 -0.3978  0.4428
  281TMC3     O 4245   1.453   0.262  13.351 -0.2930 -0.5360 -0.6078
  281TMC3     H 4246   1.559   0.498  13.070 -2.4312 -1.0128 -0.3759
  281TMC3    H1 4247   1.575   0.105  13.227  1.0556 -1.6620 -1.1855
  281TMC3    H2 4248   1.771   0.207  12.860  1.3802 -0.6182  0.8038
  281TMC3    C7 4249   1.793   0.030  13.064  0.5082 -0.0538  0.4928
  281TMC3    C8 4250   1.731   0.455  12.870 -1.1276  0.1736  0.5711
  281TMC3    O1 4251   1.911   0.059  13.045  0.9041  0.3194  0.5222
  281TMC3    O2 4252   1.853   0.440  12.871 -0.0273  0.3681  0.3310
  282MPD2     C 4253   3.371   1.594  14.915 -0.2450 -1.0296  0.5975
  282MPD2    C1 4254   3.266   1.536  14.983 -0.6526 -0.6981  0.6479
  282MPD2    C2 4255   3.160   1.492  14.907 -0.0234  0.2036  0.4566
  282MPD2    C3 4256   3.163   1.486  14.771 -0.6831 -0.5307 -0.4166
  282MPD2    C4 4257   3.268   1.541  14.704  0.8274  0.1638 -0.3609
  282MPD2    C5 4258   3.372   1.594  14.778  0.4185  0.4242 -0.4305
  282MPD2     H 4259   3.066   1.461  14.952 -0.0824 -0.3922 -0.0765
  282MPD2    H1 4260   3.271   1.535  14.596 -0.7407 -0.7428 -0.3583
  282MPD2    H2 4261   3.461   1.619  14.971 -0.1597 -0.3446  0.1569
  282MPD2    H3 4262   3.450   1.631  14.713  0.4666  1.8486  0.4360
  282MPD2     N 4263   3.055   1.429  14.711 -0.2891  0.6007  0.2258
  282MPD2    H5 4264   2.976   1.404  14.770 -0.9968 -1.0582 -1.4375
  282MPD2    N1 4265   3.272   1.511  15.122 -0.5435 -1.0316 -0.5754
  282MPD2    H7 4266   3.362   1.539  15.160 -1.2053  2.8000 -1.8046
  283TMC3    C1 4267   3.228   1.426  15.337  0.4365  0.1043 -0.2275
  283TMC3    C2 4268   3.279   1.532  15.401 -0.2375 -0.1648  0.0630
  283TMC3    C3 4269   3.311   1.523  15.537 -0.1907 -0.3657 -0.4798
  283TMC3    C4 4270   3.198   1.310  15.404 -1.0230 -0.4533 -0.3054
  283TMC3    C5 4271   3.242   1.302  15.534 -0.0357 -0.0046 -0.3979
  283TMC3    C6 4272   3.293   1.405  15.603 -0.9749 -0.4365  0.0495
  283TMC3     C 4273   3.200   1.422  15.193  0.2431 -0.2147  0.0296
  283TMC3     O 4274   3.114   1.337  15.164 -0.0273  0.0446 -0.0928
  283TMC3     H 4275   3.289   1.620  15.338  0.7867 -0.1893  0.1990
  283TMC3    H1 4276   3.153   1.221  15.361 -1.8652  0.2390 -0.8509
  283TMC3    H2 4277   3.315   1.395  15.709  1.6423  3.3076 -0.1501
  283TMC3    C7 4278   3.155   1.211  15.621  0.1505 -0.3970  0.4968
  283TMC3    C8 4279   3.346   1.642  15.616  0.6352  0.0423  0.5668
  283TMC3    O1 4280   3.152   1.238  15.741  0.0631  0.0027  0.5425
  283TMC3    O2 4281   3.361   1.632  15.740 -0.1906  0.5849 -0.1024
  284MPD2     C 4282   1.443   4.372  12.185 -0.6974 -0.3664  0.0475
  284MPD2    C1 4283   1.538   4.398  12.090  1.0474 -0.2969  0.0298
  284MPD2    C2 4284   1.544   4.306  11.987  0.8269 -0.0117  0.0284
  284MPD2    C3 4285   1.484   4.182  11.994  0.6347 -0.1559  0.4053
  284MPD2    C4 4286   1.410   4.156  12.099  0.0220 -0.2528 -0.2479
  284MPD2    C5 4287   1.390   4.250  12.196  0.5327 -0.6251 -1.0670
  284MPD2     H 4288   1.598   4.331  11.897  1.1255 -1.0045 -0.0674
  284MPD2    H1 4289   1.368   4.057  12.119  2.2246 -1.0956  0.1947
  284MPD2    H2 4290   1.425   4.439  12.268 -0.1298  1.4060 -1.2458
  284MPD2    H3 4291   1.329   4.235  12.284  0.2027  1.4166 -0.9535
  284MPD2     N 4292   1.500   4.094  11.886 -0.5650 -0.4245  0.6666
  284MPD2    H5 4293   1.417   4.040  11.867  0.3083 -1.2164 -0.8839
  284MPD2    N1 4294   1.620   4.511  12.084  0.2290  0.5826 -0.9104
  284MPD2    H7 4295   1.671   4.531  11.999 -1.2602  1.4152 -1.6167
  285TMC3    C1 4296   1.734   4.700  12.163 -0.5523  0.8801 -0.2361
  285TMC3    C2 4297   1.821   4.697  12.051 -0.0663  0.2735  0.0674
  285TMC3    C3 4298   1.881   0.094  12.022 -0.0243 -0.2571  0.1044
  285TMC3    C4 4299   1.706   0.096  12.242 -0.3309  0.0066 -0.0017
  285TMC3    C5 4300   1.753   0.207  12.190  0.1460 -0.7893  0.0270
  285TMC3    C6 4301   1.848   0.207  12.092 -0.1646 -0.9532  0.3083
  285TMC3     C 4302   1.639   4.594  12.189 -0.1678  0.3118 -0.1812
  285TMC3     O 4303   1.572   4.603  12.295 -0.1887 -0.0988 -0.1093
  285TMC3     H 4304   1.859   4.612  11.995  0.2092 -0.3603  1.2163
  285TMC3    H1 4305   1.634   0.093  12.323 -1.2662  1.6563 -0.7777
  285TMC3    H2 4306   1.890   0.303  12.064  2.0178 -1.3049  2.3456
  285TMC3    C7 4307   1.659   0.317  12.170  0.0313  0.5939  0.0404
  285TMC3    C8 4308   1.920   0.113  11.883  0.4963 -0.6151 -0.1169
  285TMC3    O1 4309   1.705   0.413  12.106 -0.1627 -0.6633  0.0487
  285TMC3    O2 4310   1.899   0.023  11.801 -0.2647  0.2436 -0.0330
  286MPD2     C 4311   1.598   3.913   1.528  0.6757 -0.3026 -0.4055
  286MPD2    C1 4312   1.626   3.965   1.400 -0.8635 -0.3659  0.8357
  286MPD2    C2 4313   1.713   3.897   1.318  0.0504  0.3436 -0.1320
  286MPD2    C3 4314   1.777   3.784   1.361 -0.0509  0.3949 -0.2585
  286MPD2    C4 4315   1.754   3.732   1.492 -0.2547 -0.3085  0.2546
  286MPD2    C5 4316   1.657   3.793   1.570  0.1681 -0.5423 -0.1776
  286MPD2     H 4317   1.742   3.948   1.227  1.3216 -1.4382 -0.7310
  286MPD2    H1 4318   1.797   3.636   1.518 -1.3382 -1.6746 -2.9411
  286MPD2    H2 4319   1.516   3.952   1.587  0.0734  0.0850 -1.4929
  286MPD2    H3 4320   1.625   3.756   1.667  0.1687  1.4166  0.5737
  286MPD2     N 4321   1.871   3.715   1.277 -0.7168 -0.2585 -0.1772
  286MPD2    H5 4322   1.919   3.632   1.309 -0.1660  0.1121 -0.0383
  286MPD2    N1 4323   1.565   4.082   1.355  0.0708 -0.0270  0.0398
  286MPD2    H7 4324   1.583   4.118   1.262 -0.2419  0.1294  0.0422
  287TMC3    C1 4325   1.988   3.641   1.078  0.3192 -0.1568  0.3755
  287TMC3    C2 4326   1.994   3.624   0.944  0.2540 -0.3908 -0.7529
  287TMC3    C3 4327   2.104   3.566   0.899  0.3916  0.1010 -0.2538
  287TMC3    C4 4328   2.075   3.576   1.163  0.6111  0.5329  0.5135
  287TMC3    C5 4329   2.175   3.501   1.107 -0.0524  0.3132  0.5485
  287TMC3    C6 4330   2.202   3.506   0.976 -0.1248 -1.0912 -0.2854
  287TMC3     C 4331   1.891   3.733   1.142 -0.0039  0.1816 -0.2303
  287TMC3     O 4332   1.820   3.798   1.069  0.3214 -0.2252  0.1813
  287TMC3     H 4333   1.927   3.676   0.876 -1.5060  0.4057  1.6143
  287TMC3    H1 4334   2.068   3.591   1.270 -1.5060  0.4124  0.3911
  287TMC3    H2 4335   2.272   3.440   0.926 -0.2024 -2.0456  0.8854
  287TMC3    C7 4336   2.268   3.445   1.202  0.4560  0.0708  0.1584
  287TMC3    C8 4337   2.112   3.563   0.756  0.0753  0.5782  0.3862
  287TMC3    O1 4338   2.235   3.436   1.320 -0.1744 -0.4279  0.6804
  287TMC3    O2 4339   2.002   3.538   0.703 -0.6772 -0.0735  0.2395
  288TMC3    C1 4340   2.843   3.784  14.695  0.9266 -0.2765  0.2290
  288TMC3    C2 4341   2.866   3.688  14.791 -0.4758 -0.0098 -0.1761
  288TMC3    C3 4342   2.935   3.719  14.898 -0.4358  0.8466 -0.0624
  288TMC3    C4 4343   2.898   3.909  14.715 -0.0609 -0.0816  0.4961
  288TMC3    C5 4344   2.973   3.937  14.822  0.6172  0.0284 -0.2365
  288TMC3    C6 4345   2.986   3.840  14.915  0.3848 -0.6673  0.0318
  288TMC3     C 4346   2.733   3.779  14.599 -0.1705 -0.3978  0.2909
  288TMC3     O 4347   2.652   3.874  14.590 -0.1754 -0.8957 -0.4139
  288TMC3     H 4348   2.835   3.585  14.785  0.2035 -0.0183 -3.6161
  288TMC3    H1 4349   2.865   3.986  14.647 -1.7274 -0.1512  1.2275
  288TMC3    H2 4350   3.039   3.857  15.007  0.3037  2.3859 -0.4941
  288TMC3    C7 4351   3.069   4.049  14.827  0.5202 -1.0752  0.5345
  288TMC3    C8 4352   2.993   3.607  14.976 -0.6069 -0.1446 -0.6210
  288TMC3    O1 4353   3.128   4.067  14.931 -0.9019  0.3106  0.0750
  288TMC3    O2 4354   3.098   3.638  15.034 -0.0190  0.8771  0.4115
  289MPD2     C 4355   3.354   3.057  14.493 -0.1117 -0.1342  0.3670
  289MPD2    C1 4356   3.283   3.170  14.438  0.1035 -0.4458 -1.3699
  289MPD2    C2 4357   3.145   3.156  14.422  0.2742 -0.3780  0.1752
  289MPD2    C3 4358   3.076   3.043  14.462  0.0750  0.7399  0.9480
  289MPD2    C4 4359   3.148   2.943  14.520 -0.3848 -1.2195 -0.4390
  289MPD2    C5 4360   3.285   2.950  14.539  0.3399  0.9202 -0.1989
  289MPD2     H 4361   3.088   3.236  14.378  1.0238 -0.9313 -1.8157
  289MPD2    H1 4362   3.098   2.850  14.544 -2.0643 -0.0178  0.6674
  289MPD2    H2 4363   3.463   3.056  14.499 -0.1116  1.4615  0.8287
  289MPD2    H3 4364   3.339   2.860  14.566  0.1613  0.4898 -1.2668
  289MPD2     N 4365   2.935   3.040  14.461 -0.3566  0.7019 -0.7185
  289MPD2    H5 4366   2.888   2.959  14.500 -1.4235  0.7680 -1.9079
  289MPD2    N1 4367   3.355   3.288  14.408  0.1883 -0.6179  0.0362
  289MPD2    H7 4368   3.453   3.286  14.433  0.6433  2.5888 -1.5220
  290TMC3    C1 4369   2.716   3.122  14.451 -0.7577 -0.0803  0.7251
  290TMC3    C2 4370   2.639   3.216  14.513  0.2654  0.2427  0.1787
  290TMC3    C3 4371   2.501   3.194  14.525 -0.1524  0.3675 -0.2828
  290TMC3    C4 4372   2.670   3.005  14.408 -0.1983 -0.4066  0.0146
  290TMC3    C5 4373   2.536   2.988  14.419  0.7241  0.4667  0.2536
  290TMC3    C6 4374   2.450   3.081  14.467 -0.3855 -0.0459 -0.0072
  290TMC3     C 4375   2.855   3.151  14.439  0.0765 -0.8102  0.2541
  290TMC3     O 4376   2.879   3.264  14.398 -0.2465  0.2018 -0.0288
  290TMC3     H 4377   2.687   3.307  14.547 -2.0263  1.9884 -1.2654
  290TMC3    H1 4378   2.739   2.942  14.353  0.6808  0.7015 -0.1613
  290TMC3    H2 4379   2.343   3.061  14.462 -0.4745  0.3745  0.2664
  290TMC3    C7 4380   2.482   2.877  14.349  0.0187  0.3720  0.1418
  290TMC3    C8 4381   2.406   3.296  14.577  0.5118  0.1562 -0.7692
  290TMC3    O1 4382   2.394   2.904  14.266 -0.1021 -0.4729  0.9247
  290TMC3    O2 4383   2.286   3.280  14.546  0.1081  0.5119 -0.7389
  291MPD2     C 4384   3.012   3.652  17.397 -0.2421  0.5890 -0.3056
  291MPD2    C1 4385   3.087   3.571  17.480  0.2909  0.4529  0.7637
  291MPD2    C2 4386   3.204   3.613  17.543  0.5329  0.2068 -0.6163
  291MPD2    C3 4387   3.247   3.740  17.524  0.0655 -0.6261 -0.8880
  291MPD2    C4 4388   3.171   3.819  17.447  0.6001 -0.3186 -0.4617
  291MPD2    C5 4389   3.062   3.782  17.376 -0.2979  0.1035  0.2342
  291MPD2     H 4390   3.249   3.532  17.599 -1.4028 -1.2050 -1.1140
  291MPD2    H1 4391   3.197   3.923  17.433 -3.0766  0.8117  1.0892
  291MPD2    H2 4392   2.925   3.618  17.343 -0.3834 -0.9201  0.8607
  291MPD2    H3 4393   3.002   3.849  17.315 -0.7283 -0.6864 -0.2158
  291MPD2     N 4394   3.353   3.800  17.596 -0.3621  0.1689  0.3951
  291MPD2    H5 4395   3.376   3.895  17.570  0.8602  0.5039  2.7369
  291MPD2    N1 4396   3.042   3.440  17.520 -0.4158 -0.2555 -0.0880
  291MPD2    H7 4397   3.114   3.386  17.567 -2.8287 -3.0079  0.4361
  292TMC3    C1 4398   2.906   3.256  17.574  0.1875 -0.2932 -0.1310
  292TMC3    C2 4399   2.920   3.261   0.023  0.0938 -0.1563 -0.4503
  292TMC3    C3 4400   2.962   3.154   0.082  0.2028  0.4905 -0.4163
  292TMC3    C4 4401   2.925   3.143  17.494 -0.3766  0.1237  0.4996
  292TMC3    C5 4402   2.981   3.029  17.561 -0.4306  0.6003  0.2757
  292TMC3    C6 4403   2.995   3.038   0.015  0.2362 -0.5305 -0.2158
  292TMC3     C 4404   2.920   3.378  17.499 -0.7127 -0.1226  0.2237
  292TMC3     O 4405   2.822   3.422  17.435  0.2276  0.2350  0.3105
  292TMC3     H 4406   2.918   3.363   0.061  0.4050 -0.5532  0.6193
  292TMC3    H1 4407   2.953   3.168  17.392 -2.5276 -0.2435 -0.1878
  292TMC3    H2 4408   3.025   2.948   0.068  0.6464  1.5765  3.1243
  292TMC3    C7 4409   2.957   2.903  17.510  0.3540 -0.7282  0.4539
  292TMC3    C8 4410   2.942   3.157   0.227 -0.6939  0.5528 -0.5588
  292TMC3    O1 4411   3.028   2.808  17.546 -0.0041 -0.2975  0.2312
  292TMC3    O2 4412   2.949   3.267   0.282  0.0381 -0.6677 -0.1298
  293MPD2     C 4413   4.636   4.309  12.514 -0.0817 -0.8372 -0.3853
  293MPD2    C1 4414   4.538   4.236  12.575 -0.1945  0.6844 -0.8316
  293MPD2    C2 4415   4.564   4.212  12.715 -0.5868 -0.0423 -0.2623
  293MPD2    C3 4416   4.676   4.254  12.784  0.1283  0.5829 -1.4582
  293MPD2    C4 4417   0.057   4.316  12.707  0.3291  0.9305  0.9598
  293MPD2    C5 4418   0.038   4.338  12.573 -0.3044  0.1813  0.0502
  293MPD2     H 4419   4.484   4.164  12.770 -0.8467  0.7184  0.0197
  293MPD2    H1 4420   0.155   4.342  12.745  0.5292 -0.1116  1.1645
  293MPD2    H2 4421   4.630   4.337  12.410  1.9477 -0.0345 -0.2854
  293MPD2    H3 4422   0.119   4.383  12.518 -0.2534 -0.0910 -0.0945
  293MPD2     N 4423   4.698   4.232  12.924 -0.2980  0.2781 -0.6815
  293MPD2    H5 4424   4.610   4.212  12.970  0.0029 -0.1640 -0.3013
  293MPD2    N1 4425   4.427   4.196  12.498 -0.0372 -0.2816  0.1295
  293MPD2    H7 4426   4.428   4.220  12.400 -0.3763 -0.6776  0.0259
  294TMC3    C1 4427   4.229   4.086  12.435 -1.1165 -0.1125 -0.0744
  294TMC3    C2 4428   4.119   4.021  12.475  0.3951  0.1497  0.3417
  294TMC3    C3 4429   4.024   3.986  12.381 -0.9435  0.2179  0.6737
  294TMC3    C4 4430   4.265   4.095  12.300 -0.1844  0.0187 -0.5190
  294TMC3    C5 4431   4.172   4.053  12.209  0.3296 -0.2761  0.3314
  294TMC3    C6 4432   4.056   4.002  12.248 -0.8831 -0.7988 -0.4354
  294TMC3     C 4433   4.316   4.127  12.547  0.1581  0.6532 -0.4751
  294TMC3     O 4434   4.296   4.085  12.662  0.5417  0.2394 -0.0262
  294TMC3     H 4435   4.103   4.017  12.582 -0.7035  0.0076  0.1697
  294TMC3    H1 4436   4.356   4.143  12.268 -0.9439  0.0770 -2.5624
  294TMC3    H2 4437   3.973   3.994  12.179 -2.2484 -0.4649  1.1500
  294TMC3    C7 4438   4.191   4.070  12.072 -0.2341 -0.3363  0.0984
  294TMC3    C8 4439   3.933   3.878  12.406 -0.3241  0.8823 -0.1117
  294TMC3    O1 4440   4.103   4.035  11.995  0.1189 -0.0822  0.5595
  294TMC3    O2 4441   3.909   3.846  12.520  0.1561 -0.7033  0.0989
  295MPD2     C 4442   1.105   2.922   0.511 -0.2319  0.2625 -0.5686
  295MPD2    C1 4443   0.975   2.928   0.467 -0.0809 -0.1487  0.3211
  295MPD2    C2 4444   0.873   2.978   0.546 -0.2725  0.0881 -0.0710
  295MPD2    C3 4445   0.909   3.011   0.675 -0.1036 -0.6267 -0.1040
  295MPD2    C4 4446   1.038   3.000   0.725  0.4403  0.0381 -0.3138
  295MPD2    C5 4447   1.137   2.965   0.638 -0.2197  0.1204 -0.8201
  295MPD2     H 4448   0.773   3.000   0.512  0.1770  1.0776 -0.7467
  295MPD2    H1 4449   1.061   3.005   0.831 -1.6735 -1.4799  0.2269
  295MPD2    H2 4450   1.183   2.872   0.454  1.7492  1.1436  1.3502
  295MPD2    H3 4451   1.235   2.941   0.676 -0.8156  0.9612  1.2711
  295MPD2     N 4452   0.812   3.049   0.777  1.1361 -0.0897 -0.2271
  295MPD2    H5 4453   0.843   3.078   0.869 -0.6407  1.2569 -0.0581
  295MPD2    N1 4454   0.939   2.877   0.340 -0.3812  0.2156  0.4615
  295MPD2    H7 4455   0.841   2.897   0.319 -0.3136 -0.7284 -0.8112
  296TMC3    C1 4456   0.598   3.105   0.856 -0.9645  0.3588  0.0560
  296TMC3    C2 4457   0.660   3.191   0.945  0.3226  0.2282 -0.2068
  296TMC3    C3 4458   0.581   3.269   1.027 -0.0557 -0.2710 -0.1656
  296TMC3    C4 4459   0.459   3.096   0.852  0.1642  0.0442  0.4322
  296TMC3    C5 4460   0.387   3.169   0.947 -0.0749  0.0536  0.1752
  296TMC3    C6 4461   0.447   3.251   1.043  0.5998  0.4379  0.5029
  296TMC3     C 4462   0.682   3.027   0.764  0.2615 -0.1829  0.4102
  296TMC3     O 4463   0.624   2.951   0.688 -0.4869  0.4091 -0.0071
  296TMC3     H 4464   0.767   3.210   0.948 -0.0846  2.3800  1.5393
  296TMC3    H1 4465   0.412   3.010   0.805 -2.7054  0.5639  2.3327
  296TMC3    H2 4466   0.397   3.311   1.119 -1.7301 -1.1450  0.2289
  296TMC3    C7 4467   0.243   3.145   0.962 -0.7535  0.2440 -0.5008
  296TMC3    C8 4468   0.649   3.378   1.086 -0.1120  0.3454 -0.2625
  296TMC3    O1 4469   0.172   3.169   0.871  0.4971 -0.5695 -0.1648
  296TMC3    O2 4470   0.772   3.383   1.078 -0.2532 -0.1849 -0.2752
  297MPD2     C 4471   2.266   0.637  16.456  0.3426 -0.1794  0.6200
  297MPD2    C1 4472   2.310   0.617  16.325 -0.7072 -0.5440  0.3818
  297MPD2    C2 4473   2.414   0.698  16.283 -0.0518 -0.7953  0.1519
  297MPD2    C3 4474   2.486   0.771  16.376 -0.1255 -0.7700  0.4559
  297MPD2    C4 4475   2.447   0.781  16.506 -0.1154 -0.1882  0.7375
  297MPD2    C5 4476   2.329   0.722  16.540 -0.5431 -0.5416  0.0841
  297MPD2     H 4477   2.446   0.682  16.181  2.3676 -0.9627  0.9260
  297MPD2    H1 4478   2.495   0.849  16.576  0.1810 -0.0622  0.4180
  297MPD2    H2 4479   2.176   0.595  16.500  0.6787 -0.3753  1.1127
  297MPD2    H3 4480   2.283   0.737  16.637 -0.6585 -0.7892  0.0658
  297MPD2     N 4481   2.597   0.851  16.328 -0.5509  0.3426 -0.6985
  297MPD2    H5 4482   2.618   0.837  16.229 -1.1298  5.3682 -1.5569
  297MPD2    N1 4483   2.244   0.527  16.238 -0.0775  0.0163 -0.0803
  297MPD2    H7 4484   2.258   0.548  16.139 -0.3378  0.3339 -0.0482
  298TMC3    C1 4485   2.060   0.377  16.185  0.2962  0.4125  0.0514
  298TMC3    C2 4486   2.089   0.384  16.046  0.0625 -0.4665 -0.2615
  298TMC3    C3 4487   1.980   0.357  15.964  0.2102  0.3594 -0.2142
  298TMC3    C4 4488   1.950   0.312  16.234  0.4677  0.0003  0.3237
  298TMC3    C5 4489   1.844   0.291  16.150 -0.0596 -0.4548 -0.1372
  298TMC3    C6 4490   1.859   0.320  16.017  0.1985 -0.4223  0.3246
  298TMC3     C 4491   2.139   0.440  16.288 -0.0621 -0.4759 -0.5000
  298TMC3     O 4492   2.123   0.401  16.404  0.3887 -0.1305 -0.1895
  298TMC3     H 4493   2.188   0.404  16.006  0.6960 -1.7968  0.6373
  298TMC3    H1 4494   1.933   0.293  16.340 -2.6076  2.2108  0.2222
  298TMC3    H2 4495   1.790   0.294  15.938  0.0213  1.2054 -0.0587
  298TMC3    C7 4496   1.713   0.304  16.207  0.8076 -0.0522 -0.0221
  298TMC3    C8 4497   2.018   0.338  15.831 -1.3095  0.5945  0.0683
  298TMC3    O1 4498   1.700   0.291  16.324 -0.3505  0.0054  0.5106
  298TMC3    O2 4499   1.942   0.272  15.765 -0.3131 -0.9080 -0.2317
  299MPD2     C 4500   2.893   0.103  10.579  0.9683 -0.2773  0.1691
  299MPD2    C1 4501   2.898   0.242  10.581  0.0526 -0.4336 -0.0590
  299MPD2    C2 4502   2.803   0.323  10.513  0.3139  0.0303  0.1533
  299MPD2    C3 4503   2.700   0.251  10.448 -0.4997 -0.5227  0.8661
  299MPD2    C4 4504   2.695   0.115  10.442  0.4995  0.5035  0.9535
  299MPD2    C5 4505   2.788   0.043  10.512  0.7772 -0.1507  0.1110
  299MPD2     H 4506   2.800   0.430  10.528 -1.7254  0.0920 -0.7901
  299MPD2    H1 4507   2.607   0.070  10.396  0.3195  0.8976  0.9179
  299MPD2    H2 4508   2.957   0.039  10.637  0.3943 -1.7882 -0.8609
  299MPD2    H3 4509   2.777   4.656  10.509 -2.5626  0.1914  0.0171
  299MPD2     N 4510   2.591   0.328  10.383 -0.4955 -0.7749 -0.9687
  299MPD2    H5 4511   2.526   0.268  10.334 -0.4116  1.3210 -3.6142
  299MPD2    N1 4512   3.001   0.301  10.666  0.2510 -0.2577  0.0189
  299MPD2    H7 4513   3.058   0.244  10.728 -0.7335  1.1664  2.2244
  300TMC3    C1 4514   2.459   0.519  10.320  0.3081  0.8715  0.1117
  300TMC3    C2 4515   2.472   0.642  10.276  0.3097  0.0924  0.0972
  300TMC3    C3 4516   2.368   0.703  10.207  0.2591  0.4459  0.7422
  300TMC3    C4 4517   2.342   0.444  10.301 -0.1186  0.1245 -0.1907
  300TMC3    C5 4518   2.238   0.520  10.252  0.6072 -0.0157  0.6944
  300TMC3    C6 4519   2.247   0.643  10.199 -0.0865 -0.5489  0.3123
  300TMC3     C 4520   2.578   0.464  10.382  0.3575  0.5468  0.3983
  300TMC3     O 4521   2.643   0.552  10.445  0.1110  0.1440  1.0281
  300TMC3     H 4522   2.569   0.690  10.283  0.0841  0.6535 -0.6609
  300TMC3    H1 4523   2.319   0.343  10.333  0.8099 -0.6048 -1.8387
  300TMC3    H2 4524   2.164   0.695  10.151  0.8437  1.5828  1.0144
  300TMC3    C7 4525   2.109   0.467  10.273  0.1260  0.3101 -0.2403
  300TMC3    C8 4526   2.381   0.846  10.211  0.4618 -0.1993  0.2864
  300TMC3    O1 4527   2.030   0.485  10.178  0.0691 -0.1253  0.5355
  300TMC3    O2 4528   2.441   0.901  10.119 -0.0742  0.3489  0.8823
  301MPD2     C 4529   0.285   1.333   1.780 -0.3568 -0.4658 -1.2193
  301MPD2    C1 4530   0.160   1.316   1.748  0.7830 -1.1909  0.0738
  301MPD2    C2 4531   0.113   1.198   1.688 -0.8155 -0.0295  0.4548
  301MPD2    C3 4532   0.202   1.093   1.700 -0.1211  0.0564 -0.1604
  301MPD2    C4 4533   0.331   1.109   1.740 -0.4792 -0.0166 -0.0517
  301MPD2    C5 4534   0.377   1.236   1.774 -0.0359  0.2787  0.0078
  301MPD2     H 4535   0.013   1.196   1.645 -0.6603  1.4812  0.0194
  301MPD2    H1 4536   0.406   1.031   1.740  0.0133  0.4608  0.5959
  301MPD2    H2 4537   0.332   1.426   1.809 -0.2315 -1.7503  2.6572
  301MPD2    H3 4538   0.480   1.252   1.804 -0.7294  1.2704  1.8477
  301MPD2     N 4539   0.158   0.967   1.652  0.1470 -0.1069  0.1507
  301MPD2    H5 4540   0.215   0.887   1.675  1.1220  0.6069  0.2430
  301MPD2    N1 4541   0.069   1.427   1.742 -0.0715 -0.6430 -0.2677
  301MPD2    H7 4542   4.696   1.397   1.715 -0.5272  0.3641  0.1970
  302TMC3    C1 4543   0.028   0.802   1.536  0.2717 -0.0532 -0.0906
  302TMC3    C2 4544   0.141   0.726   1.555 -0.7383 -0.4031 -0.8225
  302TMC3    C3 4545   0.133   0.602   1.508 -0.6534  0.8141  0.7745
  302TMC3    C4 4546   4.629   0.765   1.472  1.1233  0.3036 -0.3009
  302TMC3    C5 4547   4.635   0.641   1.415  0.0589  0.0934 -0.0048
  302TMC3    C6 4548   0.013   0.557   1.452  0.8766  0.8067 -0.0049
  302TMC3     C 4549   0.035   0.939   1.587  0.1747  0.5719  0.1821
  302TMC3     O 4550   4.664   1.010   1.555  0.0829  0.5351  0.0375
  302TMC3     H 4551   0.233   0.758   1.603 -1.0384  1.7558 -1.7105
  302TMC3    H1 4552   4.546   0.833   1.459  3.0513  2.1373 -2.8706
  302TMC3    H2 4553   4.712   0.451   1.447 -1.6271  1.2400  1.3217
  302TMC3    C7 4554   4.537   0.592   1.326  0.1598  0.1506  0.4478
  302TMC3    C8 4555   0.241   0.518   1.562 -0.1853 -0.4120 -0.2699
  302TMC3    O1 4556   4.567   0.487   1.270 -0.1555  0.9065 -0.0292
  302TMC3    O2 4557   0.356   0.560   1.583 -0.4546  0.2442  0.2005
  303MPD2     C 4558   4.600   4.280  10.285  0.5315  0.4653  0.0443
  303MPD2    C1 4559   4.505   4.217  10.219  0.2387 -0.1859  0.4533
  303MPD2    C2 4560   4.487   4.255  10.089  0.4852  0.2652 -0.2232
  303MPD2    C3 4561   4.567   4.348  10.025  0.1399 -0.3487 -0.3957
  303MPD2    C4 4562   4.667   4.412  10.098 -0.2935 -0.1733 -0.4512
  303MPD2    C5 4563   4.686   4.371  10.227  0.3751 -0.3292 -0.0906
  303MPD2     H 4564   4.405   4.215  10.030  2.7369 -2.7556 -1.2931
  303MPD2    H1 4565   0.021   4.472  10.047 -0.5614  0.0700 -0.5537
  303MPD2    H2 4566   4.611   4.258  10.390 -1.3761 -0.8093 -0.0230
  303MPD2    H3 4567   0.046   4.409  10.288 -0.3532 -2.2355  2.0712
  303MPD2     N 4568   4.537   4.390   9.894 -0.2249  0.9164 -0.0563
  303MPD2    H5 4569   4.444   4.373   9.857 -0.2511  1.6398 -0.3083
  303MPD2    N1 4570   4.431   4.120  10.282 -0.4277 -0.1130 -0.0359
  303MPD2    H7 4571   4.441   4.105  10.382 -3.8705 -1.7094  0.0912
  304TMC3    C1 4572   4.295   3.928  10.307 -0.9256  0.0385 -0.0047
  304TMC3    C2 4573   4.224   3.978  10.413  0.1074 -0.5836 -0.1606
  304TMC3    C3 4574   4.123   3.896  10.448  0.1235  0.2583  0.3886
  304TMC3    C4 4575   4.269   3.811  10.244 -0.0572 -0.7874  0.4561
  304TMC3    C5 4576   4.156   3.742  10.280 -0.8458  0.7452 -0.1878
  304TMC3    C6 4577   4.089   3.784  10.384  0.3699  0.5692 -0.2998
  304TMC3     C 4578   4.347   4.032  10.220  0.5007  0.3519 -0.3104
  304TMC3     O 4579   4.317   4.017  10.098 -0.8132  0.5227 -0.2376
  304TMC3     H 4580   4.234   4.075  10.461  3.3686 -0.2656 -1.4624
  304TMC3    H1 4581   4.314   3.793  10.146  0.3522  1.1985  0.2681
  304TMC3    H2 4582   4.003   3.727  10.419  1.1643 -0.6746 -0.3917
  304TMC3    C7 4583   4.056   3.734  10.172 -0.9129 -0.1538 -0.5222
  304TMC3    C8 4584   4.004   3.967  10.490  0.4324 -0.1452  0.9256
  304TMC3    O1 4585   3.954   3.794  10.209  0.3420 -0.0757 -0.2965
  304TMC3    O2 4586   4.022   4.036  10.589 -0.2563  0.2819  0.4069
  305MPD2     C 4587   3.118   1.665  13.747 -0.3286 -0.6217 -0.3256
  305MPD2    C1 4588   3.151   1.534  13.775 -0.0860 -0.7321 -0.4262
  305MPD2    C2 4589   3.163   1.441  13.671 -0.1191  0.4256  0.3371
  305MPD2    C3 4590   3.152   1.481  13.538  0.6691 -0.0737 -0.6599
  305MPD2    C4 4591   3.115   1.611  13.515 -0.9862 -0.4566  0.4509
  305MPD2    C5 4592   3.094   1.698  13.618  0.2350  0.3678 -0.4290
  305MPD2     H 4593   3.189   1.340  13.700  0.5594  0.4903 -0.0516
  305MPD2    H1 4594   3.094   1.646  13.415  1.3079 -0.1015  0.0921
  305MPD2    H2 4595   3.098   1.744  13.819 -0.6637 -0.1165 -0.9744
  305MPD2    H3 4596   3.052   1.796  13.593 -0.3311  0.0184 -0.8558
  305MPD2     N 4597   3.185   1.402  13.422 -0.2400  0.4607  0.4456
  305MPD2    H5 4598   3.183   1.440  13.328  1.6429  2.0173  1.0486
  305MPD2    N1 4599   3.186   1.509  13.907 -0.4376  0.0878 -0.5287
  305MPD2    H7 4600   3.200   1.587  13.971 -2.8821  0.4467 -0.4166
  306TMC3    C1 4601   3.281   1.411  14.091 -0.0113  0.8719  0.1652
  306TMC3    C2 4602   3.334   1.294  14.147  0.0729 -0.9893 -1.0841
  306TMC3    C3 4603   3.409   1.310  14.265  0.1602  0.2660  0.5422
  306TMC3    C4 4604   3.271   1.533  14.158 -0.4151 -0.4831  0.3231
  306TMC3    C5 4605   3.350   1.544  14.270 -0.2751 -0.5966 -0.0438
  306TMC3    C6 4606   3.408   1.432  14.333 -0.0839 -0.0153  0.1908
  306TMC3     C 4607   3.224   1.389  13.965  0.1014  0.2440  0.3389
  306TMC3     O 4608   3.211   1.277  13.920 -0.2653 -0.1259 -0.1590
  306TMC3     H 4609   3.327   1.199  14.096 -1.1172 -0.5071 -1.8187
  306TMC3    H1 4610   3.252   1.628  14.108 -0.8681 -0.3563  0.7380
  306TMC3    H2 4611   3.469   1.451  14.422  0.0644 -2.0680  0.5127
  306TMC3    C7 4612   3.347   1.673  14.328 -0.3546  0.3904 -0.1049
  306TMC3    C8 4613   3.439   1.199  14.359  0.1395  0.0908 -0.4100
  306TMC3    O1 4614   3.243   1.738  14.314 -0.3483 -0.3175  0.8659
  306TMC3    O2 4615   3.480   1.097  14.305  0.1671 -0.2338 -0.1570
  307MPD2     C 4616   1.407   3.971   0.081  0.1682 -0.0275 -0.0346
  307MPD2    C1 4617   1.344   4.094   0.058 -0.7273  0.1708  0.6401
  307MPD2    C2 4618   1.281   4.152   0.166  0.5396 -0.6105 -0.4019
  307MPD2    C3 4619   1.275   4.092   0.290  0.4284  0.7594 -0.0445
  307MPD2    C4 4620   1.355   3.979   0.315  0.6828 -0.1420  0.2034
  307MPD2    C5 4621   1.414   3.916   0.206 -0.2224  0.0883  0.5612
  307MPD2     H 4622   1.218   4.238   0.145  1.8281  0.2567 -0.6709
  307MPD2    H1 4623   1.365   3.934   0.413  1.0359  0.3794  0.4069
  307MPD2    H2 4624   1.451   3.914  17.683  1.0619  1.6995 -0.7550
  307MPD2    H3 4625   1.474   3.827   0.221  1.2249  0.8077 -0.9664
  307MPD2     N 4626   1.184   4.131   0.393 -0.6817 -0.7933  0.6695
  307MPD2    H5 4627   1.151   4.225   0.375 -0.7344 -0.8982  0.1979
  307MPD2    N1 4628   1.330   4.144  17.611 -0.0893 -0.2006 -0.3889
  307MPD2    H7 4629   1.247   4.203  17.602  1.0893  1.3648 -0.9347
  308TMC3    C1 4630   0.808   4.088   0.652 -1.1945  0.2753  1.0388
  308TMC3    C2 4631   0.813   4.219   0.703  0.2458  0.3812  0.2563
  308TMC3    C3 4632   0.930   4.285   0.676  0.5286 -0.5665  0.6156
  308TMC3    C4 4633   0.913   4.030   0.595  0.5081 -0.1364  0.0750
  308TMC3    C5 4634   1.024   4.111   0.571  0.0612 -0.3120 -0.0232
  308TMC3    C6 4635   1.038   4.236   0.603 -0.1324 -0.0535  0.3493
  308TMC3     C 4636   0.686   4.016   0.658 -0.5563 -0.1867  0.7482
  308TMC3     O 4637   0.689   3.894   0.646  0.4327  0.6928 -0.8447
  308TMC3     H 4638   0.741   4.268   0.767  0.7116  0.2496  0.8772
  308TMC3    H1 4639   0.912   3.925   0.568  0.9833  0.1983 -1.2583
  308TMC3    H2 4640   1.130   4.293   0.603  0.3743 -0.8716 -1.3879
  308TMC3    C7 4641   1.128   4.048   0.485 -0.2348 -0.5180  0.0078
  308TMC3    C8 4642   0.945   4.421   0.722 -0.2960  0.0938 -0.1426
  308TMC3    O1 4643   1.140   3.925   0.494  0.0630 -0.1485  0.3172
  308TMC3    O2 4644   0.877   4.452   0.827 -0.3777  0.0729  0.1259
  309MPD2     C 4645   0.274   4.492  17.093  0.6608  0.2920 -0.5124
  309MPD2    C1 4646   0.261   4.613  17.027  0.2813 -0.0663 -0.0081
  309MPD2    C2 4647   0.155   4.693  17.061  0.4166  0.4736 -0.4356
  309MPD2    C3 4648   0.072   4.654  17.170  0.1922  0.2377  0.3495
  309MPD2    C4 4649   0.095   4.543  17.245 -0.3252  0.0282  0.1611
  309MPD2    C5 4650   0.188   4.454  17.196  0.0689  0.1165 -0.6067
  309MPD2     H 4651   0.136   0.058  16.997 -0.0345  0.4652 -0.3189
  309MPD2    H1 4652   0.037   4.507  17.330 -1.8780 -0.4132 -1.0726
  309MPD2    H2 4653   0.352   4.421  17.068  1.9293  0.8949  1.7248
  309MPD2    H3 4654   0.207   4.365  17.254  2.5461  2.4079  2.0869
  309MPD2     N 4655   4.692   0.017  17.230  0.2675 -0.8877 -0.4194
  309MPD2    H5 4656   4.666   4.718  17.326 -1.6873 -0.8993 -0.9356
  309MPD2    N1 4657   0.348   4.652  16.925 -0.2866 -0.0993 -0.0949
  309MPD2    H7 4658   0.325   0.009  16.864  0.3638  0.6883  0.6498
  310TMC3    C1 4659   0.542   4.623  16.779 -0.7507  0.0413 -0.1458
  310TMC3    C2 4660   0.526   0.017  16.712  0.0216 -0.1492 -0.4862
  310TMC3    C3 4661   0.610   0.041  16.602  0.9960 -0.6256  0.3950
  310TMC3    C4 4662   0.647   4.538  16.749 -0.7337  0.1975 -0.0067
  310TMC3    C5 4663   0.727   4.561  16.639 -0.1620  0.6368 -0.5630
  310TMC3    C6 4664   0.710   4.675  16.564  0.2879  0.3728 -0.3438
  310TMC3     C 4665   0.467   4.581  16.894  0.3590  0.4855  0.0868
  310TMC3     O 4666   0.530   4.500  16.961 -0.4653  0.0221 -0.4063
  310TMC3     H 4667   0.442   0.082  16.735  0.8261  0.9385 -0.6181
  310TMC3    H1 4668   0.673   4.450  16.806 -0.3040 -0.2159 -0.8283
  310TMC3    H2 4669   0.773   4.684  16.475 -0.1347 -2.4884 -0.9471
  310TMC3    C7 4670   0.823   4.465  16.609  0.2244 -0.8560  0.1581
  310TMC3    C8 4671   0.594   0.164  16.521 -0.8795  0.2811 -0.0735
  310TMC3    O1 4672   0.794   4.347  16.629  0.9328  0.2245  0.4767
  310TMC3    O2 4673   0.487   0.226  16.526 -0.2911 -0.4791 -0.5861
  311MPD2     C 4674   2.373   0.739  12.740 -0.3755 -0.6355  0.3986
  311MPD2    C1 4675   2.367   0.876  12.737  0.4977 -0.5021 -0.4340
  311MPD2    C2 4676   2.243   0.932  12.740 -0.0715 -1.2458  0.8542
  311MPD2    C3 4677   2.128   0.857  12.730  0.2698 -1.1129 -0.3316
  311MPD2    C4 4678   2.141   0.720  12.733 -0.3732  0.1170  0.2657
  311MPD2    C5 4679   2.259   0.667  12.744  0.6029  0.1657 -0.1685
  311MPD2     H 4680   2.240   1.040  12.741 -0.2748 -1.2383 -0.5624
  311MPD2    H1 4681   2.053   0.656  12.742 -0.0595 -0.2203  0.9661
  311MPD2    H2 4682   2.466   0.684  12.736 -0.7273 -1.0708 -1.8406
  311MPD2    H3 4683   2.277   0.560  12.746  1.1013  0.2332 -0.9525
  311MPD2     N 4684   2.002   0.927  12.720  0.3302 -0.2487  0.5106
  311MPD2    H5 4685   2.013   1.028  12.719  0.0757 -0.2235  0.1919
  311MPD2    N1 4686   2.476   0.962  12.717 -0.1440  0.4496  0.0259
  311MPD2    H7 4687   2.457   1.061  12.704 -2.9264 -0.3221 -1.7423
  312TMC3    C1 4688   1.773   0.970  12.708 -0.1161 -1.1352  0.2904
  312TMC3    C2 4689   1.684   0.961  12.610 -0.2800  0.1161  0.1849
  312TMC3    C3 4690   1.586   1.050  12.626  0.1136  0.1543  0.7268
  312TMC3    C4 4691   1.786   1.071  12.801  0.9062  0.3990  0.1184
  312TMC3    C5 4692   1.684   1.153  12.814  0.6688 -0.5439  0.5576
  312TMC3    C6 4693   1.577   1.153  12.724 -0.1663  0.2571  0.2612
  312TMC3     C 4694   1.876   0.870  12.710  0.4344  0.3909  0.5351
  312TMC3     O 4695   1.830   0.753  12.704 -0.2036 -0.1257 -0.2866
  312TMC3     H 4696   1.677   0.880  12.539  1.2353  0.2693 -0.1206
  312TMC3    H1 4697   1.877   1.075  12.861  0.8551  0.5232  0.1885
  312TMC3    H2 4698   1.490   1.212  12.749  0.8602  1.5723  0.6932
  312TMC3    C7 4699   1.681   1.248  12.930 -0.0695 -0.2471  0.4895
  312TMC3    C8 4700   1.461   1.015  12.561 -0.6806 -0.1136  0.3420
  312TMC3    O1 4701   1.613   1.351  12.915  0.3706  1.1344 -0.5454
  312TMC3    O2 4702   1.450   0.902  12.515 -0.1629 -0.0889 -0.2629
  313MPD2     C 4703   1.720   0.416  11.507  0.2739  0.3922 -0.0676
  313MPD2    C1 4704   1.699   0.473  11.385  0.1249  0.6123 -0.3150
  313MPD2    C2 4705   1.595   0.426  11.306  0.4257  0.1395 -0.1175
  313MPD2    C3 4706   1.512   0.327  11.353  0.1997 -0.1662 -0.0863
  313MPD2    C4 4707   1.523   0.284  11.481 -0.2896  0.1310  0.1442
  313MPD2    C5 4708   1.628   0.331  11.561 -0.0499  0.1769  0.0075
  313MPD2     H 4709   1.569   0.468  11.209  2.2614 -0.6947 -0.9662
  313MPD2    H1 4710   1.450   0.216  11.523 -1.9388  1.5459 -0.4310
  313MPD2    H2 4711   1.798   0.449  11.574  0.8669 -0.6089 -0.2676
  313MPD2    H3 4712   1.639   0.293  11.662 -0.0492  1.6464  0.5677
  313MPD2     N 4713   1.408   0.294  11.267  0.5397  0.2144 -0.2041
  313MPD2    H5 4714   1.413   0.334  11.174  3.4575  0.0063 -0.1346
  313MPD2    N1 4715   1.792   0.562  11.329 -0.3573 -0.5504 -0.4546
  313MPD2    H7 4716   1.772   0.591  11.233 -0.1757  0.8000 -0.0815
  314TMC3    C1 4717   1.975   0.659  11.276 -0.2343  0.7591  0.5415
  314TMC3    C2 4718   2.061   0.772  11.289 -0.0778  0.0248 -0.7392
  314TMC3    C3 4719   2.108   0.830  11.171  0.2224  0.1919 -0.7562
  314TMC3    C4 4720   1.947   0.602  11.160  0.3442 -0.5862 -0.0924
  314TMC3    C5 4721   1.980   0.678  11.048  0.5028 -1.2922 -0.7984
  314TMC3    C6 4722   2.060   0.788  11.054  0.4731  0.1683  0.2558
  314TMC3     C 4723   1.896   0.615  11.392 -0.8537 -1.0312  0.6919
  314TMC3     O 4724   1.912   0.643  11.512 -0.1982  0.0187  0.0541
  314TMC3     H 4725   2.105   0.796  11.385  0.8745  1.8262 -1.6195
  314TMC3    H1 4726   1.899   0.506  11.146 -0.5147 -0.5461  2.5999
  314TMC3    H2 4727   2.102   0.830  10.963  1.1237  2.1080  1.4446
  314TMC3    C7 4728   1.920   0.646  10.922  0.0547  0.4712 -1.0281
  314TMC3    C8 4729   2.163   0.964  11.180  0.3354  0.3790  0.1665
  314TMC3    O1 4730   1.843   0.551  10.923  0.0675  0.0392  0.5794
  314TMC3    O2 4731   2.127   1.048  11.099  0.2319 -0.3321  0.3637
  315MPD2     C 4732   1.744   4.312  17.478 -0.6486 -0.0043  0.0744
  315MPD2    C1 4733   1.818   4.363  17.582 -0.0042 -0.1843 -0.1010
  315MPD2    C2 4734   1.850   4.493  17.583  0.4275  0.1806 -0.7820
  315MPD2    C3 4735   1.811   4.583  17.487 -0.2615 -0.8610  0.4790
  315MPD2    C4 4736   1.728   4.537  17.383 -0.2689 -0.9510 -0.7900
  315MPD2    C5 4737   1.701   4.407  17.379  0.3409  0.1225  0.6177
  315MPD2     H 4738   1.908   4.525  17.669 -0.5514  0.9129 -0.4010
  315MPD2    H1 4739   1.686   4.593  17.300 -2.0249 -1.6076 -0.3475
  315MPD2    H2 4740   1.712   4.208  17.475  0.2455 -0.2150 -2.5205
  315MPD2    H3 4741   1.638   4.354  17.308  0.7790  1.2915 -0.6401
  315MPD2     N 4742   1.851   0.003  17.504 -0.1969 -0.1133 -0.3002
  315MPD2    H5 4743   1.888   0.031  17.595  0.6806 -1.4595 -0.2387
  315MPD2    N1 4744   1.886   4.278  17.679 -0.3043 -0.7347  0.1347
  315MPD2    H7 4745   1.937   4.324   0.069  0.0161 -0.2235 -0.4035
  316TMC3    C1 4746   1.842   0.253  17.462 -0.1198  0.1215  0.4845
  316TMC3    C2 4747   1.878   0.282  17.588 -0.7720 -0.1728 -0.1806
  316TMC3    C3 4748   1.907   0.411  17.620  0.1935 -0.0770  0.2485
  316TMC3    C4 4749   1.825   0.349  17.365  0.0898 -0.9628 -0.3444
  316TMC3    C5 4750   1.879   0.476  17.395 -0.1474  0.1106  0.2477
  316TMC3    C6 4751   1.919   0.510  17.520  0.5718 -0.0123 -0.7758
  316TMC3     C 4752   1.814   0.106  17.421 -0.2298  0.4670  0.4147
  316TMC3     O 4753   1.753   0.092  17.317 -0.6940  0.4923 -0.3969
  316TMC3     H 4754   1.878   0.206  17.665  1.7208  1.8560  1.8656
  316TMC3    H1 4755   1.809   0.312  17.264  0.8245 -1.5862 -0.2287
  316TMC3    H2 4756   1.927   0.615  17.548  0.8182 -0.0102 -0.8502
  316TMC3    C7 4757   1.888   0.574  17.293 -0.6201 -0.0279  0.4308
  316TMC3    C8 4758   1.964   0.450   0.071 -0.2772  0.1728  0.3180
  316TMC3    O1 4759   1.948   0.675  17.326 -0.5692  0.0881  0.0615
  316TMC3    O2 4760   1.956   0.567   0.105  0.1263  0.0335 -0.0249
  317MPD2     C 4761   2.858   3.073  12.750 -0.2765 -0.3735  0.5522
  317MPD2    C1 4762   2.899   2.940  12.729  0.0687  0.2102  0.6433
  317MPD2    C2 4763   2.971   2.879  12.821  0.4660 -0.5000  0.1914
  317MPD2    C3 4764   3.015   2.933  12.941 -0.0811 -0.1895 -0.6591
  317MPD2    C4 4765   2.974   3.062  12.960  0.3882  0.0768 -0.3224
  317MPD2    C5 4766   2.904   3.133  12.864 -1.0486  0.5810 -0.2119
  317MPD2     H 4767   3.014   2.782  12.800  3.8290  0.9994  0.2380
  317MPD2    H1 4768   3.006   3.108  13.052 -1.2118  1.7149 -0.5803
  317MPD2    H2 4769   2.801   3.128  12.676  1.6848  0.0251 -0.6428
  317MPD2    H3 4770   2.876   3.235  12.886  0.1860  1.2923 -1.9259
  317MPD2     N 4771   3.103   2.854  13.018 -0.2175  0.0064  0.1463
  317MPD2    H5 4772   3.113   2.759  12.984  0.3857 -0.1764  0.8419
  317MPD2    N1 4773   2.882   2.869  12.604  0.0718  0.0298 -0.1129
  317MPD2    H7 4774   2.921   2.776  12.595  0.6241  0.3066 -0.5459
  318TMC3    C1 4775   3.236   2.778  13.196  0.0146  0.8351 -0.0689
  318TMC3    C2 4776   3.178   2.654  13.196  0.1334  0.4974  0.2212
  318TMC3    C3 4777   3.240   2.562  13.273  0.2682  0.1976 -0.4932
  318TMC3    C4 4778   3.346   2.804  13.268  0.0333 -0.5032  0.4954
  318TMC3    C5 4779   3.404   2.718  13.351  0.1832 -0.2522 -0.8233
  318TMC3    C6 4780   3.349   2.592  13.354  0.3039 -0.0175  0.0867
  318TMC3     C 4781   3.177   2.892  13.122  0.1230  0.0424  0.0421
  318TMC3     O 4782   3.203   3.002  13.169  0.1201  0.1763  0.5244
  318TMC3     H 4783   3.082   2.636  13.148  0.5780 -2.4442  0.4546
  318TMC3    H1 4784   3.398   2.899  13.258 -0.4979 -0.2218  0.4157
  318TMC3    H2 4785   3.376   2.512  13.422  3.2426  0.7650 -0.1846
  318TMC3    C7 4786   3.535   2.748  13.412  0.3997  0.1351  0.4995
  318TMC3    C8 4787   3.178   2.432  13.290  0.0579 -0.1658 -0.2690
  318TMC3    O1 4788   3.564   2.866  13.415 -0.5683  0.1998  0.5507
  318TMC3    O2 4789   3.241   2.351  13.359 -0.3470 -0.1175 -0.0904
  319MPD2     C 4790   4.179   4.709  16.873  0.8717  0.1347 -0.6991
  319MPD2    C1 4791   4.212   4.572  16.867  0.4372 -0.2541 -1.1005
  319MPD2    C2 4792   4.169   4.495  16.759  0.5371  0.0578 -0.0822
  319MPD2    C3 4793   4.099   4.559  16.662 -0.0159 -0.2598  0.2099
  319MPD2    C4 4794   4.076   4.695  16.671 -0.0471 -0.1091  0.1948
  319MPD2    C5 4795   4.112   0.051  16.774 -0.1033  0.0608 -0.6824
  319MPD2     H 4796   4.188   4.388  16.761 -3.4476 -0.6275  0.5037
  319MPD2    H1 4797   4.027   0.024  16.587  1.0149  3.1677  1.5055
  319MPD2    H2 4798   4.197   0.046  16.963  3.8703  1.1378 -1.9397
  319MPD2    H3 4799   4.084   0.156  16.779 -1.4500 -0.3925  1.0620
  319MPD2     N 4800   4.052   4.502  16.540  0.7312  0.3816  0.0276
  319MPD2    H5 4801   4.013   4.561  16.468 -0.1999  0.0714  0.2786
  319MPD2    N1 4802   4.281   4.513  16.975 -0.0380  1.1556 -0.1272
  319MPD2    H7 4803   4.267   4.413  16.986  4.1189  0.6398  0.5350
  320TMC3    C1 4804   3.986   4.339  16.383  0.1788 -0.2126  0.1683
  320TMC3    C2 4805   3.937   4.442  16.300  0.5778  0.3366 -0.3195
  320TMC3    C3 4806   3.913   4.406  16.168 -0.0849 -0.3226 -0.1086
  320TMC3    C4 4807   3.994   4.208  16.348  0.2279  0.1321  0.0828
  320TMC3    C5 4808   3.960   4.170  16.224 -0.2825 -0.7913 -0.5208
  320TMC3    C6 4809   3.936   4.274  16.128  0.2491 -0.1050  0.0159
  320TMC3     C 4810   4.050   4.369  16.509 -0.1069  0.1681 -0.2366
  320TMC3     O 4811   4.102   4.276  16.571 -0.0084 -0.4342  0.1657
  320TMC3     H 4812   3.941   4.547  16.327  1.0028  0.5000 -1.0139
  320TMC3    H1 4813   4.006   4.133  16.425 -0.4943  1.2561  1.2908
  320TMC3    H2 4814   3.910   4.234  16.031 -1.4604 -1.2709  0.9583
  320TMC3    C7 4815   4.016   4.046  16.169  0.3292  0.0546  0.1835
  320TMC3    C8 4816   3.834   4.500  16.089 -0.2163  0.2527 -0.3236
  320TMC3    O1 4817   4.008   4.028  16.046  0.0989  1.0043 -0.2875
  320TMC3    O2 4818   3.868   4.616  16.107 -0.2022 -0.3073  0.5573
  321TMC3    C1 4819   4.377   4.507  17.188  0.2116  0.2747  0.4642
  321TMC3    C2 4820   4.364   4.369  17.184 -0.2562  0.2368  0.1043
  321TMC3    C3 4821   4.365   4.309  17.311 -0.4302 -0.0719 -0.5478
  321TMC3    C4 4822   4.385   4.582  17.302 -0.6783 -0.1312 -0.6865
  321TMC3    C5 4823   4.392   4.509  17.423  0.0628  0.1485  0.0502
  321TMC3    C6 4824   4.364   4.381  17.428 -0.0266 -0.1401 -0.7118
  321TMC3     C 4825   4.350   4.579  17.067 -0.6502  0.2793 -0.9764
  321TMC3     O 4826   4.388   4.697  17.065  0.4498 -0.3021  0.1758
  321TMC3     H 4827   4.375   4.315  17.091 -0.3925 -2.3575  1.5840
  321TMC3    H1 4828   4.379   4.690  17.305 -2.6160 -0.3296  2.4070
  321TMC3    H2 4829   4.347   4.321  17.516  0.3070  0.8971  0.0563
  321TMC3    C7 4830   4.499   4.549  17.511 -0.3399 -0.0442 -0.5658
  321TMC3    C8 4831   4.448   4.197  17.325 -0.7053 -0.2392  0.1949
  321TMC3    O1 4832   4.530   4.665  17.514  0.1881 -0.9199 -0.7573
  321TMC3    O2 4833   4.511   4.192  17.431  0.2086 -0.0360 -0.0927
  322MPD2     C 4834   3.150   0.530  13.544  0.2767 -0.4388 -0.0808
  322MPD2    C1 4835   3.219   0.547  13.662  0.1459 -0.6212 -0.0520
  322MPD2    C2 4836   3.315   0.450  13.703  0.3794  0.1701  0.3901
  322MPD2    C3 4837   3.325   0.333  13.634 -0.3433  0.0743  0.4257
  322MPD2    C4 4838   3.262   0.317  13.514 -0.0544  0.1511 -0.0349
  322MPD2    C5 4839   3.176   0.412  13.475 -0.2530 -0.1469  0.3873
  322MPD2     H 4840   3.390   0.474  13.778  2.1676 -1.3111 -0.9095
  322MPD2    H1 4841   3.261   0.224  13.458 -0.9521 -0.9776  1.8722
  322MPD2    H2 4842   3.089   0.607  13.498  0.1072  0.2488  1.2792
  322MPD2    H3 4843   3.115   0.386  13.389  1.2983 -1.5354 -0.3091
  322MPD2     N 4844   3.420   0.240  13.682  0.4013  0.3907 -0.3357
  322MPD2    H5 4845   3.461   0.269  13.770 -1.6440  2.4034 -0.0700
  322MPD2    N1 4846   3.216   0.665  13.736 -0.0725 -0.4368  0.7628
  322MPD2    H7 4847   3.284   0.672  13.811 -0.9364  2.7497  1.2497
  323TMC3    C1 4848   3.186   0.877  13.821 -0.4778 -0.1067 -0.0530
  323TMC3    C2 4849   3.263   0.975  13.773 -0.0283 -0.0358  0.2361
  323TMC3    C3 4850   3.365   1.019  13.852 -0.3868  0.6199  0.0324
  323TMC3    C4 4851   3.213   0.815  13.938 -0.0809  0.3004 -0.0652
  323TMC3    C5 4852   3.318   0.860  14.013 -0.1158 -0.7789  0.4160
  323TMC3    C6 4853   3.399   0.965  13.973  0.7839 -0.0300 -0.1499
  323TMC3     C 4854   3.152   0.788  13.712  0.1005  0.6520 -0.8271
  323TMC3     O 4855   3.097   0.834  13.612  0.3518  0.1448  0.2385
  323TMC3     H 4856   3.230   1.020  13.680 -0.6298  0.4657  0.6937
  323TMC3    H1 4857   3.139   0.752  13.987  1.3014  0.0700  1.7322
  323TMC3    H2 4858   3.490   0.998  14.022  0.2997 -2.7648  2.6228
  323TMC3    C7 4859   3.374   0.745  14.096  0.5791  0.2801 -0.1058
  323TMC3    C8 4860   3.465   1.102  13.785  0.0506 -0.7469  0.2565
  323TMC3    O1 4861   3.335   0.631  14.072  0.5574  0.3847  0.5128
  323TMC3    O2 4862   3.536   1.174  13.854  0.1737  0.2241  0.1179
  324MPD2     C 4863   4.602   1.609  14.296 -0.1512  0.2889  0.1422
  324MPD2    C1 4864   4.630   1.733  14.247 -0.2720  0.1357  0.6176
  324MPD2    C2 4865   4.528   1.808  14.190  1.1374  0.4103  0.5224
  324MPD2    C3 4866   4.406   1.742  14.164 -0.7440 -0.4332 -0.0496
  324MPD2    C4 4867   4.384   1.612  14.200 -0.2212  0.3824 -0.1469
  324MPD2    C5 4868   4.486   1.551  14.263  0.0161 -0.7198 -0.4113
  324MPD2     H 4869   4.556   1.912  14.182 -2.5785  1.5249  1.9795
  324MPD2    H1 4870   4.286   1.568  14.189 -0.8788  1.2100  2.3362
  324MPD2    H2 4871   4.678   1.548  14.345  1.2486 -0.2149 -2.6684
  324MPD2    H3 4872   4.474   1.448  14.296  1.2056 -1.1197 -1.2262
  324MPD2     N 4873   4.300   1.810  14.100  0.5150 -0.2480 -0.2860
  324MPD2    H5 4874   4.217   1.751  14.098 -1.1279  2.0022  0.7076
  324MPD2    N1 4875   0.032   1.798  14.275 -0.4235 -0.5726 -0.2727
  324MPD2    H7 4876   0.035   1.889  14.230  0.9650 -0.2832  0.4092
  325TMC3    C1 4877   4.181   1.976  13.996  0.4451 -0.5310 -0.0345
  325TMC3    C2 4878   4.114   1.884  13.916 -0.7554  0.3577 -0.3488
  325TMC3    C3 4879   3.986   1.914  13.874 -0.1872 -0.1229 -0.4220
  325TMC3    C4 4880   4.136   2.098  14.027 -1.4724  0.1719 -0.4648
  325TMC3    C5 4881   4.005   2.114  13.991 -0.9111 -0.4294 -0.2482
  325TMC3    C6 4882   3.925   2.029  13.910 -0.4611 -0.1175 -0.0346
  325TMC3     C 4883   4.302   1.937  14.058  0.1327  0.2780 -0.4453
  325TMC3     O 4884   4.397   2.012  14.065  0.1754  0.2108 -0.2230
  325TMC3     H 4885   4.159   1.791  13.883 -1.7137 -1.0030  2.1648
  325TMC3    H1 4886   4.199   2.154  14.096 -0.2617 -3.2769  1.1916
  325TMC3    H2 4887   3.820   2.050  13.893 -0.7306 -0.4324  1.2375
  325TMC3    C7 4888   3.961   2.255  13.967  0.1920 -0.0771  0.4044
  325TMC3    C8 4889   3.916   1.826  13.785  0.0263 -0.9372  0.0949
  325TMC3    O1 4890   3.846   2.269  13.937  0.2807 -0.2103 -0.2497
  325TMC3    O2 4891   3.978   1.798  13.685 -0.7779  0.3370  0.1911
  326MPD2     C 4892   1.350   3.072  11.019  0.3592 -0.6927  0.8491
  326MPD2    C1 4893   1.349   3.029  10.885 -0.5718  0.1030  0.0444
  326MPD2    C2 4894   1.452   3.069  10.799 -0.2124 -0.0333 -0.9312
  326MPD2    C3 4895   1.554   3.157  10.843 -0.4089 -0.0322 -0.4941
  326MPD2    C4 4896   1.551   3.197  10.974 -0.6437 -0.0602  0.0067
  326MPD2    C5 4897   1.452   3.154  11.062 -0.2940 -0.6217 -0.2258
  326MPD2     H 4898   1.450   3.028  10.699  0.5294  1.1101 -1.4120
  326MPD2    H1 4899   1.623   3.265  11.019 -1.6506  0.2008  1.2291
  326MPD2    H2 4900   1.272   3.049  11.091  0.0460  2.1730  1.4131
  326MPD2    H3 4901   1.451   3.187  11.166 -1.3504 -1.2662 -0.0192
  326MPD2     N 4902   1.648   3.217  10.751 -0.5977 -0.0111 -0.1199
  326MPD2    H5 4903   1.719   3.283  10.782  0.2211 -1.0877  0.2897
  326MPD2    N1 4904   1.249   2.946  10.827  0.3721  0.5752  0.8901
  326MPD2    H7 4905   1.270   2.908  10.736  1.0089  0.2562  1.1641
  327TMC3    C1 4906   1.058   2.802  10.802  0.3698 -0.3390 -0.4935
  327TMC3    C2 4907   0.973   2.848  10.704 -0.1091  0.0785  0.7893
  327TMC3    C3 4908   0.948   2.769  10.595 -0.2258 -0.2570  0.6319
  327TMC3    C4 4909   1.112   2.680  10.791 -0.4891  0.0688  0.8309
  327TMC3    C5 4910   1.103   2.608  10.671  0.1018  0.1879  0.4962
  327TMC3    C6 4911   1.003   2.648  10.583  0.5222 -0.4135 -0.1758
  327TMC3     C 4912   1.135   2.897  10.888 -0.8555 -0.1473  0.4311
  327TMC3     O 4913   1.084   2.937  10.990  0.1311  0.0875 -0.4905
  327TMC3     H 4914   0.953   2.954  10.709 -0.3726  0.1680 -1.8307
  327TMC3    H1 4915   1.183   2.651  10.868  0.0590  2.4321  1.2227
  327TMC3    H2 4916   0.978   2.586  10.498  0.0166 -1.4625  0.7281
  327TMC3    C7 4917   1.222   2.601  10.597 -0.4541 -0.5211 -0.0860
  327TMC3    C8 4918   0.904   2.842  10.478  0.6314 -0.7209  0.0446
  327TMC3    O1 4919   1.209   2.639  10.481 -0.4629  0.2937 -0.1950
  327TMC3    O2 4920   0.815   2.928  10.490  0.0150  0.0936  0.0155
  328MPD2     C 4921   4.296   3.629  16.876  0.3657  0.2200 -0.5786
  328MPD2    C1 4922   4.192   3.537  16.868 -0.2552 -0.3238  0.6150
  328MPD2    C2 4923   4.085   3.565  16.786  0.3020 -0.8530  0.3697
  328MPD2    C3 4924   4.078   3.691  16.722  0.1424 -1.1435 -0.5492
  328MPD2    C4 4925   4.180   3.780  16.736  0.2377  0.2218 -0.1218
  328MPD2    C5 4926   4.292   3.744  16.807 -0.2602 -0.5781  0.5154
  328MPD2     H 4927   4.000   3.497  16.781 -0.3191 -0.1266  1.1181
  328MPD2    H1 4928   4.189   3.874  16.683 -3.4874  0.6655  0.0454
  328MPD2    H2 4929   4.386   3.613  16.935 -0.7548 -0.7137  0.8864
  328MPD2    H3 4930   4.381   3.805  16.811  1.4893 -2.9727 -1.3805
  328MPD2     N 4931   3.963   3.722  16.645  0.2089  0.1708  0.2866
  328MPD2    H5 4932   3.894   3.647  16.645  0.0629  0.2962  1.3747
  328MPD2    N1 4933   4.195   3.435  16.966  0.9101  0.0359  0.8278
  328MPD2    H7 4934   4.258   3.447  17.045  0.3450 -1.4453  1.4912
  329TMC3    C1 4935   4.157   3.237  17.084 -0.2682  0.4872  0.4370
  329TMC3    C2 4936   4.195   3.294  17.206  0.2734  0.1187 -0.0185
  329TMC3    C3 4937   4.207   3.204  17.308 -0.5872 -0.3516 -0.6181
  329TMC3    C4 4938   4.135   3.101  17.068 -0.2611 -0.9888 -0.1830
  329TMC3    C5 4939   4.159   3.022  17.176 -0.0190 -0.3561 -0.2138
  329TMC3    C6 4940   4.185   3.069  17.298 -0.4942  0.1519  0.1895
  329TMC3     C 4941   4.128   3.316  16.971 -0.5850  0.1865  0.0306
  329TMC3     O 4942   4.070   3.270  16.875 -0.7361  0.4078  0.2925
  329TMC3     H 4943   4.221   3.399  17.217  0.9677 -0.2279  1.7125
  329TMC3    H1 4944   4.118   3.054  16.971 -0.9166  0.4675 -0.7753
  329TMC3    H2 4945   4.204   2.998  17.378  0.1362  0.1710  0.0525
  329TMC3    C7 4946   4.183   2.882  17.160  0.5056  1.0198 -0.1230
  329TMC3    C8 4947   4.211   3.252  17.440  0.3793  0.2850 -0.1834
  329TMC3    O1 4948   4.161   2.820  17.264 -0.0613  0.5646  0.1252
  329TMC3    O2 4949   4.230   3.173  17.529 -0.3300 -0.0652  0.1328
  330TMC3    C1 4950   2.194   2.510   9.797  0.4358 -0.4385  0.9476
  330TMC3    C2 4951   2.137   2.446   9.692  0.2019 -0.0343 -0.1369
  330TMC3    C3 4952   2.100   2.312   9.708  0.0334  0.1255  0.7588
  330TMC3    C4 4953   2.236   2.439   9.905  0.3253 -0.0396 -0.7529
  330TMC3    C5 4954   2.219   2.302   9.903  0.0329  0.6113  0.3259
  330TMC3    C6 4955   2.144   2.233   9.812 -0.1620 -0.4462  0.5701
  330TMC3     C 4956   2.137   2.639   9.830  0.2079  0.3685 -0.0470
  330TMC3     O 4957   2.177   2.688   9.933  0.6458  0.1994 -0.2616
  330TMC3     H 4958   2.084   2.498   9.613  0.3290  2.1363  1.2060
  330TMC3    H1 4959   2.297   2.496   9.974  2.4459 -2.8544 -0.3211
  330TMC3    H2 4960   2.118   2.128   9.815  0.4569 -0.6949 -2.0577
  330TMC3    C7 4961   2.261   2.230  10.023  0.4130 -0.1781 -0.6158
  330TMC3    C8 4962   2.013   2.263   9.606  0.5029 -0.2858  0.0825
  330TMC3    O1 4963   2.301   2.286  10.125 -0.7007 -0.6969 -0.1422
  330TMC3    O2 4964   2.017   2.318   9.495 -0.7606  0.2762  0.2221
  331MPD2     C 4965   3.906   1.247  12.690  0.3334  0.7128 -0.1497
  331MPD2    C1 4966   4.000   1.291  12.591  0.0173  0.3227  0.1777
  331MPD2    C2 4967   4.048   1.198  12.495  0.5448  0.1452  0.3901
  331MPD2    C3 4968   4.015   1.064  12.504 -0.2827  0.3912  0.3056
  331MPD2    C4 4969   3.926   1.019  12.607 -0.9938 -0.0412 -0.5401
  331MPD2    C5 4970   3.869   1.113  12.698 -0.3471  0.5596  0.1848
  331MPD2     H 4971   4.115   1.233  12.416  0.0385 -1.8318 -0.9186
  331MPD2    H1 4972   3.903   0.914  12.617 -4.2741  0.7967  0.7682
  331MPD2    H2 4973   3.858   1.314  12.760  0.9768 -0.2487  1.2207
  331MPD2    H3 4974   3.796   1.089  12.774  0.7706  0.8325  1.3371
  331MPD2     N 4975   4.092   0.978  12.418  0.2496 -1.2110 -0.0829
  331MPD2    H5 4976   4.152   1.033  12.359 -0.6488  0.5294  0.6032
  331MPD2    N1 4977   4.050   1.423  12.583 -0.1936  0.1770 -0.3019
  331MPD2    H7 4978   4.109   1.443  12.503  2.3253 -3.2186  0.7314
  332TMC3    C1 4979   4.218   0.794  12.361  0.0171  0.4304 -0.1206
  332TMC3    C2 4980   4.264   0.869  12.255 -0.4216 -0.3580 -0.3843
  332TMC3    C3 4981   4.400   0.856  12.235 -0.5207  0.6599  0.1625
  332TMC3    C4 4982   4.295   0.699  12.424  0.1749  0.3224 -0.1173
  332TMC3    C5 4983   4.430   0.701  12.393 -0.3262  0.0380  0.5168
  332TMC3    C6 4984   4.487   0.770  12.295  0.1489 -0.4951 -0.8716
  332TMC3     C 4985   4.106   0.848  12.436 -0.0712  0.2793  0.0513
  332TMC3     O 4986   4.048   0.767  12.508  0.3266 -0.1705  0.2859
  332TMC3     H 4987   4.207   0.942  12.200  0.8742  0.1503 -1.0551
  332TMC3    H1 4988   4.258   0.633  12.501 -0.9215  1.7324  0.5686
  332TMC3    H2 4989   4.577   0.741  12.241  1.1001 -0.3921  0.6444
  332TMC3    C7 4990   4.501   0.585  12.443 -0.0620 -0.2960 -0.6367
  332TMC3    C8 4991   4.471   0.948  12.145  0.3051  0.1929  0.4568
  332TMC3    O1 4992   4.441   0.489  12.490  0.4828  0.3994  0.6988
  332TMC3    O2 4993   4.581   0.987  12.171  0.4592 -0.2302 -0.5151
  333MPD2     C 4994   4.574   1.519  11.230 -0.1925  0.0370 -0.4565
  333MPD2    C1 4995   4.617   1.401  11.180  1.1018 -0.7768  0.1689
  333MPD2    C2 4996   4.536   1.295  11.197  0.3571 -0.5993  0.1984
  333MPD2    C3 4997   4.422   1.300  11.279 -0.0208  0.2943  1.3694
  333MPD2    C4 4998   4.387   1.416  11.336  0.4819 -0.2820 -0.8261
  333MPD2    C5 4999   4.460   1.528  11.303 -0.8000 -0.1273  0.1789
  333MPD2     H 5000   4.557   1.203  11.144  0.1403 -1.3302  1.3824
  333MPD2    H1 5001   4.298   1.418  11.397  0.9848 -1.7330 -0.0371
  333MPD2    H2 5002   4.637   1.607  11.223 -0.7417  0.4240 -0.4296
  333MPD2    H3 5003   4.426   1.629  11.321  0.6217  0.8403 -2.4562
  333MPD2     N 5004   4.346   1.183  11.304 -0.2062  0.5946  0.2875
  333MPD2    H5 5005   4.376   1.109  11.241 -1.9092  0.8775 -0.8544
  333MPD2    N1 5006   0.014   1.404  11.106  0.1405  0.1368 -0.0850
  333MPD2    H7 5007   0.054   1.494  11.080 -1.0365  0.6459 -0.1161
  334TMC3    C1 5008   0.181   1.326  10.977  0.1990 -0.2499 -0.2211
  334TMC3    C2 5009   0.291   1.248  10.978  0.1983 -0.0516  0.2056
  334TMC3    C3 5010   0.409   1.306  10.938  0.2684 -0.0574  0.2972
  334TMC3    C4 5011   0.185   1.453  10.919  0.1606  0.5125  0.9666
  334TMC3    C5 5012   0.310   1.501  10.883 -1.1895 -0.2412 -0.0734
  334TMC3    C6 5013   0.426   1.434  10.894 -0.1047  0.1604  0.6503
  334TMC3     C 5014   0.065   1.289  11.046 -0.6278  0.0112 -1.0951
  334TMC3     O 5015   0.072   1.173  11.081 -0.1451 -0.2617  0.2612
  334TMC3     H 5016   0.288   1.143  11.002  2.2457 -0.3700 -0.9122
  334TMC3    H1 5017   0.094   1.511  10.903 -0.5235 -0.1899  2.2741
  334TMC3    H2 5018   0.518   1.486  10.874  0.1108 -0.8725 -1.1512
  334TMC3    C7 5019   0.331   1.648  10.877 -0.0474 -0.2491 -0.4633
  334TMC3    C8 5020   0.527   1.209  10.920  0.0027 -0.3122 -0.7473
  334TMC3    O1 5021   0.447   1.692  10.881 -0.1672 -0.5481  0.3057
  334TMC3    O2 5022   0.498   1.088  10.926 -0.8007 -0.5700  0.3861
  335TMC3    C1 5023   0.174   2.736  17.406 -0.0125  0.1794 -0.2577
  335TMC3    C2 5024   0.147   2.655  17.295 -0.0147 -0.3757  0.0805
  335TMC3    C3 5025   0.205   2.687  17.174 -0.8098  0.6712  0.6270
  335TMC3    C4 5026   0.261   2.843  17.396 -0.5387  0.7226  0.0234
  335TMC3    C5 5027   0.326   2.860  17.274 -0.5407  0.2581 -0.2599
  335TMC3    C6 5028   0.299   2.788  17.165 -0.4892 -0.3286 -0.3691
  335TMC3     C 5029   0.125   2.707  17.536 -0.5746  0.4747 -0.7872
  335TMC3     O 5030   0.165   2.791  17.615  0.0309  0.2016  0.0744
  335TMC3     H 5031   0.052   2.604  17.299 -0.7916  1.0215 -0.5688
  335TMC3    H1 5032   0.309   2.890  17.481 -0.9529  1.7866 -0.3269
  335TMC3    H2 5033   0.365   2.805  17.080  0.9452 -1.7205  0.4581
  335TMC3    C7 5034   0.462   2.897  17.282 -0.3134  0.2044  0.4304
  335TMC3    C8 5035   0.196   2.594  17.063  0.1964 -0.9604 -0.2857
  335TMC3    O1 5036   0.537   2.806  17.274 -0.2047  0.1497  0.8013
  335TMC3    O2 5037   0.260   2.621  16.958 -0.6200 -0.3003 -0.4765
  336MPD2     C 5038   4.015   1.043  16.318 -0.1459  0.0045  0.1707
  336MPD2    C1 5039   4.132   1.013  16.257 -0.9022  0.4221  0.2734
  336MPD2    C2 5040   4.204   0.905  16.305  0.9156 -0.6421  0.4550
  336MPD2    C3 5041   4.156   0.819  16.396 -0.4371 -0.1859 -0.0354
  336MPD2    C4 5042   4.040   0.850  16.465 -0.1816 -0.7777 -0.8693
  336MPD2    C5 5043   3.970   0.966  16.425  0.4421 -0.1485  0.4724
  336MPD2     H 5044   4.300   0.881  16.259  2.6793  2.0067  2.7051
  336MPD2    H1 5045   3.998   0.795  16.548 -0.8715  0.3221 -0.4860
  336MPD2    H2 5046   3.956   1.130  16.291  1.7751  0.9372 -1.0533
  336MPD2    H3 5047   3.876   1.003  16.465  1.2621  1.3933  0.9639
  336MPD2     N 5048   4.221   0.704  16.438  0.7073 -0.4147 -0.0765
  336MPD2    H5 5049   4.171   0.637  16.496  1.4203 -0.4574  0.4885
  336MPD2    N1 5050   4.187   1.075  16.146 -0.8594  0.4979 -0.2193
  336MPD2    H7 5051   4.268   1.030  16.104 -1.9169 -1.1100 -0.5434
  337TMC3    C1 5052   4.179   1.180  15.945  0.1476  0.6591 -0.0102
  337TMC3    C2 5053   4.090   1.232  15.852  0.7156 -0.0935  0.2042
  337TMC3    C3 5054   4.076   1.177  15.733  0.2058 -0.6533 -0.6379
  337TMC3    C4 5055   4.266   1.088  15.906 -0.1859 -0.1916  0.1153
  337TMC3    C5 5056   4.259   1.044  15.772 -0.0768  0.2157  0.3260
  337TMC3    C6 5057   4.158   1.083  15.684  0.0887  0.1328  0.2063
  337TMC3     C 5058   4.126   1.172  16.076 -0.0869 -0.1340 -0.0161
  337TMC3     O 5059   4.019   1.223  16.102 -0.3914  0.5220  0.0084
  337TMC3     H 5060   4.018   1.308  15.880  0.1177 -0.4472 -0.3691
  337TMC3    H1 5061   4.341   1.038  15.967  0.9434 -0.6135 -1.6284
  337TMC3    H2 5062   4.163   1.055  15.579 -0.7984 -0.6351  0.3694
  337TMC3    C7 5063   4.378   0.981  15.717  0.0643  0.0128 -0.1819
  337TMC3    C8 5064   3.945   1.194  15.675 -0.2570 -0.2768 -0.2028
  337TMC3    O1 5065   4.369   0.905  15.620 -0.6033  0.2688 -0.1788
  337TMC3    O2 5066   3.882   1.299  15.699  0.2697 -0.0438 -0.0348
  338MPD2     C 5067   4.081   4.068   0.725  0.8199  0.0225  0.3283
  338MPD2    C1 5068   4.106   4.195   0.754 -0.6623 -0.1774  0.0813
  338MPD2    C2 5069   4.003   4.271   0.801 -0.4185  0.5110 -0.9558
  338MPD2    C3 5070   3.877   4.219   0.832  0.5417  1.3919  0.4395
  338MPD2    C4 5071   3.855   4.085   0.810  0.9595 -0.4216  1.3928
  338MPD2    C5 5072   3.958   4.013   0.753 -0.5083 -0.1462  0.1121
  338MPD2     H 5073   4.029   4.374   0.824  1.0318  0.1452 -0.9721
  338MPD2    H1 5074   3.758   4.039   0.823  0.0873  1.0031 -0.0279
  338MPD2    H2 5075   4.153   4.003   0.675  0.4747  1.1362 -1.5917
  338MPD2    H3 5076   3.935   3.909   0.732 -0.5213  0.0261 -0.7010
  338MPD2     N 5077   3.785   4.303   0.895 -0.4547  0.0908 -0.7070
  338MPD2    H5 5078   3.819   4.396   0.918 -1.6516  0.8061 -1.8254
  338MPD2    N1 5079   4.230   4.244   0.716  0.1987 -0.7355  0.3550
  338MPD2    H7 5080   4.302   4.184   0.677 -0.6738 -1.6937  0.2028
  339TMC3    C1 5081   3.620   4.373   1.039 -0.1208  0.3924  0.2121
  339TMC3    C2 5082   3.551   4.342   1.151 -0.0238  0.3354  0.4138
  339TMC3    C3 5083   3.475   4.433   1.219  0.0222  0.1559 -0.4814
  339TMC3    C4 5084   3.625   4.500   0.990  0.8395 -0.0495  0.3819
  339TMC3    C5 5085   3.536   4.586   1.046  0.2387  0.0405  0.6524
  339TMC3    C6 5086   3.457   4.554   1.158 -0.1415  0.4038 -0.6909
  339TMC3     C 5087   3.673   4.264   0.958 -0.3314 -1.1456 -0.9930
  339TMC3     O 5088   3.623   4.154   0.964 -0.5771  0.2385  0.2442
  339TMC3     H 5089   3.540   4.236   1.172  0.2736  0.3700  0.7630
  339TMC3    H1 5090   3.678   4.529   0.900 -0.3685  0.4506 -0.1740
  339TMC3    H2 5091   3.377   4.617   1.196  1.0313  0.2632  1.9813
  339TMC3    C7 5092   3.530   4.720   0.986 -0.2632 -0.1425  0.4563
  339TMC3    C8 5093   3.410   4.406   1.345 -1.5773  0.2141  0.0289
  339TMC3    O1 5094   3.639   0.039   0.947 -0.3054 -0.5837  0.0596
  339TMC3    O2 5095   3.320   4.481   1.389 -0.4535 -0.2219 -0.5257
  340MPD2     C 5096   4.272   1.943  10.305 -0.3133  0.6975 -0.0380
  340MPD2    C1 5097   4.393   1.910  10.256  0.2042  0.8764 -0.7354
  340MPD2    C2 5098   4.508   1.943  10.326  0.0626  0.0567  0.0730
  340MPD2    C3 5099   4.495   2.035  10.435  1.0325 -0.1475 -0.5902
  340MPD2    C4 5100   4.372   2.069  10.483 -0.3099  0.0937  0.7189
  340MPD2    C5 5101   4.268   2.023  10.414  1.1389  0.2884  0.8730
  340MPD2     H 5102   4.608   1.919  10.293  1.2614  2.9606  1.5150
  340MPD2    H1 5103   4.358   2.144  10.560 -0.3656 -1.1600  1.9134
  340MPD2    H2 5104   4.180   1.920  10.253 -0.9807  0.9735  1.0220
  340MPD2    H3 5105   4.170   2.049  10.452 -0.5148 -1.3443 -2.2227
  340MPD2     N 5106   4.605   2.106  10.494 -0.3348  0.0270 -0.0692
  340MPD2    H5 5107   4.590   2.188  10.552  0.7292  0.2903 -0.1667
  340MPD2    N1 5108   4.396   1.831  10.139 -0.1318 -0.0830  0.0271
  340MPD2    H7 5109   4.311   1.785  10.107 -0.2759  0.9622 -1.1059
  341TMC3    C1 5110   4.486   1.726   9.944 -0.1396  0.1498  0.2076
  341TMC3    C2 5111   4.358   1.703   9.900  0.5336  0.9079 -0.3644
  341TMC3    C3 5112   4.342   1.648   9.776 -0.3408  0.5633 -0.2968
  341TMC3    C4 5113   4.597   1.704   9.862 -0.2798  0.2058 -0.0986
  341TMC3    C5 5114   4.579   1.647   9.744  0.1838  0.3674  0.6339
  341TMC3    C6 5115   4.455   1.606   9.700 -0.2820  0.1412  0.0249
  341TMC3     C 5116   4.512   1.797  10.063  0.0204  0.6947  0.2200
  341TMC3     O 5117   4.628   1.837  10.080  0.5148 -0.1434 -0.0925
  341TMC3     H 5118   4.268   1.715   9.960  0.9430  0.6042  0.3031
  341TMC3    H1 5119   4.695   1.729   9.900 -0.3755  1.6653 -0.8222
  341TMC3    H2 5120   4.443   1.551   9.607 -0.6291  1.5063 -0.7452
  341TMC3    C7 5121   4.689   1.634   9.658 -0.0732  0.1782 -0.7024
  341TMC3    C8 5122   4.208   1.648   9.718 -0.4798  0.3639  0.8709
  341TMC3    O1 5123   0.075   1.637   9.711  0.0273 -0.0409 -0.0319
  341TMC3    O2 5124   4.113   1.655   9.800  0.0466 -0.8941 -1.1102
  342MPD2     C 5125   2.358   1.536  17.634  0.3152  0.1353 -0.3653
  342MPD2    C1 5126   2.485   1.506  17.586 -0.0745 -0.3867  0.5327
  342MPD2    C2 5127   2.567   1.606  17.555 -0.0529  0.5060  0.4258
  342MPD2    C3 5128   2.523   1.737  17.539 -0.5855 -0.1451  0.1594
  342MPD2    C4 5129   2.395   1.765  17.587  0.2053 -0.2704  0.2583
  342MPD2    C5 5130   2.319   1.664  17.638  0.0917 -0.3339  0.2933
  342MPD2     H 5131   2.668   1.580  17.526 -0.4086 -0.5334  0.1236
  342MPD2    H1 5132   2.361   1.868  17.585  0.2959 -0.2437  0.0952
  342MPD2    H2 5133   2.296   1.464   0.001  0.1144 -0.0643 -0.8894
  342MPD2    H3 5134   2.223   1.682   0.001  0.3727 -0.8534  1.0666
  342MPD2     N 5135   2.606   1.838  17.481  0.1893  0.6413  0.5155
  342MPD2    H5 5136   2.565   1.931  17.481 -1.2978 -0.0126  0.6210
  342MPD2    N1 5137   2.531   1.372  17.568 -0.2810 -0.6250 -1.0442
  342MPD2    H7 5138   2.623   1.359  17.527 -0.0388 -1.3882 -0.2535
  343TMC3    C1 5139   2.550   1.137  17.561  0.8820 -0.6136  0.3512
  343TMC3    C2 5140   2.658   1.155  17.471 -0.2532  0.0622 -0.6541
  343TMC3    C3 5141   2.693   1.048  17.393 -0.7574 -0.1733 -0.2513
  343TMC3    C4 5142   2.500   1.011  17.583  0.3198  0.0566  0.0056
  343TMC3    C5 5143   2.541   0.910  17.507  0.2179  0.8503  0.2661
  343TMC3    C6 5144   2.634   0.927  17.411  0.2357  0.8232  0.4057
  343TMC3     C 5145   2.475   1.255  17.613 -0.7045 -0.8312  0.4114
  343TMC3     O 5146   2.391   1.242   0.014  0.0888  0.5790  0.1539
  343TMC3     H 5147   2.715   1.247  17.460  0.6158 -0.4263 -0.1678
  343TMC3    H1 5148   2.429   0.994  17.663 -0.7831  1.7996 -0.5978
  343TMC3    H2 5149   2.661   0.838  17.355 -1.9689  0.0573  0.5602
  343TMC3    C7 5150   2.480   0.780  17.518 -0.3228  0.0518 -0.0680
  343TMC3    C8 5151   2.837   1.038  17.377 -0.1329 -0.5912  0.3215
  343TMC3    O1 5152   2.481   0.711  17.414  0.5079 -0.5645  0.4116
  343TMC3    O2 5153   2.912   1.095  17.453  0.1530 -0.0066 -0.4849
  344MPD2     C 5154   3.657   0.820  10.815 -0.4032  0.5109  0.8839
  344MPD2    C1 5155   3.536   0.845  10.752  0.1290  0.8098  0.1826
  344MPD2    C2 5156   3.523   0.946  10.656 -0.5953  0.4239 -0.4508
  344MPD2    C3 5157   3.634   1.031  10.632  0.3291  0.8981 -0.1881
  344MPD2    C4 5158   3.747   1.004  10.696  0.1319  0.3928  0.1744
  344MPD2    C5 5159   3.765   0.899  10.786  0.1663  0.3115 -0.0384
  344MPD2     H 5160   3.425   0.961  10.611 -0.5709  1.9467  0.0038
  344MPD2    H1 5161   3.826   1.074  10.668 -0.5013  1.0172 -0.0526
  344MPD2    H2 5162   3.673   0.746  10.893  0.4019  1.3141  1.4760
  344MPD2    H3 5163   3.858   0.898  10.842 -0.0948 -2.1924  0.3579
  344MPD2     N 5164   3.622   1.142  10.541 -0.1879  0.6559  0.9480
  344MPD2    H5 5165   3.710   1.168  10.499 -1.1662  1.7650 -0.4249
  344MPD2    N1 5166   3.421   0.762  10.768  0.7741  0.2048 -0.0589
  344MPD2    H7 5167   3.334   0.795  10.727  0.8948 -0.5440 -0.9321
  345TMC3    C1 5168   3.519   1.273  10.379  0.1688  0.4171  0.0683
  345TMC3    C2 5169   3.623   1.255  10.289  0.7844  0.3266 -0.3202
  345TMC3    C3 5170   3.637   1.332  10.173  0.0684  0.2864 -0.1085
  345TMC3    C4 5171   3.427   1.364  10.349  0.3704 -1.0258 -0.4226
  345TMC3    C5 5172   3.443   1.442  10.228  0.1729 -0.0841 -0.1091
  345TMC3    C6 5173   3.553   1.432  10.151  0.1134 -0.2101  0.6901
  345TMC3     C 5174   3.503   1.187  10.490  0.7787 -0.1875 -0.3623
  345TMC3     O 5175   3.390   1.179  10.540 -0.1408 -0.5551  0.1655
  345TMC3     H 5176   3.700   1.180  10.304  0.7580  0.5192  0.7478
  345TMC3    H1 5177   3.357   1.390  10.427  0.5156  0.1019 -0.6679
  345TMC3    H2 5178   3.573   1.505  10.072 -0.2125  0.2692  1.0491
  345TMC3    C7 5179   3.352   1.541  10.197  0.0572 -0.5697  0.2281
  345TMC3    C8 5180   3.773   1.343  10.130  0.8590  0.2005 -0.2554
  345TMC3    O1 5181   3.394   1.639  10.134  0.2377 -0.1877  0.8267
  345TMC3    O2 5182   3.863   1.326  10.214 -0.0631 -0.2726 -0.2230
  346MPD2     C 5183   2.920   2.466  14.156 -0.3260  0.9335  0.2320
  346MPD2    C1 5184   3.022   2.399  14.091  0.0074 -0.7286 -0.2361
  346MPD2    C2 5185   3.152   2.456  14.092 -0.1834 -0.1646 -0.3520
  346MPD2    C3 5186   3.164   2.588  14.126  0.1468  0.3269  0.5000
  346MPD2    C4 5187   3.060   2.656  14.185  0.7424 -0.1214  0.1140
  346MPD2    C5 5188   2.937   2.593  14.205  0.0999  0.1902  0.2595
  346MPD2     H 5189   3.235   2.400  14.050 -0.1549 -1.5022  1.5067
  346MPD2    H1 5190   3.077   2.745  14.243  0.0944 -0.0015  0.1242
  346MPD2    H2 5191   2.820   2.425  14.166 -1.1694  2.5544 -1.7529
  346MPD2    H3 5192   2.863   2.646  14.265 -2.0588 -1.0739 -1.2711
  346MPD2     N 5193   3.289   2.650  14.118  0.0573  0.0826 -0.1655
  346MPD2    H5 5194   3.370   2.596  14.088  0.3233  0.5728 -0.3414
  346MPD2    N1 5195   2.998   2.286  14.010  0.2324  0.2221  0.2965
  346MPD2    H7 5196   3.074   2.236  13.965  0.4221  1.4702 -0.7682
  347TMC3    C1 5197   3.443   2.811  14.116 -0.0889 -0.3624  0.4151
  347TMC3    C2 5198   3.504   2.774  13.996 -0.6592  0.7206  0.7038
  347TMC3    C3 5199   3.631   2.819  13.985  0.5804  0.0312 -0.2177
  347TMC3    C4 5200   3.495   2.892  14.209 -0.3889  0.2543  0.0033
  347TMC3    C5 5201   3.625   2.933  14.187 -0.9158  0.2540 -0.0035
  347TMC3    C6 5202   3.687   2.903  14.075  0.4624  0.1439 -0.2087
  347TMC3     C 5203   3.305   2.786  14.130  0.6524  0.2683  0.4990
  347TMC3     O 5204   3.232   2.878  14.159 -0.0023  0.2368 -0.0444
  347TMC3     H 5205   3.455   2.722  13.915  1.8339 -2.3045  1.1199
  347TMC3    H1 5206   3.448   2.901  14.306 -1.1816 -1.6156 -0.2218
  347TMC3    H2 5207   3.787   2.944  14.066 -0.7983  3.4214  0.7644
  347TMC3    C7 5208   3.698   2.986  14.303 -0.1659 -0.6704  0.3705
  347TMC3    C8 5209   3.715   2.719  13.924 -0.1765 -0.4593  0.2187
  347TMC3    O1 5210   3.670   2.952  14.412 -0.2968 -0.2191  0.4669
  347TMC3    O2 5211   3.667   2.609  13.907  0.7757  0.5301 -0.5111
  348MPD2     C 5212   2.306   1.805  12.034 -0.7976  0.4758 -0.4102
  348MPD2    C1 5213   2.268   1.761  11.905 -0.2889 -0.5583 -0.3303
  348MPD2    C2 5214   2.226   1.850  11.817  0.9162  0.3903  1.0520
  348MPD2    C3 5215   2.205   1.986  11.847  0.2252  0.5732  0.8169
  348MPD2    C4 5216   2.262   2.036  11.967 -0.5837  0.3443 -0.0030
  348MPD2    C5 5217   2.294   1.939  12.060  0.9367 -1.0277 -0.6328
  348MPD2     H 5218   2.210   1.819  11.714 -0.6416  0.8500  1.1473
  348MPD2    H1 5219   2.279   2.141  11.986 -0.6225  0.6377 -1.6345
  348MPD2    H2 5220   2.363   1.746  12.105 -0.5665  1.4220  0.1831
  348MPD2    H3 5221   2.329   1.972  12.157 -0.7769 -0.3308 -0.2618
  348MPD2     N 5222   2.161   2.075  11.744  0.2222 -0.5009  0.3860
  348MPD2    H5 5223   2.141   2.030  11.655  0.4482  0.0423  0.0566
  348MPD2    N1 5224   2.264   1.623  11.867  0.4749  0.0186 -0.0615
  348MPD2    H7 5225   2.222   1.602  11.777 -2.9115  1.9625  1.0641
  349TMC3    C1 5226   2.274   1.388  11.896  0.1011  0.4453  0.0591
  349TMC3    C2 5227   2.335   1.281  11.946  0.3094 -0.6620 -0.2258
  349TMC3    C3 5228   2.294   1.162  11.914  0.3881  0.2098  0.7471
  349TMC3    C4 5229   2.168   1.373  11.814 -0.0657 -0.5360  0.0015
  349TMC3    C5 5230   2.139   1.248  11.770 -0.7297 -0.4791 -0.2055
  349TMC3    C6 5231   2.191   1.131  11.822  0.5960 -0.4244 -0.4076
  349TMC3     C 5232   2.314   1.521  11.944 -0.1771  0.4669  0.3110
  349TMC3     O 5233   2.391   1.523  12.040 -0.0041  0.1898 -0.3974
  349TMC3     H 5234   2.429   1.292  11.998 -0.2308 -1.5917  0.9415
  349TMC3    H1 5235   2.119   1.464  11.782  2.4925  0.1882 -1.8980
  349TMC3    H2 5236   2.154   1.032  11.800 -0.0022 -0.0270 -1.1987
  349TMC3    C7 5237   2.042   1.245  11.658 -0.5052  0.9788 -0.3119
  349TMC3    C8 5238   2.351   1.062  11.997 -0.1708 -0.3752  0.3247
  349TMC3    O1 5239   1.992   1.353  11.633  0.3460  0.6117 -0.1617
  349TMC3    O2 5240   2.267   1.001  12.063 -1.2096 -0.1215  0.1261
  350MPD2     C 5241   1.351   0.083  10.327 -0.8124 -0.2540  0.6022
  350MPD2    C1 5242   1.238   0.021  10.373 -0.3789  0.4454 -0.3592
  350MPD2    C2 5243   1.198   0.028  10.511  0.2758 -0.7786  0.5694
  350MPD2    C3 5244   1.267   0.114  10.597 -0.3482  0.2123  0.3593
  350MPD2    C4 5245   1.375   0.187  10.544  0.4613 -0.2990 -0.4243
  350MPD2    C5 5246   1.417   0.164  10.419  0.0189  0.3078  0.2461
  350MPD2     H 5247   1.106   4.700  10.542 -0.0190 -1.2635 -1.0325
  350MPD2    H1 5248   1.430   0.264  10.597  0.9099  0.0012 -1.3279
  350MPD2    H2 5249   1.392   0.069  10.228 -1.7047  0.1759  0.1784
  350MPD2    H3 5250   1.508   0.214  10.390 -0.3472 -0.1450 -1.6487
  350MPD2     N 5251   1.223   0.130  10.728 -0.1537 -0.1996 -0.2862
  350MPD2    H5 5252   1.153   0.065  10.763  0.1070 -1.7004 -2.5693
  350MPD2    N1 5253   1.154   4.659  10.290  0.3203 -0.0050 -0.1477
  350MPD2    H7 5254   1.074   4.613  10.334  0.9737  0.9979  2.1128
  351TMC3    C1 5255   1.069   4.566  10.089  0.2344 -0.2259  0.1613
  351TMC3    C2 5256   1.086   4.527   9.964 -0.5977 -0.4643  0.3114
  351TMC3    C3 5257   0.981   4.477   9.893 -0.0960  0.6826 -0.1476
  351TMC3    C4 5258   0.942   4.569  10.150 -0.1804 -0.5470 -0.6930
  351TMC3    C5 5259   0.840   4.505  10.081  0.5766 -0.5585 -0.2753
  351TMC3    C6 5260   0.857   4.464   9.948  0.6831 -0.3218  0.0489
  351TMC3     C 5261   1.183   4.636  10.155  0.4300  0.5812 -0.5279
  351TMC3     O 5262   1.275   4.677  10.081  0.3803  0.3119  0.0722
  351TMC3     H 5263   1.185   4.514   9.921 -0.0311  2.6875  0.6089
  351TMC3    H1 5264   0.920   4.604  10.251 -0.1698  0.4924 -1.0484
  351TMC3    H2 5265   0.773   4.417   9.899  1.0169  0.1181 -0.9390
  351TMC3    C7 5266   0.714   4.484  10.155 -0.1070 -0.2458  0.4433
  351TMC3    C8 5267   1.004   4.467   9.753  0.2936 -0.3667 -0.3767
  351TMC3    O1 5268   0.706   4.538  10.264 -0.1769 -0.5752 -0.3163
  351TMC3    O2 5269   1.106   4.517   9.711  0.2901  0.4202  0.5153
  352MPD2     C 5270   0.183   2.300   1.265 -0.6069  0.1197 -0.5278
  352MPD2    C1 5271   0.050   2.268   1.265 -0.5570  0.0770  0.1021
  352MPD2    C2 5272   0.008   2.161   1.342 -0.0649  0.9594 -0.4268
  352MPD2    C3 5273   0.101   2.091   1.423 -0.0468  0.3849  0.6426
  352MPD2    C4 5274   0.235   2.120   1.411 -0.8013 -0.1408 -0.4407
  352MPD2    C5 5275   0.277   2.227   1.334 -0.3495  0.0427 -0.0786
  352MPD2     H 5276   4.626   2.127   1.331 -0.0276  0.3415  1.1529
  352MPD2    H1 5277   0.301   2.059   1.471  0.9129  0.2936 -1.8837
  352MPD2    H2 5278   0.219   2.383   1.206  0.2924  0.5088  0.5606
  352MPD2    H3 5279   0.384   2.241   1.323 -0.3493  0.0254 -0.0988
  352MPD2     N 5280   0.065   1.986   1.508  0.2554  0.2663 -0.0281
  352MPD2    H5 5281   0.140   1.941   1.561 -0.7556 -2.1070 -0.6254
  352MPD2    N1 5282   4.684   2.349   1.187  0.4247  0.4108  0.6486
  352MPD2    H7 5283   0.017   2.417   1.135  0.0990  0.5330  0.4696
  353TMC3    C1 5284   4.638   1.830   1.625  0.3136  0.2754  0.3211
  353TMC3    C2 5285   0.022   1.761   1.681 -0.6123 -0.0600 -0.1337
  353TMC3    C3 5286   4.706   1.640   1.740  0.9896 -0.5436  0.5026
  353TMC3    C4 5287   4.509   1.790   1.642 -0.1960 -0.2366 -0.0685
  353TMC3    C5 5288   4.476   1.683   1.725 -0.7824 -0.0115  0.5210
  353TMC3    C6 5289   4.579   1.603   1.778 -0.3222 -0.1280  0.1755
  353TMC3     C 5290   4.656   1.953   1.547 -0.4558  0.6695  0.2472
  353TMC3     O 5291   4.559   2.015   1.508  0.1917 -0.0643  0.4630
  353TMC3     H 5292   0.126   1.776   1.654 -0.7836 -1.5982 -1.6640
  353TMC3    H1 5293   4.429   1.839   1.588 -1.6302 -1.0799  1.3105
  353TMC3    H2 5294   4.555   1.509   1.828  0.7227 -1.2456 -1.4260
  353TMC3    C7 5295   4.345   1.623   1.701 -0.3096  0.0187  0.0356
  353TMC3    C8 5296   0.094   1.558   1.775  0.1621  0.0375  0.5692
  353TMC3    O1 5297   4.287   1.656   1.602 -0.5561 -0.3514 -0.1363
  353TMC3    O2 5298   0.198   1.606   1.810  0.5586 -0.3295  0.6458
  354TMC3    C1 5299   1.256   2.983  13.442  0.5141 -0.3502 -0.0086
  354TMC3    C2 5300   1.270   3.117  13.469  0.5016 -0.4792  0.0505
  354TMC3    C3 5301   1.268   3.194  13.356  0.0932 -0.5132  0.3644
  354TMC3    C4 5302   1.285   2.915  13.326  0.2804  0.1836 -0.3828
  354TMC3    C5 5303   1.315   2.995  13.220  0.4750 -0.4921 -0.5705
  354TMC3    C6 5304   1.289   3.133  13.232 -0.3830 -0.0443 -0.0496
  354TMC3     C 5305   1.212   2.904  13.558  0.3125  0.0854  0.2557
  354TMC3     O 5306   1.106   2.841  13.537 -0.2994  0.4535  0.8199
  354TMC3     H 5307   1.243   3.152  13.568 -2.1800  1.1569 -1.2411
  354TMC3    H1 5308   1.262   2.811  13.306 -2.1772  0.5307  0.6238
  354TMC3    H2 5309   1.293   3.197  13.145 -0.7241 -1.5452 -1.1575
  354TMC3    C7 5310   1.343   2.930  13.095  0.5608  0.7522 -0.9211
  354TMC3    C8 5311   1.258   3.343  13.370 -0.3904  0.4130 -0.3497
  354TMC3    O1 5312   1.346   2.806  13.101 -0.2616 -0.1864  0.7862
  354TMC3    O2 5313   1.237   3.378  13.484 -0.3091 -0.5169  0.0903
  355MPD2     C 5314   1.515   4.324  10.799 -0.4737 -0.2792  0.0169
  355MPD2    C1 5315   1.623   4.281  10.717 -0.1104  0.2749 -0.1967
  355MPD2    C2 5316   1.743   4.231  10.769  0.3087 -0.4651 -0.2175
  355MPD2    C3 5317   1.751   4.220  10.906 -0.2034 -0.0564 -0.0081
  355MPD2    C4 5318   1.637   4.236  10.988 -0.1702 -0.6515 -0.1385
  355MPD2    C5 5319   1.521   4.296  10.935 -0.1814 -0.0322  0.3766
  355MPD2     H 5320   1.827   4.216  10.702 -0.7230  0.4368 -1.7136
  355MPD2    H1 5321   1.641   4.211  11.094 -1.0930  0.9295  0.2745
  355MPD2    H2 5322   1.430   4.373  10.755  0.8512  1.4970 -0.5572
  355MPD2    H3 5323   1.435   4.312  11.000  0.2533 -1.6090  1.3476
  355MPD2     N 5324   1.872   4.202  10.982 -0.6013 -0.9867  0.3872
  355MPD2    H5 5325   1.874   4.194  11.083 -1.3179 -1.3427  0.3792
  355MPD2    N1 5326   1.615   4.299  10.579 -0.0535 -0.5368  0.4082
  355MPD2    H7 5327   1.545   4.367  10.550 -0.3163 -1.0336 -0.1088
  356TMC3    C1 5328   2.116   4.224  11.022 -0.3362 -0.2132  0.3650
  356TMC3    C2 5329   2.224   4.282  10.970  0.1672  0.4022  0.7256
  356TMC3    C3 5330   2.302   4.363  11.054  0.4149  0.5887 -0.1310
  356TMC3    C4 5331   2.087   4.224  11.156 -0.2115 -0.1201  0.8725
  356TMC3    C5 5332   2.166   4.295  11.240 -0.1587  0.7767  0.1519
  356TMC3    C6 5333   2.274   4.369  11.190  0.0090  0.0011 -0.3837
  356TMC3     C 5334   2.003   4.194  10.923  0.4158  0.3454  0.3548
  356TMC3     O 5335   2.025   4.186  10.801 -0.3076  0.0164 -0.2239
  356TMC3     H 5336   2.245   4.292  10.864  2.1817 -0.0823  1.0903
  356TMC3    H1 5337   2.009   4.162  11.197 -1.5196  0.0355 -1.3499
  356TMC3    H2 5338   2.342   4.424  11.254  0.7308 -2.8015  1.2191
  356TMC3    C7 5339   2.140   4.277  11.380  0.3039 -0.1417  0.4353
  356TMC3    C8 5340   2.391   4.457  10.984 -0.2026  0.6162 -0.5751
  356TMC3    O1 5341   2.029   4.230  11.404  0.4188 -0.2981 -0.0697
  356TMC3    O2 5342   2.380   4.482  10.862  0.0066  0.8413 -0.0793
  357MPD2     C 5343   1.215   3.974   1.334 -0.1883  0.2096 -0.2085
  357MPD2    C1 5344   1.177   3.939   1.206 -0.0509  0.3860 -0.1837
  357MPD2    C2 5345   1.059   3.986   1.154 -0.2966  0.3381  0.4173
  357MPD2    C3 5346   0.971   4.064   1.241 -0.5864 -0.2628  0.2566
  357MPD2    C4 5347   1.015   4.092   1.372  0.0448  0.3887 -0.5392
  357MPD2    C5 5348   1.137   4.043   1.414 -0.5107 -0.4681 -0.0961
  357MPD2     H 5349   1.031   3.972   1.050  1.1124 -0.3947  0.1243
  357MPD2    H1 5350   0.952   4.145   1.442  2.1141  0.7833  1.0042
  357MPD2    H2 5351   1.301   3.927   1.381  0.4848 -0.5048 -2.1369
  357MPD2    H3 5352   1.168   4.067   1.515 -3.1605 -0.4138  0.7142
  357MPD2     N 5353   0.836   4.089   1.205  0.4183  0.1289  0.1878
  357MPD2    H5 5354   0.770   4.127   1.272 -2.0802 -2.5055 -0.7856
  357MPD2    N1 5355   1.265   3.841   1.149  0.1019  0.5920  0.7079
  357MPD2    H7 5356   1.332   3.799   1.212  1.7412  2.8339  0.4577
  358TMC3    C1 5357   1.345   3.698   0.976 -1.1351  0.0730  0.1928
  358TMC3    C2 5358   1.373   3.685   0.843  0.6241  0.2192 -0.5262
  358TMC3    C3 5359   1.469   3.595   0.803 -0.0161 -0.1519  0.5110
  358TMC3    C4 5360   1.419   3.633   1.068  0.5445  0.3731 -0.1999
  358TMC3    C5 5361   1.523   3.554   1.023  1.0724 -0.7589  0.3602
  358TMC3    C6 5362   1.554   3.540   0.889 -0.1841  0.5784 -0.6936
  358TMC3     C 5363   1.253   3.802   1.015  0.1435 -0.3546 -0.2177
  358TMC3     O 5364   1.177   3.845   0.930 -0.2452 -0.0856  0.3262
  358TMC3     H 5365   1.323   3.752   0.774 -1.2633  0.0063  0.6307
  358TMC3    H1 5366   1.370   3.613   1.163 -2.4552  2.4132 -1.3185
  358TMC3    H2 5367   1.618   3.456   0.864  0.4613  0.4775  1.3258
  358TMC3    C7 5368   1.605   3.475   1.116  0.1485  0.3594  0.4404
  358TMC3    C8 5369   1.488   3.557   0.660  0.2155  0.3338  0.1967
  358TMC3    O1 5370   1.708   3.424   1.072 -0.3650 -0.8309  0.4283
  358TMC3    O2 5371   1.588   3.488   0.638  0.1017 -0.2585  0.2130
  359MPD2     C 5372   1.874   2.741  12.684  0.2314 -0.5409  0.5783
  359MPD2    C1 5373   1.816   2.711  12.560  0.5251  0.5969  0.4689
  359MPD2    C2 5374   1.736   2.599  12.558  0.5945 -0.2994 -0.1413
  359MPD2    C3 5375   1.734   2.504  12.662  0.2835 -0.2410 -0.5552
  359MPD2    C4 5376   1.797   2.540  12.780  0.9709  0.2986 -0.3357
  359MPD2    C5 5377   1.874   2.652  12.791 -0.1307  0.7599 -0.8914
  359MPD2     H 5378   1.686   2.587  12.463 -0.8560  1.0536  0.4571
  359MPD2    H1 5379   1.803   2.474  12.867 -0.9760 -0.0372 -0.4561
  359MPD2    H2 5380   1.910   2.840  12.710 -0.6972  0.0764 -0.4521
  359MPD2    H3 5381   1.921   2.684  12.883 -1.6051 -0.5509  0.3291
  359MPD2     N 5382   1.656   2.382  12.665  0.4633 -0.4556 -0.6502
  359MPD2    H5 5383   1.649   2.321  12.746 -0.9546 -0.8464 -1.0582
  359MPD2    N1 5384   1.822   2.788  12.445  0.4904 -0.0540  0.0590
  359MPD2    H7 5385   1.786   2.742  12.363  0.8732  0.7494 -0.5598
  360TMC3    C1 5386   1.880   2.974  12.301  0.0536 -0.6021 -0.3899
  360TMC3    C2 5387   1.926   3.104  12.298 -0.0539 -0.1428  0.2415
  360TMC3    C3 5388   1.873   3.185  12.203  0.2013  0.0187  0.2732
  360TMC3    C4 5389   1.796   2.928  12.203  0.4081 -0.3085 -0.3987
  360TMC3    C5 5390   1.767   3.004  12.091 -0.2948  0.3934  0.8136
  360TMC3    C6 5391   1.801   3.136  12.092 -0.0025 -0.3573  0.3437
  360TMC3     C 5392   1.885   2.913  12.436 -0.1446 -0.3853 -0.1138
  360TMC3     O 5393   1.910   2.988  12.529 -0.2818 -0.3394  0.1076
  360TMC3     H 5394   1.986   3.150  12.376 -0.8128 -0.1390  0.8272
  360TMC3    H1 5395   1.748   2.832  12.220 -1.9709  0.9245 -0.1232
  360TMC3    H2 5396   1.793   3.199  12.004 -0.4705 -0.2406  0.4663
  360TMC3    C7 5397   1.753   2.937  11.959  0.9967 -0.1871 -0.1025
  360TMC3    C8 5398   1.947   3.294  12.154 -0.2966 -0.1161  0.4634
  360TMC3    O1 5399   1.719   3.012  11.864 -0.0126  0.0044 -0.0889
  360TMC3    O2 5400   1.890   3.399  12.116 -0.2097  0.6528  0.0537
  361MPD2     C 5401   3.554   1.680  16.914 -0.2867 -0.4879 -0.2378
  361MPD2    C1 5402   3.612   1.757  17.010  0.2155  0.3749 -0.0255
  361MPD2    C2 5403   3.718   1.704  17.078  0.8442  0.2863 -0.6690
  361MPD2    C3 5404   3.777   1.592  17.030  1.2214  0.4996  0.3662
  361MPD2    C4 5405   3.729   1.525  16.915  0.4690  0.3004 -0.1644
  361MPD2    C5 5406   3.612   1.567  16.864 -0.2300  0.0468 -0.1887
  361MPD2     H 5407   3.761   1.759  17.161  0.0108 -0.3624  0.2017
  361MPD2    H1 5408   3.771   1.432  16.879 -0.8357 -0.3243 -0.0747
  361MPD2    H2 5409   3.463   1.701  16.860  0.1925  2.1839 -0.0307
  361MPD2    H3 5410   3.550   1.517  16.791  0.4153  0.5882 -1.1149
  361MPD2     N 5411   3.886   1.528  17.099  0.1203  0.4354 -0.3667
  361MPD2    H5 5412   3.931   1.443  17.064  0.4588  0.5296 -0.1634
  361MPD2    N1 5413   3.553   1.886  17.031  0.0095  0.3850  0.2756
  361MPD2    H7 5414   3.472   1.903  16.973  2.0847  1.5360 -2.2586
  362TMC3    C1 5415   3.547   2.112  17.095  0.4169  0.4524  0.7430
  362TMC3    C2 5416   3.412   2.118  17.079  0.0771 -0.0166  0.3589
  362TMC3    C3 5417   3.352   2.241  17.069  0.8571 -0.2353  0.5436
  362TMC3    C4 5418   3.630   2.225  17.104 -0.4359 -0.0299  0.6622
  362TMC3    C5 5419   3.568   2.347  17.079  0.7492 -0.0418 -0.4081
  362TMC3    C6 5420   3.427   2.358  17.082 -0.2904  0.2486  0.6166
  362TMC3     C 5421   3.618   1.988  17.091 -0.4541  0.4195  0.3066
  362TMC3     O 5422   3.730   1.992  17.136  0.1128  0.2861  0.0083
  362TMC3     H 5423   3.346   2.034  17.064  0.3869 -0.7687  3.2466
  362TMC3    H1 5424   3.737   2.233  17.120 -0.2983  0.6731 -0.5727
  362TMC3    H2 5425   3.383   2.456  17.071  1.4615  0.8100 -1.3950
  362TMC3    C7 5426   3.624   2.451  16.990 -0.5685 -0.6629  0.1747
  362TMC3    C8 5427   3.210   2.248  17.033  0.1537  0.6444 -0.1512
  362TMC3    O1 5428   3.545   2.540  16.953 -0.3299 -0.1590  0.0589
  362TMC3    O2 5429   3.163   2.137  17.005  0.0668  0.0346 -0.1070
  363TMC3    C1 5430   2.201   4.238   9.420  0.3300  0.3204 -0.1056
  363TMC3    C2 5431   2.287   4.283   9.515 -0.3548 -0.4365 -0.6001
  363TMC3    C3 5432   2.354   4.206   9.609  0.4812 -0.6093  0.0693
  363TMC3    C4 5433   2.170   4.104   9.414  0.1248  0.0805  0.2158
  363TMC3    C5 5434   2.222   4.028   9.519  0.0753 -0.2286  0.3228
  363TMC3    C6 5435   2.322   4.070   9.608  0.1117  0.4622  0.1496
  363TMC3     C 5436   2.131   4.325   9.330  0.1675 -0.6533  0.0998
  363TMC3     O 5437   2.133   4.447   9.348 -0.7760  0.3281 -0.3609
  363TMC3     H 5438   2.313   4.387   9.505  3.4768 -1.3293 -0.2316
  363TMC3    H1 5439   2.093   4.063   9.350 -0.6426 -0.2882  1.3754
  363TMC3    H2 5440   2.357   4.010   9.690 -1.1497 -2.5946 -1.5598
  363TMC3    C7 5441   2.227   3.879   9.519  0.2778 -0.4357  0.3317
  363TMC3    C8 5442   2.500   4.223   9.602 -0.7172  0.5755 -0.0660
  363TMC3    O1 5443   2.298   3.826   9.607  0.2419  0.2320  0.4682
  363TMC3    O2 5444   2.542   4.339   9.579 -0.0289  0.6911  0.3223
  364MPD2     C 5445   0.871   2.950   9.989 -0.1001 -0.0977 -0.3250
  364MPD2    C1 5446   0.841   3.030  10.101  0.0793 -0.5145 -0.2815
  364MPD2    C2 5447   0.880   2.979  10.225  0.1128  0.1855  0.0843
  364MPD2    C3 5448   0.940   2.851  10.232 -0.6862 -0.2156  0.0374
  364MPD2    C4 5449   0.953   2.773  10.122  0.1655 -0.0274 -0.6391
  364MPD2    C5 5450   0.931   2.829   9.999 -0.1494  0.2114 -0.0098
  364MPD2     H 5451   0.869   3.038  10.315 -0.7700  2.0152 -1.2282
  364MPD2    H1 5452   1.007   2.682  10.144  2.2798  1.3768 -0.0008
  364MPD2    H2 5453   0.860   2.989   9.889 -1.9251  0.6849  0.1864
  364MPD2    H3 5454   0.964   2.776   9.911 -2.5625  0.4433 -1.0547
  364MPD2     N 5455   0.956   2.794  10.361 -0.2996  0.1418 -0.4116
  364MPD2    H5 5456   1.017   2.714  10.364 -0.0132  0.4280  1.1494
  364MPD2    N1 5457   0.773   3.159  10.082  0.8626 -1.0580 -0.4966
  364MPD2    H7 5458   0.768   3.185   9.984  1.5614 -0.5479 -0.3928
  365TMC3    C1 5459   0.748   3.385  10.159  0.7869  0.6471 -0.0097
  365TMC3    C2 5460   0.820   3.419  10.047 -1.0962 -0.1362  0.8350
  365TMC3    C3 5461   0.832   3.557  10.021 -0.2599  0.4655 -1.1507
  365TMC3    C4 5462   0.712   3.472  10.261 -0.5838  0.3807 -0.6117
  365TMC3    C5 5463   0.742   3.601  10.241 -0.3920 -0.4862  0.5522
  365TMC3    C6 5464   0.797   3.644  10.123 -0.0805 -0.6077  0.0124
  365TMC3     C 5465   0.744   3.244  10.188  0.0091  0.0510 -0.0981
  365TMC3     O 5466   0.708   3.211  10.303 -0.0648  0.8456 -0.2556
  365TMC3     H 5467   0.838   3.345   9.970 -1.3199 -1.2810  1.8649
  365TMC3    H1 5468   0.647   3.441  10.342  2.2371  0.7324  1.8263
  365TMC3    H2 5469   0.805   3.751  10.108 -1.5996 -0.7448 -1.7321
  365TMC3    C7 5470   0.716   3.695  10.350 -0.3792 -0.7414 -0.7814
  365TMC3    C8 5471   0.943   3.586   9.927 -0.3523 -0.0407 -0.5487
  365TMC3    O1 5472   0.755   3.810  10.334 -0.2954 -0.1772  0.0248
  365TMC3    O2 5473   0.968   3.701   9.893  0.6669  0.1832  0.7986
  366MPD2     C 5474   4.496   4.366  15.750 -0.2021 -0.2891  0.5811
  366MPD2    C1 5475   4.406   4.437  15.671 -0.0861 -0.8177 -0.4468
  366MPD2    C2 5476   4.427   4.452  15.536 -1.0002  0.6583 -0.5694
  366MPD2    C3 5477   4.554   4.416  15.482 -0.2972 -0.0004 -0.5238
  366MPD2    C4 5478   4.638   4.338  15.556 -0.2694  1.1205 -0.6081
  366MPD2    C5 5479   4.613   4.315  15.689 -0.2164 -0.0714 -0.3723
  366MPD2     H 5480   4.347   4.502  15.482 -2.8749 -0.6410  0.9969
  366MPD2    H1 5481   0.003   4.293  15.507 -0.3669  1.1809 -0.8341
  366MPD2    H2 5482   4.477   4.345  15.855  1.5027 -0.2041  0.9058
  366MPD2    H3 5483   4.693   4.275  15.751 -0.4696  0.5242  0.3324
  366MPD2     N 5484   4.592   4.438  15.345 -0.0033 -0.8446  0.4101
  366MPD2    H5 5485   4.674   4.383  15.320  0.2554 -1.2314  2.0818
  366MPD2    N1 5486   4.285   4.494  15.722 -0.8364 -0.1484 -0.6710
  366MPD2    H7 5487   4.213   4.529  15.659  0.5521  1.9603 -1.1060
  367TMC3    C1 5488   4.147   4.590  15.902 -0.3879 -0.6146 -0.0324
  367TMC3    C2 5489   4.168   4.687  15.999 -0.5688  0.4915 -0.4484
  367TMC3    C3 5490   4.097   0.082  15.996 -0.6936  0.1984 -0.2536
  367TMC3    C4 5491   4.049   4.614  15.810  0.7975  0.9285 -0.3360
  367TMC3    C5 5492   3.979   0.014  15.809  0.2772  0.4962 -0.3740
  367TMC3    C6 5493   3.995   0.109  15.905  0.7890 -0.7653 -0.3842
  367TMC3     C 5494   4.267   4.511  15.857 -0.4520 -0.2327 -0.1404
  367TMC3     O 5495   4.353   4.500  15.947 -0.1012 -0.3046 -0.6507
  367TMC3     H 5496   4.254   4.683  16.065 -0.3383 -0.1886 -0.7881
  367TMC3    H1 5497   4.045   4.539  15.732 -0.6840  1.8860 -1.1694
  367TMC3    H2 5498   3.950   0.207  15.892  1.5359 -0.0290  2.7131
  367TMC3    C7 5499   3.886   0.040  15.701 -0.4327  0.0948 -0.6291
  367TMC3    C8 5500   4.193   0.194  16.024  0.4298  0.1054 -0.6912
  367TMC3    O1 5501   3.858   0.158  15.691  0.2178  0.3201 -0.4092
  367TMC3    O2 5502   4.305   0.168  16.063  0.3883  0.3773 -0.2497
  368MPD2     C 5503   4.568   1.958  13.023 -0.6299  0.3996 -0.3549
  368MPD2    C1 5504   4.620   2.040  12.927 -0.7861 -0.4626  0.3553
  368MPD2    C2 5505   0.030   2.017  12.882  0.4101 -0.3334 -0.7799
  368MPD2    C3 5506   0.109   1.912  12.927 -0.1859  0.4176  0.0015
  368MPD2    C4 5507   0.063   1.843  13.036  0.0737  0.5287  0.3024
  368MPD2    C5 5508   4.648   1.857  13.067  0.1625 -0.2408  0.1098
  368MPD2     H 5509   0.075   2.073  12.800  0.7830 -0.0366 -0.3688
  368MPD2    H1 5510   0.126   1.762  13.072  2.3284  1.1782 -2.1768
  368MPD2    H2 5511   4.468   1.947  13.062  0.7744 -1.4141  2.7636
  368MPD2    H3 5512   4.602   1.799  13.147 -0.7732  0.3895  0.0291
  368MPD2     N 5513   0.241   1.893  12.886  0.4550  0.5725 -0.2917
  368MPD2    H5 5514   0.293   1.825  12.941 -1.0246 -0.2398  0.1133
  368MPD2    N1 5515   4.529   2.137  12.871 -0.3605  0.1658 -0.2730
  368MPD2    H7 5516   4.436   2.137  12.912 -0.1068  2.2899  0.2866
  369TMC3    C1 5517   4.419   2.271  12.711  0.4173 -0.3521 -0.2342
  369TMC3    C2 5518   4.432   2.355  12.602 -0.1200 -0.4034 -0.4262
  369TMC3    C3 5519   4.319   2.373  12.523  0.4806 -0.3179 -0.1853
  369TMC3    C4 5520   4.299   2.216  12.747  0.6417 -0.2355 -0.0481
  369TMC3    C5 5521   4.200   2.234  12.655  0.1329 -0.3870 -0.0158
  369TMC3    C6 5522   4.200   2.309  12.544 -0.0190  0.2350  0.7333
  369TMC3     C 5523   4.549   2.218  12.765 -0.6624  0.0353 -0.1007
  369TMC3     O 5524   4.644   2.234  12.692 -0.1038  0.0478 -0.1419
  369TMC3     H 5525   4.526   2.395  12.567 -0.8599  0.4651 -1.4352
  369TMC3    H1 5526   4.285   2.145  12.828 -0.3424 -0.1862 -0.1748
  369TMC3    H2 5527   4.128   2.305  12.463 -0.1496 -1.9994  0.9571
  369TMC3    C7 5528   4.070   2.177  12.692  0.4348  0.2044  0.5259
  369TMC3    C8 5529   4.326   2.435  12.397 -0.3156 -0.3577 -0.0352
  369TMC3    O1 5530   4.063   2.132  12.807  0.1068  0.4663 -0.4262
  369TMC3    O2 5531   4.223   2.487  12.368 -0.3580 -0.0617  0.0527
  370TMC3    C1 5532   4.589   2.448  15.883 -0.1638  0.2812  0.1069
  370TMC3    C2 5533   4.515   2.376  15.967 -0.5462  0.1476  0.6898
  370TMC3    C3 5534   4.492   2.244  15.942  0.5333  0.1991 -1.0148
  370TMC3    C4 5535   4.659   2.378  15.790 -0.3447 -0.2531  0.0271
  370TMC3    C5 5536   4.638   2.243  15.767  0.5659  0.9336  0.0554
  370TMC3    C6 5537   4.556   2.172  15.848 -0.3568  0.3604  0.3578
  370TMC3     C 5538   4.650   2.567  15.944  0.5461  0.4225  0.7382
  370TMC3     O 5539   4.576   2.633  16.018  0.1065 -0.8946  0.8406
  370TMC3     H 5540   4.473   2.419  16.058  0.2259 -0.7421  1.4646
  370TMC3    H1 5541   4.718   2.427  15.713  0.7866 -0.8810  0.5174
  370TMC3    H2 5542   4.536   2.066  15.835 -1.8719  0.5823  1.0084
  370TMC3    C7 5543   4.697   2.180  15.646 -0.3603  0.4025 -0.0057
  370TMC3    C8 5544   4.417   2.163  16.038 -0.7634  0.0506  0.2408
  370TMC3    O1 5545   4.692   2.248  15.544  0.7694 -0.7324  0.1125
  370TMC3    O2 5546   4.429   2.041  16.024 -0.3901 -0.1219  0.1690
  371TMC3    C1 5547   1.225   0.374  15.346  0.1659  0.0674 -0.0653
  371TMC3    C2 5548   1.120   0.399  15.435  0.0137 -0.0300 -0.4806
  371TMC3    C3 5549   1.069   0.529  15.444  0.0482  0.5533  0.0331
  371TMC3    C4 5550   1.281   0.480  15.282  0.1675 -0.3478 -0.3082
  371TMC3    C5 5551   1.232   0.607  15.302 -0.2008  0.4071  0.0874
  371TMC3    C6 5552   1.129   0.636  15.385  0.4290 -0.4999  1.0541
  371TMC3     C 5553   1.300   0.246  15.338 -0.1955 -1.1929 -0.1997
  371TMC3     O 5554   1.393   0.235  15.261 -0.2823 -0.3211  0.1523
  371TMC3     H 5555   1.066   0.318  15.485  0.9187 -0.3026  0.0495
  371TMC3    H1 5556   1.373   0.464  15.227  0.4117  1.6447 -0.4924
  371TMC3    H2 5557   1.082   0.733  15.390  0.2800 -0.5201  0.0490
  371TMC3    C7 5558   1.280   0.712  15.220  0.8582  0.2125  0.0930
  371TMC3    C8 5559   0.937   0.549  15.507  0.1185 -0.2566 -0.8207
  371TMC3    O1 5560   1.256   0.824  15.261 -0.2071 -0.3330 -0.1777
  371TMC3    O2 5561   0.869   0.448  15.524 -0.1929 -0.2388 -0.0046
  372MPD2     C 5562   0.428   2.201  13.032  0.0261 -0.0948 -0.3136
  372MPD2    C1 5563   0.524   2.133  13.114 -0.9836  0.4835 -0.6736
  372MPD2    C2 5564   0.473   2.037  13.199  0.0056  0.8399  0.4752
  372MPD2    C3 5565   0.338   2.018  13.223  0.2368 -0.1740 -0.5124
  372MPD2    C4 5566   0.252   2.092  13.153  0.7706  0.4524  0.5709
  372MPD2    C5 5567   0.291   2.185  13.061 -0.0606  0.3140  0.7686
  372MPD2     H 5568   0.539   1.969  13.252  0.2451 -0.3665 -1.3868
  372MPD2    H1 5569   0.144   2.080  13.160  0.8058  1.1530  2.4397
  372MPD2    H2 5570   0.457   2.263  12.948  1.1715 -0.0005  0.1530
  372MPD2    H3 5571   0.210   2.239  13.013  1.1685  0.5570 -1.0228
  372MPD2     N 5572   0.298   1.925  13.319 -0.4278  0.1609 -0.0965
  372MPD2    H5 5573   0.364   1.870  13.373 -1.6976 -0.2059  1.0841
  372MPD2    N1 5574   0.659   2.150  13.096 -0.1021  0.3302  0.0543
  372MPD2    H7 5575   0.709   2.095  13.165 -1.0197 -0.8497 -0.2249
  373TMC3    C1 5576   0.167   1.799  13.468  0.6145 -0.3250  0.0172
  373TMC3    C2 5577   0.078   1.809  13.579 -1.0813  0.1847  0.5864
  373TMC3    C3 5578   0.073   1.699  13.659 -0.2031  0.6422 -0.7032
  373TMC3    C4 5579   0.229   1.679  13.441 -0.2330 -0.0424 -0.3256
  373TMC3    C5 5580   0.224   1.577  13.534  0.1511  0.2184  0.6131
  373TMC3    C6 5581   0.142   1.581  13.642  0.4696 -0.5423  0.2361
  373TMC3     C 5582   0.174   1.913  13.374  0.3129 -0.4388  0.5453
  373TMC3     O 5583   0.073   1.978  13.359  0.1565  0.0578 -0.1479
  373TMC3     H 5584   0.010   1.891  13.599 -0.5604  0.9069 -0.6100
  373TMC3    H1 5585   0.291   1.663  13.353  2.3083  1.0463  1.2591
  373TMC3    H2 5586   0.136   1.492  13.703 -0.3266 -0.1617  0.7314
  373TMC3    C7 5587   0.317   1.465  13.511  0.3387 -0.4161  0.9269
  373TMC3    C8 5588   4.689   1.706  13.759 -0.0170  0.0420 -0.4509
  373TMC3    O1 5589   0.342   1.431  13.395  0.4902 -0.0081  0.2104
  373TMC3    O2 5590   4.589   1.768  13.725  0.1689 -0.1747  0.1167
  374TMC3    C1 5591   1.271   1.982   9.595  0.0489 -0.8209  0.2146
  374TMC3    C2 5592   1.372   2.043   9.663 -0.0533 -0.2931 -0.1259
  374TMC3    C3 5593   1.474   2.098   9.589 -0.1249  0.3091 -0.6673
  374TMC3    C4 5594   1.273   1.963   9.458  0.5437  0.2714 -0.1595
  374TMC3    C5 5595   1.380   2.019   9.389  0.2335  0.1877  0.7039
  374TMC3    C6 5596   1.480   2.088   9.451  0.0340  0.3281  0.0600
  374TMC3     C 5597   1.158   1.928   9.674  0.6355  0.1934 -0.1580
  374TMC3     O 5598   1.185   1.885   9.789  0.0361 -0.2968  0.2333
  374TMC3     H 5599   1.374   2.055   9.771 -1.5828 -2.5066  0.1470
  374TMC3    H1 5600   1.194   1.927   9.394 -0.9803  2.8099  0.3250
  374TMC3    H2 5601   1.571   2.115   9.398  0.3879  0.8148  0.9117
  374TMC3    C7 5602   1.395   2.014   9.247  0.1411 -0.0284 -0.7847
  374TMC3    C8 5603   1.545   2.215   9.644 -0.1729  0.0095 -0.1022
  374TMC3    O1 5604   1.492   2.080   9.206  0.0100  0.0929 -0.2698
  374TMC3    O2 5605   1.559   2.309   9.570 -0.1509 -0.5229 -0.0195
  375MPD2     C 5606   1.828   2.786  17.122  0.0805  0.3717 -0.0733
  375MPD2    C1 5607   1.761   2.809  17.006  0.4068 -0.1070  0.0566
  375MPD2    C2 5608   1.818   2.754  16.890 -0.4842 -0.5520  0.0164
  375MPD2    C3 5609   1.931   2.677  16.885  0.1504  0.7587 -0.3987
  375MPD2    C4 5610   1.999   2.655  17.002 -0.0618  0.3318 -0.6650
  375MPD2    C5 5611   1.941   2.705  17.114  0.3109 -0.0583  0.2018
  375MPD2     H 5612   1.770   2.772  16.794 -0.8060  2.0879  0.6682
  375MPD2    H1 5613   2.091   2.600  17.016 -0.2009  0.3505  0.2806
  375MPD2    H2 5614   1.792   2.803  17.223  1.8489  0.4446  0.5449
  375MPD2    H3 5615   2.000   2.699  17.204  1.2126  0.6511 -0.3426
  375MPD2     N 5616   1.976   2.600  16.772  0.4550 -0.3419  0.2216
  375MPD2    H5 5617   2.062   2.547  16.780  1.0522  0.3035 -1.9664
  375MPD2    N1 5618   1.625   2.856  17.006  0.3939 -0.0566 -0.0036
  375MPD2    H7 5619   1.586   2.845  16.913  0.4804  1.3519 -0.2058
  376TMC3    C1 5620   1.964   2.483  16.562  0.6300  0.3684 -0.0763
  376TMC3    C2 5621   2.045   2.383  16.599  0.3331  0.1445  0.1338
  376TMC3    C3 5622   2.074   2.277  16.514  0.2410 -0.3077  0.1211
  376TMC3    C4 5623   1.887   2.471  16.450 -0.0276  0.3449  0.8677
  376TMC3    C5 5624   1.914   2.363  16.363  0.2392 -0.0179 -0.0952
  376TMC3    C6 5625   2.017   2.277  16.384 -0.1233  0.1001  0.5510
  376TMC3     C 5626   1.907   2.580  16.660 -0.2480 -0.1599  0.3053
  376TMC3     O 5627   1.797   2.620  16.626 -0.8363  0.2777  0.0665
  376TMC3     H 5628   2.092   2.387  16.697  0.7622  0.7345 -0.0927
  376TMC3    H1 5629   1.821   2.554  16.425 -1.0767 -0.8707 -0.4228
  376TMC3    H2 5630   2.040   2.203  16.307  0.5377 -1.4071  2.1991
  376TMC3    C7 5631   1.836   2.356  16.244  0.3505  0.0580  0.2618
  376TMC3    C8 5632   2.222   2.246  16.513  0.1767 -0.0192  0.2147
  376TMC3    O1 5633   1.785   2.462  16.219 -0.1345 -0.3323 -0.7447
  376TMC3    O2 5634   2.279   2.286  16.613  0.3464  0.2556 -0.0477
  377MPD2     C 5635   3.543   2.440  11.870  0.2861  0.5289 -0.4649
  377MPD2    C1 5636   3.612   2.371  11.971  0.3420  0.8223 -0.4361
  377MPD2    C2 5637   3.541   2.280  12.053 -0.5887 -0.4056  0.2251
  377MPD2    C3 5638   3.410   2.258  12.031  0.0653 -0.0955  0.6151
  377MPD2    C4 5639   3.338   2.321  11.931  0.1851  0.2158  0.3783
  377MPD2    C5 5640   3.407   2.417  11.855 -0.4954  0.1552  0.0170
  377MPD2     H 5641   3.590   2.228  12.135  1.3000 -1.0890 -1.3320
  377MPD2    H1 5642   3.234   2.304  11.910  0.7521  1.1810 -3.1325
  377MPD2    H2 5643   3.586   2.513  11.803 -0.6587  0.0006 -1.6414
  377MPD2    H3 5644   3.352   2.473  11.780  0.4177  3.4626  1.8111
  377MPD2     N 5645   3.336   2.174  12.116 -0.4368  0.4046  0.5143
  377MPD2    H5 5646   3.235   2.181  12.113 -0.2911  2.9492  1.0202
  377MPD2    N1 5647   3.752   2.384  11.990  0.3136 -0.6454 -0.0245
  377MPD2    H7 5648   3.797   2.439  11.918 -1.4706  1.1304  0.2197
  378TMC3    C1 5649   4.153   2.367  11.924 -0.5745  0.6453  0.0845
  378TMC3    C2 5650   4.023   2.388  11.955  0.2354  0.2555  0.4636
  378TMC3    C3 5651   3.974   2.325  12.063  0.2985  0.0895  0.2126
  378TMC3    C4 5652   4.233   2.289  11.998  1.0396  0.3955 -0.1525
  378TMC3    C5 5653   4.176   2.224  12.099 -0.7155  0.0492 -0.3515
  378TMC3    C6 5654   4.045   2.230  12.130 -0.3010  0.4191 -0.3230
  378TMC3     C 5655   4.207   2.410  11.792  0.1766 -0.0992 -0.2871
  378TMC3     O 5656   4.144   2.494  11.726 -0.3782 -0.4439 -0.0427
  378TMC3     H 5657   3.974   2.478  11.920  2.1768  1.5877  1.1184
  378TMC3    H1 5658   4.340   2.297  11.990  1.1511 -0.8156  0.1480
  378TMC3    H2 5659   4.011   2.184  12.222  0.9925 -1.5718 -0.8449
  378TMC3    C7 5660   4.256   2.145  12.193  0.4413  0.4526  0.3920
  378TMC3    C8 5661   3.831   2.331  12.090  0.2998 -0.2957 -0.0084
  378TMC3    O1 5662   4.221   2.128  12.311 -0.3293 -0.3860  0.0215
  378TMC3    O2 5663   3.805   2.268  12.190  0.6735 -0.4847 -0.1283
  379MPD2     C 5664   0.746   0.483  16.150 -0.2733 -0.5646  0.2972
  379MPD2    C1 5665   0.620   0.468  16.205 -0.5960 -0.0304  0.7210
  379MPD2    C2 5666   0.598   0.382  16.315 -0.2072  0.0530  0.1423
  379MPD2    C3 5667   0.709   0.307  16.353  0.2668  0.4577 -0.6987
  379MPD2    C4 5668   0.832   0.325  16.296 -0.1070 -0.1663 -0.1031
  379MPD2    C5 5669   0.851   0.415  16.194 -0.3427 -0.7373  0.4887
  379MPD2     H 5670   0.500   0.357  16.353 -0.1436  0.9472  0.8848
  379MPD2    H1 5671   0.917   0.267  16.328 -2.2113 -1.3164  3.3619
  379MPD2    H2 5672   0.759   0.551  16.066  0.2103  1.6872  2.2063
  379MPD2    H3 5673   0.949   0.440  16.156 -1.0745 -3.2939 -3.0944
  379MPD2     N 5674   0.699   0.201  16.445 -0.1953  0.2792  0.1292
  379MPD2    H5 5675   0.786   0.149  16.444  0.1147  0.8445 -1.9412
  379MPD2    N1 5676   0.512   0.531  16.129 -0.5009  0.1344  0.0357
  379MPD2    H7 5677   0.536   0.595  16.054 -0.0103 -1.1126 -0.8652
  380TMC3    C1 5678   0.297   0.572  16.062  0.4035 -0.3621 -0.3310
  380TMC3    C2 5679   0.341   0.555  15.930 -0.0457 -0.0060  0.0969
  380TMC3    C3 5680   0.242   0.552  15.829 -0.7483 -0.6310 -0.0031
  380TMC3    C4 5681   0.159   0.581  16.092 -0.0000 -0.6870  0.2640
  380TMC3    C5 5682   0.068   0.579  15.990 -0.7241  0.4362 -0.1078
  380TMC3    C6 5683   0.108   0.565  15.859  1.1804 -0.8188  0.0306
  380TMC3     C 5684   0.381   0.522  16.165 -0.0622 -0.3784  0.6860
  380TMC3     O 5685   0.322   0.503  16.270  0.0197  0.0972  0.2641
  380TMC3     H 5686   0.439   0.523  15.898  0.2966  0.5607  0.5742
  380TMC3    H1 5687   0.122   0.576  16.194  2.2794  0.2164  1.1434
  380TMC3    H2 5688   0.033   0.586  15.783  0.9723 -0.8708  0.2204
  380TMC3    C7 5689   4.656   0.631  16.012  0.1555  0.8759  0.1305
  380TMC3    C8 5690   0.278   0.500  15.698  0.6820 -0.6613 -0.0433
  380TMC3    O1 5691   4.643   0.729  16.084  0.1432 -0.2414  0.4469
  380TMC3    O2 5692   0.396   0.490  15.676  0.3333  0.0155 -0.1114
  381TMC3    C1 5693   4.432   1.531  15.850  0.2958  0.5973 -0.6818
  381TMC3    C2 5694   4.550   1.597  15.859 -0.2139  0.6751  0.0552
  381TMC3    C3 5695   4.582   1.663  15.972 -0.1655 -0.1849 -0.1018
  381TMC3    C4 5696   4.348   1.529  15.952  0.3308 -0.3332 -0.3831
  381TMC3    C5 5697   4.385   1.584  16.070 -0.4726  0.4572 -0.1131
  381TMC3    C6 5698   4.505   1.652  16.086 -0.3411 -0.2547  0.2607
  381TMC3     C 5699   4.385   1.468  15.727 -0.0394 -0.7354 -0.1177
  381TMC3     O 5700   4.266   1.480  15.702 -0.1784  0.3761  0.1421
  381TMC3     H 5701   4.612   1.600  15.770 -1.0654  1.5873 -0.5054
  381TMC3    H1 5702   4.249   1.487  15.940 -0.5886  1.6811  0.1456
  381TMC3    H2 5703   4.541   1.692  16.180  0.3766 -0.2208 -0.0321
  381TMC3    C7 5704   4.313   1.532  16.186 -0.5374 -0.1546  0.4468
  381TMC3    C8 5705   4.703   1.745  15.967 -0.5349  0.0310  0.1186
  381TMC3    O1 5706   4.222   1.451  16.169  0.1025 -0.3052  0.8165
  381TMC3    O2 5707   0.052   1.725  15.871 -0.2570  0.1471 -0.5524
  382MPD2     C 5708   4.066   0.026  17.312 -0.2412  0.1304  0.6289
  382MPD2    C1 5709   4.055   4.664  17.427 -0.5571  0.5893 -0.2681
  382MPD2    C2 5710   4.036   4.527  17.409  0.1445  0.5028  0.0942
  382MPD2    C3 5711   4.029   4.474  17.278  0.4651 -0.6305 -0.2585
  382MPD2    C4 5712   4.028   4.558  17.174  0.2169  0.1151  0.4928
  382MPD2    C5 5713   4.045   4.695  17.190 -0.5526  0.3251 -0.6131
  382MPD2     H 5714   4.016   4.463  17.494  0.4060  1.8149  1.1270
  382MPD2    H1 5715   4.011   4.511  17.077 -1.5576 -1.9070  1.7622
  382MPD2    H2 5716   4.088   0.132  17.318  1.0798 -0.2555  2.5655
  382MPD2    H3 5717   4.048   0.047  17.109 -2.1790 -0.6258 -1.5406
  382MPD2     N 5718   4.021   4.332  17.258  0.5537 -0.0758 -0.1524
  382MPD2    H5 5719   4.012   4.303  17.161  0.2655  1.4963 -0.5948
  382MPD2    N1 5720   4.061   4.718  17.563  0.1059  0.2524 -0.7567
  382MPD2    H7 5721   4.059   4.650  17.638  1.4252  1.9047  0.7758
  383TMC3    C1 5722   4.043   4.103  17.287 -0.5283 -0.3882 -0.5048
  383TMC3    C2 5723   3.970   4.075  17.172 -0.2961  0.0940 -0.0325
  383TMC3    C3 5724   3.977   3.950  17.121 -0.5071 -0.3506 -0.2382
  383TMC3    C4 5725   4.132   4.014  17.337 -0.8675  0.0418  0.7773
  383TMC3    C5 5726   4.134   3.888  17.290  0.2453 -0.1196 -0.4557
  383TMC3    C6 5727   4.062   3.852  17.176 -0.1486 -0.1820  0.3864
  383TMC3     C 5728   4.046   4.234  17.343 -0.5991  0.7883 -0.1338
  383TMC3     O 5729   4.066   4.246  17.463 -0.4070  0.3977  0.1662
  383TMC3     H 5730   3.894   4.145  17.139 -0.6876  0.7829  2.3023
  383TMC3    H1 5731   4.188   4.058  17.419  0.3573  0.0124 -0.0465
  383TMC3    H2 5732   4.065   3.749  17.143 -1.4734  0.2832 -1.2016
  383TMC3    C7 5733   4.242   3.809  17.349 -0.4837  0.5574 -0.2105
  383TMC3    C8 5734   3.875   3.913  17.023 -1.1892 -0.5020  0.4382
  383TMC3    O1 5735   4.290   3.732  17.269  0.1610 -0.4391 -0.3041
  383TMC3    O2 5736   3.811   4.010  16.978 -0.1147  0.1183  0.4291
  384MPD2     C 5737   0.499   4.641  11.918  0.6534  0.5590  0.3258
  384MPD2    C1 5738   0.511   4.528  11.997  0.0987  0.6615 -0.4169
  384MPD2    C2 5739   0.615   4.443  11.976 -0.4766 -0.5069 -0.1438
  384MPD2    C3 5740   0.709   4.467  11.882 -0.2824 -0.7928  0.1731
  384MPD2    C4 5741   0.702   4.580  11.803  0.3376 -0.6468 -0.2888
  384MPD2    C5 5742   0.600   4.668  11.823 -0.4757  0.2319  0.1277
  384MPD2     H 5743   0.621   4.353  12.035  0.6324 -0.6253 -0.4231
  384MPD2    H1 5744   0.782   4.592  11.730 -0.9755 -1.5945 -1.8844
  384MPD2    H2 5745   0.426   4.719  11.938  1.7338  1.2340  1.6731
  384MPD2    H3 5746   0.591   0.044  11.775 -0.8503  0.4904  0.7052
  384MPD2     N 5747   0.819   4.376  11.869  0.5236  0.2589 -0.2023
  384MPD2    H5 5748   0.898   4.401  11.811 -0.3644  1.7879 -0.7539
  384MPD2    N1 5749   0.426   4.511  12.110  0.2296  0.2259  0.1530
  384MPD2    H7 5750   0.366   4.586  12.143  0.7454  0.6686  0.0790
  385TMC3    C1 5751   0.932   4.182  11.890  0.4491  0.4460  0.0718
  385TMC3    C2 5752   0.924   4.043  11.881  0.0554  1.0739  0.5071
  385TMC3    C3 5753   1.011   3.967  11.959 -0.1028 -0.3004 -0.7180
  385TMC3    C4 5754   1.027   4.242  11.967  0.5374  0.1400 -0.1790
  385TMC3    C5 5755   1.093   4.169  12.063  0.7470  0.0304  0.4411
  385TMC3    C6 5756   1.096   4.033  12.042  0.0499  0.1963  0.0499
  385TMC3     C 5757   0.806   4.246  11.906  0.2394  0.3988 -0.0727
  385TMC3     O 5758   0.709   4.176  11.936 -0.3099 -0.0662  0.0048
  385TMC3     H 5759   0.843   3.999  11.823  0.4304  1.7825 -0.5475
  385TMC3    H1 5760   1.018   4.347  11.995  1.4159 -0.1181  1.0850
  385TMC3    H2 5761   1.179   3.972  12.076  1.1934  0.1880 -2.7461
  385TMC3    C7 5762   1.060   4.206  12.197  0.5992  0.6161  0.1345
  385TMC3    C8 5763   0.990   3.825  11.958  0.3222  0.3456 -0.0094
  385TMC3    O1 5764   1.030   4.325  12.221  0.5931  0.0859  0.1018
  385TMC3    O2 5765   0.996   3.769  12.063  0.3106  0.2708  0.6131
  386TMC3    C1 5766   1.308   2.296  11.985  0.4683 -0.6082 -0.1955
  386TMC3    C2 5767   1.285   2.294  11.846  0.5407  0.3792  0.8607
  386TMC3    C3 5768   1.250   2.417  11.788  1.1522  0.6180  0.1941
  386TMC3    C4 5769   1.280   2.408  12.061  0.1274  0.1298  0.3094
  386TMC3    C5 5770   1.245   2.521  12.001 -0.2689  0.4226 -0.3672
  386TMC3    C6 5771   1.231   2.525  11.864 -0.4392  0.4603 -0.8356
  386TMC3     C 5772   1.360   2.176  12.058  0.4099  0.0234 -0.3407
  386TMC3     O 5773   1.391   2.185  12.176  0.2379 -0.4759 -0.4584
  386TMC3     H 5774   1.296   2.202  11.790  0.8930  1.6224 -1.1054
  386TMC3    H1 5775   1.297   2.392  12.167 -1.1425  0.7923  0.6088
  386TMC3    H2 5776   1.196   2.613  11.811  1.7540  0.4468 -2.2780
  386TMC3    C7 5777   1.132   2.583  12.067  0.0624  1.0837  0.2813
  386TMC3    C8 5778   1.154   2.407  11.681 -0.3209  0.1329  0.4889
  386TMC3    O1 5779   1.038   2.625  11.997  0.3390  0.2601  0.0612
  386TMC3    O2 5780   1.034   2.430  11.706  0.2648 -0.0307 -0.3034
  387MPD2     C 5781   3.580   2.343   9.399 -0.8163 -0.1015  0.1600
  387MPD2    C1 5782   3.619   2.307   9.525  0.1722  0.0536 -0.3182
  387MPD2    C2 5783   3.531   2.259   9.614  0.0130 -0.6401 -0.7437
  387MPD2    C3 5784   3.403   2.240   9.582  0.4805 -0.1086  0.8325
  387MPD2    C4 5785   3.364   2.290   9.465  0.5505 -0.0131  0.3872
  387MPD2    C5 5786   3.446   2.340   9.374 -0.2483 -0.6169 -0.3780
  387MPD2     H 5787   3.560   2.232   9.715 -2.0623  1.9415  0.5308
  387MPD2    H1 5788   3.261   2.302   9.433  1.0764  3.6539  0.1044
  387MPD2    H2 5789   3.641   2.394   9.325  1.3897  1.6232  3.1815
  387MPD2    H3 5790   3.406   2.390   9.287  1.9942  1.3588 -0.2989
  387MPD2     N 5791   3.318   2.183   9.679  0.0556 -0.2514 -0.4556
  387MPD2    H5 5792   3.367   2.161   9.765 -0.0871 -0.6379 -0.4749
  387MPD2    N1 5793   3.754   2.326   9.561 -0.4652  0.3754 -0.4742
  387MPD2    H7 5794   3.779   2.298   9.656 -1.4218 -2.1101 -0.9478
  388TMC3    C1 5795   3.951   2.426   9.608  0.0312  0.4361 -1.0043
  388TMC3    C2 5796   4.082   2.407   9.582 -0.0535  0.1074 -0.7450
  388TMC3    C3 5797   4.175   2.430   9.687 -0.4959  0.3140 -0.1328
  388TMC3    C4 5798   3.907   2.460   9.732  0.6161 -0.1647 -0.0481
  388TMC3    C5 5799   3.998   2.489   9.832  0.9796  0.0711  0.0064
  388TMC3    C6 5800   4.134   2.469   9.812  0.3809 -0.2451  0.0812
  388TMC3     C 5801   3.851   2.394   9.504 -0.7653 -0.0087 -0.4738
  388TMC3     O 5802   3.875   2.438   9.390  0.2459 -0.5902 -0.0043
  388TMC3     H 5803   4.114   2.372   9.485 -0.4899 -0.8661 -0.5381
  388TMC3    H1 5804   3.800   2.471   9.747  0.8668  1.8099  0.3755
  388TMC3    H2 5805   4.197   2.462   9.900 -0.9053 -0.0785  1.0085
  388TMC3    C7 5806   3.950   2.450   9.958  0.9940  0.3486 -0.2839
  388TMC3    C8 5807   4.317   2.384   9.672 -0.5865  0.0279  0.3967
  388TMC3    O1 5808   4.029   2.388  10.029 -0.0804 -0.0221 -0.4295
  388TMC3    O2 5809   4.392   2.376   9.767  0.1789 -0.8199 -0.9108
  389MPD2     C 5810   2.760   0.828  11.568  0.0649 -0.6966 -0.0015
  389MPD2    C1 5811   2.715   0.806  11.441  0.6512  0.6211  0.0052
  389MPD2    C2 5812   2.685   0.674  11.406 -0.1401  0.9865  0.3914
  389MPD2    C3 5813   2.700   0.565  11.496 -0.0657  0.3474  0.6619
  389MPD2    C4 5814   2.726   0.597  11.627 -0.4092 -0.2322 -0.1454
  389MPD2    C5 5815   2.756   0.727  11.659  0.5096 -0.1817 -0.5360
  389MPD2     H 5816   2.655   0.647  11.306 -1.0241 -0.6719  1.0907
  389MPD2    H1 5817   2.718   0.521  11.704  1.0448 -0.8312 -0.5721
  389MPD2    H2 5818   2.770   0.929  11.605  1.3499 -0.5667 -0.7120
  389MPD2    H3 5819   2.780   0.747  11.762 -1.1162  1.6842 -0.5342
  389MPD2     N 5820   2.653   0.431  11.476  0.7043 -0.1419  0.0230
  389MPD2    H5 5821   2.675   0.360  11.545 -0.4780 -1.4007 -0.8760
  389MPD2    N1 5822   2.698   0.911  11.350  0.3505  0.1409  0.3728
  389MPD2    H7 5823   2.759   0.992  11.354  1.1829 -0.4327 -0.7354
  390TMC3    C1 5824   2.486   0.277  11.391 -0.3794  0.1904  0.0195
  390TMC3    C2 5825   2.414   0.222  11.290  0.2166 -0.0513  0.4891
  390TMC3    C3 5826   2.332   0.117  11.318  0.0926 -0.0458 -0.2961
  390TMC3    C4 5827   2.477   0.240  11.521 -0.7049  0.0391  0.1840
  390TMC3    C5 5828   2.393   0.130  11.545 -0.8597 -0.0972 -0.1063
  390TMC3    C6 5829   2.316   0.069  11.445  0.5239  0.2629 -0.0304
  390TMC3     C 5830   2.583   0.391  11.363  0.5969 -0.4220  0.0434
  390TMC3     O 5831   2.596   0.433  11.247  0.4971  0.6849 -0.6429
  390TMC3     H 5832   2.433   0.256  11.189 -1.6787  1.6115  0.6931
  390TMC3    H1 5833   2.527   0.288  11.604  1.2521 -1.7574  0.0667
  390TMC3    H2 5834   2.234   0.001  11.468 -0.1981  0.3260 -2.3607
  390TMC3    C7 5835   2.409   0.070  11.672  0.3550  0.0026 -0.1078
  390TMC3    C8 5836   2.238   0.079  11.208 -0.2920 -0.4331 -0.7652
  390TMC3    O1 5837   2.517   0.085  11.728 -0.2859 -0.2846 -0.5456
  390TMC3    O2 5838   2.263   0.108  11.092 -0.4626 -0.1458 -0.5533
  391MPD2     C 5839   1.919   1.948  11.167 -0.4829  0.3217 -0.0782
  391MPD2    C1 5840   1.995   2.061  11.146  0.9923 -0.0796  0.7684
  391MPD2    C2 5841   2.009   2.110  11.019  0.3871  0.5898 -0.9021
  391MPD2    C3 5842   1.961   2.036  10.910  0.3348  0.3022 -0.4821
  391MPD2    C4 5843   1.881   1.921  10.933 -0.4062  0.7604 -0.2381
  391MPD2    C5 5844   1.862   1.879  11.060  0.3689 -0.3471  0.0435
  391MPD2     H 5845   2.051   2.207  10.996  2.0170 -0.2041 -1.2232
  391MPD2    H1 5846   1.838   1.866  10.850  1.7040 -0.3738 -0.5840
  391MPD2    H2 5847   1.906   1.902  11.264  0.0845 -1.3384 -0.7887
  391MPD2    H3 5848   1.800   1.791  11.076  0.7914 -0.4977  0.8754
  391MPD2     N 5849   1.989   2.081  10.785 -0.2504 -0.7473 -0.5830
  391MPD2    H5 5850   2.042   2.165  10.765  0.7253 -1.3847 -0.6385
  391MPD2    N1 5851   2.039   2.134  11.264  0.1152  0.3165 -0.6475
  391MPD2    H7 5852   2.017   2.084  11.350  1.0685  0.5569 -0.2604
  392TMC3    C1 5853   1.994   2.091  10.558  0.3308 -0.6664  0.7281
  392TMC3    C2 5854   1.927   2.102  10.441  0.5247 -0.2124 -0.6964
  392TMC3    C3 5855   1.957   2.189  10.339  0.1320  0.7909 -0.3812
  392TMC3    C4 5856   2.108   2.171  10.568 -0.6566  0.3064 -0.3077
  392TMC3    C5 5857   2.143   2.254  10.462  0.3833  0.2063 -0.2450
  392TMC3    C6 5858   2.066   2.268  10.353  0.1218  0.1301  0.1317
  392TMC3     C 5859   1.929   2.033  10.671 -0.2632  0.1346 -0.0690
  392TMC3     O 5860   1.828   1.973  10.657 -0.0259  0.2046  0.8028
  392TMC3     H 5861   1.846   2.033  10.419  2.8369 -2.7422 -1.3451
  392TMC3    H1 5862   2.183   2.154  10.645 -0.7650 -2.3131 -0.8152
  392TMC3    H2 5863   2.102   2.323  10.267  1.9336  0.8839  1.3903
  392TMC3    C7 5864   2.248   2.351  10.483  0.1320  0.2083 -0.0266
  392TMC3    C8 5865   1.893   2.174  10.206  0.5006  0.2147 -0.5526
  392TMC3    O1 5866   2.254   2.371  10.602  0.1338 -0.8856  0.2920
  392TMC3    O2 5867   1.852   2.069  10.162  0.2044  0.5965  0.0516
  393TMC3    C1 5868   0.374   0.421  10.342  0.4935 -0.2725 -0.7981
  393TMC3    C2 5869   0.252   0.392  10.284 -0.9484  0.0301 -0.2149
  393TMC3    C3 5870   0.164   0.315  10.355  0.7711  0.1845 -0.2158
  393TMC3    C4 5871   0.421   0.364  10.458 -0.0489  1.0103 -0.3553
  393TMC3    C5 5872   0.328   0.285  10.519 -0.3554  0.6889  0.2234
  393TMC3    C6 5873   0.201   0.261  10.470 -0.3367  0.1599  0.3822
  393TMC3     C 5874   0.458   0.478  10.242 -0.6431  0.3092  0.0567
  393TMC3     O 5875   0.430   0.475  10.122 -0.6162 -0.0108  0.0556
  393TMC3     H 5876   0.205   0.441  10.199 -2.3302 -1.0929 -0.0847
  393TMC3    H1 5877   0.516   0.384  10.508  0.5378 -1.6696 -0.4159
  393TMC3    H2 5878   0.145   0.194  10.534  1.3122 -0.7022  0.9192
  393TMC3    C7 5879   0.328   0.272  10.663 -0.1699 -0.3779  0.4858
  393TMC3    C8 5880   0.022   0.356  10.338  0.7228 -0.1605 -0.3371
  393TMC3    O1 5881   0.223   0.280  10.727  0.1169 -0.2413 -0.0224
  393TMC3    O2 5882   4.688   0.368  10.229  0.0963 -0.4090  0.0857
  394TMC3    C1 5883   2.629   1.015  11.162 -0.1195 -0.0605  0.4338
  394TMC3    C2 5884   2.533   1.040  11.059 -0.3689 -0.0227 -0.3413
  394TMC3    C3 5885   2.568   1.114  10.947 -0.5551 -0.0072 -0.3493
  394TMC3    C4 5886   2.757   1.067  11.151  0.0572  0.3147 -0.5176
  394TMC3    C5 5887   2.786   1.136  11.030 -1.1002 -0.1519  0.3173
  394TMC3    C6 5888   2.692   1.164  10.936  0.1150 -0.4933  0.5674
  394TMC3     C 5889   2.612   0.908  11.243  0.6357  0.4605  0.1687
  394TMC3     O 5890   2.510   0.840  11.238  0.3732  0.5538 -0.3660
  394TMC3     H 5891   2.435   0.997  11.074  0.2787 -1.5486 -0.5033
  394TMC3    H1 5892   2.838   1.061  11.224 -1.9701  1.3503  1.8175
  394TMC3    H2 5893   2.717   1.233  10.856 -1.9813 -1.5368 -0.9847
  394TMC3    C7 5894   2.925   1.139  10.981 -0.4316 -0.0082  0.8123
  394TMC3    C8 5895   2.505   1.075  10.816 -0.5988  0.1982  0.0422
  394TMC3    O1 5896   2.952   1.225  10.897  0.2299 -0.4439  0.4692
  394TMC3    O2 5897   2.402   1.006  10.813  0.7492  0.2294 -0.1505
  395TMC3    C1 5898   1.927   1.979  14.911 -0.1815 -0.0179  0.5124
  395TMC3    C2 5899   1.942   1.941  14.783 -0.1148  0.1761  0.7784
  395TMC3    C3 5900   1.960   2.041  14.687 -0.1801  0.0777  0.0443
  395TMC3    C4 5901   1.914   2.107  14.955  0.3948  0.1512  0.2916
  395TMC3    C5 5902   1.924   2.203  14.857 -0.0478 -0.0785  0.0545
  395TMC3    C6 5903   1.951   2.171  14.729  0.3726  0.1184 -0.3216
  395TMC3     C 5904   1.865   1.880  14.999 -0.1385 -0.3051 -1.0006
  395TMC3     O 5905   1.794   1.789  14.959  0.0100  0.1146 -0.7694
  395TMC3     H 5906   1.953   1.835  14.763  0.8960  0.1288  1.6219
  395TMC3    H1 5907   1.896   2.144  15.055  1.7671  0.2867  0.4933
  395TMC3    H2 5908   1.974   2.255  14.664 -0.3424  0.5741  0.0145
  395TMC3    C7 5909   1.980   2.325  14.905 -0.1567  0.2884  0.2493
  395TMC3    C8 5910   2.020   2.010  14.561 -0.1277  0.2799  0.0193
  395TMC3    O1 5911   2.029   2.312  15.018 -0.8729 -0.5430 -0.1760
  395TMC3    O2 5912   2.048   2.110  14.497 -0.3323  0.2962 -0.0935
  396MPD2     C 5913   1.986   3.828  16.798  0.8546  0.3485 -0.0159
  396MPD2    C1 5914   2.099   3.895  16.839  0.2708  0.1957 -0.4553
  396MPD2    C2 5915   2.112   4.038  16.827 -0.2706  0.3975  0.5129
  396MPD2    C3 5916   2.013   4.106  16.775 -0.0179  1.1241  0.1712
  396MPD2    C4 5917   1.891   4.044  16.751  0.3622 -0.1867 -0.3234
  396MPD2    C5 5918   1.881   3.901  16.755  0.6663 -0.2096 -0.0818
  396MPD2     H 5919   2.209   4.080  16.851  1.5321 -2.2153 -2.0967
  396MPD2    H1 5920   1.803   4.103  16.734  0.8705  0.6029 -0.1982
  396MPD2    H2 5921   1.984   3.720  16.802 -1.4281  0.3806 -0.7537
  396MPD2    H3 5922   1.783   3.857  16.744  0.6112  0.1455 -0.9751
  396MPD2     N 5923   2.034   4.239  16.739 -0.1282  0.1909  0.4557
  396MPD2    H5 5924   2.122   4.277  16.773  0.2349  0.2963 -0.6275
  396MPD2    N1 5925   2.197   3.798  16.877 -0.3552  0.0297 -0.5759
  396MPD2    H7 5926   2.181   3.699  16.867 -1.0409  0.1207 -0.3405
  397TMC3    C1 5927   2.405   3.715  16.941  0.1486  0.1550 -0.0152
  397TMC3    C2 5928   2.504   3.731  16.848 -0.0562  0.8351 -0.4354
  397TMC3    C3 5929   2.552   3.630  16.768 -0.3114  0.2823  0.3044
  397TMC3    C4 5930   2.346   3.591  16.940 -0.5839 -0.5181 -0.3324
  397TMC3    C5 5931   2.395   3.489  16.856  0.3710 -0.0026 -0.0106
  397TMC3    C6 5932   2.494   3.510  16.765 -0.3695  0.2134  0.8154
  397TMC3     C 5933   2.312   3.824  16.941  0.5383 -0.4300  0.8281
  397TMC3     O 5934   2.359   3.923  16.992 -0.3764  0.0502 -0.2686
  397TMC3     H 5935   2.518   3.833  16.813 -0.1367  1.4954  1.5064
  397TMC3    H1 5936   2.246   3.580  16.980 -0.3700 -0.9249  0.0967
  397TMC3    H2 5937   2.537   3.429  16.707 -2.0592  0.5990 -0.9895
  397TMC3    C7 5938   2.379   3.351  16.893 -0.7063 -0.7473 -0.2932
  397TMC3    C8 5939   2.605   3.665  16.640  0.1085 -0.1449 -0.5595
  397TMC3    O1 5940   2.442   3.266  16.833 -0.2697 -0.3400 -0.0146
  397TMC3    O2 5941   2.574   3.597  16.546  0.1796  0.1691 -1.0537
  398MPD2     C 5942   0.262   0.133   0.284 -0.0964 -0.0243  0.3915
  398MPD2    C1 5943   0.376   0.049   0.279 -0.7506 -0.3019  0.0168
  398MPD2    C2 5944   0.499   0.102   0.251  0.3737 -0.0069 -0.6233
  398MPD2    C3 5945   0.509   0.241   0.249 -0.2716  0.0802 -1.0850
  398MPD2    C4 5946   0.404   0.330   0.262 -0.7937  0.7864  0.2463
  398MPD2    C5 5947   0.282   0.271   0.280  0.5561 -0.4238 -0.1618
  398MPD2     H 5948   0.585   0.036   0.251  1.9081  1.9645  2.8289
  398MPD2    H1 5949   0.402   0.438   0.266 -1.0034  0.7221  1.8639
  398MPD2    H2 5950   0.162   0.096   0.303  0.0320 -0.7709 -0.3658
  398MPD2    H3 5951   0.195   0.335   0.287  0.7482 -0.3727  1.7767
  398MPD2     N 5952   0.642   0.287   0.237 -0.4020 -0.4433  0.0540
  398MPD2    H5 5953   0.717   0.219   0.240  0.6746  0.7351 -0.5100
  398MPD2    N1 5954   0.373   4.631   0.301 -0.4654  0.0231  0.2603
  398MPD2    H7 5955   0.456   4.579   0.275 -1.4826 -1.6585  0.3587
  399TMC3    C1 5956   0.270   4.418   0.347 -0.1326 -0.4694  0.1011
  399TMC3    C2 5957   0.392   4.357   0.367  0.2856 -0.5553 -0.3705
  399TMC3    C3 5958   0.403   4.221   0.336 -0.3777  0.2463 -0.3486
  399TMC3    C4 5959   0.150   4.346   0.329  0.3996  0.0534 -0.2766
  399TMC3    C5 5960   0.164   4.208   0.313  0.2401  0.1578  0.3110
  399TMC3    C6 5961   0.284   4.148   0.317  0.0023 -0.8301 -0.4832
  399TMC3     C 5962   0.262   4.563   0.347 -0.6205 -0.2119 -0.1568
  399TMC3     O 5963   0.164   4.614   0.399 -0.0610 -0.6742  0.5608
  399TMC3     H 5964   0.469   4.433   0.375 -1.3031  1.1038 -0.7834
  399TMC3    H1 5965   0.061   4.405   0.312  0.6630  1.2481  2.6013
  399TMC3    H2 5966   0.294   4.040   0.320 -0.2240 -0.8134  1.0249
  399TMC3    C7 5967   0.051   4.118   0.318 -0.7663 -0.0680 -0.0653
  399TMC3    C8 5968   0.530   4.173   0.318  0.4737  0.4433 -0.1055
  399TMC3    O1 5969   0.075   3.999   0.339 -0.8708  0.4365  0.1208
  399TMC3    O2 5970   0.627   4.247   0.334  0.2641 -0.1758  0.1902
  400TMC3    C1 5971   3.794   3.842  16.528 -0.3825  1.0577 -0.6810
  400TMC3    C2 5972   3.719   3.732  16.531  0.0037  0.9216  0.1709
  400TMC3    C3 5973   3.619   3.728  16.440 -0.0947 -0.0593  0.0952
  400TMC3    C4 5974   3.769   3.948  16.450 -0.0765  0.0983 -0.1521
  400TMC3    C5 5975   3.654   3.941  16.375 -0.5499  0.3883  0.4463
  400TMC3    C6 5976   3.586   3.830  16.357 -0.2269  0.1666  0.1474
  400TMC3     C 5977   3.931   3.837  16.576  0.1790  0.1057 -0.1915
  400TMC3     O 5978   4.004   3.932  16.554 -0.3433 -0.2728  0.0621
  400TMC3     H 5979   3.728   3.658  16.610  0.0745  1.3603  0.5795
  400TMC3    H1 5980   3.834   4.034  16.451 -1.0694  0.8364  0.8422
  400TMC3    H2 5981   3.502   3.830  16.288  1.6546  1.4225 -2.1523
  400TMC3    C7 5982   3.576   4.062  16.363  0.1987  0.2723 -0.7320
  400TMC3    C8 5983   3.501   3.649  16.461  0.2079 -0.3225  0.4286
  400TMC3    O1 5984   3.504   4.069  16.261  0.5956  0.5297  0.1409
  400TMC3    O2 5985   3.390   3.698  16.435 -0.0440 -0.5438  0.2666
  401MPD2     C 5986   2.200   2.018   0.248  0.3683 -0.0382 -0.5276
  401MPD2    C1 5987   2.301   1.980   0.341  0.2201 -0.4622  0.0208
  401MPD2    C2 5988   2.313   1.844   0.357 -0.0111 -0.5477 -0.8613
  401MPD2    C3 5989   2.230   1.754   0.295  0.1169 -1.1406 -0.1139
  401MPD2    C4 5990   2.128   1.796   0.222  0.3092 -0.0246  0.1712
  401MPD2    C5 5991   2.117   1.931   0.193 -0.3625 -0.1317  0.1090
  401MPD2     H 5992   2.383   1.806   0.431  1.7498  3.9927 -0.1860
  401MPD2    H1 5993   2.071   1.720   0.169 -0.3839  0.7939 -0.2602
  401MPD2    H2 5994   2.193   2.118   0.208  1.0450 -0.7508 -2.4562
  401MPD2    H3 5995   2.032   1.964   0.135  0.3334  1.7840  0.1997
  401MPD2     N 5996   2.265   1.619   0.318 -0.2924 -0.1597  0.3478
  401MPD2    H5 5997   2.355   1.589   0.354  0.4355  2.0242  0.3529
  401MPD2    N1 5998   2.386   2.075   0.401  0.4490  0.1573  0.5901
  401MPD2    H7 5999   2.465   2.036   0.450  0.2351 -0.1080  0.7256
  402TMC3    C1 6000   2.228   1.397   0.347 -0.1270 -0.6237 -0.8313
  402TMC3    C2 6001   2.178   1.334   0.465 -0.1121  0.4134  0.4782
  402TMC3    C3 6002   2.250   1.238   0.529 -0.2305 -0.7001  0.6452
  402TMC3    C4 6003   2.348   1.360   0.293 -0.0525 -0.2490  0.2210
  402TMC3    C5 6004   2.415   1.259   0.358 -0.6401 -0.0847  0.3264
  402TMC3    C6 6005   2.373   1.200   0.479  0.7214  0.4846 -0.0995
  402TMC3     C 6006   2.175   1.519   0.292  0.8827  0.1402 -0.5896
  402TMC3     O 6007   2.053   1.526   0.274  0.6004  0.3037 -0.0800
  402TMC3     H 6008   2.095   1.388   0.509  1.0082  2.3000  0.2761
  402TMC3    H1 6009   2.384   1.408   0.203 -2.1016 -1.9801 -1.4941
  402TMC3    H2 6010   2.446   1.139   0.532  0.9373  1.2552  0.4851
  402TMC3    C7 6011   2.537   1.224   0.296  0.0128 -0.4786 -0.2581
  402TMC3    C8 6012   2.229   1.202   0.672 -0.3573  0.0215 -0.0936
  402TMC3    O1 6013   2.582   1.114   0.318 -0.9676  0.0633 -0.5183
  402TMC3    O2 6014   2.293   1.104   0.713 -0.2536  0.1101 -0.0548
  403MPD2     C 6015   4.666   4.671  13.694 -0.3811 -0.5382  0.4734
  403MPD2    C1 6016   0.048   4.606  13.636 -0.0179  0.2571 -0.7607
  403MPD2    C2 6017   0.175   4.619  13.688 -0.2007  0.5082 -1.0018
  403MPD2    C3 6018   0.206   4.719  13.785  0.2421  0.0474  0.0986
  403MPD2    C4 6019   0.105   0.058  13.852 -0.1425  0.3101 -0.0344
  403MPD2    C5 6020   4.700   0.031  13.802 -0.6697 -0.1268 -0.2295
  403MPD2     H 6021   0.255   4.559  13.647  1.4295  0.2593  2.5490
  403MPD2    H1 6022   0.113   0.130  13.933 -1.6741 -1.2520  1.4976
  403MPD2    H2 6023   4.564   4.660  13.659 -0.1911 -1.1517  0.1169
  403MPD2    H3 6024   4.618   0.077  13.857 -0.4283  0.1701 -0.1168
  403MPD2     N 6025   0.335   0.014  13.830  0.0653  0.7374  0.1073
  403MPD2    H5 6026   0.399   4.659  13.809 -2.1224 -1.1446  0.0879
  403MPD2    N1 6027   0.012   4.526  13.521 -0.5533  0.6663 -0.4098
  403MPD2    H7 6028   4.634   4.504  13.512 -0.5937  0.8136 -0.3099
  404TMC3    C1 6029   0.046   4.381  13.339 -1.1988 -0.0326 -0.0577
  404TMC3    C2 6030   4.705   4.273  13.397 -0.0436 -0.0242  0.4154
  404TMC3    C3 6031   4.690   4.165  13.320  0.3556 -0.0367 -0.4920
  404TMC3    C4 6032   0.094   4.372  13.212 -0.3692 -0.2636 -0.4411
  404TMC3    C5 6033   0.063   4.266  13.138  0.5227  0.2198  0.8989
  404TMC3    C6 6034   0.004   4.162  13.190  0.1540 -0.0113 -0.3884
  404TMC3     C 6035   0.098   4.482  13.424 -0.3378 -0.4431 -0.0150
  404TMC3     O 6036   0.215   4.509  13.403 -0.0943  0.2411  0.6060
  404TMC3     H 6037   4.665   4.280  13.497 -0.9070 -1.7148  0.1875
  404TMC3    H1 6038   0.155   4.452  13.169 -0.6709 -0.6580 -1.6169
  404TMC3    H2 6039   4.716   4.076  13.124  1.9192  0.5047 -1.2709
  404TMC3    C7 6040   0.085   4.274  12.997 -0.0774 -0.2034 -0.4936
  404TMC3    C8 6041   4.692   4.038  13.385  0.0466  0.4106 -0.2393
  404TMC3    O1 6042   0.188   4.330  12.969 -0.1834 -0.3315 -0.2609
  404TMC3    O2 6043   0.052   3.958  13.341 -0.0143 -0.5699  0.1382
  405MPD2     C 6044   0.882   0.756  14.516  0.2243 -0.2226 -0.2399
  405MPD2    C1 6045   0.798   0.650  14.534  0.0567  0.1443  0.6937
  405MPD2    C2 6046   0.667   0.671  14.518  0.0093 -0.1746 -0.0944
  405MPD2    C3 6047   0.610   0.791  14.497  0.0162 -0.3500  0.4604
  405MPD2    C4 6048   0.694   0.895  14.483 -0.0562 -0.6486  0.4515
  405MPD2    C5 6049   0.829   0.878  14.497  0.4917  0.7088 -0.6550
  405MPD2     H 6050   0.605   0.585  14.496  0.6600  0.0019 -2.6853
  405MPD2    H1 6051   0.657   0.996  14.471  0.6502 -0.5329 -0.7163
  405MPD2    H2 6052   0.985   0.746  14.547  0.0761 -0.0855  0.2898
  405MPD2    H3 6053   0.882   0.972  14.497  0.1306  0.9149  2.4919
  405MPD2     N 6054   0.466   0.790  14.469 -0.0755  0.0798 -0.1829
  405MPD2    H5 6055   0.409   0.709  14.494 -0.4928  0.1728 -0.8231
  405MPD2    N1 6056   0.858   0.530  14.563  0.5729 -0.3931 -0.0895
  405MPD2    H7 6057   0.956   0.514  14.543  0.4578 -1.9349  0.6509
  406TMC3    C1 6058   0.024   0.876  14.412 -0.1496  0.2921  0.0226
  406TMC3    C2 6059   0.005   0.747  14.367 -0.2438  0.0348  0.0573
  406TMC3    C3 6060   0.119   0.674  14.346  0.1567  0.7701  0.8944
  406TMC3    C4 6061   0.153   0.933  14.424 -0.0712  0.1196  0.7344
  406TMC3    C5 6062   0.255   0.852  14.391  0.1945  0.7872 -0.3933
  406TMC3    C6 6063   0.245   0.721  14.352  0.1841  0.9027 -0.2977
  406TMC3     C 6064   4.634   0.965  14.410  0.4639  0.8180  0.0870
  406TMC3     O 6065   4.660   1.081  14.381  0.1581 -0.9926  0.7390
  406TMC3     H 6066   4.627   0.714  14.337 -0.3889  0.6743 -0.1821
  406TMC3    H1 6067   0.173   1.032  14.464 -1.7084  0.5106  0.6002
  406TMC3    H2 6068   0.334   0.660  14.345  0.2282  0.6053  2.7969
  406TMC3    C7 6069   0.388   0.895  14.420 -0.1777 -0.0330 -0.7291
  406TMC3    C8 6070   0.107   0.529  14.364  0.1516 -0.5745 -0.0233
  406TMC3    O1 6071   0.417   1.012  14.404  0.2998  0.1500  0.0797
  406TMC3    O2 6072   4.719   0.498  14.413  0.0880  0.5319 -0.1372
  407MPD2     C 6073   2.517   2.296   9.681  0.3642 -0.0452  0.1160
  407MPD2    C1 6074   2.600   2.232   9.772  0.2948 -0.0917 -0.6580
  407MPD2    C2 6075   2.693   2.307   9.846  0.0729  0.0140  0.3712
  407MPD2    C3 6076   2.708   2.442   9.824 -0.8323 -0.0450  0.6004
  407MPD2    C4 6077   2.613   2.506   9.745  0.4045 -0.2995  0.3305
  407MPD2    C5 6078   2.525   2.432   9.665  0.4216  0.5200  0.3778
  407MPD2     H 6079   2.762   2.250   9.907 -0.9897  0.1231  1.6825
  407MPD2    H1 6080   2.601   2.612   9.727  2.9225 -0.0655  0.0875
  407MPD2    H2 6081   2.457   2.240   9.609 -0.8510  2.2158 -0.6057
  407MPD2    H3 6082   2.456   2.486   9.602 -0.4655  1.3942  2.0909
  407MPD2     N 6083   2.807   2.524   9.885 -0.6947 -0.0676 -0.4626
  407MPD2    H5 6084   2.814   2.618   9.848 -1.6952  0.2753  0.2175
  407MPD2    N1 6085   2.591   2.093   9.789 -0.4517  0.1249  0.0945
  407MPD2    H7 6086   2.663   2.045   9.843  0.4662 -0.2423 -1.4455
  408TMC3    C1 6087   2.526   1.880   9.739 -0.3223  0.2230 -0.5681
  408TMC3    C2 6088   2.658   1.843   9.732 -0.7835 -0.1777  0.4417
  408TMC3    C3 6089   2.691   1.707   9.700  0.5427 -0.2515  0.2496
  408TMC3    C4 6090   2.424   1.787   9.734  0.3505 -0.2822  0.3561
  408TMC3    C5 6091   2.458   1.656   9.717 -0.6941 -1.3000  0.2945
  408TMC3    C6 6092   2.592   1.615   9.699  0.9678 -0.0360 -0.2705
  408TMC3     C 6093   2.487   2.016   9.739 -0.7118  0.2270 -0.1543
  408TMC3     O 6094   2.372   2.045   9.713 -0.1319 -0.0821  0.8054
  408TMC3     H 6095   2.741   1.912   9.730 -1.5694  0.6875 -2.6283
  408TMC3    H1 6096   2.320   1.817   9.731  0.3170 -0.4889 -0.3953
  408TMC3    H2 6097   2.606   1.511   9.671 -1.5969 -0.4824  0.0709
  408TMC3    C7 6098   2.355   1.554   9.697  0.4956 -0.3384  0.5709
  408TMC3    C8 6099   2.819   1.647   9.737 -0.0468 -0.3023  0.8533
  408TMC3    O1 6100   2.285   1.557   9.595 -0.3800  0.2215 -0.6934
  408TMC3    O2 6101   2.805   1.533   9.781  0.4167 -0.3551 -0.0918
  409MPD2     C 6102   2.730   3.278  16.514 -0.2700  0.1970 -0.1934
  409MPD2    C1 6103   2.788   3.320  16.631  0.2220 -0.3534  0.5153
  409MPD2    C2 6104   2.863   3.437  16.633 -0.6703  0.2422 -0.2199
  409MPD2    C3 6105   2.892   3.503  16.514 -0.3562  0.2579  0.1719
  409MPD2    C4 6106   2.823   3.466  16.392 -0.1013 -0.4741  0.3360
  409MPD2    C5 6107   2.744   3.355  16.399 -0.6760  0.3089  0.0200
  409MPD2     H 6108   2.905   3.459  16.731 -1.0844  1.6163 -0.3548
  409MPD2    H1 6109   2.829   3.524  16.301 -0.1803  0.3293  0.8375
  409MPD2    H2 6110   2.683   3.181  16.506  1.7582 -0.7108 -1.2362
  409MPD2    H3 6111   2.685   3.319  16.316  1.4231 -1.2876 -0.7862
  409MPD2     N 6112   2.977   3.618  16.506  0.6414  0.5244  0.3765
  409MPD2    H5 6113   2.986   3.663  16.415 -0.0157  0.2927  0.1941
  409MPD2    N1 6114   2.766   3.253  16.752  0.3304 -0.2630 -0.6525
  409MPD2    H7 6115   2.796   3.301  16.837 -1.6489 -1.5408  0.7729
  410TMC3    C1 6116   3.118   3.790  16.593  0.1252 -0.3525 -0.1737
  410TMC3    C2 6117   3.205   3.823  16.692  0.2545  0.0372 -0.2008
  410TMC3    C3 6118   3.291   3.925  16.679 -0.1133 -0.0886  0.3570
  410TMC3    C4 6119   3.138   3.842  16.474  0.1496  0.1715 -0.3753
  410TMC3    C5 6120   3.222   3.946  16.453  0.6660  0.2120 -0.5415
  410TMC3    C6 6121   3.302   3.990  16.557  0.5694  0.5257 -0.7118
  410TMC3     C 6122   3.044   3.670  16.617  0.3456  0.2628 -0.2788
  410TMC3     O 6123   3.046   3.629  16.730  0.2947 -0.4233 -0.1186
  410TMC3     H 6124   3.194   3.781  16.791  2.0487  1.2586  0.5022
  410TMC3    H1 6125   3.076   3.804  16.394 -0.2234  0.3651 -0.1774
  410TMC3    H2 6126   3.358   4.082  16.547  3.1172 -0.7690  1.7172
  410TMC3    C7 6127   3.207   4.025  16.325  0.3153  0.0017  0.7836
  410TMC3    C8 6128   3.419   3.884  16.724  0.3905  0.3029 -0.0204
  410TMC3    O1 6129   3.174   3.964  16.228 -0.2721 -0.2234  0.3207
  410TMC3    O2 6130   3.512   3.956  16.686 -0.3397  0.1492 -0.2355
  411MPD2     C 6131   2.384   2.736  14.690 -0.3014 -0.0628 -0.7889
  411MPD2    C1 6132   2.259   2.775  14.639 -0.1105  0.3327 -0.5221
  411MPD2    C2 6133   2.182   2.685  14.573  0.7177  0.2057  0.4469
  411MPD2    C3 6134   2.226   2.553  14.554 -0.3379  0.0095 -0.0689
  411MPD2    C4 6135   2.353   2.516  14.600  0.4032  0.2156 -0.4045
  411MPD2    C5 6136   2.435   2.611  14.657 -0.4042 -0.1151  0.3861
  411MPD2     H 6137   2.076   2.699  14.550  0.8175 -0.8773 -0.7045
  411MPD2    H1 6138   2.400   2.422  14.574  0.2424 -0.0249  0.1960
  411MPD2    H2 6139   2.451   2.810  14.732  0.8414 -0.5312 -1.7906
  411MPD2    H3 6140   2.535   2.573  14.674 -0.3438 -0.4697 -0.7182
  411MPD2     N 6141   2.154   2.462  14.484 -0.7175 -0.1377  0.1632
  411MPD2    H5 6142   2.204   2.375  14.468 -1.1342 -0.1135 -1.2967
  411MPD2    N1 6143   2.204   2.900  14.661 -0.4777  0.0285 -0.0947
  411MPD2    H7 6144   2.108   2.905  14.628 -0.9015 -1.5431  0.9135
  412TMC3    C1 6145   1.982   2.407  14.331 -0.2590  0.3637 -0.3022
  412TMC3    C2 6146   1.884   2.476  14.258 -0.0966 -0.8996  0.2476
  412TMC3    C3 6147   1.871   2.441  14.126  0.4528 -1.2294  0.3194
  412TMC3    C4 6148   2.065   2.308  14.272  0.6511  0.0469 -0.2329
  412TMC3    C5 6149   2.031   2.268  14.146  0.4534 -0.1210 -0.0416
  412TMC3    C6 6150   1.928   2.330  14.079 -0.3160  0.0687 -0.2562
  412TMC3     C 6151   2.022   2.465  14.458 -0.5662 -0.2468  0.2109
  412TMC3     O 6152   1.943   2.546  14.505  0.5108 -0.6318 -0.6230
  412TMC3     H 6153   1.853   2.573  14.296  2.3015 -0.1408  0.3276
  412TMC3    H1 6154   2.142   2.255  14.327 -0.7099 -1.6521  0.0248
  412TMC3    H2 6155   1.930   2.301  13.974 -1.2915  0.5107 -0.3894
  412TMC3    C7 6156   2.151   2.240  14.068 -0.0371 -0.3983 -0.0349
  412TMC3    C8 6157   1.886   2.550  14.040  0.6200 -0.2429 -0.0693
  412TMC3    O1 6158   2.236   2.159  14.111 -0.6045  0.1358 -0.0323
  412TMC3    O2 6159   1.979   2.541  13.956 -0.1853  0.3912  0.3989
  413MPD2     C 6160   4.447   1.805  15.271  0.3138 -0.0803 -0.1294
  413MPD2    C1 6161   4.398   1.742  15.159 -0.6490  0.1620 -0.1827
  413MPD2    C2 6162   4.456   1.621  15.117  0.1597  1.0922  0.1379
  413MPD2    C3 6163   4.553   1.561  15.193  0.1769 -0.0221  0.2729
  413MPD2    C4 6164   4.589   1.617  15.314  0.3704 -0.1987 -0.8580
  413MPD2    C5 6165   4.532   1.731  15.351 -1.0111 -0.5621 -0.4555
  413MPD2     H 6166   4.420   1.569  15.029  1.8633 -0.2440  0.2195
  413MPD2    H1 6167   4.669   1.576  15.375 -0.9504  0.1577  1.1347
  413MPD2    H2 6168   4.404   1.901  15.296  1.8028  0.8602 -1.2451
  413MPD2    H3 6169   4.564   1.784  15.440  0.4817 -2.5901  0.2022
  413MPD2     N 6170   4.594   1.430  15.158 -0.4278 -0.5691  0.0043
  413MPD2    H5 6171   4.536   1.387  15.086 -0.3741  0.6996 -0.7919
  413MPD2    N1 6172   4.310   1.821  15.078  0.0240  0.3319 -0.5656
  413MPD2    H7 6173   4.291   1.919  15.098  0.2944  0.0533  1.0836
  414TMC3    C1 6174   0.007   1.233  15.146  0.8388  0.4445  0.7236
  414TMC3    C2 6175   0.094   1.149  15.201  0.5985 -0.6774  0.5338
  414TMC3    C3 6176   0.084   1.022  15.168  0.5734 -0.3118 -0.5096
  414TMC3    C4 6177   4.641   1.194  15.047 -0.2693  0.4421  0.1776
  414TMC3    C5 6178   4.661   1.068  14.998  0.0673  0.5416 -0.1220
  414TMC3    C6 6179   0.014   0.976  15.059 -0.3751 -0.2051  0.3481
  414TMC3     C 6180   4.714   1.368  15.204 -0.1428 -0.7420 -0.1386
  414TMC3     O 6181   0.074   1.406  15.289 -0.5071  0.2071 -0.7098
  414TMC3     H 6182   0.145   1.172  15.294 -1.0591  1.4402  0.9255
  414TMC3    H1 6183   4.590   1.261  14.979  0.6153  1.0981  0.1579
  414TMC3    H2 6184   0.008   0.876  15.017  0.4704  0.2750 -0.9362
  414TMC3    C7 6185   4.584   1.033  14.873  0.2061 -0.1160  0.3392
  414TMC3    C8 6186   0.207   0.947  15.182 -0.1849 -0.6339 -0.7638
  414TMC3    O1 6187   4.474   1.085  14.873 -1.1049  0.7297 -0.0580
  414TMC3    O2 6188   0.191   0.830  15.159  0.4366  0.3916 -0.4973
  415TMC3    C1 6189   4.554   4.483   9.680 -0.6371 -0.8982 -0.9055
  415TMC3    C2 6190   4.642   4.523   9.586  0.7989 -0.9291  0.0532
  415TMC3    C3 6191   4.599   4.608   9.485  0.6840 -0.1277 -0.0766
  415TMC3    C4 6192   4.422   4.525   9.683 -0.0249  0.3671 -0.5392
  415TMC3    C5 6193   4.381   4.601   9.573  0.3113 -0.1693  0.1736
  415TMC3    C6 6194   4.466   4.639   9.473  0.0987  0.4202  0.9282
  415TMC3     C 6195   4.623   4.449   9.807  0.7177 -0.2224  0.2430
  415TMC3     O 6196   0.025   4.434   9.803  0.2283  1.0237 -0.1561
  415TMC3     H 6197   0.029   4.505   9.587  0.3256 -3.6671 -0.2620
  415TMC3    H1 6198   4.355   4.517   9.768  2.1080 -0.1905  1.0941
  415TMC3    H2 6199   4.438   4.703   9.390 -0.9781  0.2897  1.1919
  415TMC3    C7 6200   4.244   4.638   9.567 -0.4296 -0.1842 -0.3816
  415TMC3    C8 6201   4.676   4.628   9.366 -0.3984  0.1429 -0.2766
  415TMC3    O1 6202   4.208   4.714   9.476  0.1471  0.2978 -0.5259
  415TMC3    O2 6203   4.610   4.647   9.264 -0.1633 -0.3650 -0.3778
  416MPD2     C 6204   1.715   3.650  11.095 -0.1426  0.3904 -0.4077
  416MPD2    C1 6205   1.679   3.587  11.215 -0.0216  0.4059 -0.4940
  416MPD2    C2 6206   1.728   3.460  11.241  0.3395 -0.0266  0.2095
  416MPD2    C3 6207   1.811   3.395  11.154  0.3560  0.4475  0.3595
  416MPD2    C4 6208   1.861   3.468  11.051 -0.2986  0.5614 -0.0434
  416MPD2    C5 6209   1.801   3.586  11.011 -0.2059  0.1338  0.1035
  416MPD2     H 6210   1.687   3.398  11.320  2.4204 -2.4553 -0.5920
  416MPD2    H1 6211   1.945   3.433  10.992 -0.3566 -0.3158  0.3901
  416MPD2    H2 6212   1.675   3.748  11.072  0.8846  1.1036  0.8140
  416MPD2    H3 6213   1.837   3.638  10.923  0.6512  0.2267  0.5090
  416MPD2     N 6214   1.853   3.263  11.184 -0.2513 -0.9703 -0.0997
  416MPD2    H5 6215   1.814   3.231  11.272 -0.8546 -0.8670 -0.3316
  416MPD2    N1 6216   1.607   3.664  11.310  0.3273 -0.4206  0.3193
  416MPD2    H7 6217   1.576   3.755  11.277  1.2785 -0.4814 -0.7308
  417TMC3    C1 6218   1.470   3.719  11.499  0.5997 -0.4001 -0.3193
  417TMC3    C2 6219   1.462   3.708  11.630 -0.1225  0.2002 -1.0234
  417TMC3    C3 6220   1.365   3.780  11.682 -0.8201 -0.2872 -0.6754
  417TMC3    C4 6221   1.391   3.795  11.417 -0.6032 -0.0002 -0.1208
  417TMC3    C5 6222   1.299   3.873  11.480  0.1128 -0.2326  0.3685
  417TMC3    C6 6223   1.277   3.862  11.613 -0.3906  0.7975 -0.1301
  417TMC3     C 6224   1.558   3.618  11.430 -0.9590  0.2799  0.0075
  417TMC3     O 6225   1.580   3.509  11.488  0.4808  0.2171  0.0932
  417TMC3     H 6226   1.523   3.642  11.690 -3.1928  0.4508  2.3681
  417TMC3    H1 6227   1.399   3.814  11.310  2.3923 -1.7751 -0.2134
  417TMC3    H2 6228   1.202   3.917  11.669 -0.1975  0.4612  0.4571
  417TMC3    C7 6229   1.204   3.925  11.387  0.0749 -0.3712  0.8542
  417TMC3    C8 6230   1.341   3.766  11.827 -0.3701 -0.3016  0.3191
  417TMC3    O1 6231   1.179   4.041  11.377  0.0152 -0.2142 -0.3697
  417TMC3    O2 6232   1.337   3.874  11.880  0.5129  0.0626 -0.4497
  418TMC3    C1 6233   0.994   0.370   0.016  0.2742  0.0960 -0.5967
  418TMC3    C2 6234   0.871   0.425   0.042  0.3147 -0.4870  0.5936
  418TMC3    C3 6235   0.828   0.410   0.168 -0.3475  0.7575  0.1381
  418TMC3    C4 6236   1.076   0.306   0.106  0.4627 -0.3312  0.9536
  418TMC3    C5 6237   1.029   0.300   0.232  0.5958 -0.2614  0.0059
  418TMC3    C6 6238   0.897   0.347   0.263 -0.1210  0.2887  0.2670
  418TMC3     C 6239   1.004   0.344  17.558 -0.0099 -0.1483 -0.0467
  418TMC3     O 6240   0.961   0.436  17.490  0.4570 -0.5764  0.1935
  418TMC3     H 6241   0.808   0.460  17.646  0.4976  0.1062  0.7090
  418TMC3    H1 6242   1.172   0.262   0.081 -0.5357 -0.4212 -2.6857
  418TMC3    H2 6243   0.857   0.321   0.360 -0.3129  1.8250  0.5906
  418TMC3    C7 6244   1.093   0.205   0.326  0.2444 -0.3010 -0.2870
  418TMC3    C8 6245   0.683   0.412   0.193 -0.1320  0.4825  0.1651
  418TMC3    O1 6246   1.141   0.107   0.272 -0.0716 -0.8845 -0.3637
  418TMC3    O2 6247   0.606   0.490   0.142  0.1454 -0.1605 -0.3791
  419MPD2     C 6248   4.014   2.710  12.081 -0.0538 -0.6544  0.6866
  419MPD2    C1 6249   3.928   2.817  12.102  0.4049 -0.7350 -0.2020
  419MPD2    C2 6250   3.838   2.817  12.206  0.1533  0.4852 -0.0810
  419MPD2    C3 6251   3.847   2.724  12.304  0.1082 -0.5984 -0.0360
  419MPD2    C4 6252   3.938   2.619  12.294  1.3398 -0.2578  0.3816
  419MPD2    C5 6253   4.016   2.618  12.181  0.0846  0.0508 -0.2728
  419MPD2     H 6254   3.778   2.905  12.225  0.1296  0.2814  0.8091
  419MPD2    H1 6255   3.942   2.542  12.370  1.2892 -1.8793 -1.2868
  419MPD2    H2 6256   4.091   2.716  12.004  1.3544 -1.4889  2.0361
  419MPD2    H3 6257   4.088   2.537  12.172 -1.0237 -0.7888 -1.7289
  419MPD2     N 6258   3.743   2.735  12.399 -0.3894  0.6358  0.0400
  419MPD2    H5 6259   3.678   2.810  12.381 -3.0829 -1.0494  2.5644
  419MPD2    N1 6260   3.914   2.918  12.006 -0.0637  0.0888 -0.3975
  419MPD2    H7 6261   3.826   2.967  12.019  0.0786  0.0127  0.8016
  420TMC3    C1 6262   3.634   2.714  12.595  0.0590 -0.4484 -0.0216
  420TMC3    C2 6263   3.503   2.741  12.560 -0.1545  0.1715  0.2733
  420TMC3    C3 6264   3.415   2.779  12.658  0.2089  0.4943  0.3831
  420TMC3    C4 6265   3.675   2.714  12.723  0.2343 -0.5755  0.3770
  420TMC3    C5 6266   3.585   2.750  12.813 -0.0905  1.1479 -0.1427
  420TMC3    C6 6267   3.452   2.783  12.788  0.2900 -0.0178  0.6063
  420TMC3     C 6268   3.738   2.671  12.516  0.2832 -0.1711  0.1837
  420TMC3     O 6269   3.789   2.568  12.556 -0.6422  0.0162 -0.2735
  420TMC3     H 6270   3.479   2.746  12.455  1.7492 -0.6287 -0.1963
  420TMC3    H1 6271   3.781   2.701  12.743  0.2152 -0.0034  0.8489
  420TMC3    H2 6272   3.379   2.805  12.865  0.4521  0.5090  0.6144
  420TMC3    C7 6273   3.639   2.810  12.933 -0.0559 -0.7455  0.5279
  420TMC3    C8 6274   3.334   2.895  12.626 -0.1130  0.0965  0.4537
  420TMC3    O1 6275   3.612   2.757  13.040 -0.2174 -0.5802  0.4257
  420TMC3    O2 6276   3.342   2.976  12.712  0.2685 -0.1071  0.3966
  421TMC3    C1 6277   0.525   0.145  13.888  0.0833  0.4015 -0.2131
  421TMC3    C2 6278   0.575   0.268  13.884  0.1410 -0.8443 -0.9827
  421TMC3    C3 6279   0.709   0.285  13.887  0.4813  0.0927  0.5577
  421TMC3    C4 6280   0.600   0.033  13.882  0.5384 -0.5910  0.2547
  421TMC3    C5 6281   0.736   0.053  13.870 -0.5083 -0.0349 -0.0695
  421TMC3    C6 6282   0.789   0.179  13.875  0.3639  0.0500  0.2781
  421TMC3     C 6283   0.383   0.134  13.883  0.5996 -0.3249 -0.3114
  421TMC3     O 6284   0.320   0.235  13.909  0.2110  0.8344  0.2339
  421TMC3     H 6285   0.508   0.354  13.891  0.6913 -0.5312  0.3476
  421TMC3    H1 6286   0.550   4.661  13.908  2.0454 -0.8975  2.0114
  421TMC3    H2 6287   0.895   0.193  13.889  0.4441 -0.6007  0.3186
  421TMC3    C7 6288   0.820   4.658  13.886 -0.5246  0.5079 -0.2560
  421TMC3    C8 6289   0.768   0.416  13.897 -0.8856 -0.8526  0.0106
  421TMC3    O1 6290   0.932   4.695  13.920 -0.4061 -0.7985 -0.1110
  421TMC3    O2 6291   0.860   0.443  13.825 -0.1701 -0.0939 -0.6069
  422TMC3    C1 6292   2.790   1.115  12.471  1.0340  1.3694  0.1424
  422TMC3    C2 6293   2.727   1.230  12.485 -0.1488  0.3168 -1.4672
  422TMC3    C3 6294   2.661   1.257  12.602 -0.3397 -0.3978 -0.2641
  422TMC3    C4 6295   2.778   1.015  12.565 -0.8843  0.5318 -0.0012
  422TMC3    C5 6296   2.687   1.039  12.669  0.0860  0.0245 -0.3217
  422TMC3    C6 6297   2.639   1.163  12.701 -0.2485 -0.1714  0.4091
  422TMC3     C 6298   2.884   1.121  12.363  0.3994  0.2496  0.1078
  422TMC3     O 6299   2.847   1.184  12.263  0.6333  0.4035  0.3012
  422TMC3     H 6300   2.753   1.316  12.424  1.1164  2.6113  2.3014
  422TMC3    H1 6301   2.813   0.915  12.544 -0.0601  0.6302  0.9123
  422TMC3    H2 6302   2.580   1.186  12.789 -2.0295  0.6893 -0.9999
  422TMC3    C7 6303   2.605   0.925  12.692 -0.3812 -0.1988  0.7433
  422TMC3    C8 6304   2.583   1.383  12.628 -0.3762 -0.2307  0.2609
  422TMC3    O1 6305   2.656   0.818  12.710 -0.4044 -0.1055  0.0955
  422TMC3    O2 6306   2.532   1.402  12.737 -0.1389 -0.2631 -0.3793
  423MPD2     C 6307   0.065   2.628   0.586  0.0341 -0.1207 -0.1839
  423MPD2    C1 6308   4.720   2.504   0.617 -0.0266 -0.0765 -0.0632
  423MPD2    C2 6309   0.011   2.403   0.531  0.6451  0.2663  0.1813
  423MPD2    C3 6310   0.097   2.415   0.418  0.2156  0.3102 -0.3255
  423MPD2    C4 6311   0.169   2.525   0.398  0.3756  0.4691 -0.3332
  423MPD2    C5 6312   0.144   2.631   0.477 -0.0271  0.7175  0.3603
  423MPD2     H 6313   4.663   2.319   0.539 -2.1356  2.6327  0.8964
  423MPD2    H1 6314   0.231   2.539   0.310 -0.2016 -1.0855 -0.9954
  423MPD2    H2 6315   0.040   2.720   0.638 -1.5670 -1.0664  0.7408
  423MPD2    H3 6316   0.190   2.726   0.453 -0.1153  0.7200  0.2017
  423MPD2     N 6317   0.105   2.313   0.316 -0.1098 -0.4364  0.3213
  423MPD2    H5 6318   0.168   2.342   0.241 -0.7307  2.7101  1.0283
  423MPD2    N1 6319   4.617   2.497   0.710  0.6401 -0.0573  1.0384
  423MPD2    H7 6320   4.575   2.404   0.720  1.1375 -0.3002  0.8487
  424TMC3    C1 6321   4.493   2.563   0.904  0.0483 -0.5821  0.0396
  424TMC3    C2 6322   4.553   2.477   0.986 -0.3320  0.8662  0.1479
  424TMC3    C3 6323   4.488   2.450   1.100  0.2370 -0.0321 -0.4498
  424TMC3    C4 6324   4.378   2.628   0.937  0.3278  0.4108  0.2335
  424TMC3    C5 6325   4.315   2.597   1.055 -0.3596  0.2678 -0.0080
  424TMC3    C6 6326   4.362   2.500   1.136  0.1506 -0.0395  0.9633
  424TMC3     C 6327   4.561   2.598   0.780  0.1415  0.1254 -0.4032
  424TMC3     O 6328   4.563   2.716   0.750  0.1744 -0.1306 -0.2746
  424TMC3     H 6329   4.652   2.440   0.959 -0.0716  1.2863  0.5271
  424TMC3    H1 6330   4.345   2.703   0.866 -0.2199 -1.1052 -1.1203
  424TMC3    H2 6331   4.319   2.465   1.229  0.5338  2.2277  2.0177
  424TMC3    C7 6332   4.173   2.634   1.077  0.7316  0.0994 -1.0352
  424TMC3    C8 6333   4.547   2.351   1.194 -0.4040 -0.4394  0.1313
  424TMC3    O1 6334   4.120   2.689   0.979  0.0329  0.3287 -0.3458
  424TMC3    O2 6335   4.473   2.291   1.274 -0.1721 -0.0631 -0.0004
  425MPD2     C 6336   3.511   1.745  17.370 -0.0256 -0.6033  0.4552
  425MPD2    C1 6337   3.419   1.676  17.293 -0.6206 -0.3677 -0.1008
  425MPD2    C2 6338   3.304   1.746  17.258 -0.2699 -0.2748 -0.0872
  425MPD2    C3 6339   3.286   1.877  17.294  1.1794  0.5278  0.3411
  425MPD2    C4 6340   3.385   1.942  17.361 -0.3967 -0.1908  0.9217
  425MPD2    C5 6341   3.498   1.877  17.404  0.0698  0.2885  0.2601
  425MPD2     H 6342   3.223   1.700  17.204 -1.1487  0.5648  0.5011
  425MPD2    H1 6343   3.380   2.048  17.384  1.3150  0.0246  0.3474
  425MPD2    H2 6344   3.597   1.699  17.419  0.1044  0.5235  1.2926
  425MPD2    H3 6345   3.579   1.921  17.461 -0.1226 -0.1219  0.8413
  425MPD2     N 6346   3.162   1.930  17.256 -0.7368 -0.5994 -0.0940
  425MPD2    H5 6347   3.106   1.869  17.197 -1.4010 -0.0787 -0.0091
  425MPD2    N1 6348   3.447   1.537  17.264 -0.3251 -0.5547  0.0972
  425MPD2    H7 6349   3.531   1.492  17.300  0.6500  0.8696 -0.3922
  426TMC3    C1 6350   3.408   1.334  17.158 -0.5582  0.4760 -0.4284
  426TMC3    C2 6351   3.361   1.261  17.051 -0.2722 -0.8590  0.0745
  426TMC3    C3 6352   3.384   1.131  17.045 -0.4071  0.8929 -0.8023
  426TMC3    C4 6353   3.468   1.271  17.264 -0.5204 -0.1492  0.3691
  426TMC3    C5 6354   3.478   1.134  17.257 -0.4781 -0.1416 -0.0751
  426TMC3    C6 6355   3.446   1.064  17.146 -0.5298  0.3117  0.0546
  426TMC3     C 6356   3.379   1.472  17.165 -0.5003 -0.1469  0.1109
  426TMC3     O 6357   3.280   1.513  17.104  0.1582  0.7200  0.0852
  426TMC3     H 6358   3.331   1.316  16.963 -2.2473  1.6461  2.3020
  426TMC3    H1 6359   3.492   1.324  17.355  0.4932  1.8806 -1.0924
  426TMC3    H2 6360   3.452   0.956  17.140 -0.4948  0.2882  0.5404
  426TMC3    C7 6361   3.496   1.050  17.377  0.3085  0.6985  1.3086
  426TMC3    C8 6362   3.357   1.070  16.920  0.3811 -0.1432 -0.5825
  426TMC3    O1 6363   3.581   0.965  17.371  0.0074  0.2680 -0.6225
  426TMC3    O2 6364   3.435   0.979  16.896 -0.0562  0.0395  0.6672
  427MPD2     C 6365   1.773   2.930  15.095 -0.6636 -0.2593  0.3310
  427MPD2    C1 6366   1.831   3.034  15.157  0.3975  0.4881  0.7649
  427MPD2    C2 6367   1.798   3.168  15.127 -0.2786 -0.0884 -0.4173
  427MPD2    C3 6368   1.698   3.194  15.038  0.3070  0.3767 -0.2916
  427MPD2    C4 6369   1.643   3.087  14.976 -0.0361 -0.1242 -0.4399
  427MPD2    C5 6370   1.677   2.959  15.006  0.2805  0.0334  0.3747
  427MPD2     H 6371   1.856   3.244  15.177  1.0824 -2.4205  1.5623
  427MPD2    H1 6372   1.564   3.101  14.902 -0.4610  0.0265  0.0377
  427MPD2    H2 6373   1.800   2.826  15.112 -2.1340 -0.6676  0.2210
  427MPD2    H3 6374   1.636   2.872  14.955 -0.3273  1.1724 -1.0810
  427MPD2     N 6375   1.646   3.316  15.008  1.6327 -0.0258  0.4493
  427MPD2    H5 6376   1.593   3.320  14.922 -1.2283 -0.9980  2.1725
  427MPD2    N1 6377   1.947   3.024  15.233 -0.3247  0.1601  0.6388
  427MPD2    H7 6378   1.986   3.115  15.256  1.3060 -0.1516 -0.9121
  428TMC3    C1 6379   2.122   2.903  15.354 -0.2745  0.1063 -0.3741
  428TMC3    C2 6380   2.160   2.790  15.420 -0.0786  0.2977  0.2312
  428TMC3    C3 6381   2.281   2.787  15.479  0.8439 -0.5097  0.4928
  428TMC3    C4 6382   2.198   3.011  15.353  0.1502  0.1742  0.3885
  428TMC3    C5 6383   2.322   3.007  15.418 -0.2146  0.0701 -0.1420
  428TMC3    C6 6384   2.365   2.897  15.485  0.0158  0.4975  0.2315
  428TMC3     C 6385   1.996   2.906  15.281 -0.1787 -0.5454  0.2963
  428TMC3     O 6386   1.937   2.800  15.273 -0.6195  0.0969  0.3090
  428TMC3     H 6387   2.089   2.709  15.430 -0.2774  0.3770 -0.5526
  428TMC3    H1 6388   2.163   3.097  15.298  0.0868 -1.3132 -1.8787
  428TMC3    H2 6389   2.469   2.885  15.516  0.3574  1.3384 -0.6150
  428TMC3    C7 6390   2.423   3.109  15.396  0.2944  0.1389  0.5091
  428TMC3    C8 6391   2.292   2.673  15.573 -0.0936 -0.2564  0.6903
  428TMC3    O1 6392   2.534   3.089  15.441 -0.5533  0.3660 -0.2985
  428TMC3    O2 6393   2.245   2.565  15.539 -0.4632  0.4035  0.3207
  429MPD2     C 6394   3.715   4.121  17.492  0.0434  0.3411 -0.2677
  429MPD2    C1 6395   3.643   4.089  17.376  0.1803  0.7270  0.0678
  429MPD2    C2 6396   3.607   4.196  17.295 -0.6772  0.1545 -0.5882
  429MPD2    C3 6397   3.635   4.331  17.318 -0.7920 -0.3073 -0.0188
  429MPD2    C4 6398   3.700   4.355  17.438  0.4251 -0.3361 -0.2836
  429MPD2    C5 6399   3.738   4.255  17.519  0.0741 -0.3409  0.5673
  429MPD2     H 6400   3.567   4.172  17.197 -0.8794  0.3565 -0.5563
  429MPD2    H1 6401   3.725   4.457  17.463  0.2876 -0.3749  0.0195
  429MPD2    H2 6402   3.743   4.045  17.564 -1.0709  0.2748  0.1053
  429MPD2    H3 6403   3.790   4.283  17.610  0.1064  0.9490  0.1537
  429MPD2     N 6404   3.605   4.420  17.209 -0.2586  0.6683  0.3463
  429MPD2    H5 6405   3.603   4.383  17.114  1.4552  0.7027  0.2906
  429MPD2    N1 6406   3.621   3.949  17.334  0.6709 -0.5337  0.0111
  429MPD2    H7 6407   3.558   3.925  17.259  1.8666 -0.0754 -1.1337
  430TMC3    C1 6408   3.626   4.633  17.100  0.4827 -0.1533  0.6356
  430TMC3    C2 6409   3.587   0.041  17.082 -0.9280 -0.1799  0.0791
  430TMC3    C3 6410   3.595   0.100  16.953 -0.5595  0.3193 -0.6280
  430TMC3    C4 6411   3.707   4.582  17.001  0.0359 -0.0752 -0.0722
  430TMC3    C5 6412   3.723   4.643  16.885 -0.0472  0.3972 -0.2951
  430TMC3    C6 6413   3.656   0.037  16.852  0.6549 -0.0627 -0.8897
  430TMC3     C 6414   3.615   4.560  17.229 -0.0240  0.0229 -0.8086
  430TMC3     O 6415   3.604   4.621  17.334  0.0451  0.0372 -0.4028
  430TMC3     H 6416   3.519   0.070  17.162  0.3108 -0.4246  1.2267
  430TMC3    H1 6417   3.752   4.483  17.005 -2.0055 -1.0284 -0.3232
  430TMC3    H2 6418   3.690   0.094  16.767  1.8840 -0.3718 -0.6042
  430TMC3    C7 6419   3.725   4.550  16.775  0.5837  0.2742  0.3061
  430TMC3    C8 6420   3.480   0.165  16.897 -0.0119 -0.0099  0.6502
  430TMC3    O1 6421   3.792   4.450  16.790 -0.6310 -0.0518 -0.1553
  430TMC3    O2 6422   3.468   0.163  16.777  0.4240  0.2208 -0.0836
  431MPD2     C 6423   3.770   3.630  12.395  0.3391 -0.7677 -0.1413
  431MPD2    C1 6424   3.847   3.678  12.285  0.1618 -0.0968 -0.2367
  431MPD2    C2 6425   3.857   3.603  12.168 -0.3584 -0.6100  0.7950
  431MPD2    C3 6426   3.787   3.481  12.154  0.8492  0.0531 -0.7515
  431MPD2    C4 6427   3.721   3.433  12.263  0.4925  0.4791  0.4567
  431MPD2    C5 6428   3.706   3.507  12.377 -0.3948 -0.6582 -0.6640
  431MPD2     H 6429   3.922   3.634  12.087 -0.4186  0.0242  0.9887
  431MPD2    H1 6430   3.673   3.337  12.249  2.8171 -0.5056 -0.7641
  431MPD2    H2 6431   3.754   3.680  12.490  0.9822 -2.7038  0.9900
  431MPD2    H3 6432   3.648   3.462  12.456 -1.0167  1.9433  0.3832
  431MPD2     N 6433   3.806   3.395  12.037  0.3409  0.1900 -0.3128
  431MPD2    H5 6434   3.764   3.303  12.031  0.6935  0.0620 -0.8799
  431MPD2    N1 6435   3.905   3.805  12.292  0.6043 -0.1308  0.6460
  431MPD2    H7 6436   3.955   3.837  12.210  1.0372 -1.8069  0.2468
  432TMC3    C1 6437   3.910   3.310  11.848 -0.1561  0.3321 -0.9558
  432TMC3    C2 6438   3.972   3.337  11.727  0.0264 -0.0072  0.1712
  432TMC3    C3 6439   4.023   3.232  11.656 -0.2995  0.4613 -0.0933
  432TMC3    C4 6440   3.924   3.190  11.910 -0.7370  0.4558 -0.1297
  432TMC3    C5 6441   3.989   3.090  11.845  0.1187  0.4583 -0.0045
  432TMC3    C6 6442   4.041   3.111  11.717  0.5132  0.0336 -0.2755
  432TMC3     C 6443   3.868   3.424  11.917  0.1626  0.3058 -0.1539
  432TMC3     O 6444   3.906   3.527  11.866  0.0969 -0.0499 -0.1336
  432TMC3     H 6445   3.988   3.438  11.691 -0.3465 -0.0433 -0.0965
  432TMC3    H1 6446   3.900   3.181  12.016 -0.7147  0.9531 -0.0821
  432TMC3    H2 6447   4.088   3.031  11.661 -0.0067 -0.1569 -0.4393
  432TMC3    C7 6448   3.993   2.951  11.901 -0.4229 -0.1282  0.4970
  432TMC3    C8 6449   4.119   3.268  11.555 -1.1253  0.9093 -0.6584
  432TMC3    O1 6450   4.077   2.878  11.848 -0.6630 -0.8179  0.6170
  432TMC3    O2 6451   4.158   3.383  11.566 -0.2919  0.6760 -0.1537
  433MPD2     C 6452   2.770   2.887  10.878  0.1933 -0.5149 -0.6137
  433MPD2    C1 6453   2.694   2.773  10.906  0.3791 -0.3186  0.3842
  433MPD2    C2 6454   2.624   2.781  11.027  0.0032 -0.4153 -0.3653
  433MPD2    C3 6455   2.621   2.895  11.109  0.2141 -0.0562 -0.7615
  433MPD2    C4 6456   2.706   3.006  11.072  0.1211 -0.1340  0.5359
  433MPD2    C5 6457   2.772   2.997  10.953  0.2763  0.0413  0.4095
  433MPD2     H 6458   2.570   2.693  11.061 -0.8735  0.8353  1.4262
  433MPD2    H1 6459   2.723   3.096  11.129  0.7186  0.4363 -0.5500
  433MPD2    H2 6460   2.835   2.883  10.791  2.1619 -0.7387  0.8684
  433MPD2    H3 6461   2.835   3.075  10.910 -1.6048  1.4763  0.2747
  433MPD2     N 6462   2.553   2.896  11.232  0.0132  0.1388 -0.1618
  433MPD2    H5 6463   2.495   2.814  11.246 -0.5320  0.7001  0.8608
  433MPD2    N1 6464   2.693   2.654  10.821  0.3329 -0.3536  0.3245
  433MPD2    H7 6465   2.767   2.650  10.752  0.5247 -1.8746  0.6228
  434TMC3    C1 6466   2.661   2.432  10.752 -0.0621  0.3238  0.4004
  434TMC3    C2 6467   2.685   2.322  10.825 -0.2880  0.0079  0.0699
  434TMC3    C3 6468   2.804   2.254  10.792 -0.9573  0.1429 -0.2786
  434TMC3    C4 6469   2.731   2.462  10.636  0.3206  0.2228  0.5491
  434TMC3    C5 6470   2.825   2.377  10.591 -0.0593  0.4964  0.4915
  434TMC3    C6 6471   2.878   2.275  10.676  0.0764 -0.1177  0.4836
  434TMC3     C 6472   2.604   2.544  10.821  0.0114 -0.6951 -0.1310
  434TMC3     O 6473   2.508   2.531  10.894 -0.1160 -0.0506 -0.0642
  434TMC3     H 6474   2.623   2.313  10.914  1.9255  1.1485  1.7205
  434TMC3    H1 6475   2.703   2.542  10.568  2.2406  0.2421 -0.2255
  434TMC3    H2 6476   2.975   2.232  10.656 -0.9662 -1.6611 -1.3460
  434TMC3    C7 6477   2.883   2.407  10.459 -0.1892  0.1292  0.1968
  434TMC3    C8 6478   2.851   2.170  10.898 -0.2071  0.0860  0.1216
  434TMC3    O1 6479   2.922   2.525  10.451  0.7280  0.3287 -0.2494
  434TMC3    O2 6480   2.774   2.144  10.992  0.0515  0.0220  0.3594
  435MPD2     C 6481   0.185   2.382  15.109  0.4581 -0.2490 -1.0100
  435MPD2    C1 6482   0.131   2.359  15.236  0.5828 -0.1104  0.3103
  435MPD2    C2 6483   0.213   2.291  15.329  0.9876  0.6275  0.6874
  435MPD2    C3 6484   0.338   2.244  15.292  1.0742 -0.5914 -0.0687
  435MPD2    C4 6485   0.376   2.258  15.165 -0.6875 -0.2781  0.5052
  435MPD2    C5 6486   0.307   2.329  15.080  0.7359 -0.4192 -0.0524
  435MPD2     H 6487   0.177   2.280  15.430  1.6998 -0.1550  0.8475
  435MPD2    H1 6488   0.472   2.219  15.132  0.0278  2.1890 -0.3913
  435MPD2    H2 6489   0.130   2.445  15.040  0.6879  0.8360 -0.2007
  435MPD2    H3 6490   0.348   2.337  14.980 -0.4242  0.8972 -0.4213
  435MPD2     N 6491   0.408   2.166  15.383 -0.2505 -0.2090  0.2881
  435MPD2    H5 6492   0.367   2.137  15.470 -0.2158  0.3602  0.4917
  435MPD2    N1 6493   0.008   2.395  15.288  0.2011  0.3434 -0.0792
  435MPD2    H7 6494   4.709   2.376  15.386  0.0521 -1.2341 -0.4115
  436TMC3    C1 6495   4.432   2.673  15.437  0.0552 -0.3429  0.1733
  436TMC3    C2 6496   4.484   2.630  15.314 -0.4499 -0.4658  0.7818
  436TMC3    C3 6497   4.514   2.496  15.304  0.4841 -0.2408 -0.1659
  436TMC3    C4 6498   4.384   2.575  15.528  0.1906  0.9848 -0.1150
  436TMC3    C5 6499   4.400   2.441  15.497  0.0013  0.9607 -0.4402
  436TMC3    C6 6500   4.474   2.397  15.392  0.0524 -0.7798 -0.1671
  436TMC3     C 6501   4.531   2.762  15.496 -0.6688  0.0314 -0.7630
  436TMC3     O 6502   4.640   2.777  15.441 -0.4577 -0.3906  0.0301
  436TMC3     H 6503   4.525   2.705  15.248 -1.5791 -1.0198 -0.5565
  436TMC3    H1 6504   4.340   2.605  15.623  2.2504  4.2403 -0.1828
  436TMC3    H2 6505   4.502   2.294  15.372  0.5009 -0.3163 -1.9896
  436TMC3    C7 6506   4.339   2.354  15.592 -0.4552  0.1639  0.2984
  436TMC3    C8 6507   4.632   2.474  15.221  0.2763 -0.1976  0.1043
  436TMC3    O1 6508   4.275   2.401  15.687  0.4427  0.0402  0.1396
  436TMC3    O2 6509   4.640   2.521  15.108  0.9956 -0.8805 -0.2355
  437TMC3    C1 6510   3.400   3.962  12.338 -0.1050 -0.6202 -0.0657
  437TMC3    C2 6511   3.403   3.849  12.260  0.5254  0.1566  1.2618
  437TMC3    C3 6512   3.506   3.835  12.179 -0.2065  0.6548  0.4872
  437TMC3    C4 6513   3.500   4.055  12.339  0.9487 -0.2535  0.8985
  437TMC3    C5 6514   3.601   4.030  12.256  0.2568 -0.0161 -0.4014
  437TMC3    C6 6515   3.606   3.929  12.166  0.3285  0.1112  0.2185
  437TMC3     C 6516   3.278   3.986  12.412 -0.9328  0.4335  0.8410
  437TMC3     O 6517   3.202   3.888  12.413  0.0912  0.3281 -0.3063
  437TMC3     H 6518   3.324   3.775  12.265 -0.4729  0.8996 -3.5268
  437TMC3    H1 6519   3.501   4.147  12.395  0.5788  0.5764 -0.4631
  437TMC3    H2 6520   3.694   3.914  12.105  0.5924 -0.3983  0.7258
  437TMC3    C7 6521   3.681   4.143  12.214 -0.0309  0.6147  0.1772
  437TMC3    C8 6522   3.514   3.726  12.096  0.1928 -0.1192 -0.3636
  437TMC3    O1 6523   3.693   4.158  12.098 -0.3674  0.4867  0.0585
  437TMC3    O2 6524   3.579   3.730  11.997 -0.2322 -0.8042 -0.0869
  438MPD2     C 6525   1.060   0.189  16.616 -0.4616  0.3099 -0.4486
  438MPD2    C1 6526   1.155   0.105  16.666  0.4299 -0.4599 -0.2385
  438MPD2    C2 6527   1.124   0.025  16.768  0.2517  0.4084 -0.0634
  438MPD2    C3 6528   0.996   0.029  16.828 -0.0395 -0.0696 -0.4640
  438MPD2    C4 6529   0.906   0.114  16.777  0.0428  0.0835  0.2002
  438MPD2    C5 6530   0.941   0.193  16.676 -0.4981 -0.3193  0.5636
  438MPD2     H 6531   1.203   4.689  16.816 -0.2980 -0.9060 -0.7163
  438MPD2    H1 6532   0.805   0.121  16.818  0.7213  1.7043  1.5686
  438MPD2    H2 6533   1.082   0.266  16.543  1.1092  0.1791 -0.1258
  438MPD2    H3 6534   0.872   0.272  16.647 -0.3347  0.0159  1.1013
  438MPD2     N 6535   0.956   4.661  16.937 -1.0479  0.0179  0.1671
  438MPD2    H5 6536   0.866   4.683  16.979 -0.2424  2.5996  0.5541
  438MPD2    N1 6537   1.284   0.118  16.627 -0.5069  0.5591  0.1100
  438MPD2    H7 6538   1.359   0.093  16.690 -0.7679 -1.9423 -0.5631
  439TMC3    C1 6539   1.455   0.142  16.481  0.1061 -0.2949 -0.1373
  439TMC3    C2 6540   1.476   0.061  16.367  0.5838  0.3814  0.6594
  439TMC3    C3 6541   1.584   4.697  16.369 -0.4459 -0.2145  0.4362
  439TMC3    C4 6542   1.540   0.139  16.589  0.1550  1.2043 -0.4755
  439TMC3    C5 6543   1.642   0.046  16.583  0.0733  0.1272  0.7057
  439TMC3    C6 6544   1.663   4.683  16.482  0.3413  0.1056  0.2458
  439TMC3     C 6545   1.315   0.158  16.503 -0.5439 -0.3653  0.1812
  439TMC3     O 6546   1.242   0.166  16.409 -0.4757 -0.0644  0.2393
  439TMC3     H 6547   1.416   0.063  16.277 -2.6502 -0.9369  2.7839
  439TMC3    H1 6548   1.515   0.191  16.681  0.2997 -0.1342  0.3330
  439TMC3    H2 6549   1.744   4.611  16.481  1.1513  1.0318 -0.0423
  439TMC3    C7 6550   1.710   0.026  16.709  0.5695  0.2517 -0.1819
  439TMC3    C8 6551   1.611   4.622  16.254 -0.3911  0.0690  0.0066
  439TMC3    O1 6552   1.716   0.122  16.784 -0.5671  0.2104  0.5127
  439TMC3    O2 6553   1.606   4.671  16.144 -0.0849 -0.5247  0.0372
  440MPD2     C 6554   4.717   0.340  14.763 -0.5313 -0.3466  0.0169
  440MPD2    C1 6555   0.064   0.420  14.852  0.6166 -0.2602 -0.5818
  440MPD2    C2 6556   0.195   0.415  14.873 -0.6611  0.1771 -0.2226
  440MPD2    C3 6557   0.275   0.319  14.807 -0.2997  0.0874  0.0164
  440MPD2    C4 6558   0.203   0.223  14.728  0.1384  0.0757  0.3129
  440MPD2    C5 6559   0.068   0.243  14.703  1.0629  0.1634 -0.2046
  440MPD2     H 6560   0.249   0.484  14.936  1.7034 -1.7360 -0.1386
  440MPD2    H1 6561   0.265   0.141  14.696  0.7219  0.0142  1.6096
  440MPD2    H2 6562   4.616   0.356  14.729 -0.0481  0.5910 -0.9396
  440MPD2    H3 6563   0.015   0.172  14.641  1.1332  0.0138 -0.0930
  440MPD2     N 6564   0.408   0.312  14.833 -0.6440 -0.4676 -0.4266
  440MPD2    H5 6565   0.463   0.233  14.803  0.4881  0.1952 -0.0919
  440MPD2    N1 6566   4.710   0.510  14.932 -0.0813 -0.1463  0.3705
  440MPD2    H7 6567   0.042   0.549  15.011  0.3894  2.6439 -1.3127
  441TMC3    C1 6568   0.610   0.359  14.949 -0.4369 -0.1817 -0.2325
  441TMC3    C2 6569   0.684   0.472  14.971 -0.8034 -0.2670 -0.1903
  441TMC3    C3 6570   0.749   0.488  15.086  0.2237  0.0258 -0.0216
  441TMC3    C4 6571   0.592   0.265  15.048  0.6344  1.0359 -0.3416
  441TMC3    C5 6572   0.647   0.304  15.168 -0.3406 -0.0977  0.2337
  441TMC3    C6 6573   0.739   0.403  15.186 -0.2296 -0.2564  0.1044
  441TMC3     C 6574   0.483   0.409  14.895  0.6548  0.0864 -0.2397
  441TMC3     O 6575   0.465   0.530  14.904  0.2635 -0.1512 -0.1393
  441TMC3     H 6576   0.690   0.543  14.889 -0.4455  1.4265  1.3164
  441TMC3    H1 6577   0.511   0.196  15.028  1.4666  0.1621 -0.7272
  441TMC3    H2 6578   0.758   0.435  15.288 -1.4677 -1.3710  0.6849
  441TMC3    C7 6579   0.552   0.296  15.276 -0.4007 -0.0866 -0.3214
  441TMC3    C8 6580   0.770   0.622  15.133  0.0405 -0.7076  0.1802
  441TMC3    O1 6581   0.593   0.324  15.387  0.5984  0.1956  0.5505
  441TMC3    O2 6582   0.878   0.652  15.186  0.3907  0.2950  0.4196
  442MPD2     C 6583   3.180   1.598  16.724  0.6598 -0.1596 -0.1058
  442MPD2    C1 6584   3.068   1.635  16.646 -0.4143  0.0861 -0.8043
  442MPD2    C2 6585   3.028   1.556  16.540  0.5480  0.3369 -0.4676
  442MPD2    C3 6586   3.083   1.431  16.526  0.1374 -0.4105  0.6747
  442MPD2    C4 6587   3.195   1.394  16.593 -0.2768  0.5614 -0.0999
  442MPD2    C5 6588   3.252   1.485  16.682 -0.4050 -0.0825  0.2050
  442MPD2     H 6589   2.963   1.587  16.459 -0.4836 -1.5217 -0.3617
  442MPD2    H1 6590   3.243   1.298  16.580 -1.1194  0.2910 -1.2401
  442MPD2    H2 6591   3.215   1.659  16.806  0.5424 -0.3860  0.1137
  442MPD2    H3 6592   3.340   1.451  16.736 -2.6140 -1.7700  2.7656
  442MPD2     N 6593   3.041   1.341  16.430  0.4693  0.3488 -0.3347
  442MPD2    H5 6594   3.096   1.256  16.421 -1.3583 -0.7226 -1.3352
  442MPD2    N1 6595   2.996   1.752  16.680  0.3152  0.4220 -0.6203
  442MPD2    H7 6596   2.923   1.772  16.612 -0.3430 -0.4853 -0.1909
  443TMC3    C1 6597   2.932   1.944  16.779 -0.1471  0.3557 -0.1423
  443TMC3    C2 6598   2.903   1.991  16.653 -0.7269 -1.0671 -0.1256
  443TMC3    C3 6599   2.785   2.065  16.629  0.3118 -0.5025 -0.5160
  443TMC3    C4 6600   2.846   1.971  16.884  0.6464  0.1344 -0.9549
  443TMC3    C5 6601   2.734   2.045  16.854  0.2133 -0.5429 -0.1930
  443TMC3    C6 6602   2.697   2.080  16.728 -0.7510  0.2497  0.2443
  443TMC3     C 6603   3.011   1.826  16.794  0.6760  0.0210  0.3351
  443TMC3     O 6604   3.048   1.794  16.901 -0.3152  0.1200 -0.7375
  443TMC3     H 6605   2.977   1.971  16.577  1.7815  3.0096  1.2328
  443TMC3    H1 6606   2.876   1.928  16.978 -0.5122  0.4163 -0.4569
  443TMC3    H2 6607   2.601   2.127  16.713 -0.7443  0.2909  0.3279
  443TMC3    C7 6608   2.636   2.056  16.957 -0.5781  0.4925  0.6710
  443TMC3    C8 6609   2.728   2.010  16.512 -0.0761 -0.2741 -0.2829
  443TMC3    O1 6610   2.564   2.158  16.949  0.3880 -0.1714 -0.2411
  443TMC3    O2 6611   2.636   1.932  16.531  0.0897  0.2207  0.3024
  444MPD2     C 6612   3.094   0.891  17.374 -0.3929 -0.5277 -0.7173
  444MPD2    C1 6613   3.007   0.904  17.263  0.0498 -0.3952  0.2608
  444MPD2    C2 6614   3.042   0.832  17.146 -0.2671 -0.7156  0.0512
  444MPD2    C3 6615   3.168   0.779  17.133 -0.0184 -0.0521  1.0436
  444MPD2    C4 6616   3.248   0.768  17.241  0.1259 -0.1559 -0.4700
  444MPD2    C5 6617   3.214   0.821  17.365 -0.2926  0.3555  0.0166
  444MPD2     H 6618   2.972   0.823  17.064 -1.5358  1.5871  0.8777
  444MPD2    H1 6619   3.346   0.723  17.229 -0.2460 -0.5554 -1.9552
  444MPD2    H2 6620   3.076   0.933  17.472  1.6109  0.4820 -0.7849
  444MPD2    H3 6621   3.281   0.803  17.449  1.9815 -2.0744 -2.3170
  444MPD2     N 6622   3.198   0.732  17.005 -0.6478  0.0220  1.1019
  444MPD2    H5 6623   3.132   0.751  16.930 -0.5908 -2.9617  0.3018
  444MPD2    N1 6624   2.879   0.962  17.274 -0.1426  0.3394  0.1628
  444MPD2    H7 6625   2.821   0.957  17.191  1.4618 -0.3982 -0.9118
  445TMC3    C1 6626   3.319   0.624  16.830 -0.8043 -0.2582  0.5199
  445TMC3    C2 6627   3.206   0.614  16.756 -0.0217 -0.5304 -0.3449
  445TMC3    C3 6628   3.210   0.529  16.649  0.3758 -0.5727  0.1430
  445TMC3    C4 6629   3.433   0.562  16.806 -0.4090 -0.1966 -0.5178
  445TMC3    C5 6630   3.437   0.479  16.692  0.8100 -0.6210 -1.0099
  445TMC3    C6 6631   3.323   0.458  16.618 -0.0210  0.1406 -0.2925
  445TMC3     C 6632   3.316   0.678  16.968  0.0474  0.0991  0.4851
  445TMC3     O 6633   3.422   0.668  17.025  0.4216 -0.8925 -0.3213
  445TMC3     H 6634   3.118   0.674  16.777  0.5228 -0.1026  0.6968
  445TMC3    H1 6635   3.518   0.566  16.873 -2.3221  2.4679  1.7405
  445TMC3    H2 6636   3.324   0.389  16.534 -2.5587  3.2361 -2.8798
  445TMC3    C7 6637   3.565   0.442  16.641 -0.5369 -0.4483 -0.3728
  445TMC3    C8 6638   3.109   0.534  16.540 -0.4349  0.3563  0.5704
  445TMC3    O1 6639   3.665   0.490  16.696 -0.5578 -0.3247  0.1510
  445TMC3    O2 6640   3.159   0.516  16.431  0.5237  0.1616  0.2145
  446MPD2     C 6641   2.439   2.170  11.422  0.8033  0.1571 -0.5124
  446MPD2    C1 6642   2.462   2.138  11.287  0.2953  0.4596 -0.1671
  446MPD2    C2 6643   2.561   2.207  11.222 -0.0426  0.1414  0.4287
  446MPD2    C3 6644   2.638   2.303  11.291 -0.1329 -0.2317 -0.4969
  446MPD2    C4 6645   2.602   2.349  11.413  0.1483  0.7214 -0.6012
  446MPD2    C5 6646   2.503   2.275  11.479 -0.3121  0.1657  0.3431
  446MPD2     H 6647   2.583   2.181  11.119 -0.3704 -0.5904  0.5476
  446MPD2    H1 6648   2.644   2.435  11.464 -0.4005  0.2720  0.6068
  446MPD2    H2 6649   2.364   2.124  11.486 -2.0714  0.0499 -3.9715
  446MPD2    H3 6650   2.474   2.300  11.581 -0.8983 -0.4068  0.3146
  446MPD2     N 6651   2.756   2.352  11.225 -0.4379 -0.5268 -0.1845
  446MPD2    H5 6652   2.779   2.313  11.134  1.8918 -1.4807  0.7837
  446MPD2    N1 6653   2.390   2.036  11.220 -0.5721  0.1918 -0.2482
  446MPD2    H7 6654   2.418   2.009  11.126 -2.3659 -2.9875  0.1218
  447TMC3    C1 6655   2.994   2.402  11.236  0.0944 -0.3314 -0.5295
  447TMC3    C2 6656   2.987   2.438  11.103 -0.3744 -0.0099  0.5902
  447TMC3    C3 6657   3.108   2.463  11.048  0.1044 -0.4497 -0.3157
  447TMC3    C4 6658   3.112   2.394  11.303  0.2162 -0.0438  0.1423
  447TMC3    C5 6659   3.230   2.419  11.246  0.1199 -0.1360  0.2130
  447TMC3    C6 6660   3.231   2.458  11.117 -0.3964 -1.2490  0.0553
  447TMC3     C 6661   2.867   2.391  11.303  1.5800  0.2281  0.4372
  447TMC3     O 6662   2.879   2.389  11.428  0.3015  0.5011  0.1709
  447TMC3     H 6663   2.897   2.449  11.045 -0.7989  0.2066  1.2895
  447TMC3    H1 6664   3.107   2.361  11.406  0.4565 -1.8652 -0.4286
  447TMC3    H2 6665   3.322   2.489  11.067 -1.1420  1.2410  0.2474
  447TMC3    C7 6666   3.348   2.349  11.285 -0.7638 -0.8768  0.2008
  447TMC3    C8 6667   3.107   2.457  10.900  0.2073 -0.2853 -0.7793
  447TMC3    O1 6668   3.440   2.345  11.200  0.6246  0.3928 -0.1268
  447TMC3    O2 6669   3.006   2.479  10.835  0.1979 -0.0003 -0.1355
  448TMC3    C1 6670   1.483   1.790  16.686 -0.1160 -0.0424  0.3495
  448TMC3    C2 6671   1.424   1.684  16.618 -0.6581 -0.1031  0.3389
  448TMC3    C3 6672   1.478   1.555  16.622  0.6759 -0.0787  0.3456
  448TMC3    C4 6673   1.597   1.762  16.769 -0.0272  0.6865 -0.3881
  448TMC3    C5 6674   1.655   1.635  16.758 -0.2420  0.6038 -0.5978
  448TMC3    C6 6675   1.599   1.539  16.683 -0.0838  0.6356  0.1662
  448TMC3     C 6676   1.422   1.925  16.675  0.3268  0.6514  0.2077
  448TMC3     O 6677   1.339   1.945  16.588 -0.0052 -0.1100 -0.3112
  448TMC3     H 6678   1.335   1.699  16.557 -0.2257  0.5332 -0.1298
  448TMC3    H1 6679   1.642   1.834  16.837 -0.4546  0.5567  0.0372
  448TMC3    H2 6680   1.639   1.438  16.680  0.2507  0.7990 -0.9018
  448TMC3    C7 6681   1.708   1.600  16.889 -0.3322  0.1653  0.0510
  448TMC3    C8 6682   1.387   1.446  16.630 -0.0163  0.1323 -0.2015
  448TMC3    O1 6683   1.749   1.697  16.950  0.0844  0.2089  0.0874
  448TMC3    O2 6684   1.424   1.367  16.716  0.4216  0.1923 -0.0191
  449MPD2     C 6685   2.547   4.580  13.940  0.2931  0.0917  0.4186
  449MPD2    C1 6686   2.471   4.658  13.853 -0.9432  0.1409  0.3069
  449MPD2    C2 6687   2.357   4.600  13.795 -0.7665  0.3371 -0.2508
  449MPD2    C3 6688   2.321   4.470  13.815 -0.2906 -0.1458 -0.4911
  449MPD2    C4 6689   2.397   4.392  13.896  0.1667 -0.0356 -0.0499
  449MPD2    C5 6690   2.506   4.449  13.963  0.6270 -0.3110  0.0315
  449MPD2     H 6691   2.296   4.650  13.720 -2.3146  2.5324  2.5010
  449MPD2    H1 6692   2.380   4.286  13.909  0.9970  0.1770  2.7464
  449MPD2    H2 6693   2.630   4.613  14.000  2.0543 -2.3370 -0.6741
  449MPD2    H3 6694   2.549   4.385  14.040  0.8658  0.6594  0.7053
  449MPD2     N 6695   2.203   4.429  13.755 -0.9009 -0.5944  0.0002
  449MPD2    H5 6696   2.162   4.494  13.688 -1.9581 -2.1107 -0.8127
  449MPD2    N1 6697   2.498   0.071  13.821  0.1251  0.3003 -0.0577
  449MPD2    H7 6698   2.428   0.126  13.771  2.0070 -1.8085 -4.9763
  450TMC3    C1 6699   2.591   0.268  13.792  0.0664  0.2139 -0.2390
  450TMC3    C2 6700   2.677   0.292  13.689 -0.7799 -0.4092 -0.3428
  450TMC3    C3 6701   2.627   0.341  13.570 -0.3229  0.2209 -0.1216
  450TMC3    C4 6702   2.459   0.312  13.792  0.4683  0.5679  0.0739
  450TMC3    C5 6703   2.416   0.356  13.665  0.6104  0.6771 -0.1490
  450TMC3    C6 6704   2.495   0.374  13.558 -0.1884 -0.2684 -0.0238
  450TMC3     C 6705   2.600   0.146  13.867  0.2534 -0.6723 -0.1419
  450TMC3     O 6706   2.717   0.109  13.889  0.0769 -0.3262 -0.2597
  450TMC3     H 6707   2.773   0.242  13.694  0.1300  1.3845  0.3715
  450TMC3    H1 6708   2.382   0.307  13.868 -1.7688  0.5165 -2.1929
  450TMC3    H2 6709   2.458   0.410  13.462 -3.8095 -0.6417  1.2443
  450TMC3    C7 6710   2.279   0.309  13.641 -0.1574 -0.3405  0.5217
  450TMC3    C8 6711   2.703   0.325  13.448  0.8587 -1.1669  0.5728
  450TMC3    O1 6712   2.239   0.236  13.729 -0.0461 -0.4868  0.0609
  450TMC3    O2 6713   2.646   0.381  13.355  0.2100  0.1431 -0.1164
  451MPD2     C 6714   3.485   2.951   1.657  0.7086 -0.1362 -0.4731
  451MPD2    C1 6715   3.553   3.049   1.581  0.5471  0.3386 -0.2548
  451MPD2    C2 6716   3.687   3.032   1.561 -0.0122 -0.1100  0.2971
  451MPD2    C3 6717   3.761   2.934   1.619  0.5860  0.3315 -0.7647
  451MPD2    C4 6718   3.694   2.849   1.703 -0.4024  0.1711 -0.7184
  451MPD2    C5 6719   3.557   2.857   1.716  0.2837 -0.6224 -0.2707
  451MPD2     H 6720   3.744   3.107   1.507  0.2010 -0.2227  0.3664
  451MPD2    H1 6721   3.753   2.776   1.757 -2.1910 -0.7632 -0.0153
  451MPD2    H2 6722   3.377   2.949   1.670  0.6024 -2.3864 -1.6822
  451MPD2    H3 6723   3.506   2.787   1.780 -0.4270 -0.5771 -0.7891
  451MPD2     N 6724   3.897   2.911   1.587 -0.1437 -0.2340  0.0080
  451MPD2    H5 6725   3.951   2.842   1.637  0.8561  0.9102  0.5138
  451MPD2    N1 6726   3.479   3.157   1.537  0.3111 -0.5282 -0.3609
  451MPD2    H7 6727   3.383   3.167   1.570  0.7174 -0.0068  0.6594
  452TMC3    C1 6728   4.097   2.918   1.452  0.2828 -0.6869 -0.0995
  452TMC3    C2 6729   4.181   2.919   1.561  0.2400  0.4815 -0.8783
  452TMC3    C3 6730   4.315   2.943   1.543  0.2245 -0.1195 -0.3687
  452TMC3    C4 6731   4.151   2.932   1.326 -0.3798  0.1680 -0.1032
  452TMC3    C5 6732   4.288   2.955   1.317 -0.5240 -0.4957  0.0586
  452TMC3    C6 6733   4.370   2.963   1.425  0.2358 -0.8877 -0.0468
  452TMC3     C 6734   3.957   2.954   1.469 -0.0275 -0.3201 -0.1481
  452TMC3     O 6735   3.886   2.993   1.374 -0.2165 -0.0423 -0.0236
  452TMC3     H 6736   4.144   2.939   1.661  0.4731 -0.3954 -0.6160
  452TMC3    H1 6737   4.093   2.957   1.238  1.2853  0.6172 -1.0808
  452TMC3    H2 6738   4.478   2.970   1.419 -0.0095  0.8323 -2.0270
  452TMC3    C7 6739   4.318   3.051   1.211  0.4253  0.2061 -0.0762
  452TMC3    C8 6740   4.391   2.893   1.657  0.2823 -0.3050 -0.0389
  452TMC3    O1 6741   4.252   3.041   1.106 -0.3319 -0.1596 -0.6205
  452TMC3    O2 6742   4.331   2.826   1.741 -0.0518  0.0813  0.2069
  453TMC3    C1 6743   0.161   0.710  12.122 -0.6832  0.1002  0.2836
  453TMC3    C2 6744   0.105   0.585  12.114  0.0156 -0.0557 -0.2867
  453TMC3    C3 6745   4.713   0.577  12.038  0.5064  0.0307 -0.1188
  453TMC3    C4 6746   0.115   0.821  12.055 -0.2911 -0.2890 -0.1124
  453TMC3    C5 6747   0.003   0.806  11.971 -0.0536  0.3895 -0.3533
  453TMC3    C6 6748   4.666   0.681  11.961  0.4449 -0.0250 -0.9094
  453TMC3     C 6749   0.304   0.731  12.131 -0.4686 -0.5626 -0.3249
  453TMC3     O 6750   0.351   0.837  12.109  1.0098 -0.4027  0.1642
  453TMC3     H 6751   0.133   0.504  12.180  1.9278  0.1917 -0.7868
  453TMC3    H1 6752   0.155   0.921  12.063  2.5246 -1.2412 -2.1738
  453TMC3    H2 6753   4.577   0.672  11.899 -1.3133  0.2128  1.5652
  453TMC3    C7 6754   0.020   0.889  11.848 -0.2470  0.7393  0.3777
  453TMC3    C8 6755   4.607   0.481  12.064  0.4973  0.2185  0.9663
  453TMC3    O1 6756   0.106   0.975  11.839  0.6428 -0.4944 -0.3493
  453TMC3    O2 6757   4.492   0.513  12.038  0.3379  0.3377 -0.3418
  454MPD2     C 6758   3.893   0.773  15.818  0.0052  1.0862  0.1528
  454MPD2    C1 6759   3.830   0.660  15.869 -0.3716 -0.7916 -0.2434
  454MPD2    C2 6760   3.793   0.654  16.002 -0.0722  0.9260 -0.2660
  454MPD2    C3 6761   3.830   0.755  16.089  0.0730 -0.1429  0.0035
  454MPD2    C4 6762   3.887   0.872  16.043  0.2412 -0.2532  0.3235
  454MPD2    C5 6763   3.920   0.874  15.905  0.3815 -0.7068  0.4681
  454MPD2     H 6764   3.731   0.570  16.029  0.1194  1.4859  1.8540
  454MPD2    H1 6765   3.906   0.956  16.109 -3.0751  1.0744 -0.4435
  454MPD2    H2 6766   3.913   0.792  15.713  0.7427  0.1779  0.1270
  454MPD2    H3 6767   3.952   0.970  15.866 -0.3105 -1.1910 -1.2763
  454MPD2     N 6768   3.793   0.748  16.226 -0.4758 -0.0478 -0.8219
  454MPD2    H5 6769   3.792   0.838  16.273 -1.7613  0.9452 -2.7578
  454MPD2    N1 6770   3.791   0.543  15.788 -0.6123 -0.8012  0.0899
  454MPD2    H7 6771   3.731   0.480  15.841  0.7755 -1.8150  0.4363
  455TMC3    C1 6772   3.629   0.620  16.333 -0.3793  0.5614  0.3910
  455TMC3    C2 6773   3.567   0.740  16.364 -0.0723  0.0372  0.6571
  455TMC3    C3 6774   3.434   0.746  16.338 -0.0921 -0.2018 -0.0749
  455TMC3    C4 6775   3.564   0.520  16.266  0.3572 -0.1192 -0.3262
  455TMC3    C5 6776   3.434   0.539  16.228 -0.1325  0.0400  0.2067
  455TMC3    C6 6777   3.361   0.650  16.271  0.2500 -0.1571  0.0930
  455TMC3     C 6778   3.767   0.627  16.289 -0.4879  0.3083  0.4733
  455TMC3     O 6779   3.810   0.518  16.266  0.1962 -0.0788 -0.3032
  455TMC3     H 6780   3.626   0.818  16.412 -0.2120  0.3866  0.2570
  455TMC3    H1 6781   3.611   0.430  16.228 -0.3864 -0.9746  0.7651
  455TMC3    H2 6782   3.257   0.672  16.250  0.3876  2.5303  2.1757
  455TMC3    C7 6783   3.368   0.428  16.152 -0.3279  0.6092 -0.2052
  455TMC3    C8 6784   3.373   0.842  16.423 -0.0841 -0.3378  0.4874
  455TMC3    O1 6785   3.444   0.355  16.082 -0.0307  0.2898 -0.3977
  455TMC3    O2 6786   3.450   0.932  16.464 -0.0765  0.0702  0.0058
  456MPD2     C 6787   1.419   0.422  16.028  0.8104  0.3056  0.1805
  456MPD2    C1 6788   1.492   0.398  16.137 -0.0501 -0.2248 -0.5328
  456MPD2    C2 6789   1.454   0.422  16.264  0.0304 -0.0379 -0.2702
  456MPD2    C3 6790   1.324   0.458  16.283 -0.2436 -0.3430  0.2265
  456MPD2    C4 6791   1.242   0.467  16.176 -0.2535 -0.4734 -0.1614
  456MPD2    C5 6792   1.289   0.451  16.046  0.1331 -0.5527 -0.3253
  456MPD2     H 6793   1.521   0.416  16.349 -1.4367  1.5595  1.0189
  456MPD2    H1 6794   1.140   0.501  16.185 -0.2239  0.0461 -1.6649
  456MPD2    H2 6795   1.464   0.421  15.930 -0.5873 -0.8626 -0.4556
  456MPD2    H3 6796   1.219   0.465  15.964 -1.8406 -0.4931  1.3530
  456MPD2     N 6797   1.288   0.496  16.415 -0.0098  0.3895  0.2213
  456MPD2    H5 6798   1.354   0.483  16.491 -0.9195 -3.8298  0.2804
  456MPD2    N1 6799   1.623   0.345  16.117  0.4573  0.1432  0.0756
  456MPD2    H7 6800   1.656   0.363  16.022 -2.2588  0.6736 -0.7841
  457TMC3    C1 6801   1.166   0.614  16.584  0.2082  0.7842  0.1238
  457TMC3    C2 6802   1.133   0.751  16.590 -0.5906 -0.2934  0.0614
  457TMC3    C3 6803   1.165   0.810  16.712 -0.2487 -0.1821  1.1511
  457TMC3    C4 6804   1.235   0.546  16.682 -0.3457  0.2207 -0.1099
  457TMC3    C5 6805   1.261   0.616  16.800 -0.3204  0.3974  0.4836
  457TMC3    C6 6806   1.235   0.745  16.808  0.2412  0.3419  0.4674
  457TMC3     C 6807   1.172   0.566  16.447 -0.5298  0.1820 -0.2910
  457TMC3     O 6808   1.090   0.613  16.367 -0.0693  0.1974  0.3423
  457TMC3     H 6809   1.086   0.806  16.510 -0.0383 -0.5566 -0.4419
  457TMC3    H1 6810   1.260   0.442  16.666 -3.8273 -0.4254 -1.2484
  457TMC3    H2 6811   1.245   0.803  16.898 -1.6018  0.3541  0.6573
  457TMC3    C7 6812   1.384   0.577  16.873 -0.3422  0.4230 -0.7942
  457TMC3    C8 6813   1.167   0.956  16.713  1.0399 -0.1641  0.3369
  457TMC3    O1 6814   1.428   0.465  16.862 -0.1653 -0.2816 -0.5318
  457TMC3    O2 6815   1.255   1.007  16.774 -0.4379  0.0749 -0.2801
  458MPD2     C 6816   4.062   4.474  12.313  0.5944 -0.2479  0.0254
  458MPD2    C1 6817   4.033   4.404  12.435  0.2454  0.9567  0.0651
  458MPD2    C2 6818   3.928   4.310  12.423 -0.8299 -0.7408 -0.6047
  458MPD2    C3 6819   3.857   4.292  12.309  0.3915 -0.8894 -0.0789
  458MPD2    C4 6820   3.884   4.366  12.194 -0.6463 -0.3235 -0.4767
  458MPD2    C5 6821   4.000   4.446  12.193 -0.2790 -0.5970  0.3363
  458MPD2     H 6822   3.899   4.245  12.505  0.7572 -0.5894  0.0718
  458MPD2    H1 6823   3.823   4.355  12.105 -1.9467 -1.2445  0.5216
  458MPD2    H2 6824   4.134   4.556  12.313 -0.6180  0.8119  0.2165
  458MPD2    H3 6825   4.019   4.502  12.102  2.7383 -2.7846 -0.3720
  458MPD2     N 6826   3.760   4.188  12.317  0.1315  0.1851 -0.2844
  458MPD2    H5 6827   3.741   4.146  12.407 -0.4188 -1.6057 -1.2255
  458MPD2    N1 6828   4.108   4.433  12.557 -0.7769  0.2747 -0.0807
  458MPD2    H7 6829   4.170   4.513  12.554  0.2762 -0.6430 -2.3687
  459TMC3    C1 6830   4.199   4.397  12.773 -0.1894 -0.5082  0.4084
  459TMC3    C2 6831   4.307   4.472  12.731 -0.1332  0.5360 -0.1125
  459TMC3    C3 6832   4.397   4.501  12.832  0.4623 -0.1672  0.0542
  459TMC3    C4 6833   4.189   4.343  12.900  0.3180  0.3891 -0.5746
  459TMC3    C5 6834   4.289   4.355  12.989  1.1724 -0.5468  0.6157
  459TMC3    C6 6835   4.392   4.439  12.956 -0.1536  0.0466  0.3305
  459TMC3     C 6836   4.096   4.364  12.675 -0.3199  0.7329 -0.1728
  459TMC3     O 6837   4.005   4.284  12.706  0.7246 -0.4247  0.5193
  459TMC3     H 6838   4.311   4.519  12.634  0.2256  0.4536 -0.1394
  459TMC3    H1 6839   4.112   4.269  12.912  0.0870  0.8686  0.8728
  459TMC3    H2 6840   4.469   4.450  13.031 -0.4348  2.1655  0.3078
  459TMC3    C7 6841   4.333   4.231  13.042 -0.5135 -0.0929  0.5141
  459TMC3    C8 6842   4.522   4.564  12.801  0.5599 -0.7208 -0.0992
  459TMC3    O1 6843   4.455   4.210  13.048 -0.8613 -0.2153 -0.2763
  459TMC3    O2 6844   4.538   4.601  12.685  0.7808  0.5062  0.2482
  460MPD2     C 6845   3.407   2.423  10.716  0.1244  0.6730 -0.5989
  460MPD2    C1 6846   3.278   2.441  10.730  0.0633  0.9555  0.6866
  460MPD2    C2 6847   3.202   2.481  10.622 -0.2216 -0.3904 -0.1932
  460MPD2    C3 6848   3.264   2.514  10.499 -0.4275 -0.4364  0.1739
  460MPD2    C4 6849   3.397   2.494  10.490  0.1748  0.2076  0.6738
  460MPD2    C5 6850   3.467   2.443  10.600  0.3510 -0.1159 -0.1258
  460MPD2     H 6851   3.098   2.507  10.634  0.0674  0.3906  0.6216
  460MPD2    H1 6852   3.455   2.511  10.400  1.7966 -0.9905  1.4748
  460MPD2    H2 6853   3.458   2.383  10.803  2.3044  1.7115 -1.4044
  460MPD2    H3 6854   3.574   2.427  10.607  0.2500  0.0986  1.9410
  460MPD2     N 6855   3.189   2.552  10.385 -0.1297  0.4825  0.0669
  460MPD2    H5 6856   3.088   2.540  10.385  0.0355 -0.8904 -1.3011
  460MPD2    N1 6857   3.230   2.426  10.857 -0.1589  0.2724  0.0184
  460MPD2    H7 6858   3.293   2.402  10.933  0.8474 -0.0971 -0.9468
  461TMC3    C1 6859   3.137   2.666  10.188 -0.2498 -0.1025  0.2686
  461TMC3    C2 6860   3.045   2.570  10.154  0.1492  0.8291 -0.1781
  461TMC3    C3 6861   2.962   2.600  10.047 -0.4494 -0.4154 -0.2254
  461TMC3    C4 6862   3.161   2.785  10.117  0.0438  0.0856  0.5768
  461TMC3    C5 6863   3.078   2.805  10.009 -0.3574  0.0562  0.1085
  461TMC3    C6 6864   2.981   2.713   9.973 -0.1975  0.1747 -0.1506
  461TMC3     C 6865   3.239   2.620  10.277  0.3496 -0.5485 -0.1694
  461TMC3     O 6866   3.350   2.663  10.260  0.0945  0.1358  0.6108
  461TMC3     H 6867   3.035   2.478  10.211  0.8450  0.1972 -1.0801
  461TMC3    H1 6868   3.232   2.853  10.163 -0.3625  0.3858  0.7618
  461TMC3    H2 6869   2.930   2.742   9.881 -1.0592  2.5295  1.0822
  461TMC3    C7 6870   3.101   2.919   9.933  0.0432  0.2703 -0.2435
  461TMC3    C8 6871   2.872   2.496  10.002 -0.1356 -0.0660  0.2605
  461TMC3    O1 6872   3.007   2.978   9.886  0.5338 -0.0906  0.2101
  461TMC3    O2 6873   2.848   2.408  10.086  0.3290  0.1031 -0.3651
  462TMC3    C1 6874   3.602   4.014   0.150 -0.3369  0.5660  0.1729
  462TMC3    C2 6875   3.738   3.974   0.146  0.2228 -0.8425 -0.3904
  462TMC3    C3 6876   3.766   3.847   0.101 -0.1093  0.7232 -0.1903
  462TMC3    C4 6877   3.504   3.929   0.099 -0.0571  0.2400  0.0079
  462TMC3    C5 6878   3.536   3.807   0.062 -0.0413  0.0306  0.7754
  462TMC3    C6 6879   3.664   3.764   0.055  0.4577 -0.5378 -0.1808
  462TMC3     C 6880   3.575   4.154   0.176  0.1040 -0.1692 -0.5829
  462TMC3     O 6881   3.677   4.222   0.179 -0.4332 -0.1059  0.1698
  462TMC3     H 6882   3.812   4.048   0.172 -0.8399 -0.3073  1.1175
  462TMC3    H1 6883   3.405   3.970   0.077 -0.5171 -1.4151 -0.9896
  462TMC3    H2 6884   3.694   3.660   0.050  0.3089 -0.4867 -2.1725
  462TMC3    C7 6885   3.440   3.723  17.675  0.0147  0.4126 -0.0255
  462TMC3    C8 6886   3.909   3.814   0.090 -0.5407  0.3005 -0.2979
  462TMC3    O1 6887   3.456   3.600  17.681  0.4115 -0.4116  0.2711
  462TMC3    O2 6888   3.978   3.861   0.179  0.0902 -0.6252  0.8105
  463MPD2     C 6889   4.648   1.905   2.057 -0.3512 -0.1307  0.6727
  463MPD2    C1 6890   4.558   1.966   1.970  0.4148  0.0031 -0.5031
  463MPD2    C2 6891   4.594   2.072   1.882 -0.3441 -0.2377 -0.4295
  463MPD2    C3 6892   0.009   2.104   1.871 -0.5571 -0.3613  0.4868
  463MPD2    C4 6893   0.099   2.046   1.954  0.3851 -0.5039  0.2247
  463MPD2    C5 6894   0.055   1.953   2.047  0.1003  0.4948  0.3675
  463MPD2     H 6895   4.526   2.107   1.806 -0.5722 -0.9536 -0.5610
  463MPD2    H1 6896   0.202   2.079   1.949  0.5610 -1.1739 -0.8234
  463MPD2    H2 6897   4.615   1.823   2.120 -0.1693 -0.2564  0.6010
  463MPD2    H3 6898   0.125   1.899   2.110 -0.6736 -2.0003 -0.8995
  463MPD2     N 6899   0.055   2.210   1.792 -0.2297 -0.0330  0.0002
  463MPD2    H5 6900   0.152   2.222   1.767 -0.6012  2.7474 -0.2061
  463MPD2    N1 6901   4.422   1.939   1.955  0.3660 -0.5508  0.0142
  463MPD2    H7 6902   4.370   2.001   1.893  0.7847  0.8271  1.0292
  464TMC3    C1 6903   4.233   1.820   1.962  0.3703  0.6373 -0.0356
  464TMC3    C2 6904   4.184   1.907   1.862  0.1188  0.3548 -0.4027
  464TMC3    C3 6905   4.048   1.915   1.843 -0.5688 -0.7980 -0.3636
  464TMC3    C4 6906   4.153   1.732   2.031  0.0998  0.0891 -0.7348
  464TMC3    C5 6907   4.015   1.728   1.994  0.1688 -0.1685  0.5301
  464TMC3    C6 6908   3.963   1.820   1.896  0.1371  0.6022 -0.6507
  464TMC3     C 6909   4.364   1.832   2.010  0.5153  0.2509 -0.1069
  464TMC3     O 6910   4.407   1.746   2.086  0.9671 -0.4602 -0.4549
  464TMC3     H 6911   4.237   1.980   1.801 -0.5235  2.2290  1.2736
  464TMC3    H1 6912   4.199   1.660   2.097  1.0936 -1.1391 -2.7806
  464TMC3    H2 6913   3.861   1.810   1.859  0.4734  0.6241 -1.5782
  464TMC3    C7 6914   3.924   1.639   2.069  0.1758  0.2620  0.3639
  464TMC3    C8 6915   3.999   2.010   1.743 -0.9637  0.3923 -0.0933
  464TMC3    O1 6916   3.956   1.593   2.181  0.2222  0.2245 -0.0612
  464TMC3    O2 6917   4.075   2.085   1.682 -0.2361  0.1045  0.6488
  465MPD2     C 6918   0.777   0.349  16.941  0.4275  0.4089 -0.4674
  465MPD2    C1 6919   0.641   0.318  16.940  0.5722 -0.1629  0.7616
  465MPD2    C2 6920   0.558   0.390  16.855  0.1443  0.0149  0.2341
  465MPD2    C3 6921   0.613   0.482  16.764  0.3007 -0.6375  0.0959
  465MPD2    C4 6922   0.750   0.509  16.764 -0.5157  0.1997  0.2043
  465MPD2    C5 6923   0.833   0.437  16.848  0.1843  0.3092 -0.0019
  465MPD2     H 6924   0.452   0.369  16.863  0.7135 -3.0351 -0.2960
  465MPD2    H1 6925   0.796   0.587  16.704  0.3118 -0.0448  0.5233
  465MPD2    H2 6926   0.849   0.295  17.002 -0.1987  1.5496  1.2937
  465MPD2    H3 6927   0.940   0.453  16.855  0.2363  0.1078 -0.3585
  465MPD2     N 6928   0.522   0.547  16.672 -0.4080  0.0678 -0.2357
  465MPD2    H5 6929   0.428   0.511  16.680 -0.4618  0.5125  1.0469
  465MPD2    N1 6930   0.577   0.221  17.024  0.1649 -0.3386 -0.8203
  465MPD2    H7 6931   0.476   0.224  17.028  0.1156 -1.8710 -0.5910
  466TMC3    C1 6932   0.203   0.728  16.512  0.2615 -0.0705 -0.2588
  466TMC3    C2 6933   0.216   0.802  16.393 -0.1676  0.0209  0.4690
  466TMC3    C3 6934   0.341   0.802  16.337  0.2418  0.3937 -0.0489
  466TMC3    C4 6935   0.311   0.666  16.567 -0.5731 -0.1201  1.0899
  466TMC3    C5 6936   0.430   0.679  16.505  0.2748  0.8827  0.7235
  466TMC3    C6 6937   0.453   0.749  16.393  0.8637 -0.0869  0.5063
  466TMC3     C 6938   0.071   0.700  16.553  0.0835 -0.4438 -0.7542
  466TMC3     O 6939   4.720   0.797  16.568  0.6284  0.1289 -0.7524
  466TMC3     H 6940   0.129   0.840  16.340  0.7948 -1.1489 -1.9264
  466TMC3    H1 6941   0.299   0.618  16.663  1.7732 -0.4432  1.2284
  466TMC3    H2 6942   0.546   0.754  16.337  1.6759  1.4803  2.0280
  466TMC3    C7 6943   0.545   0.648  16.584 -0.1670  0.7823 -0.4604
  466TMC3    C8 6944   0.359   0.916  16.246 -0.0364  0.3512 -0.7450
  466TMC3    O1 6945   0.654   0.706  16.565  0.1068  0.0648  0.1376
  466TMC3    O2 6946   0.436   0.903  16.152  0.0471 -0.3354 -0.0239
  467TMC3    C1 6947   1.549   3.895  13.549  0.1643 -0.4247  0.0234
  467TMC3    C2 6948   1.614   3.997  13.478  0.5392  0.1856 -0.7301
  467TMC3    C3 6949   1.542   4.092  13.423 -0.0884 -0.1226 -0.0432
  467TMC3    C4 6950   1.416   3.894  13.571  0.1174 -0.0920 -0.1384
  467TMC3    C5 6951   1.347   4.002  13.521 -0.2851  0.1483  0.0110
  467TMC3    C6 6952   1.404   4.090  13.438 -0.3542 -0.6552  0.2379
  467TMC3     C 6953   1.646   3.795  13.593  0.3418  0.7285  0.0854
  467TMC3     O 6954   1.758   3.841  13.615  0.4625 -0.1372 -0.3959
  467TMC3     H 6955   1.714   3.985  13.437  0.7317  2.1129 -0.8354
  467TMC3    H1 6956   1.369   3.825  13.640 -0.3484 -0.2054 -0.5668
  467TMC3    H2 6957   1.340   4.156  13.380  0.0061  0.0901  0.6828
  467TMC3    C7 6958   1.206   4.024  13.550  0.0849  0.0999 -0.7452
  467TMC3    C8 6959   1.592   4.193  13.339 -0.5456  0.5108  0.5047
  467TMC3    O1 6960   1.140   4.097  13.474 -0.2726  0.1139  0.1574
  467TMC3    O2 6961   1.518   4.237  13.249  1.0956  0.2524  0.2023
  468MPD2     C 6962   0.121   2.103  10.857  1.0077  0.6956 -0.5659
  468MPD2    C1 6963   0.251   2.072  10.893  0.4371 -0.3098  0.6499
  468MPD2    C2 6964   0.291   1.940  10.889  0.2718 -0.1314 -0.1025
  468MPD2    C3 6965   0.196   1.849  10.844  0.3169  0.1441  0.1661
  468MPD2    C4 6966   0.065   1.878  10.807 -0.0563 -0.1012 -1.0050
  468MPD2    C5 6967   0.031   2.011  10.811 -0.0797 -0.4919  0.6652
  468MPD2     H 6968   0.388   1.912  10.930 -0.4160  0.0308  1.6202
  468MPD2    H1 6969   4.710   1.803  10.785  0.3022 -0.8030  0.1831
  468MPD2    H2 6970   0.079   2.203  10.861  1.0094  0.6184  1.3010
  468MPD2    H3 6971   4.648   2.035  10.787  0.4665 -0.4859 -1.6948
  468MPD2     N 6972   0.218   1.710  10.834  0.0017  0.2225 -0.1518
  468MPD2    H5 6973   0.138   1.654  10.807  0.1359  0.7755 -1.7110
  468MPD2    N1 6974   0.342   2.164  10.938  0.9775 -0.4362 -0.0473
  468MPD2    H7 6975   0.412   2.128  11.003  1.1790  0.9316  0.5101
  469TMC3    C1 6976   0.420   2.383  10.999 -0.4742 -0.5658 -0.2810
  469TMC3    C2 6977   0.545   2.331  11.016 -0.0694  0.0224  0.5422
  469TMC3    C3 6978   0.621   2.400  11.106  0.0879 -0.0213 -0.3991
  469TMC3    C4 6979   0.379   2.502  11.052 -0.3537 -0.2559 -1.1765
  469TMC3    C5 6980   0.463   2.561  11.134 -0.3979  0.3688 -0.2922
  469TMC3    C6 6981   0.588   2.516  11.164 -0.2272 -0.0451  0.2025
  469TMC3     C 6982   0.323   2.305  10.929 -0.3530 -0.2738 -0.1376
  469TMC3     O 6983   0.239   2.359  10.857 -0.4720  0.3671  0.2997
  469TMC3     H 6984   0.580   2.248  10.955  0.5260 -0.2089  1.1945
  469TMC3    H1 6985   0.279   2.534  11.023  0.2723  0.8103 -2.1838
  469TMC3    H2 6986   0.661   2.569  11.224 -1.0859  1.3915 -0.0329
  469TMC3    C7 6987   0.416   2.676  11.199  0.0534  0.0545 -0.3036
  469TMC3    C8 6988   0.756   2.350  11.130  0.5872 -0.0882 -0.5288
  469TMC3    O1 6989   0.318   2.735  11.154 -0.0685 -0.2503  0.1884
  469TMC3    O2 6990   0.787   2.274  11.045  0.0162 -0.2536 -0.1520
  470TMC3    C1 6991   2.547   3.151   0.328  0.3517  0.6645  0.7030
  470TMC3    C2 6992   2.588   3.242   0.429  1.0844  0.3620  0.0716
  470TMC3    C3 6993   2.517   3.248   0.544 -0.4304  0.0808 -0.5020
  470TMC3    C4 6994   2.442   3.064   0.346 -0.9934 -0.4223 -0.2712
  470TMC3    C5 6995   2.376   3.069   0.464 -1.3033 -0.3731  0.3603
  470TMC3    C6 6996   2.413   3.158   0.561 -0.6099  0.0118  0.6760
  470TMC3     C 6997   2.591   3.173   0.196 -0.2313  0.2495 -0.3003
  470TMC3     O 6998   2.633   3.283   0.167 -0.3251  0.0527 -0.2499
  470TMC3     H 6999   2.656   3.323   0.405  2.0180  0.2195  2.1676
  470TMC3    H1 7000   2.403   2.999   0.268 -0.4864  0.3275 -1.1586
  470TMC3    H2 7001   2.368   3.148   0.660 -0.0122 -1.5533  0.8011
  470TMC3    C7 7002   2.237   3.019   0.459 -1.2723  0.4308 -0.4796
  470TMC3    C8 7003   2.563   3.322   0.663  0.3741 -0.8522 -0.0396
  470TMC3    O1 7004   2.188   3.026   0.346  0.5577  0.2742 -0.7921
  470TMC3    O2 7005   2.508   3.311   0.768 -0.1167  0.1472 -0.1883
  471MPD2     C 7006   3.010   0.334  16.961 -1.1169 -0.3028  0.6196
  471MPD2    C1 7007   3.071   0.273  16.855 -0.3876 -0.5119 -0.6083
  471MPD2    C2 7008   3.202   0.246  16.859 -0.6343  0.0152  0.3095
  471MPD2    C3 7009   3.274   0.274  16.973  0.4178 -0.6456 -0.3380
  471MPD2    C4 7010   3.216   0.343  17.070  0.4970 -0.2014 -0.1376
  471MPD2    C5 7011   3.084   0.378  17.071  0.3564  0.6184  0.2680
  471MPD2     H 7012   3.248   0.189  16.779  1.2628  1.1938  0.5606
  471MPD2    H1 7013   3.274   0.385  17.152  0.1123 -2.9142  1.5100
  471MPD2    H2 7014   2.906   0.363  16.968 -1.0489  0.2835 -0.8203
  471MPD2    H3 7015   3.034   0.436  17.148 -1.0642 -0.5896  0.2681
  471MPD2     N 7016   3.405   0.228  16.993 -0.4174  0.2590  0.4062
  471MPD2    H5 7017   3.441   0.231  17.088  0.2980  1.4931  0.0829
  471MPD2    N1 7018   3.004   0.222  16.739  0.2994  0.6219  0.2861
  471MPD2    H7 7019   3.077   0.194  16.675 -0.3452 -1.1080  0.3018
  472TMC3    C1 7020   2.846   0.168  16.572 -0.5263  0.6130  0.1178
  472TMC3    C2 7021   2.714   0.126  16.555 -0.1338 -0.1025 -0.0714
  472TMC3    C3 7022   2.687   0.030  16.457 -0.4444  0.3358  0.0612
  472TMC3    C4 7023   2.948   0.113  16.509  0.1933 -0.0782 -0.4320
  472TMC3    C5 7024   2.920   0.023  16.414 -0.1095 -0.1788 -0.5191
  472TMC3    C6 7025   2.789   4.696  16.387  0.3022  0.3775 -0.0819
  472TMC3     C 7026   2.876   0.239  16.697  0.3035 -0.6202  0.0514
  472TMC3     O 7027   2.781   0.260  16.771 -0.3451 -0.1841  0.1293
  472TMC3     H 7028   2.647   0.172  16.626 -0.4368  0.1661 -0.5332
  472TMC3    H1 7029   3.049   0.153  16.506 -0.3824  1.4078  0.0409
  472TMC3    H2 7030   2.777   4.606  16.327 -1.4894  0.2892  0.4059
  472TMC3    C7 7031   3.025   4.654  16.389 -0.7141  0.1818 -0.4051
  472TMC3    C8 7032   2.553   4.686  16.464 -0.4536  0.1838 -0.4628
  472TMC3    O1 7033   3.107   4.638  16.477  0.0678  0.3123  0.3164
  472TMC3    O2 7034   2.472   4.710  16.557 -0.1006  0.3726 -0.1818
  473MPD2     C 7035   2.769   1.406  13.998  0.0308  0.5509  0.2573
  473MPD2    C1 7036   2.814   1.518  13.919  0.0033 -0.0032  0.5681
  473MPD2    C2 7037   2.856   1.631  13.989  0.4457  0.1399 -0.5484
  473MPD2    C3 7038   2.851   1.636  14.125  0.0970  0.3903  0.4744
  473MPD2    C4 7039   2.803   1.533  14.197 -0.4288 -0.7480  0.3356
  473MPD2    C5 7040   2.768   1.420  14.135  0.7607  0.2526 -0.0130
  473MPD2     H 7041   2.881   1.721  13.933 -1.2501  0.8516 -0.1848
  473MPD2    H1 7042   2.808   1.542  14.305  0.7404  0.1893  0.2060
  473MPD2    H2 7043   2.720   1.324  13.948  1.1375  1.9374 -3.0749
  473MPD2    H3 7044   2.746   1.331  14.193 -1.2079  0.1964 -0.8644
  473MPD2     N 7045   2.884   1.750  14.198  0.0623  0.4601  0.7521
  473MPD2    H5 7046   2.855   1.761  14.295  1.7393 -0.0800  1.3086
  473MPD2    N1 7047   2.815   1.517  13.778  0.4065  0.5950 -0.5280
  473MPD2    H7 7048   2.831   1.606  13.732  2.3721  0.7700  0.5218
  474TMC3    C1 7049   2.967   1.947  14.266  0.1887  0.1080  0.0308
  474TMC3    C2 7050   2.842   1.995  14.299 -0.3234 -0.2327 -0.0934
  474TMC3    C3 7051   2.833   2.118  14.357  0.6816 -0.5921  0.7132
  474TMC3    C4 7052   3.080   2.006  14.300  0.6975 -0.2946  0.2331
  474TMC3    C5 7053   3.068   2.128  14.367  1.0787  0.0845 -0.4997
  474TMC3    C6 7054   2.946   2.189  14.391  0.0125 -0.3502  0.2607
  474TMC3     C 7055   2.968   1.848  14.157  0.2474  0.2766 -0.5062
  474TMC3     O 7056   3.038   1.859  14.059 -0.2102 -0.4210 -0.1228
  474TMC3     H 7057   2.748   1.948  14.274 -1.2219  2.3279 -1.5119
  474TMC3    H1 7058   3.174   1.965  14.266  1.3022  0.2485  1.2412
  474TMC3    H2 7059   2.941   2.284  14.443 -0.7022  0.3482 -1.0954
  474TMC3    C7 7060   3.182   2.213  14.376  0.8836 -0.3293  0.0831
  474TMC3    C8 7061   2.709   2.187  14.349 -0.3444  0.4041 -0.1492
  474TMC3    O1 7062   3.280   2.205  14.304  0.2027 -0.4916  0.4515
  474TMC3    O2 7063   2.612   2.118  14.312 -0.2345  0.4467 -0.0988
  475MPD2     C 7064   0.576   0.182  11.094 -0.3328 -0.3268 -0.4827
  475MPD2    C1 7065   0.663   0.175  10.992  0.2663  0.4321  0.5938
  475MPD2    C2 7066   0.624   0.204  10.861 -0.0648  0.4814  0.1248
  475MPD2    C3 7067   0.495   0.244  10.841 -0.0394 -0.7124 -0.1199
  475MPD2    C4 7068   0.411   0.260  10.946  0.4001 -0.0856 -0.1516
  475MPD2    C5 7069   0.443   0.221  11.072  0.3157 -0.3429 -0.3491
  475MPD2     H 7070   0.696   0.214  10.780 -1.8257  1.2105 -1.3486
  475MPD2    H1 7071   0.313   0.305  10.934  0.0559 -0.8026 -0.0300
  475MPD2    H2 7072   0.604   0.167  11.198 -0.4149 -1.8904 -0.6835
  475MPD2    H3 7073   0.368   0.226  11.151  1.9323 -0.0935  1.1715
  475MPD2     N 7074   0.456   0.255  10.710 -0.4855  0.6810 -0.0637
  475MPD2    H5 7075   0.526   0.229  10.642  1.4532 -1.5507  2.7928
  475MPD2    N1 7076   0.800   0.150  11.002  0.6405 -0.7213  0.6544
  475MPD2    H7 7077   0.852   0.136  10.915  1.3150 -2.0319  1.2588
  476TMC3    C1 7078   1.022   0.115  11.074 -0.4449 -0.7914 -0.6356
  476TMC3    C2 7079   1.075   0.153  10.952 -0.1066  0.4814 -0.8933
  476TMC3    C3 7080   1.206   0.207  10.949  0.0450  0.4793  0.5078
  476TMC3    C4 7081   1.100   0.134  11.185 -0.2191  0.2160 -1.0380
  476TMC3    C5 7082   1.219   0.195  11.184 -0.3925  0.3278 -0.5549
  476TMC3    C6 7083   1.281   0.226  11.058  0.4434 -0.0185  0.6909
  476TMC3     C 7084   0.880   0.115  11.109  0.6471 -0.4759 -0.0285
  476TMC3     O 7085   0.848   0.117  11.233  0.1879 -0.0316 -0.0489
  476TMC3     H 7086   1.011   0.146  10.865  1.0374 -0.2743 -1.6603
  476TMC3    H1 7087   1.063   0.096  11.279  3.5280  0.0538  0.4071
  476TMC3    H2 7088   1.382   0.261  11.042  0.7255 -1.1014  0.0705
  476TMC3    C7 7089   1.287   0.230  11.301  0.2854  0.4205 -0.0873
  476TMC3    C8 7090   1.269   0.220  10.818 -0.2165 -0.0522 -0.3311
  476TMC3    O1 7091   1.247   0.184  11.410  0.2547 -0.2294  0.4832
  476TMC3    O2 7092   1.359   0.307  10.807  0.4185  0.2462  0.4755
  477MPD2     C 7093   3.678   1.724  11.770  1.0119  0.7195  1.1927
  477MPD2    C1 7094   3.563   1.713  11.843  0.1926 -0.1563 -0.0356
  477MPD2    C2 7095   3.567   1.652  11.964 -0.1148 -0.3562  0.5094
  477MPD2    C3 7096   3.689   1.599  12.011 -0.3889 -0.5599 -0.3464
  477MPD2    C4 7097   3.803   1.616  11.939  0.0025 -1.0692 -0.6431
  477MPD2    C5 7098   3.801   1.679  11.817  0.3116  0.2709  0.0654
  477MPD2     H 7099   3.479   1.628  12.023  1.4621 -0.0351  3.0059
  477MPD2    H1 7100   3.893   1.564  11.971 -0.6842 -1.1325  1.1780
  477MPD2    H2 7101   3.679   1.772  11.672 -1.5197  0.0850  0.8765
  477MPD2    H3 7102   3.886   1.673  11.749 -0.1678  1.2042 -0.6212
  477MPD2     N 7103   3.683   1.507  12.118  0.1835 -0.1042 -0.0385
  477MPD2    H5 7104   3.588   1.477  12.141 -1.0138  2.0489 -2.1729
  477MPD2    N1 7105   3.438   1.755  11.789  0.4068  0.3233  0.9706
  477MPD2    H7 7106   3.432   1.783  11.692  0.4968  1.5305  1.3155
  478TMC3    C1 7107   3.216   1.836  11.772  0.4183  0.0733  0.2560
  478TMC3    C2 7108   3.147   1.937  11.832  0.4693  0.6179 -0.2496
  478TMC3    C3 7109   3.089   2.033  11.750 -0.3384 -0.0068 -0.4218
  478TMC3    C4 7110   3.223   1.819  11.637  0.8163  0.0331 -0.3761
  478TMC3    C5 7111   3.162   1.915  11.557  0.1318  0.1729 -0.3126
  478TMC3    C6 7112   3.093   2.023  11.614  0.5355  0.4391 -0.1457
  478TMC3     C 7113   3.318   1.766  11.855  0.0821 -0.5110 -1.2098
  478TMC3     O 7114   3.291   1.764  11.975 -0.3044  0.2945 -0.0702
  478TMC3     H 7115   3.145   1.948  11.940 -1.5086  0.6943 -0.2757
  478TMC3    H1 7116   3.282   1.738  11.597 -4.4523 -3.9113 -0.1714
  478TMC3    H2 7117   3.055   2.104  11.553 -1.0693  1.4652  2.2075
  478TMC3    C7 7118   3.185   1.907  11.411  0.5007  0.1663  0.2744
  478TMC3    C8 7119   2.986   2.113  11.818  0.0722  0.0599  0.3872
  478TMC3    O1 7120   3.275   1.829  11.385  0.3730 -0.5977  0.2178
  478TMC3    O2 7121   2.985   2.111  11.942 -0.1206 -0.1105 -0.4734
  479MPD2     C 7122   2.472   3.352  15.134 -0.2513  0.2829  0.1695
  479MPD2    C1 7123   2.476   3.300  15.263 -0.4834  0.4196 -0.8474
  479MPD2    C2 7124   2.570   3.344  15.358  0.1413  0.3327 -0.5829
  479MPD2    C3 7125   2.657   3.450  15.321  0.0899 -0.5805 -0.3944
  479MPD2    C4 7126   2.646   3.506  15.195 -0.1763 -0.3157 -0.5530
  479MPD2    C5 7127   2.550   3.460  15.102  0.2208  0.1444 -0.3073
  479MPD2     H 7128   2.570   3.303  15.458  0.5070  1.4404 -0.1317
  479MPD2    H1 7129   2.717   3.583  15.167 -0.9074  0.1483 -1.1155
  479MPD2    H2 7130   2.429   3.297  15.050  0.0184 -1.3129  1.0754
  479MPD2    H3 7131   2.536   3.507  15.005  1.6809  1.4731  0.1313
  479MPD2     N 7132   2.764   3.493  15.396  0.0631  0.2526 -0.3032
  479MPD2    H5 7133   2.841   3.534  15.343  0.5711  0.6022  0.6983
  479MPD2    N1 7134   2.392   3.199  15.296 -0.1334 -0.6583  0.3020
  479MPD2    H7 7135   2.314   3.182  15.234 -0.2646  1.5636 -0.1365
  480TMC3    C1 7136   2.519   3.483  15.794 -0.3834 -0.4884 -0.5927
  480TMC3    C2 7137   2.423   3.563  15.754 -0.3772 -0.1356 -0.0401
  480TMC3    C3 7138   2.437   3.624  15.630  1.0029  0.2075 -0.2380
  480TMC3    C4 7139   2.635   3.465  15.732  0.7064  0.0986  0.4263
  480TMC3    C5 7140   2.644   3.508  15.608 -0.5435  0.0133  0.4008
  480TMC3    C6 7141   2.552   3.595  15.554 -0.2127 -0.2607 -0.1587
  480TMC3     C 7142   2.481   3.355  15.855  0.6249 -0.1321 -0.4125
  480TMC3     O 7143   2.516   3.251  15.805 -0.0247 -0.2162  0.1460
  480TMC3     H 7144   2.324   3.563  15.798 -0.4259  1.1061 -0.1348
  480TMC3    H1 7145   2.704   3.395  15.779  0.6152 -0.5416 -0.3899
  480TMC3    H2 7146   2.571   3.655  15.466 -1.6942 -0.3086 -0.5076
  480TMC3    C7 7147   2.765   3.493  15.536  0.7184  0.8407 -0.4187
  480TMC3    C8 7148   2.325   3.684  15.562  0.2915  0.1567 -0.4280
  480TMC3    O1 7149   2.863   3.504  15.600 -0.3071 -0.3799 -0.1476
  480TMC3    O2 7150   2.268   3.783  15.615  0.0128 -0.0811 -0.2721
  481MPD2     C 7151   3.835   3.557  13.956 -0.4976  0.0722  0.3701
  481MPD2    C1 7152   3.749   3.462  14.009 -0.0827 -1.0024 -0.2194
  481MPD2    C2 7153   3.729   3.457  14.144  0.6488 -0.2915  0.1175
  481MPD2    C3 7154   3.798   3.542  14.226  0.6944 -0.0316  0.7459
  481MPD2    C4 7155   3.886   3.634  14.163  0.3795  0.0914 -0.3913
  481MPD2    C5 7156   3.901   3.644  14.028  0.0279  0.4277 -0.3214
  481MPD2     H 7157   3.667   3.378  14.187  0.0292  0.2532  0.2264
  481MPD2    H1 7158   3.950   3.695  14.226  1.8607  0.3592 -2.1501
  481MPD2    H2 7159   3.841   3.562  13.848 -0.1403  0.4306  0.4071
  481MPD2    H3 7160   3.954   3.729  13.987 -2.1517  1.7691 -0.3618
  481MPD2     N 7161   3.807   3.523  14.364  0.0176 -0.5967  0.7286
  481MPD2    H5 7162   3.861   3.593  14.415  0.7378 -0.1397 -0.6588
  481MPD2    N1 7163   3.694   3.366  13.918  0.0322 -0.3018  0.0807
  481MPD2    H7 7164   3.706   3.396  13.821  1.8106  0.1132  0.4355
  482TMC3    C1 7165   3.588   3.176  13.829  0.2542  0.6524  0.2972
  482TMC3    C2 7166   3.482   3.100  13.827  0.4233 -0.5541 -0.0662
  482TMC3    C3 7167   3.423   3.063  13.707  0.5324 -0.7253  0.1256
  482TMC3    C4 7168   3.658   3.204  13.713  0.1602  0.1111 -0.0820
  482TMC3    C5 7169   3.597   3.172  13.590 -0.6067  0.6627  0.3926
  482TMC3    C6 7170   3.486   3.094  13.585  0.5692 -0.4148 -0.4074
  482TMC3     C 7171   3.629   3.245  13.950 -0.0429  0.0500 -0.7477
  482TMC3     O 7172   3.581   3.199  14.058 -0.0534 -0.0496 -0.0702
  482TMC3     H 7173   3.425   3.080  13.917  0.8258  2.7721  0.9056
  482TMC3    H1 7174   3.751   3.259  13.712  0.2863 -0.1138 -0.7875
  482TMC3    H2 7175   3.458   3.061  13.485  0.0917 -0.3848 -0.2840
  482TMC3    C7 7176   3.674   3.200  13.469  0.0803 -0.7765 -0.2537
  482TMC3    C8 7177   3.327   2.957  13.701 -0.2755 -0.1503  0.1708
  482TMC3    O1 7178   3.747   3.297  13.479  0.1536  0.8644  0.5914
  482TMC3    O2 7179   3.297   2.894  13.801 -0.0576 -0.4880 -0.1766
  483TMC3    C1 7180   2.481   2.269   0.471  0.3245 -0.2606  0.1119
  483TMC3    C2 7181   2.520   2.396   0.428  0.7817 -0.0094 -0.0483
  483TMC3    C3 7182   2.605   2.468   0.503  0.5171 -0.2317 -0.1453
  483TMC3    C4 7183   2.540   2.210   0.581 -0.0239 -0.3772 -0.2354
  483TMC3    C5 7184   2.630   2.290   0.653 -0.1082  0.2733 -0.0275
  483TMC3    C6 7185   2.658   2.417   0.616  0.3962  0.0760  0.3233
  483TMC3     C 7186   2.375   2.209   0.402 -0.2230 -0.0853  0.1422
  483TMC3     O 7187   2.289   2.280   0.348  0.3159  0.4009  0.1061
  483TMC3     H 7188   2.466   2.438   0.344 -1.3941 -0.4052  1.1299
  483TMC3    H1 7189   2.498   2.120   0.625  1.7915 -1.4858 -0.7572
  483TMC3    H2 7190   2.723   2.469   0.685 -0.9334  0.5322  1.2190
  483TMC3    C7 7191   2.679   2.243   0.785 -0.0064  0.0740  0.2867
  483TMC3    C8 7192   2.647   2.595   0.455 -0.3623  0.0102  0.1713
  483TMC3    O1 7193   2.602   2.174   0.848  0.3882  0.2783  0.2536
  483TMC3    O2 7194   2.609   2.633   0.342  0.7573  1.0411 -0.6381
  484MPD2     C 7195   0.061   4.706  13.028  0.3949  0.4482  0.0733
  484MPD2    C1 7196   0.005   4.662  12.908 -0.2778 -0.8445  0.4917
  484MPD2    C2 7197   0.080   4.652  12.795 -0.8626 -0.0611 -0.6874
  484MPD2    C3 7198   0.210   4.705  12.799  0.8882  0.1737  0.4076
  484MPD2    C4 7199   0.260   0.039  12.915 -0.4633  0.6224 -0.0767
  484MPD2    C5 7200   0.190   0.034  13.029  0.1949  0.2364 -0.1183
  484MPD2     H 7201   0.047   4.596  12.709 -1.6282 -3.1511  1.6471
  484MPD2    H1 7202   0.359   0.084  12.924 -0.0847 -0.2703  0.2659
  484MPD2    H2 7203   0.002   4.713  13.119  2.5221 -1.3498  1.5964
  484MPD2    H3 7204   0.238   0.077  13.117 -3.4816  1.1018  1.4652
  484MPD2     N 7205   0.297   4.692  12.690 -0.2709 -0.5366  0.5593
  484MPD2    H5 7206   0.393   4.688  12.722  0.0281  2.7851  0.1065
  484MPD2    N1 7207   4.595   4.604  12.910 -0.3952  0.2319 -0.4303
  484MPD2    H7 7208   4.556   4.592  13.003  1.8887  1.0768  0.6331
  485TMC3    C1 7209   0.362   4.567  12.494  0.0381  0.7633 -0.5829
  485TMC3    C2 7210   0.410   4.459  12.574  0.4388 -0.0646 -0.0398
  485TMC3    C3 7211   0.420   4.332  12.520  0.4179 -0.7345  0.2366
  485TMC3    C4 7212   0.328   4.544  12.363  0.3008 -0.1844 -0.2135
  485TMC3    C5 7213   0.341   4.416  12.310 -0.8911  0.0833  0.0061
  485TMC3    C6 7214   0.379   4.313  12.393 -0.4450 -0.0142 -0.2945
  485TMC3     C 7215   0.262   4.641  12.562 -0.0905  0.9258 -0.4010
  485TMC3     O 7216   0.153   4.646  12.500 -0.2643  0.5015  0.0259
  485TMC3     H 7217   0.446   4.480  12.674 -1.5970 -3.2858  1.3674
  485TMC3    H1 7218   0.304   4.637  12.312 -1.7971 -0.4840  0.1912
  485TMC3    H2 7219   0.405   4.216  12.350  2.4823  0.9073 -0.5546
  485TMC3    C7 7220   0.425   4.402  12.191 -0.5652  0.5128 -0.0870
  485TMC3    C8 7221   0.514   4.228  12.558  0.2810 -0.0117 -0.5714
  485TMC3    O1 7222   0.465   4.289  12.165 -0.1908  0.0442 -0.1090
  485TMC3    O2 7223   0.479   4.134  12.628  0.3674 -0.2981 -0.4102
  486MPD2     C 7224   2.295   3.831  12.808 -0.0678  0.5129  0.0819
  486MPD2    C1 7225   2.164   3.805  12.791  0.2009  0.1598 -0.5834
  486MPD2    C2 7226   2.070   3.911  12.800 -0.1586 -0.8100 -0.0960
  486MPD2    C3 7227   2.110   4.040  12.830  0.5298 -0.5431  0.6443
  486MPD2    C4 7228   2.246   4.068  12.839 -0.3929 -0.4180 -0.1903
  486MPD2    C5 7229   2.331   3.960  12.829 -0.2857  0.5489  0.1598
  486MPD2     H 7230   1.963   3.908  12.778 -0.2272  1.7320 -0.0927
  486MPD2    H1 7231   2.281   4.167  12.864 -1.5153  0.0357 -0.4245
  486MPD2    H2 7232   2.367   3.750  12.803  1.8274  2.3394 -2.0691
  486MPD2    H3 7233   2.438   3.973  12.838 -0.1464 -0.7408  0.4134
  486MPD2     N 7234   2.007   4.135  12.850  0.1253  0.3743  0.0075
  486MPD2    H5 7235   1.909   4.109  12.848  0.6083 -1.5357  0.6303
  486MPD2    N1 7236   2.131   3.668  12.772 -0.0388 -0.2473 -0.3973
  486MPD2    H7 7237   2.200   3.600  12.742  1.7701  0.9964  0.9426
  487TMC3    C1 7238   2.004   3.480  12.752 -0.5063  0.5452 -0.2074
  487TMC3    C2 7239   1.890   3.437  12.693  0.5687  0.5989 -0.2998
  487TMC3    C3 7240   1.873   3.304  12.693 -0.4039 -0.3310 -1.3932
  487TMC3    C4 7241   2.104   3.403  12.793 -0.1918  0.9815 -0.8261
  487TMC3    C5 7242   2.085   3.268  12.792 -0.4911  0.0291  0.6152
  487TMC3    C6 7243   1.968   3.214  12.738  0.7842 -0.1187  0.5998
  487TMC3     C 7244   2.009   3.615  12.789  0.5513 -0.5748  0.4115
  487TMC3     O 7245   1.899   3.669  12.802  0.1561 -0.0763  0.1120
  487TMC3     H 7246   1.818   3.510  12.658 -0.4554 -0.8284 -1.1636
  487TMC3    H1 7247   2.185   3.448  12.849  0.5343  0.0951 -1.1649
  487TMC3    H2 7248   1.939   3.113  12.762  0.8471 -0.2138  0.2735
  487TMC3    C7 7249   2.142   3.193  12.903 -0.2948 -1.2058  0.2218
  487TMC3    C8 7250   1.730   3.272  12.715  0.0406 -0.0139 -0.3364
  487TMC3    O1 7251   2.173   3.246  13.007 -0.3436 -0.3682 -0.5693
  487TMC3    O2 7252   1.654   3.356  12.761 -0.4140  0.0368  0.0274
  488MPD2     C 7253   2.212   1.021  16.437 -0.6705 -0.6994  0.4414
  488MPD2    C1 7254   2.261   1.145  16.459  0.7138  0.4571  0.4729
  488MPD2    C2 7255   2.239   1.199  16.584  0.5742  0.3669 -0.0696
  488MPD2    C3 7256   2.168   1.143  16.682  0.5443  0.8726  0.4314
  488MPD2    C4 7257   2.104   1.021  16.651 -0.4018  0.1741 -0.3438
  488MPD2    C5 7258   2.127   0.967  16.526  0.5072  0.0331  0.4561
  488MPD2     H 7259   2.283   1.295  16.608  0.6262  0.7203 -1.5354
  488MPD2    H1 7260   2.035   0.972  16.719  2.4212 -1.8635  1.0864
  488MPD2    H2 7261   2.219   0.977  16.338 -1.4832  0.4258 -0.1171
  488MPD2    H3 7262   2.069   0.879  16.499  1.0844 -0.1794 -0.0776
  488MPD2     N 7263   2.166   1.201  16.815 -0.3438  0.0686 -0.0448
  488MPD2    H5 7264   2.216   1.289  16.822  0.8055 -0.5649 -0.3259
  488MPD2    N1 7265   2.338   1.222  16.364 -0.2610  0.0638 -0.5444
  488MPD2    H7 7266   2.381   1.305  16.404  2.6482 -2.1592  0.9397
  489TMC3    C1 7267   2.150   1.211  17.047 -0.2072 -0.3779 -0.4873
  489TMC3    C2 7268   2.219   1.329  17.033 -0.0883  0.6837 -0.4576
  489TMC3    C3 7269   2.243   1.403  17.145 -0.2973  0.6449 -0.4866
  489TMC3    C4 7270   2.110   1.167  17.173  0.0469 -0.1451 -0.0953
  489TMC3    C5 7271   2.134   1.249  17.278 -0.1232  0.4778  0.1398
  489TMC3    C6 7272   2.196   1.366  17.263 -0.0936 -0.3092 -0.0622
  489TMC3     C 7273   2.102   1.146  16.924  0.8882  1.0064 -0.0658
  489TMC3     O 7274   2.023   1.050  16.925 -0.1150 -0.0793  0.0918
  489TMC3     H 7275   2.226   1.386  16.942  3.2840 -0.9745 -1.2393
  489TMC3    H1 7276   2.054   1.074  17.181 -1.1329  0.5570 -0.1066
  489TMC3    H2 7277   2.222   1.430  17.347 -1.8379 -0.3956  0.5516
  489TMC3    C7 7278   2.118   1.194  17.417 -0.6345 -1.3407  0.8243
  489TMC3    C8 7279   2.314   1.525  17.115  0.5242 -0.4677 -0.0954
  489TMC3    O1 7280   2.128   1.284  17.500 -0.6706 -0.0315 -0.5937
  489TMC3    O2 7281   2.380   1.531  17.010 -0.1590  0.2135  0.1964
  490MPD2     C 7282   2.828   0.727  17.596  0.8021 -0.2525 -0.0979
  490MPD2    C1 7283   2.845   0.599  17.649  0.4543 -0.5023  0.7599
  490MPD2    C2 7284   2.879   0.587   0.094 -0.1007  0.0419 -0.1207
  490MPD2    C3 7285   2.941   0.689   0.169  0.7381 -0.7050  0.6426
  490MPD2    C4 7286   2.931   0.811   0.115 -0.1685 -0.0053 -0.3785
  490MPD2    C5 7287   2.869   0.830  17.676 -0.4276  0.0177 -0.2930
  490MPD2     H 7288   2.863   0.493   0.144  0.6749 -0.4354 -0.7729
  490MPD2    H1 7289   2.975   0.899   0.162 -1.7456  0.9219 -0.6513
  490MPD2    H2 7290   2.797   0.752  17.495  1.5666 -0.0220 -0.2782
  490MPD2    H3 7291   2.860   0.930  17.634  1.7299 -0.1715 -1.2047
  490MPD2     N 7292   2.992   0.671   0.298 -0.1599 -0.3080 -0.4824
  490MPD2    H5 7293   3.011   0.749   0.361 -1.0479 -1.4606  1.2324
  490MPD2    N1 7294   2.802   0.487  17.585 -0.3421 -0.1665 -0.4926
  490MPD2    H7 7295   2.809   0.401  17.639  1.1865  2.7308  3.8498
  491TMC3    C1 7296   2.724   0.331  17.422  0.2281  0.1529 -0.5235
  491TMC3    C2 7297   2.714   0.238  17.518  0.1126  0.1733 -0.3739
  491TMC3    C3 7298   2.675   0.113  17.471 -0.3169 -0.1162 -0.1531
  491TMC3    C4 7299   2.677   0.312  17.294  0.0958  0.2432 -0.5423
  491TMC3    C5 7300   2.612   0.192  17.262 -0.4129  0.3972 -0.1138
  491TMC3    C6 7301   2.618   0.092  17.352 -0.3737 -0.7273  0.1891
  491TMC3     C 7302   2.763   0.469  17.459  0.3282 -0.5522 -0.2609
  491TMC3     O 7303   2.760   0.553  17.371  0.2646  0.1461 -0.5266
  491TMC3     H 7304   2.755   0.250  17.618 -2.1960 -1.5222  0.7725
  491TMC3    H1 7305   2.684   0.389  17.219  0.5929 -0.1976 -0.9517
  491TMC3    H2 7306   2.582   4.715  17.319 -0.2740 -0.1133 -1.6854
  491TMC3    C7 7307   2.539   0.171  17.140 -0.7560 -0.8992 -0.2656
  491TMC3    C8 7308   2.655   0.019  17.574 -0.1005  0.3125 -0.2080
  491TMC3    O1 7309   2.499   0.060  17.107  0.6301  0.2142 -0.2930
  491TMC3    O2 7310   2.634   0.072  17.683  0.0082 -0.1139  0.5395
  492MPD2     C 7311   3.541   0.229  11.234  0.6709  0.0976 -0.0175
  492MPD2    C1 7312   3.405   0.214  11.213 -0.1541 -0.5915 -0.1621
  492MPD2    C2 7313   3.330   0.105  11.262  0.1043 -0.3343  0.3354
  492MPD2    C3 7314   3.394   0.007  11.340 -0.2595 -0.5250  1.1408
  492MPD2    C4 7315   3.534   0.025  11.357 -0.1674  0.2154  0.7745
  492MPD2    C5 7316   3.600   0.131  11.305 -0.1959  0.0443  0.0271
  492MPD2     H 7317   3.223   0.099  11.246  0.2595  0.8934 -1.1553
  492MPD2    H1 7318   3.587   4.665  11.406 -2.8281 -1.4957  0.8089
  492MPD2    H2 7319   3.587   0.323  11.206 -1.7131  1.4586  0.6323
  492MPD2    H3 7320   3.700   0.156  11.339 -0.6621  0.2996  1.2165
  492MPD2     N 7321   3.334   4.601  11.375 -0.1020 -0.2894  0.6482
  492MPD2    H5 7322   3.384   4.537  11.436  0.7836 -0.2085  0.0080
  492MPD2    N1 7323   3.344   0.317  11.134  0.1014  0.3663  0.0981
  492MPD2    H7 7324   3.406   0.392  11.105  0.4761  0.8111  2.0127
  493TMC3    C1 7325   3.185   0.435  11.001  0.4693 -0.3602 -0.1581
  493TMC3    C2 7326   3.280   0.533  10.992 -0.5387 -0.7605  0.3410
  493TMC3    C3 7327   3.284   0.610  10.876 -0.9164  0.1842  0.0546
  493TMC3    C4 7328   3.098   0.411  10.903 -0.2755  0.2797 -0.5134
  493TMC3    C5 7329   3.099   0.480  10.793 -0.1765  0.0223  0.3654
  493TMC3    C6 7330   3.193   0.579  10.776  1.2706  0.3193 -0.4968
  493TMC3     C 7331   3.211   0.321  11.086 -0.5698 -1.1059 -0.5585
  493TMC3     O 7332   3.122   0.235  11.093 -0.2990  0.0425 -0.2214
  493TMC3     H 7333   3.339   0.563  11.078  1.0692 -2.3391 -0.2316
  493TMC3    H1 7334   3.023   0.336  10.925  0.5154 -0.4334 -0.2623
  493TMC3    H2 7335   3.195   0.626  10.678  2.2178 -0.2927 -0.7674
  493TMC3    C7 7336   3.013   0.440  10.685  0.5755  0.3869 -0.4746
  493TMC3    C8 7337   3.417   0.659  10.856 -0.4069 -0.2104  0.3604
  493TMC3    O1 7338   2.986   0.528  10.607 -0.4074 -0.2863 -0.0130
  493TMC3    O2 7339   3.496   0.619  10.938 -0.1741  0.0960 -0.2042
  494TMC3    C1 7340   4.378   1.830   0.541 -0.5483  0.4935  0.0912
  494TMC3    C2 7341   4.329   1.706   0.578 -0.4038 -0.6065  0.3228
  494TMC3    C3 7342   4.259   1.634   0.487 -0.4766 -0.6025 -0.0184
  494TMC3    C4 7343   4.363   1.877   0.412 -0.2154  0.0153  0.3817
  494TMC3    C5 7344   4.296   1.797   0.327  0.6339 -0.5875  0.1326
  494TMC3    C6 7345   4.239   1.678   0.363  0.1669 -0.3425 -0.0702
  494TMC3     C 7346   4.379   1.936   0.643 -0.7823 -0.1630 -0.0144
  494TMC3     O 7347   4.363   2.055   0.616 -0.0399  0.0441 -0.0330
  494TMC3     H 7348   4.329   1.672   0.681 -1.2247 -0.4852  0.3656
  494TMC3    H1 7349   4.412   1.970   0.382  0.7560 -0.6636 -0.1354
  494TMC3    H2 7350   4.163   1.628   0.304  0.5488  0.4780 -1.2466
  494TMC3    C7 7351   4.263   1.834   0.190 -0.3611 -0.4014 -0.6430
  494TMC3    C8 7352   4.154   1.564   0.552 -0.3034  0.7060 -0.0937
  494TMC3    O1 7353   4.199   1.759   0.113  0.1650  0.1618 -0.2047
  494TMC3    O2 7354   4.169   1.450   0.588 -0.2121 -0.0480 -0.0422
  495TMC3    C1 7355   2.154   3.097  14.768  0.3641  0.4196  0.5554
  495TMC3    C2 7356   2.058   3.132  14.668  0.7369 -0.1799 -0.7515
  495TMC3    C3 7357   1.972   3.232  14.691  0.0971  0.7072 -0.0797
  495TMC3    C4 7358   2.166   3.155  14.888  0.0304 -0.0671  0.5213
  495TMC3    C5 7359   2.086   3.268  14.904  0.5856 -1.0231  0.0052
  495TMC3    C6 7360   1.997   3.312  14.803  0.7535  0.0477 -0.2718
  495TMC3     C 7361   2.247   2.992  14.748  0.4400  0.8276  0.5804
  495TMC3     O 7362   2.362   3.012  14.783  0.0625 -0.3431 -0.4422
  495TMC3     H 7363   2.053   3.080  14.573  0.7236 -1.5631  0.0091
  495TMC3    H1 7364   2.254   3.137  14.950 -0.1793  0.9332  1.1151
  495TMC3    H2 7365   1.933   3.399  14.800  1.0311  0.2631  0.0689
  495TMC3    C7 7366   2.120   3.341  15.028  0.5046  0.2823  0.0169
  495TMC3    C8 7367   1.927   3.306  14.577  0.7153  0.5641 -0.4680
  495TMC3    O1 7368   2.182   3.288  15.118 -0.5227  0.8448 -0.3810
  495TMC3    O2 7369   1.806   3.318  14.563  0.1782  0.2313 -0.2984
  496MPD2     C 7370   0.203   3.548  15.659  0.3574 -0.9632  0.4548
  496MPD2    C1 7371   0.094   3.574  15.580 -0.5825  0.8283 -0.2962
  496MPD2    C2 7372   4.714   3.665  15.615  0.4679 -0.3891 -0.1978
  496MPD2    C3 7373   4.713   3.722  15.744  0.4311 -1.0628 -0.0827
  496MPD2    C4 7374   0.105   3.705  15.820 -0.9097 -0.2238  0.7888
  496MPD2    C5 7375   0.208   3.622  15.779  0.6080  0.2076 -0.1281
  496MPD2     H 7376   4.642   3.698  15.541 -1.0889 -0.8845  1.1053
  496MPD2    H1 7377   0.106   3.758  15.914 -1.7761 -1.2483  1.3633
  496MPD2    H2 7378   0.284   3.484  15.626  1.0236 -0.6391  1.4672
  496MPD2    H3 7379   0.289   3.605  15.849  0.4018 -0.7755 -0.1302
  496MPD2     N 7380   4.610   3.805  15.796  0.0815 -0.0570 -0.1855
  496MPD2    H5 7381   4.624   3.852  15.885  0.5745 -1.4897  0.4862
  496MPD2    N1 7382   0.088   3.499  15.461 -0.3269  0.7148  0.4128
  496MPD2    H7 7383   0.159   3.426  15.453 -0.4247  0.5529  1.0460
  497TMC3    C1 7384   4.405   3.934  15.793 -0.9950  0.3415  0.1682
  497TMC3    C2 7385   4.321   3.994  15.709 -0.4337  0.3821  0.9136
  497TMC3    C3 7386   4.258   4.111  15.748 -0.3928  0.1753 -0.0093
  497TMC3    C4 7387   4.434   3.990  15.913  0.3034 -0.0173  0.5370
  497TMC3    C5 7388   4.364   4.101  15.958 -0.2619 -0.2671  0.0664
  497TMC3    C6 7389   4.270   4.159  15.877  0.5021  0.6163  0.7105
  497TMC3     C 7390   4.487   3.834  15.731 -0.2761  0.2515 -0.8013
  497TMC3     O 7391   4.443   3.776  15.636  0.0520 -0.5652  0.0994
  497TMC3     H 7392   4.306   3.944  15.614 -1.6195  1.5626  0.4879
  497TMC3    H1 7393   4.487   3.926  15.983  2.6393  0.3565 -0.8962
  497TMC3    H2 7394   4.214   4.244  15.913 -0.2722  0.1883  0.5198
  497TMC3    C7 7395   4.372   4.143  16.099  0.4371 -0.2876  0.2992
  497TMC3    C8 7396   4.132   4.163  15.687 -0.0431 -0.2054 -0.8485
  497TMC3    O1 7397   4.304   4.236  16.133  1.0915 -0.3775 -1.1199
  497TMC3    O2 7398   4.060   4.249  15.732  0.0483 -0.6753  0.5917
  498MPD2     C 7399   0.421   4.704   9.146  0.0774  0.2444 -0.3849
  498MPD2    C1 7400   0.439   0.004   9.282 -0.4525  0.6961  0.0663
  498MPD2    C2 7401   0.326   4.703   9.359 -0.6598  0.1128 -0.9130
  498MPD2    C3 7402   0.202   4.670   9.304  0.2038  0.3366 -0.4479
  498MPD2    C4 7403   0.182   4.668   9.168 -0.5163 -0.2938  0.4879
  498MPD2    C5 7404   0.296   4.687   9.091 -0.0793 -0.2907  0.1959
  498MPD2     H 7405   0.334   4.720   9.466 -1.7862  0.6560 -0.9147
  498MPD2    H1 7406   0.085   4.647   9.125  0.2465  1.1768 -1.9232
  498MPD2    H2 7407   0.502   4.713   9.075 -2.2854  0.4690 -3.0310
  498MPD2    H3 7408   0.283   4.679   8.984 -1.9686  1.6410  0.2994
  498MPD2     N 7409   0.091   4.640   9.395 -0.1980  0.8581  0.3566
  498MPD2    H5 7410   0.118   4.642   9.493  2.1472 -0.3423 -0.2628
  498MPD2    N1 7411   0.560   0.039   9.345  0.9534 -0.2010 -0.1180
  498MPD2    H7 7412   0.553   0.025   9.445  0.9666  0.6972  0.0026
  499TMC3    C1 7413   0.774   0.120   9.384 -0.5568 -0.6821  1.3661
  499TMC3    C2 7414   0.759   0.067   9.513 -0.4897 -0.1259  0.1707
  499TMC3    C3 7415   0.852   0.111   9.598 -0.3980 -0.4759  0.1942
  499TMC3    C4 7416   0.859   0.216   9.342  0.4725  0.3523  0.3387
  499TMC3    C5 7417   0.946   0.251   9.433  0.5494 -0.1515  0.1534
  499TMC3    C6 7418   0.954   0.200   9.559 -0.3330  0.6233 -0.3274
  499TMC3     C 7419   0.676   0.075   9.283 -0.5507  0.2458 -0.5996
  499TMC3     O 7420   0.715   0.097   9.168  0.2708  0.2280  0.0954
  499TMC3     H 7421   0.695   4.705   9.543  1.2627 -0.6660  2.4300
  499TMC3    H1 7422   0.858   0.265   9.245  3.1021 -1.3713 -0.5577
  499TMC3    H2 7423   1.020   0.243   9.634 -1.0935  2.4181 -0.6807
  499TMC3    C7 7424   1.051   0.353   9.400  0.0495  0.8002  0.7598
  499TMC3    C8 7425   0.814   0.106   9.738 -0.5914  0.1724 -0.1720
  499TMC3    O1 7426   1.023   0.429   9.308  0.7705 -0.4081  0.2074
  499TMC3    O2 7427   0.699   0.067   9.760 -0.1808  0.5203  0.3060
  500MPD2     C 7428   2.409   1.409  10.914  0.6400  0.1143  0.3759
  500MPD2    C1 7429   2.441   1.472  10.795  0.2467 -0.5939 -0.6140
  500MPD2    C2 7430   2.360   1.444  10.688 -0.2210 -0.0370 -0.2130
  500MPD2    C3 7431   2.254   1.357  10.689  0.2663 -0.6800  0.5486
  500MPD2    C4 7432   2.227   1.291  10.810  0.1547 -0.1558 -0.1466
  500MPD2    C5 7433   2.300   1.323  10.926  0.3382  0.2123  0.9459
  500MPD2     H 7434   2.390   1.484  10.592  0.7124  0.4053  0.2664
  500MPD2    H1 7435   2.157   1.211  10.825  1.1525 -1.2836 -1.5217
  500MPD2    H2 7436   2.458   1.421  11.010  1.5633 -1.2622  0.0637
  500MPD2    H3 7437   2.273   1.265  11.013 -1.7337  1.7306  1.3151
  500MPD2     N 7438   2.179   1.329  10.578 -0.2748 -0.1194 -0.4075
  500MPD2    H5 7439   2.119   1.247  10.585 -0.0801 -0.3284 -1.0948
  500MPD2    N1 7440   2.547   1.559  10.784 -0.6559 -0.0389 -0.3122
  500MPD2    H7 7441   2.549   1.606  10.694 -0.5083  0.9320  0.1894
  501TMC3    C1 7442   2.765   1.648  10.850  0.6387 -0.2695 -0.2864
  501TMC3    C2 7443   2.772   1.724  10.744 -0.1336 -0.2497  0.5023
  501TMC3    C3 7444   2.900   1.772  10.709  0.4434 -0.3607 -0.4412
  501TMC3    C4 7445   2.872   1.624  10.931 -0.1030  0.4438  0.1819
  501TMC3    C5 7446   2.997   1.681  10.904  0.5650 -0.2471  0.9727
  501TMC3    C6 7447   3.012   1.766  10.793 -0.0342 -0.2325  0.1475
  501TMC3     C 7448   2.639   1.580  10.887  0.2005  0.5797  0.1054
  501TMC3     O 7449   2.641   1.543  11.001 -0.3014  0.0269  0.2113
  501TMC3     H 7450   2.683   1.752  10.690  0.5774  0.8089 -0.1200
  501TMC3    H1 7451   2.868   1.539  10.998 -1.8647  0.1604 -0.2909
  501TMC3    H2 7452   3.104   1.806  10.753  1.3891 -2.3763  1.3384
  501TMC3    C7 7453   3.105   1.610  10.968 -0.2587  0.0614  0.2693
  501TMC3    C8 7454   2.901   1.880  10.611  0.0177 -0.0843 -0.2318
  501TMC3    O1 7455   3.082   1.502  11.018  0.0901  0.4293 -0.4444
  501TMC3    O2 7456   2.968   1.978  10.641  0.1261 -0.0104 -0.0732
  502TMC3    C1 7457   1.856   4.098  14.715  0.2461 -0.1106  0.4841
  502TMC3    C2 7458   1.892   4.229  14.692  0.0025  0.0946  0.3804
  502TMC3    C3 7459   1.826   4.329  14.752  0.1683 -0.0448 -0.5475
  502TMC3    C4 7460   1.735   4.065  14.771  0.2450 -0.0113 -0.0412
  502TMC3    C5 7461   1.660   4.168  14.823 -0.0701  0.5172 -0.5087
  502TMC3    C6 7462   1.708   4.299  14.821  0.0143  0.3622 -0.0692
  502TMC3     C 7463   1.961   4.027  14.788  0.1346  0.0236 -0.4070
  502TMC3     O 7464   2.072   4.028  14.738  0.0081  0.7184 -0.4810
  502TMC3     H 7465   1.987   4.255  14.646 -0.1790 -0.6424 -0.4005
  502TMC3    H1 7466   1.710   3.963  14.798  1.5406  0.4147  2.7421
  502TMC3    H2 7467   1.653   4.382  14.865  3.2917  2.0683  0.8256
  502TMC3    C7 7468   1.600   4.131  14.947 -0.1576  0.2862 -0.0029
  502TMC3    C8 7469   1.897   4.444  14.800  0.3988 -0.6761 -0.7074
  502TMC3    O1 7470   1.653   4.046  15.013 -0.0824 -0.5859 -0.3523
  502TMC3    O2 7471   1.929   4.526  14.716  0.3700  0.1044  0.9647
  503MPD2     C 7472   3.928   0.807  17.142  0.8813  0.1963 -0.6881
  503MPD2    C1 7473   4.012   0.834  17.244 -0.2287 -0.0338 -0.3892
  503MPD2    C2 7474   4.100   0.736  17.292 -0.2639 -0.5734  0.3554
  503MPD2    C3 7475   4.111   0.615  17.223  0.0425  0.6480  0.6942
  503MPD2    C4 7476   4.022   0.591  17.123  0.2093 -0.4128  0.3062
  503MPD2    C5 7477   3.934   0.688  17.083  0.0122  0.5473  0.0708
  503MPD2     H 7478   4.167   0.761  17.373 -0.1925  0.9966 -0.1849
  503MPD2    H1 7479   4.024   0.503  17.060  1.5444  0.5999 -1.0640
  503MPD2    H2 7480   3.844   0.865  17.105 -0.0908  0.0984  1.3596
  503MPD2    H3 7481   3.868   0.659  17.002 -0.9399  1.7544  0.4117
  503MPD2     N 7482   4.221   0.528  17.253  0.2719  0.4406  0.6016
  503MPD2    H5 7483   4.276   0.560  17.332  2.0822 -1.3654  0.0744
  503MPD2    N1 7484   4.015   0.968  17.298 -1.1287  0.8071 -0.3168
  503MPD2    H7 7485   4.087   0.991  17.365 -0.7421  1.4838 -0.9694
  504TMC3    C1 7486   4.360   0.347  17.257 -0.1999  0.2634 -0.0875
  504TMC3    C2 7487   4.343   0.330  17.395 -0.2776 -0.2811 -0.5169
  504TMC3    C3 7488   4.436   0.247  17.456 -0.0165 -0.9191  0.0389
  504TMC3    C4 7489   4.453   0.280  17.189 -0.0008  0.3965  0.4706
  504TMC3    C5 7490   4.554   0.211  17.260 -0.1013 -0.0645  0.3518
  504TMC3    C6 7491   4.542   0.190  17.393  0.4783  0.3582 -0.7262
  504TMC3     C 7492   4.253   0.416  17.188  0.1185  0.0969 -0.1261
  504TMC3     O 7493   4.220   0.380  17.078  0.7193  0.0273  0.4727
  504TMC3     H 7494   4.255   0.370  17.444  0.1980 -1.0506  0.9388
  504TMC3    H1 7495   4.452   0.292  17.081 -0.0302 -1.2581  0.2862
  504TMC3    H2 7496   4.624   0.148  17.451  1.3087 -0.2076 -2.3317
  504TMC3    C7 7497   4.651   0.139  17.179  0.0353 -0.6014  0.2989
  504TMC3    C8 7498   4.455   0.285  17.599  0.2438 -1.3177  0.6472
  504TMC3    O1 7499   4.659   0.175  17.061  0.4681 -0.2677 -0.1395
  504TMC3    O2 7500   4.406   0.394  17.628 -0.0263  0.0869 -0.4257
  505MPD2     C 7501   3.556   4.183  10.395 -0.7228 -0.0016  0.2941
  505MPD2    C1 7502   3.584   4.095  10.293  0.2715  0.7773 -0.6991
  505MPD2    C2 7503   3.695   4.011  10.304  0.4160  0.1684  0.0822
  505MPD2    C3 7504   3.777   4.031  10.414 -0.4628 -0.0720  0.0906
  505MPD2    C4 7505   3.750   4.117  10.517  0.1823  0.1354  0.0747
  505MPD2    C5 7506   3.639   4.194  10.504 -0.4558  0.2343 -0.4474
  505MPD2     H 7507   3.725   3.940  10.228  0.6350 -0.4742  0.7724
  505MPD2    H1 7508   3.821   4.140  10.596  0.8017  3.1867 -1.3766
  505MPD2    H2 7509   3.473   4.252  10.385 -0.0938  0.5866 -0.8588
  505MPD2    H3 7510   3.610   4.271  10.575  0.6842  0.6706 -0.4395
  505MPD2     N 7511   3.901   3.960  10.402 -0.0301 -0.0167 -0.4971
  505MPD2    H5 7512   3.917   3.896  10.326  1.0766 -0.9095  0.4834
  505MPD2    N1 7513   3.512   4.098  10.171 -0.5205 -0.3231 -0.0992
  505MPD2    H7 7514   3.440   4.168  10.164 -0.6376 -0.1050  3.0423
  506TMC3    C1 7515   3.489   4.071   9.937 -0.2206 -0.0020 -0.5200
  506TMC3    C2 7516   3.500   4.204   9.924  0.0987  0.2176 -0.1173
  506TMC3    C3 7517   3.570   4.251   9.815 -0.7323  0.3345 -0.6716
  506TMC3    C4 7518   3.522   3.991   9.831  0.0578  0.3657 -0.6091
  506TMC3    C5 7519   3.594   4.037   9.726  0.1822 -0.3282  0.6639
  506TMC3    C6 7520   3.612   4.168   9.709 -0.3695 -0.5135 -0.3186
  506TMC3     C 7521   3.540   4.014  10.065 -0.0724  0.1825 -0.0135
  506TMC3     O 7522   3.618   3.919  10.041  0.0169 -0.2732  0.1659
  506TMC3     H 7523   3.483   4.276  10.003 -1.3766  1.0930 -1.2353
  506TMC3    H1 7524   3.496   3.886   9.844 -1.9879  0.9002 -0.3513
  506TMC3    H2 7525   3.683   4.203   9.635 -0.1776 -1.3005 -0.5034
  506TMC3    C7 7526   3.712   3.962   9.686 -0.3923 -0.1522 -0.3974
  506TMC3    C8 7527   3.606   4.385   9.806 -0.4432 -0.2030  0.4462
  506TMC3    O1 7528   3.768   3.992   9.585  0.2554 -0.5111  0.1804
  506TMC3    O2 7529   3.525   4.475   9.820  0.8422  0.1136 -0.8457
  507TMC3    C1 7530   0.742   0.070  14.589  0.2237 -0.1953 -0.3488
  507TMC3    C2 7531   0.725   0.063  14.450  0.9095  0.2152 -0.0758
  507TMC3    C3 7532   0.755   0.170  14.374  0.6555  0.4666 -0.4967
  507TMC3    C4 7533   0.790   0.187  14.645 -0.5714  0.9124  0.1110
  507TMC3    C5 7534   0.827   0.294  14.562 -0.2198  0.0935 -0.4920
  507TMC3    C6 7535   0.814   0.284  14.423 -0.6071 -0.3330  0.6231
  507TMC3     C 7536   0.637   0.014  14.674  0.4722  0.0492 -0.5314
  507TMC3     O 7537   0.597   0.097  14.753 -0.3980 -0.1342 -0.2548
  507TMC3     H 7538   0.693   4.687  14.410 -3.0753  0.9019  1.4749
  507TMC3    H1 7539   0.781   0.207  14.751 -1.5213 -1.1526  0.4274
  507TMC3    H2 7540   0.816   0.376  14.367 -1.3073  0.3478  1.7269
  507TMC3    C7 7541   0.781   0.419  14.613 -0.6945 -0.7503 -0.5563
  507TMC3    C8 7542   0.652   0.199  14.274 -0.7106  0.0304  0.3109
  507TMC3    O1 7543   0.666   0.416  14.656  0.1952 -0.3857 -0.0467
  507TMC3    O2 7544   0.660   0.301  14.211 -0.3320  0.2609  0.3727
  508MPD2     C 7545   1.729   2.061  16.048  0.2126 -0.5863  0.4913
  508MPD2    C1 7546   1.768   2.186  16.075  0.0399  0.0974 -0.0103
  508MPD2    C2 7547   1.767   2.283  15.967  0.1058  0.6451  0.1305
  508MPD2    C3 7548   1.728   2.240  15.844 -0.1874  0.4916 -0.6048
  508MPD2    C4 7549   1.675   2.112  15.823  0.0728  0.0288  0.0444
  508MPD2    C5 7550   1.682   2.023  15.926  0.6470 -0.2631 -0.9924
  508MPD2     H 7551   1.770   2.389  15.987  1.0525  0.5233  0.6267
  508MPD2    H1 7552   1.637   2.083  15.726 -1.3674  0.6245  0.4233
  508MPD2    H2 7553   1.741   1.983  16.122 -2.0344  0.6198  2.1256
  508MPD2    H3 7554   1.651   1.921  15.906 -0.0385 -0.1746 -0.3984
  508MPD2     N 7555   1.725   2.343  15.744 -0.8839 -0.0587 -0.2113
  508MPD2    H5 7556   1.749   2.438  15.770 -3.5770  0.6955 -0.4762
  508MPD2    N1 7557   1.812   2.223  16.206 -0.1963 -0.5156  0.1435
  508MPD2    H7 7558   1.834   2.145  16.266  0.1231 -0.7772 -0.3159
  509TMC3    C1 7559   1.620   2.638  15.431 -0.1110  0.8146 -0.6475
  509TMC3    C2 7560   1.701   2.735  15.482 -0.4310 -0.1252 -0.0964
  509TMC3    C3 7561   1.794   2.689  15.573 -0.0431  0.0098 -0.3981
  509TMC3    C4 7562   1.621   2.503  15.466 -0.2109 -0.0341  0.7888
  509TMC3    C5 7563   1.717   2.462  15.554 -0.6049 -0.0726 -0.2766
  509TMC3    C6 7564   1.804   2.559  15.606 -0.1355  0.4057  0.0145
  509TMC3     C 7565   1.517   2.668  15.328  0.2148 -0.0309 -0.1321
  509TMC3     O 7566   1.459   2.576  15.273  0.5463 -0.5309 -0.1230
  509TMC3     H 7567   1.692   2.842  15.466 -0.3065  0.0339  0.8564
  509TMC3    H1 7568   1.554   2.432  15.419  0.4931 -0.7785  0.9232
  509TMC3    H2 7569   1.879   2.535  15.682  0.5728  1.0902 -0.4746
  509TMC3    C7 7570   1.699   2.331  15.612 -0.9201  0.2307  0.3731
  509TMC3    C8 7571   1.881   2.785  15.647 -0.1349 -0.5241 -0.1361
  509TMC3    O1 7572   1.682   2.235  15.543 -0.5195 -0.5359  0.2378
  509TMC3    O2 7573   1.972   2.728  15.704 -0.0574  0.2904  0.0553
  510MPD2     C 7574   3.739   4.249  14.222 -0.8332  0.8155  0.1045
  510MPD2    C1 7575   3.785   4.249  14.351  0.0147  0.0678 -0.1100
  510MPD2    C2 7576   3.921   4.272  14.367  0.0384  0.3152  0.4947
  510MPD2    C3 7577   4.005   4.273  14.258 -0.3433  0.8571  0.4723
  510MPD2    C4 7578   3.954   4.277  14.127  0.1048 -0.0305 -0.9179
  510MPD2    C5 7579   3.823   4.260  14.109 -0.3870 -0.5837  0.3824
  510MPD2     H 7580   3.958   4.297  14.466  1.0850  0.0407  0.1706
  510MPD2    H1 7581   4.015   4.278  14.038 -1.5006  0.0133 -1.9994
  510MPD2    H2 7582   3.636   4.218  14.209 -0.8618  0.8449  0.2525
  510MPD2    H3 7583   3.779   4.250  14.011 -1.9276 -0.7566  1.0924
  510MPD2     N 7584   4.146   4.262  14.276  0.2412  0.0256  0.0442
  510MPD2    H5 7585   4.182   4.272  14.370  0.4412 -0.2128 -0.0058
  510MPD2    N1 7586   3.699   4.212  14.454 -0.4176 -0.2096  0.0184
  510MPD2    H7 7587   3.603   4.191  14.427 -0.4077  0.4884 -0.5672
  511TMC3    C1 7588   3.638   4.123  14.663  0.8228  0.2969  0.5784
  511TMC3    C2 7589   3.635   4.156  14.797 -0.1344 -0.4439 -0.2684
  511TMC3    C3 7590   3.548   4.093  14.879  0.6015 -0.3659  0.5590
  511TMC3    C4 7591   3.545   4.036  14.609  0.6599  0.3305 -0.0375
  511TMC3    C5 7592   3.447   3.986  14.691  0.2464 -0.3147 -0.6140
  511TMC3    C6 7593   3.444   4.016  14.825 -0.2815  0.0411  0.1757
  511TMC3     C 7594   3.735   4.194  14.586 -0.7577  0.5454 -0.0570
  511TMC3     O 7595   3.832   4.243  14.643  0.1010  0.3037 -0.0655
  511TMC3     H 7596   3.714   4.216  14.841 -1.0844  1.8169 -1.6758
  511TMC3    H1 7597   3.528   4.024  14.503  1.0107  3.4337 -0.4590
  511TMC3    H2 7598   3.359   3.982  14.884  1.9440 -0.9980  2.7882
  511TMC3    C7 7599   3.339   3.921  14.623 -0.4869 -0.0172  0.4961
  511TMC3    C8 7600   3.528   4.153  15.010  0.8014 -1.0175  0.8182
  511TMC3    O1 7601   3.295   3.971  14.522 -1.0720  0.3374 -0.2469
  511TMC3    O2 7602   3.594   4.242  15.052 -0.0985 -0.0019 -0.2686
  512TMC3    C1 7603   2.588   3.374  13.019  0.5178 -0.1869 -0.6090
  512TMC3    C2 7604   2.635   3.315  13.134 -0.8150 -0.3149  0.3391
  512TMC3    C3 7605   2.645   3.178  13.133  0.4081  0.9132  0.3626
  512TMC3    C4 7606   2.559   3.304  12.907  0.2259  0.2466 -0.0606
  512TMC3    C5 7607   2.550   3.169  12.918  0.7174 -0.2988 -0.1749
  512TMC3    C6 7608   2.600   3.108  13.031  0.4696 -0.1259 -0.0185
  512TMC3     C 7609   2.617   3.505  12.984  0.1960 -0.2139 -0.7677
  512TMC3     O 7610   2.680   3.520  12.882  0.5280  0.0271  0.4254
  512TMC3     H 7611   2.670   3.378  13.216  1.3432  1.1494 -1.7075
  512TMC3    H1 7612   2.533   3.347  12.812  1.6354  0.5520 -0.3137
  512TMC3    H2 7613   2.616   3.001  13.026 -1.7746 -0.4716  0.1248
  512TMC3    C7 7614   2.538   3.100  12.787 -0.1539  0.3212  0.2733
  512TMC3    C8 7615   2.699   3.112  13.252 -0.1269  0.5202  0.1906
  512TMC3    O1 7616   2.529   3.167  12.688  0.0535 -0.6114 -0.3405
  512TMC3    O2 7617   2.676   2.994  13.272  0.6237 -0.4007 -0.4449
  513MPD2     C 7618   4.026   2.927  12.919  0.4799  0.0585  0.0278
  513MPD2    C1 7619   4.102   3.032  12.873 -0.5554 -0.1855  0.3990
  513MPD2    C2 7620   4.151   3.121  12.966 -0.5962  0.1327 -0.2927
  513MPD2    C3 7621   4.133   3.105  13.102  0.1756  0.7358 -0.8661
  513MPD2    C4 7622   4.061   3.002  13.149 -0.4292 -0.1854 -0.7741
  513MPD2    C5 7623   4.008   2.915  13.056 -0.6364  0.4485  0.0244
  513MPD2     H 7624   4.215   3.201  12.931  1.5187 -1.3003  0.2525
  513MPD2    H1 7625   4.048   2.980  13.255  2.1080  0.6557 -0.2765
  513MPD2    H2 7626   3.976   2.856  12.855  1.0105 -0.6917  0.4374
  513MPD2    H3 7627   3.948   2.831  13.088 -1.3779  0.4365 -1.3554
  513MPD2     N 7628   4.212   3.182  13.190 -0.3567 -0.2549 -0.5076
  513MPD2    H5 7629   4.268   3.247  13.137 -0.1337  1.8988  2.3457
  513MPD2    N1 7630   4.133   3.030  12.729  0.6862  0.6939  0.0606
  513MPD2    H7 7631   4.115   2.951  12.669  0.6304  2.5068 -2.2901
  514TMC3    C1 7632   4.274   3.121  12.572 -0.2974 -0.0167  0.0968
  514TMC3    C2 7633   4.298   3.236  12.505  0.1336  0.5889 -0.0162
  514TMC3    C3 7634   4.425   3.257  12.460  0.2096  0.7562 -0.9153
  514TMC3    C4 7635   4.368   3.023  12.590  0.2409 -0.0936  0.6486
  514TMC3    C5 7636   4.495   3.045  12.545  0.0231 -0.7347 -1.1656
  514TMC3    C6 7637   4.517   3.160  12.472  0.2061  0.4515  0.2183
  514TMC3     C 7638   4.178   3.144  12.674  0.5670 -0.8744  0.1761
  514TMC3     O 7639   4.164   3.265  12.711  0.0289 -0.1569  0.0380
  514TMC3     H 7640   4.224   3.313  12.488 -0.1341  0.3818  0.2308
  514TMC3    H1 7641   4.343   2.941  12.655  0.9417 -0.2477  0.7222
  514TMC3    H2 7642   4.616   3.187  12.437  0.0085 -1.5773 -1.9887
  514TMC3    C7 7643   4.591   3.023  12.656 -0.1178  0.3968 -0.0391
  514TMC3    C8 7644   4.445   3.382  12.388 -0.3304 -0.4251  0.0682
  514TMC3    O1 7645   4.547   2.968  12.753  0.1063  0.4875 -0.1155
  514TMC3    O2 7646   4.363   3.471  12.410  0.3633 -0.9035 -0.1718
  515MPD2     C 7647   3.157   0.630  14.511  0.1133  0.1537  0.1532
  515MPD2    C1 7648   3.106   0.518  14.584  0.6099  0.7644 -0.1573
  515MPD2    C2 7649   3.159   0.489  14.714 -0.4141 -0.1904  0.4136
  515MPD2    C3 7650   3.259   0.573  14.764 -0.2173 -0.2914  0.2034
  515MPD2    C4 7651   3.306   0.679  14.692 -0.0305  0.2016 -0.6587
  515MPD2    C5 7652   3.252   0.708  14.567  0.3360  0.9411  1.3087
  515MPD2     H 7653   3.112   0.406  14.766 -0.6453 -0.9827 -1.0778
  515MPD2    H1 7654   3.391   0.736  14.729  0.3074 -0.6844 -0.0775
  515MPD2    H2 7655   3.130   0.653  14.409  0.8748 -0.3916 -0.1704
  515MPD2    H3 7656   3.300   0.794  14.522 -2.1178  2.2766  1.2420
  515MPD2     N 7657   3.329   0.545  14.889 -1.5090 -0.0293 -0.0859
  515MPD2    H5 7658   3.402   0.612  14.910 -2.1257  1.3383 -2.3257
  515MPD2    N1 7659   2.997   0.442  14.535 -0.3721 -0.2339 -0.4454
  515MPD2    H7 7660   2.948   0.382  14.601  1.9341 -1.1497  0.4472
  516TMC3    C1 7661   2.829   0.369  14.393  0.1414  0.0106  0.4423
  516TMC3    C2 7662   2.748   0.410  14.291 -0.2361 -0.0758 -0.3619
  516TMC3    C3 7663   2.619   0.361  14.289  0.2142 -0.4444 -0.6082
  516TMC3    C4 7664   2.789   0.272  14.481 -0.0029  0.0713  0.1670
  516TMC3    C5 7665   2.657   0.238  14.476  0.8398 -0.1149  0.2390
  516TMC3    C6 7666   2.568   0.279  14.378  0.3167  0.9902  0.6355
  516TMC3     C 7667   2.956   0.434  14.405  0.0553 -0.4656 -0.1582
  516TMC3     O 7668   2.998   0.499  14.310  0.5377  0.2086 -0.2243
  516TMC3     H 7669   2.778   0.487  14.220  2.4717 -0.6859  0.1266
  516TMC3    H1 7670   2.854   0.244  14.563  0.3874  1.8322  0.4524
  516TMC3    H2 7671   2.464   0.248  14.381  0.6686 -0.3322 -0.5820
  516TMC3    C7 7672   2.611   0.144  14.578  0.5997 -0.6833  0.2194
  516TMC3    C8 7673   2.532   0.404  14.176  0.2995  0.0126  0.1029
  516TMC3    O1 7674   2.676   0.153  14.680 -0.4324 -0.7842  1.0866
  516TMC3    O2 7675   2.449   0.323  14.134 -0.5267 -0.2823 -0.8417
  517MPD2     C 7676   2.639   2.588  17.257 -0.2891 -0.1415  0.2806
  517MPD2    C1 7677   2.748   2.556  17.341  0.2949 -0.2454  0.2763
  517MPD2    C2 7678   2.822   2.660  17.393 -0.0304  0.2893 -0.1676
  517MPD2    C3 7679   2.785   2.793  17.370 -0.4652 -0.4425 -0.0057
  517MPD2    C4 7680   2.690   2.820  17.280 -0.7370  0.5707  0.9250
  517MPD2    C5 7681   2.613   2.721  17.230  0.1991 -0.7089 -0.3463
  517MPD2     H 7682   2.899   2.639  17.467 -0.1807 -1.6925 -0.5770
  517MPD2    H1 7683   2.685   2.923  17.245  0.1570  0.3472  0.1200
  517MPD2    H2 7684   2.587   2.512  17.201 -2.1286  1.0568  0.3412
  517MPD2    H3 7685   2.536   2.756  17.162 -0.7694 -3.0771 -0.4577
  517MPD2     N 7686   2.845   2.904  17.435 -0.3641  0.3153 -0.0209
  517MPD2    H5 7687   2.800   2.992  17.412 -0.8223 -0.0131 -0.3862
  517MPD2    N1 7688   2.796   2.425  17.360 -0.8187  0.3564 -0.4680
  517MPD2    H7 7689   2.890   2.424  17.397 -2.3558  0.2596  3.3694
  518TMC3    C1 7690   2.796   2.183  17.344 -0.3022 -0.4325  0.7581
  518TMC3    C2 7691   2.726   2.070  17.372 -0.1186  0.6674 -1.0399
  518TMC3    C3 7692   2.786   1.950  17.349 -0.0969  0.0319 -0.3546
  518TMC3    C4 7693   2.926   2.180  17.296 -0.2891 -0.6161 -0.0246
  518TMC3    C5 7694   2.980   2.056  17.281  0.1035  0.6778 -0.1759
  518TMC3    C6 7695   2.910   1.937  17.307  0.4996  0.1748 -0.2988
  518TMC3     C 7696   2.728   2.311  17.329 -0.4593 -0.2136 -0.2376
  518TMC3     O 7697   2.607   2.302  17.307  0.0560  0.1898 -0.0782
  518TMC3     H 7698   2.621   2.072  17.398  0.0232 -1.1387 -0.3333
  518TMC3    H1 7699   2.988   2.266  17.273  0.7427 -1.5332 -0.6145
  518TMC3    H2 7700   2.953   1.838  17.295 -0.3203 -0.4287  1.8804
  518TMC3    C7 7701   3.119   2.053  17.296 -0.3917 -0.5766 -0.4374
  518TMC3    C8 7702   2.734   1.828  17.421 -0.2723  0.7473  0.3090
  518TMC3    O1 7703   3.168   2.143  17.368  0.0550 -0.1448  0.0784
  518TMC3    O2 7704   2.799   1.724  17.413  0.3256  0.3787  0.6877
  519MPD2     C 7705   4.521   0.011  14.809  0.7124 -0.6013  0.0959
  519MPD2    C1 7706   4.477   0.084  14.699 -0.7251 -0.2254  0.4525
  519MPD2    C2 7707   4.510   0.048  14.569 -0.1801 -0.2192 -0.0934
  519MPD2    C3 7708   4.593   4.657  14.547 -0.0019 -1.2906 -0.3530
  519MPD2    C4 7709   4.635   4.587  14.657 -0.0593  0.4918  0.2403
  519MPD2    C5 7710   4.597   4.622  14.783 -0.9774 -0.0906 -0.1602
  519MPD2     H 7711   4.500   0.120  14.488 -0.8311  1.4019  1.4386
  519MPD2    H1 7712   4.685   4.491  14.660 -1.4290 -0.2259 -0.0614
  519MPD2    H2 7713   4.492   0.022  14.913  1.1621  1.9954 -0.0332
  519MPD2    H3 7714   4.626   4.564  14.870  0.8169 -0.6784 -1.1350
  519MPD2     N 7715   4.613   4.609  14.419 -0.1991  0.3966 -0.0488
  519MPD2    H5 7716   4.685   4.538  14.412  1.5534  1.9676  2.0030
  519MPD2    N1 7717   4.370   0.175  14.713  0.3916  0.3855 -0.4881
  519MPD2    H7 7718   4.313   0.160  14.796 -0.1227 -0.8911 -1.0791
  520TMC3    C1 7719   4.610   4.621  14.183 -0.4062  0.6882  0.0069
  520TMC3    C2 7720   4.519   4.577  14.092  0.1814  0.1671 -0.1770
  520TMC3    C3 7721   4.559   4.481  13.998  0.6517  0.3077  0.5791
  520TMC3    C4 7722   0.020   4.579  14.178 -0.0372 -0.2038  0.2425
  520TMC3    C5 7723   0.056   4.504  14.068 -0.2838  0.4441 -0.1364
  520TMC3    C6 7724   4.692   4.458  13.974 -0.5859  0.3762 -0.4986
  520TMC3     C 7725   4.552   4.655  14.305  0.0434 -0.1339 -0.1142
  520TMC3     O 7726   4.444   4.712  14.290  0.2483  0.1932  0.0863
  520TMC3     H 7727   4.417   4.613  14.100 -0.2613 -0.6748 -2.0116
  520TMC3    H1 7728   0.098   4.615  14.243  0.5921 -1.5541  0.2523
  520TMC3    H2 7729   4.714   4.376  13.907 -0.7375  0.1399 -0.2621
  520TMC3    C7 7730   0.189   4.446  14.065 -0.4121 -0.3765  0.1425
  520TMC3    C8 7731   4.466   4.421  13.903 -0.4462 -0.2460 -0.1075
  520TMC3    O1 7732   0.256   4.453  14.171  0.1377  0.0095 -0.0648
  520TMC3    O2 7733   4.521   4.342  13.828  0.0107  0.7672  0.1275
  521MPD2     C 7734   0.624   3.228  17.336  0.0342 -0.4101 -0.1656
  521MPD2    C1 7735   0.608   3.095  17.291  0.2772 -0.4093  0.5098
  521MPD2    C2 7736   0.727   3.029  17.249  0.0266 -0.2685  0.2968
  521MPD2    C3 7737   0.850   3.087  17.246  0.0476  0.5299 -0.9301
  521MPD2    C4 7738   0.862   3.220  17.289 -0.3281 -0.1369 -0.1907
  521MPD2    C5 7739   0.752   3.286  17.334  0.2102  0.0315 -0.1811
  521MPD2     H 7740   0.720   2.928  17.211 -0.0118  0.0582 -0.5494
  521MPD2    H1 7741   0.955   3.274  17.302 -1.8650  1.9492  2.3069
  521MPD2    H2 7742   0.543   3.283  17.382 -0.3381 -1.3263  0.2903
  521MPD2    H3 7743   0.757   3.390  17.362 -3.3381 -0.4231  2.1547
  521MPD2     N 7744   0.962   3.012  17.204  0.7836 -0.1892 -0.6370
  521MPD2    H5 7745   0.951   2.919  17.163 -0.1088  0.3241 -1.5691
  521MPD2    N1 7746   0.483   3.027  17.301  0.3481 -0.4128 -0.4576
  521MPD2    H7 7747   0.399   3.080  17.323 -0.3790 -2.2661  1.1909
  522TMC3    C1 7748   1.188   2.985  17.120 -0.6591  0.2530 -0.6415
  522TMC3    C2 7749   1.327   3.002  17.141 -0.4454  0.0386  0.0158
  522TMC3    C3 7750   1.408   2.929  17.062  0.0966 -0.7751  1.0133
  522TMC3    C4 7751   1.129   2.912  17.019 -0.2497 -0.6492 -0.2386
  522TMC3    C5 7752   1.220   2.853  16.940 -0.5408  0.1590 -0.6988
  522TMC3    C6 7753   1.352   2.856  16.962  0.2186  0.7880 -0.4543
  522TMC3     C 7754   1.096   3.057  17.209  0.1802  0.1536  0.9131
  522TMC3     O 7755   1.144   3.155  17.267 -0.3689  0.1928 -0.5827
  522TMC3     H 7756   1.358   3.058  17.229 -0.5463 -0.2156  0.2139
  522TMC3    H1 7757   1.022   2.910  16.999 -0.9508  2.4677  3.2462
  522TMC3    H2 7758   1.412   2.795  16.895  1.8678 -0.0517  1.8244
  522TMC3    C7 7759   1.166   2.775  16.832  0.2360 -0.0222 -0.1381
  522TMC3    C8 7760   1.550   2.912  17.105 -0.0145  0.6804  0.8929
  522TMC3    O1 7761   1.238   2.697  16.772 -0.6368  0.1464 -0.2390
  522TMC3    O2 7762   1.580   2.940  17.218 -0.4287  0.0610  0.4187
  523MPD2     C 7763   3.425   3.045   9.820 -0.3030  0.1581 -0.3782
  523MPD2    C1 7764   3.287   3.037   9.826  0.0087 -0.3087 -0.6637
  523MPD2    C2 7765   3.218   3.116   9.741 -0.2662  0.6453  0.0546
  523MPD2    C3 7766   3.279   3.195   9.643 -0.1502 -0.3686 -0.4214
  523MPD2    C4 7767   3.415   3.205   9.647  0.0732  0.7772 -0.3185
  523MPD2    C5 7768   3.492   3.136   9.732 -0.1338 -0.4586 -0.6375
  523MPD2     H 7769   3.110   3.125   9.742 -0.0801  3.0932 -0.7373
  523MPD2    H1 7770   3.464   3.274   9.580  1.4069  0.8825  0.7606
  523MPD2    H2 7771   3.485   2.968   9.868 -0.0916 -0.2129 -1.2466
  523MPD2    H3 7772   3.600   3.140   9.722  0.0432  0.6833  1.5725
  523MPD2     N 7773   3.209   3.270   9.548 -0.6335 -0.0892  0.5986
  523MPD2    H5 7774   3.252   3.338   9.487 -1.0044 -1.1478 -0.8363
  523MPD2    N1 7775   3.236   2.949   9.920 -0.4373  0.0378  0.1647
  523MPD2    H7 7776   3.304   2.899   9.977  0.9939  1.0094 -0.7024
  524TMC3    C1 7777   3.024   3.335   9.429  0.7206 -0.3898 -0.3834
  524TMC3    C2 7778   2.907   3.296   9.359 -0.1444  0.5208  0.1180
  524TMC3    C3 7779   2.820   3.391   9.312  0.3258 -0.3059 -0.3499
  524TMC3    C4 7780   3.039   3.467   9.471  0.0912 -0.0917 -0.7202
  524TMC3    C5 7781   2.941   3.557   9.432  0.3889  0.1801 -0.1588
  524TMC3    C6 7782   2.832   3.519   9.357  0.1188  0.6133 -0.3677
  524TMC3     C 7783   3.083   3.228   9.509  0.1866 -0.4977 -0.2671
  524TMC3     O 7784   3.023   3.120   9.521 -0.4311 -0.1640 -0.1783
  524TMC3     H 7785   2.900   3.198   9.315 -0.6007  0.6035  0.0042
  524TMC3    H1 7786   3.114   3.507   9.539  0.2647  0.2254 -1.1010
  524TMC3    H2 7787   2.762   3.591   9.316  1.6726  1.4519 -1.5199
  524TMC3    C7 7788   2.959   3.695   9.470  0.0684 -0.2345 -0.5061
  524TMC3    C8 7789   2.708   3.336   9.243  0.4358  0.0027 -0.0896
  524TMC3    O1 7790   3.075   3.727   9.505  0.0630 -0.2974 -0.3867
  524TMC3    O2 7791   2.690   3.217   9.248  0.4548 -0.0846  0.0986
  525MPD2     C 7792   0.928   4.306  14.367  0.5186 -0.7023  0.5307
  525MPD2    C1 7793   1.053   4.316  14.421 -0.4820  0.1495 -0.5162
  525MPD2    C2 7794   1.148   4.411  14.387 -0.1292 -0.4453 -0.0476
  525MPD2    C3 7795   1.109   4.514  14.303 -0.0659 -0.2911 -0.5399
  525MPD2    C4 7796   0.982   4.502  14.248  0.0125  0.5092  0.7047
  525MPD2    C5 7797   0.893   4.405  14.280 -0.2022  0.5045  0.0249
  525MPD2     H 7798   1.243   4.421  14.437  0.5686  2.3349 -1.9216
  525MPD2    H1 7799   0.941   4.576  14.181  1.9166  0.1768 -0.8270
  525MPD2    H2 7800   0.866   4.219  14.389 -0.2953  0.2133  1.8506
  525MPD2    H3 7801   0.794   4.399  14.238 -0.2475  0.8646  0.0857
  525MPD2     N 7802   1.184   4.627  14.270 -0.3919 -0.1409 -0.0431
  525MPD2    H5 7803   1.131   4.710  14.247  0.1321  0.2300  0.1150
  525MPD2    N1 7804   1.104   4.214  14.508 -0.6850  0.1706  0.4575
  525MPD2    H7 7805   1.205   4.206  14.518 -1.0824 -3.1677  1.9220
  526TMC3    C1 7806   1.088   4.046  14.676 -0.5728 -0.3270 -1.4192
  526TMC3    C2 7807   1.034   4.016  14.800  0.5264  0.0295  0.2188
  526TMC3    C3 7808   1.112   3.981  14.906  0.1176  0.5233  0.3164
  526TMC3    C4 7809   1.221   4.018  14.651  0.0417 -1.1132  0.3173
  526TMC3    C5 7810   1.293   3.978  14.767 -0.1858 -0.0286 -0.5842
  526TMC3    C6 7811   1.242   3.966  14.894 -0.4218  0.8777  0.6313
  526TMC3     C 7812   1.020   4.141  14.589 -0.0094  0.5611 -0.9310
  526TMC3     O 7813   0.907   4.158  14.621 -0.0144  0.4930 -0.1351
  526TMC3     H 7814   0.926   4.021  14.809  0.3325  1.8877 -3.0575
  526TMC3    H1 7815   1.253   4.032  14.549  0.5754 -1.3694  0.4520
  526TMC3    H2 7816   1.303   3.947  14.981 -0.4038  1.0569  0.6581
  526TMC3    C7 7817   1.408   3.902  14.740  0.1752  0.3376 -0.4738
  526TMC3    C8 7818   1.062   4.001  15.042  0.1979  0.0408  0.1223
  526TMC3    O1 7819   1.441   3.822  14.824 -0.1860 -0.1235  0.2350
  526TMC3    O2 7820   1.081   4.113  15.086  0.1439 -0.0248  0.0187
  527MPD2     C 7821   3.755   2.665   1.374 -0.1377  0.7098  0.1523
  527MPD2    C1 7822   3.855   2.590   1.431 -0.9944 -0.1628 -0.8469
  527MPD2    C2 7823   3.983   2.586   1.378  0.5643 -0.7005 -0.0052
  527MPD2    C3 7824   4.004   2.637   1.255  0.1373  0.1958 -0.0344
  527MPD2    C4 7825   3.894   2.686   1.185 -0.2359  0.7240  0.7532
  527MPD2    C5 7826   3.778   2.706   1.249 -0.6757  0.1881 -0.0357
  527MPD2     H 7827   4.066   2.543   1.432  0.5116  1.6696  1.9841
  527MPD2    H1 7828   3.911   2.741   1.093  2.8720 -1.2323  0.1450
  527MPD2    H2 7829   3.653   2.670   1.409 -0.0989 -1.6379  0.5866
  527MPD2    H3 7830   3.702   2.766   1.202 -1.3644 -0.2223  0.5465
  527MPD2     N 7831   4.133   2.608   1.205 -0.2597  0.7360 -0.2622
  527MPD2    H5 7832   4.198   2.571   1.274  0.0603 -2.3906 -2.2314
  527MPD2    N1 7833   3.835   2.538   1.562 -0.0554  0.2353  0.1971
  527MPD2    H7 7834   3.913   2.502   1.617 -1.8615  0.4441  2.9010
  528TMC3    C1 7835   3.726   2.449   1.747  0.5188  0.3537 -0.3883
  528TMC3    C2 7836   3.841   2.416   1.802 -0.2700 -0.0397  0.3361
  528TMC3    C3 7837   3.836   2.321   1.904  0.5461 -0.0252 -0.1263
  528TMC3    C4 7838   3.607   2.412   1.807  0.3679  0.5834 -0.5056
  528TMC3    C5 7839   3.610   2.321   1.907 -0.0801 -0.1230 -0.9277
  528TMC3    C6 7840   3.724   2.266   1.954  0.2881  0.0389  0.1496
  528TMC3     C 7841   3.711   2.519   1.620  0.3232  0.1355 -0.5504
  528TMC3     O 7842   3.595   2.530   1.581  0.1552  0.3052  0.6615
  528TMC3     H 7843   3.932   2.473   1.784  0.1943 -0.3132  1.8755
  528TMC3    H1 7844   3.515   2.464   1.782 -1.0956 -0.8810  1.7532
  528TMC3    H2 7845   3.724   2.189   2.030  0.1845 -1.1134 -1.0140
  528TMC3    C7 7846   3.488   2.275   1.959  0.2539  0.9066  0.0970
  528TMC3    C8 7847   3.960   2.295   1.971  0.0331  0.2728 -0.2901
  528TMC3    O1 7848   3.503   2.199   2.055 -0.2090 -0.3799 -0.3577
  528TMC3    O2 7849   4.051   2.369   1.941  0.3322  0.3446  0.1660
  529MPD2     C 7850   1.471   0.106   0.012  0.2723 -0.1822  0.3218
  529MPD2    C1 7851   1.493   0.220   0.094  0.5129 -1.0736 -0.0856
  529MPD2    C2 7852   1.500   0.343   0.028 -0.3176  0.3134 -0.2211
  529MPD2    C3 7853   1.508   0.355  17.574 -0.1511  0.4156 -0.0062
  529MPD2    C4 7854   1.486   0.243  17.496 -0.5610 -0.4321  0.6813
  529MPD2    C5 7855   1.466   0.123  17.564  0.0120 -0.4816  0.1566
  529MPD2     H 7856   1.488   0.431   0.091  2.2985  1.2742 -1.0636
  529MPD2    H1 7857   1.494   0.245  17.388 -1.0532 -1.6091  0.6129
  529MPD2    H2 7858   1.468   0.005   0.051  0.9964  0.6233  2.5150
  529MPD2    H3 7859   1.466   0.040  17.494  1.6955  2.3755 -3.2709
  529MPD2     N 7860   1.524   0.475  17.503  0.4483  0.4960 -0.1984
  529MPD2    H5 7861   1.494   0.483  17.407  1.5596 -1.3138 -0.6821
  529MPD2    N1 7862   1.491   0.215   0.233  0.7114 -0.3596 -0.4454
  529MPD2    H7 7863   1.514   0.303   0.279 -1.0591 -0.4661  0.6822
  530TMC3    C1 7864   1.450   0.113   0.441 -0.4785  0.1263  0.6359
  530TMC3    C2 7865   1.450   0.241   0.500  0.5683  0.9924  0.4764
  530TMC3    C3 7866   1.417   0.252   0.632  0.0108 -0.5064 -0.6698
  530TMC3    C4 7867   1.420   4.720   0.516 -0.0219 -0.7352 -0.5350
  530TMC3    C5 7868   1.401   0.014   0.648 -0.3407 -0.1524 -0.6202
  530TMC3    C6 7869   1.390   0.140   0.709  0.6930 -0.0837 -0.4014
  530TMC3     C 7870   1.478   0.095   0.306 -0.0119 -0.0787  0.5362
  530TMC3     O 7871   1.483   4.698   0.263 -0.8509 -0.2662  0.0899
  530TMC3     H 7872   1.472   0.327   0.437 -2.7787  0.3330 -1.6297
  530TMC3    H1 7873   1.446   4.620   0.482 -4.6995 -1.3039 -2.4388
  530TMC3    H2 7874   1.359   0.149   0.812  0.3361 -3.3100 -0.2059
  530TMC3    C7 7875   1.383   4.614   0.735 -0.1546  0.8600  0.0298
  530TMC3    C8 7876   1.440   0.382   0.692 -0.1634 -0.1759  0.6883
  530TMC3    O1 7877   1.379   4.508   0.679  0.8316 -0.3464 -0.6022
  530TMC3    O2 7878   1.428   0.479   0.616 -0.2653 -0.5148  0.0762
  531MPD2     C 7879   0.228   3.214  12.962  0.6611  0.0629  0.0443
  531MPD2    C1 7880   0.088   3.208  12.967 -0.2831  0.0590  0.2599
  531MPD2    C2 7881   0.013   3.164  12.865  0.3411  0.0152  0.4711
  531MPD2    C3 7882   0.075   3.124  12.747  0.7402  0.0845  0.6889
  531MPD2    C4 7883   0.207   3.142  12.734 -1.1511  0.0057  0.0244
  531MPD2    C5 7884   0.282   3.177  12.843 -0.8443 -0.2802  0.1970
  531MPD2     H 7885   4.625   3.157  12.866  0.2965 -0.0048 -2.7561
  531MPD2    H1 7886   0.256   3.123  12.639  0.1028 -1.6159  1.0152
  531MPD2    H2 7887   0.284   3.242  13.050 -0.1950 -0.3190  0.7160
  531MPD2    H3 7888   0.390   3.161  12.840 -0.7494  0.4116 -0.0413
  531MPD2     N 7889   4.715   3.076  12.637  0.0416  0.1221 -0.3041
  531MPD2    H5 7890   0.031   3.063  12.543 -0.3889 -2.3811 -0.1307
  531MPD2    N1 7891   0.026   3.244  13.088 -0.0540 -0.0914  0.1772
  531MPD2    H7 7892   0.089   3.239  13.168 -0.1790 -0.1257  0.2729
  532TMC3    C1 7893   4.557   3.258  13.232 -0.1003  0.1197 -0.2742
  532TMC3    C2 7894   4.429   3.308  13.262 -0.6787 -0.4121 -0.1605
  532TMC3    C3 7895   4.355   3.252  13.362  0.2585 -0.3652  0.3709
  532TMC3    C4 7896   4.629   3.178  13.315  0.3440 -0.4875  0.0779
  532TMC3    C5 7897   4.557   3.134  13.426 -0.2160 -0.2303 -0.5649
  532TMC3    C6 7898   4.428   3.183  13.462  1.0485  0.3905  0.6606
  532TMC3     C 7899   4.608   3.260  13.099 -0.4308 -0.8406  0.3819
  532TMC3     O 7900   4.512   3.284  13.023 -0.0147 -0.6607  0.3548
  532TMC3     H 7901   4.377   3.360  13.182  0.3933 -0.4434 -0.8666
  532TMC3    H1 7902   0.006   3.132  13.298  0.4197 -1.1577  2.2703
  532TMC3    H2 7903   4.378   3.151  13.553 -0.1525  4.1848  1.3780
  532TMC3    C7 7904   4.633   3.071  13.536 -0.2120  0.5941  0.0996
  532TMC3    C8 7905   4.241   3.167  13.322 -0.3330 -0.0737 -0.4313
  532TMC3    O1 7906   4.588   3.067  13.648 -0.3169  0.1088  0.1355
  532TMC3    O2 7907   4.192   3.085  13.401 -0.0698  0.0621 -0.6380
  533TMC3    C1 7908   1.357   0.054  14.300  0.4007 -0.2116 -0.6633
  533TMC3    C2 7909   1.488   0.066  14.342  0.5458 -0.0650 -0.9362
  533TMC3    C3 7910   1.513   0.171  14.427  0.0795  0.3193  0.2588
  533TMC3    C4 7911   1.261   0.148  14.338 -0.3125  0.1175  0.0301
  533TMC3    C5 7912   1.286   0.241  14.435 -0.1290  0.5474 -0.0921
  533TMC3    C6 7913   1.416   0.254  14.485  0.0684  0.3888 -1.0476
  533TMC3     C 7914   1.316   4.641  14.293  0.0422 -0.7309  0.6495
  533TMC3     O 7915   1.399   4.551  14.310 -0.0954  0.4419  0.0480
  533TMC3     H 7916   1.571   0.004  14.310  0.1507 -1.5384  0.8770
  533TMC3    H1 7917   1.157   0.152  14.309  0.0969  0.3674 -1.4213
  533TMC3    H2 7918   1.453   0.337  14.545 -0.7063  0.4738 -0.6766
  533TMC3    C7 7919   1.187   0.236  14.534 -0.1195 -0.3200  0.8979
  533TMC3    C8 7920   1.651   0.211  14.448 -0.2096  0.7990  0.0877
  533TMC3    O1 7921   1.132   0.127  14.552  0.0755  0.2371 -0.5614
  533TMC3    O2 7922   1.675   0.258  14.559 -0.4329 -0.1780 -0.1282
  534MPD2     C 7923   3.662   1.508   2.154  0.1646  0.0110 -0.2937
  534MPD2    C1 7924   3.691   1.553   2.025 -0.1851 -0.3352  0.2354
  534MPD2    C2 7925   3.598   1.538   1.930 -0.2936  0.0065 -0.3081
  534MPD2    C3 7926   3.467   1.504   1.956 -0.2480  0.1582 -0.3056
  534MPD2    C4 7927   3.439   1.469   2.086 -0.0148  0.0802  0.2992
  534MPD2    C5 7928   3.533   1.479   2.187 -0.0119  0.1391 -0.3543
  534MPD2     H 7929   3.635   1.570   1.833 -1.4464 -1.6282 -1.2970
  534MPD2    H1 7930   3.340   1.429   2.104 -0.0372 -0.7585 -1.7121
  534MPD2    H2 7931   3.743   1.506   2.226 -0.8488  1.5704  0.8798
  534MPD2    H3 7932   3.507   1.465   2.292 -0.1375 -1.1904 -0.5700
  534MPD2     N 7933   3.365   1.510   1.856 -0.1291 -0.2863  0.0389
  534MPD2    H5 7934   3.272   1.482   1.885 -0.7145 -0.5366 -2.0903
  534MPD2    N1 7935   3.816   1.604   1.987  0.1216  0.4968  0.7316
  534MPD2    H7 7936   3.823   1.621   1.888 -0.4114 -0.7779  0.4728
  535TMC3    C1 7937   3.253   1.588   1.668 -0.3721  0.9055  0.0947
  535TMC3    C2 7938   3.151   1.496   1.698  0.0111  0.0957  0.6227
  535TMC3    C3 7939   3.040   1.495   1.619 -0.4632 -0.1202 -0.5246
  535TMC3    C4 7940   3.236   1.670   1.564 -0.6418 -0.2668 -0.2268
  535TMC3    C5 7941   3.119   1.671   1.500 -0.0461 -0.1199  0.5724
  535TMC3    C6 7942   3.013   1.586   1.524  0.0234 -0.3814  0.4572
  535TMC3     C 7943   3.380   1.579   1.738  0.4497  0.5041  1.2201
  535TMC3     O 7944   3.477   1.633   1.687  0.1221 -0.4623 -0.2225
  535TMC3     H 7945   3.163   1.413   1.766 -0.6014 -1.0326 -0.6270
  535TMC3    H1 7946   3.321   1.725   1.524 -1.6497  2.4935  1.4268
  535TMC3    H2 7947   2.920   1.599   1.469  0.6478 -0.2450 -0.5671
  535TMC3    C7 7948   3.127   1.741   1.368  0.4459  0.3944 -0.0111
  535TMC3    C8 7949   2.934   1.398   1.638 -0.1962 -0.8589 -0.0340
  535TMC3    O1 7950   3.092   1.668   1.272 -0.4940 -0.4725  0.3595
  535TMC3    O2 7951   2.868   1.371   1.536 -0.0073  0.0772 -0.4358
  536MPD2     C 7952   2.231   0.097  16.070 -0.8655  0.2657  0.4526
  536MPD2    C1 7953   2.132   0.009  16.107  0.1394  0.4120 -0.3475
  536MPD2    C2 7954   2.069   4.659  16.004 -0.6637  0.2613 -0.1773
  536MPD2    C3 7955   2.097   4.681  15.873  0.0167 -0.4139  0.4739
  536MPD2    C4 7956   2.206   0.041  15.843  0.1148 -0.2955 -0.0807
  536MPD2    C5 7957   2.271   0.108  15.939 -0.5920  0.5252  0.0903
  536MPD2     H 7958   1.992   4.587  16.027 -0.9885  0.6862  0.0639
  536MPD2    H1 7959   2.238   0.063  15.742 -1.2214 -0.6087 -0.5620
  536MPD2    H2 7960   2.271   0.162  16.147  1.7150  0.1769 -0.8050
  536MPD2    H3 7961   2.336   0.184  15.897  1.1082  1.2532  4.1064
  536MPD2     N 7962   2.021   4.627  15.766 -1.2561  0.1899 -0.4414
  536MPD2    H5 7963   1.935   4.578  15.784 -0.8352  0.0708  1.2311
  536MPD2    N1 7964   2.095   4.709  16.244  0.4530  0.3390 -0.4973
  536MPD2    H7 7965   2.148   0.037  16.316  2.4165 -2.4422 -0.1164
  537TMC3    C1 7966   2.023   4.596  16.441  0.3895 -0.2110 -0.3737
  537TMC3    C2 7967   2.104   4.680  16.520 -0.2969  0.6518  0.7682
  537TMC3    C3 7968   2.127   4.634  16.653 -0.1261 -0.5681  0.0428
  537TMC3    C4 7969   1.977   4.478  16.485  0.6879  0.4864  0.3375
  537TMC3    C5 7970   2.015   4.430  16.608 -0.0131 -0.2634  0.1475
  537TMC3    C6 7971   2.080   4.515  16.698 -0.6475 -0.5672  0.5147
  537TMC3     C 7972   2.011   4.613  16.298  0.1672 -0.2984  0.3084
  537TMC3     O 7973   1.951   4.522  16.239 -0.3247 -0.2365  0.3236
  537TMC3     H 7974   2.145   0.056  16.494 -0.6780  0.6047  0.0176
  537TMC3    H1 7975   1.902   4.424  16.428 -0.0243  0.5819  1.1939
  537TMC3    H2 7976   2.087   4.492  16.804  0.8602  1.1238  0.7906
  537TMC3    C7 7977   1.956   4.306  16.647  0.1292  0.5356  0.2568
  537TMC3    C8 7978   2.194   0.005  16.756  0.6093  0.1012 -0.2355
  537TMC3    O1 7979   1.874   4.256  16.569  0.2452 -0.6264 -0.2330
  537TMC3    O2 7980   2.255   4.659  16.843  0.1217 -0.4722 -0.1333
  538TMC3    C1 7981   3.361   2.804  10.749 -0.2467 -0.1697 -0.3170
  538TMC3    C2 7982   3.454   2.804  10.648 -0.2058 -0.1731  0.4804
  538TMC3    C3 7983   3.422   2.881  10.538 -0.0293  0.4204 -0.0856
  538TMC3    C4 7984   3.237   2.872  10.746 -0.1483 -0.1392 -0.3302
  538TMC3    C5 7985   3.207   2.938  10.629 -0.2412 -0.2889  0.1697
  538TMC3    C6 7986   3.303   2.946  10.527 -0.2158 -0.6231  0.2908
  538TMC3     C 7987   3.411   2.754  10.879 -0.5842  0.6144  0.0247
  538TMC3     O 7988   3.323   2.705  10.952  0.2662 -0.2391  0.3948
  538TMC3     H 7989   3.543   2.744  10.657  0.5094  0.7280 -0.5298
  538TMC3    H1 7990   3.185   2.896  10.837  1.9752  0.2721  0.7818
  538TMC3    H2 7991   3.287   3.012  10.442  2.1949  0.4036  0.6286
  538TMC3    C7 7992   3.133   3.061  10.637 -0.2621  0.0369  0.1256
  538TMC3    C8 7993   3.524   2.886  10.430  0.2247  0.1758  0.4288
  538TMC3    O1 7994   3.075   3.092  10.536 -0.2954 -0.2721 -0.3731
  538TMC3    O2 7995   3.502   2.969  10.346 -0.0232  0.2645 -0.4407
  539MPD2     C 7996   2.720   2.206  11.903 -0.2424 -0.0725 -0.0114
  539MPD2    C1 7997   2.788   2.257  11.791 -0.4126 -0.1005  0.4072
  539MPD2    C2 7998   2.747   2.370  11.719 -0.5656  0.1033  0.0903
  539MPD2    C3 7999   2.640   2.436  11.772  0.1110 -0.4216 -0.6820
  539MPD2    C4 8000   2.562   2.382  11.874  0.2965 -0.1744  1.0796
  539MPD2    C5 8001   2.606   2.273  11.951 -0.2658 -0.1838 -0.7103
  539MPD2     H 8002   2.816   2.411  11.647 -0.2372 -0.8902 -0.1684
  539MPD2    H1 8003   2.469   2.431  11.899 -0.4933 -2.0314  1.7968
  539MPD2    H2 8004   2.755   2.127  11.968  0.4783  0.3505  0.1179
  539MPD2    H3 8005   2.551   2.236  12.037  1.4864  0.5208  0.7064
  539MPD2     N 8006   2.591   2.566  11.728 -0.8978  0.1431 -0.2493
  539MPD2    H5 8007   2.519   2.603  11.788 -1.2988 -1.0083 -0.0218
  539MPD2    N1 8008   2.908   2.192  11.740  1.0210 -0.0883  0.0026
  539MPD2    H7 8009   2.933   2.219  11.645 -0.8099 -0.3967 -0.5740
  540TMC3    C1 8010   2.586   2.772  11.621 -0.0856  0.2336  0.2279
  540TMC3    C2 8011   2.563   2.802  11.491 -0.2226 -0.3835 -0.5426
  540TMC3    C3 8012   2.528   2.932  11.465 -0.3123 -0.0933 -0.3053
  540TMC3    C4 8013   2.539   2.851  11.725  0.2457 -0.0229 -0.0943
  540TMC3    C5 8014   2.494   2.977  11.690  0.2670  0.2582  0.1198
  540TMC3    C6 8015   2.498   3.026  11.564  0.2637 -0.3066 -0.6032
  540TMC3     C 8016   2.649   2.648  11.639  0.8108  0.3262 -0.5913
  540TMC3     O 8017   2.745   2.618  11.566  0.1469  0.4512 -0.3937
  540TMC3     H 8018   2.593   2.735  11.412 -0.8056 -2.7102  1.1794
  540TMC3    H1 8019   2.547   2.818  11.828 -1.2812  0.5398  0.2048
  540TMC3    H2 8020   2.462   3.123  11.532 -0.3375 -0.4846 -0.4708
  540TMC3    C7 8021   2.432   3.043  11.800  0.2629 -0.1193  0.5969
  540TMC3    C8 8022   2.567   2.987  11.330 -0.3571 -0.6435 -1.1549
  540TMC3    O1 8023   2.430   2.986  11.908  0.3410 -0.0712  0.0932
  540TMC3    O2 8024   2.623   3.093  11.326 -0.4329  0.3902  0.1124
  541MPD2     C 8025   1.152   3.630  13.340 -0.2188 -0.0501 -0.0012
  541MPD2    C1 8026   1.210   3.555  13.240 -0.2276 -0.0391  0.4670
  541MPD2    C2 8027   1.231   3.618  13.125 -0.3787 -0.5262 -0.3610
  541MPD2    C3 8028   1.204   3.751  13.107 -0.8156 -0.0453 -0.0568
  541MPD2    C4 8029   1.153   3.827  13.213 -0.4240 -0.5362  0.2931
  541MPD2    C5 8030   1.117   3.761  13.324 -0.4400  0.3594  0.2348
  541MPD2     H 8031   1.270   3.554  13.046  2.4913  0.2050  0.4651
  541MPD2    H1 8032   1.126   3.932  13.206 -0.4087 -0.6486 -1.6506
  541MPD2    H2 8033   1.119   3.597  13.437 -0.2814 -0.9772 -0.3332
  541MPD2    H3 8034   1.066   3.811  13.406 -0.1104  1.7620 -0.4081
  541MPD2     N 8035   1.226   3.813  12.984  0.2532 -0.4902 -0.2341
  541MPD2    H5 8036   1.200   3.911  12.977  0.7942 -0.3643 -0.5025
  541MPD2    N1 8037   1.253   3.419  13.249 -1.3071  0.1293 -0.3965
  541MPD2    H7 8038   1.270   3.367  13.163 -0.5277  1.3446 -0.9757
  542TMC3    C1 8039   1.304   3.842  12.753 -0.8207  0.0122  0.0916
  542TMC3    C2 8040   1.303   3.782  12.625 -0.5504 -0.0479  0.7033
  542TMC3    C3 8041   1.314   3.867  12.518  0.5795 -0.2497  0.5509
  542TMC3    C4 8042   1.294   3.978  12.771  0.4657 -0.0070  0.2862
  542TMC3    C5 8043   1.289   4.054  12.657  0.3819 -0.7727 -0.5737
  542TMC3    C6 8044   1.309   4.001  12.532 -0.2662  0.7944 -0.2431
  542TMC3     C 8045   1.285   3.757  12.872 -0.0432 -0.2215  0.3237
  542TMC3     O 8046   1.331   3.646  12.856 -0.1303 -0.0697  0.8483
  542TMC3     H 8047   1.312   3.674  12.617  0.6216  0.1747 -1.0624
  542TMC3    H1 8048   1.257   4.018  12.864 -3.9030  1.5688 -2.1181
  542TMC3    H2 8049   1.319   4.069  12.448 -3.0142  1.3102 -0.1416
  542TMC3    C7 8050   1.276   4.196  12.672  0.0527  0.6511  0.4140
  542TMC3    C8 8051   1.317   3.823  12.384 -0.3416  0.3097 -0.0227
  542TMC3    O1 8052   1.249   4.259  12.571  0.1578 -0.1009 -0.4024
  542TMC3    O2 8053   1.273   3.899  12.298 -0.0828  0.0765  0.0030
  543TMC3    C1 8054   0.983   4.499  17.105 -0.6527 -0.0457 -0.1256
  543TMC3    C2 8055   0.991   4.364  17.107 -0.3200 -0.0729 -0.1032
  543TMC3    C3 8056   0.964   4.304  17.227  0.1628 -0.3598 -0.0363
  543TMC3    C4 8057   0.938   4.576  17.210 -0.9282  0.3164  0.3306
  543TMC3    C5 8058   0.907   4.510  17.327  0.4815 -0.1292  0.4619
  543TMC3    C6 8059   0.909   4.371  17.332  0.2663  0.2552 -0.2713
  543TMC3     C 8060   1.037   4.563  16.989  0.2140 -0.0659  0.0416
  543TMC3     O 8061   1.118   4.487  16.941  0.1124 -0.5577 -0.4571
  543TMC3     H 8062   1.029   4.306  17.025 -1.0988  0.3396 -0.7588
  543TMC3    H1 8063   0.934   4.683  17.190  2.5422  0.5027  0.5903
  543TMC3    H2 8064   0.893   4.330  17.431  0.6217  0.5771 -0.0793
  543TMC3    C7 8065   0.841   4.582  17.434  0.1867  0.2318  0.1154
  543TMC3    C8 8066   0.980   4.159  17.220  0.4436 -0.9124 -0.1389
  543TMC3    O1 8067   0.821   4.517  17.537  0.6956 -0.7388  0.4543
  543TMC3    O2 8068   1.009   4.104  17.116 -0.4771 -0.0337  0.0011
  544MPD2     C 8069   1.123   3.722  17.445  0.6233  0.0080 -0.3214
  544MPD2    C1 8070   1.077   3.741  17.319 -0.5270 -0.3524  0.0533
  544MPD2    C2 8071   1.031   3.865  17.285  0.5258  0.2144 -0.0127
  544MPD2    C3 8072   1.030   3.973  17.379  0.1686  0.4620 -0.3374
  544MPD2    C4 8073   1.067   3.944  17.510 -0.8916  0.9161 -0.8066
  544MPD2    C5 8074   1.117   3.818  17.542 -0.8453  0.1244  0.9583
  544MPD2     H 8075   0.984   3.885  17.189 -1.1244  0.0276  0.7639
  544MPD2    H1 8076   1.068   4.019  17.588  0.1675  1.3676 -1.2545
  544MPD2    H2 8077   1.162   3.623  17.463  0.4034 -0.4055 -2.0606
  544MPD2    H3 8078   1.145   3.805  17.646 -1.2713 -0.6062  0.9793
  544MPD2     N 8079   1.000   4.109  17.348 -0.3495  0.0757 -0.2460
  544MPD2    H5 8080   0.996   4.168  17.430 -0.2046  3.3046 -2.5498
  544MPD2    N1 8081   1.078   3.627  17.241 -0.0964 -0.1489  0.2075
  544MPD2    H7 8082   1.144   3.551  17.258  0.1271 -0.0641 -0.2687
  545TMC3    C1 8083   1.025   3.491  17.053  0.5860 -0.1443  0.8241
  545TMC3    C2 8084   0.919   3.412  17.002  0.0022  0.4084 -0.2151
  545TMC3    C3 8085   0.949   3.294  16.942 -0.0709  0.2629  0.2416
  545TMC3    C4 8086   1.159   3.469  17.040 -0.4392  0.7714  0.3942
  545TMC3    C5 8087   1.180   3.342  16.990 -0.2293  0.8477 -0.3666
  545TMC3    C6 8088   1.080   3.267  16.931 -0.1468  0.2527  0.1179
  545TMC3     C 8089   0.992   3.602  17.142 -0.1153  0.3873 -0.0782
  545TMC3     O 8090   0.885   3.662  17.124 -0.4137 -0.7055 -0.4563
  545TMC3     H 8091   0.819   3.440  17.033  0.5215  0.6946  1.2023
  545TMC3    H1 8092   1.234   3.544  17.063  0.0746  0.6583 -0.8960
  545TMC3    H2 8093   1.115   3.174  16.887  0.7716  0.4112  0.5108
  545TMC3    C7 8094   1.316   3.295  16.979 -0.2133 -0.1705  0.3294
  545TMC3    C8 8095   0.852   3.188  16.937 -0.6017 -0.3410 -0.1319
  545TMC3    O1 8096   1.342   3.228  16.883  0.3463 -0.4481 -0.3323
  545TMC3    O2 8097   0.901   3.085  16.899 -0.0050  0.1899 -0.0790
  546MPD2     C 8098   2.364   0.365   0.110 -0.3119  0.0287  0.9319
  546MPD2    C1 8099   2.342   0.386  17.661 -0.0573 -0.0658 -0.5579
  546MPD2    C2 8100   2.376   0.511  17.609 -1.1262 -0.0928  0.0581
  546MPD2    C3 8101   2.420   0.614   0.010 -0.0576  0.0556  0.5779
  546MPD2    C4 8102   2.431   0.594   0.145 -0.1794  0.3676  0.1624
  546MPD2    C5 8103   2.409   0.462   0.188  0.0112  0.1255 -0.0009
  546MPD2     H 8104   2.373   0.530  17.503 -0.3961  3.4342  0.6563
  546MPD2    H1 8105   2.453   0.677   0.211  1.7442  0.2009 -0.2431
  546MPD2    H2 8106   2.340   0.267   0.149 -1.4983  0.3348  0.9783
  546MPD2    H3 8107   2.431   0.433   0.291 -2.9367 -0.2017  0.5416
  546MPD2     N 8108   2.466   0.740  17.647 -0.1407  0.0298  0.2550
  546MPD2    H5 8109   2.490   0.805   0.037  0.0098 -0.5531  0.7204
  546MPD2    N1 8110   2.298   0.272  17.586 -0.0255  0.4381  1.0054
  546MPD2    H7 8111   2.290   0.179  17.625 -0.5575  0.1742  0.2615
  547TMC3    C1 8112   2.235   0.143  17.402 -0.2254  0.3393 -1.0379
  547TMC3    C2 8113   2.166   0.138  17.283  0.0899 -0.9497  0.6123
  547TMC3    C3 8114   2.165   0.021  17.209  0.1361 -0.1885 -0.2164
  547TMC3    C4 8115   2.312   0.034  17.449 -0.2503 -0.2566  0.4601
  547TMC3    C5 8116   2.309   4.642  17.369 -0.2645  0.1431 -0.0562
  547TMC3    C6 8117   2.235   4.632  17.252 -0.0936 -0.0570 -0.0988
  547TMC3     C 8118   2.258   0.270  17.455 -0.1925  0.8976 -0.5422
  547TMC3     O 8119   2.229   0.368  17.382 -0.2748  0.1498  0.2402
  547TMC3     H 8120   2.107   0.225  17.260  0.3168 -0.9510  0.0310
  547TMC3    H1 8121   2.366   0.033  17.543 -1.9501 -0.7011  1.4454
  547TMC3    H2 8122   2.228   4.539  17.196 -1.3244 -0.2658  0.4076
  547TMC3    C7 8123   2.328   4.514  17.428 -1.2296 -0.3289 -0.7430
  547TMC3    C8 8124   2.042   0.006  17.126 -0.4447 -0.3218 -0.1496
  547TMC3    O1 8125   2.307   4.516  17.550 -0.3391 -0.2685  0.0438
  547TMC3    O2 8126   1.967   0.101  17.103 -0.8589 -0.1825  0.7282
  548MPD2     C 8127   2.411   0.570  11.993  0.2275 -0.4494  0.4598
  548MPD2    C1 8128   2.347   0.485  12.084 -0.1422 -0.3583  0.0103
  548MPD2    C2 8129   2.405   0.362  12.120 -0.1851 -0.1351  0.2212
  548MPD2    C3 8130   2.528   0.328  12.065 -0.2837 -0.0026  0.3706
  548MPD2    C4 8131   2.593   0.416  11.981 -0.2561 -0.1607 -0.7390
  548MPD2    C5 8132   2.539   0.536  11.951  0.0511  0.1197  0.4754
  548MPD2     H 8133   2.356   0.293  12.188  0.0399 -0.4446  0.0684
  548MPD2    H1 8134   2.687   0.398  11.932 -0.2948  0.2248 -0.9476
  548MPD2    H2 8135   2.369   0.662  11.957  2.8003  0.8345  0.7148
  548MPD2    H3 8136   2.595   0.601  11.885  0.2525  0.3798  0.9003
  548MPD2     N 8137   2.585   0.206  12.106 -0.1987  0.0216 -0.2470
  548MPD2    H5 8138   2.539   0.154  12.180  0.5382 -1.7279 -1.0090
  548MPD2    N1 8139   2.219   0.523  12.126 -0.0287  0.2505 -0.2556
  548MPD2    H7 8140   2.182   0.616  12.105 -0.8821  0.0752  0.4623
  549TMC3    C1 8141   2.041   0.532  12.282  0.2898 -0.0961  0.2005
  549TMC3    C2 8142   2.051   0.670  12.281  0.6137 -0.5481 -0.6017
  549TMC3    C3 8143   1.947   0.732  12.341 -0.1212 -0.1133  0.8264
  549TMC3    C4 8144   1.950   0.460  12.356 -0.1494 -0.4234 -0.6760
  549TMC3    C5 8145   1.857   0.534  12.421 -0.4436 -0.2417  0.0969
  549TMC3    C6 8146   1.847   0.668  12.408 -0.0155 -0.9577 -1.1066
  549TMC3     C 8147   2.141   0.448  12.211  0.4972  0.8651  0.2573
  549TMC3     O 8148   2.132   0.327  12.217  0.2576  0.3417 -0.4610
  549TMC3     H 8149   2.129   0.726  12.231  0.2847  1.0506  0.7019
  549TMC3    H1 8150   1.951   0.352  12.366  0.8396 -0.3893 -0.3996
  549TMC3    H2 8151   1.776   0.722  12.471  2.3637  0.8218  0.0331
  549TMC3    C7 8152   1.733   0.466  12.464 -0.1341  0.0580  0.2958
  549TMC3    C8 8153   1.927   0.875  12.330  0.3690  0.1776  0.8436
  549TMC3    O1 8154   1.627   0.535  12.468 -0.4528 -0.6623  0.4572
  549TMC3    O2 8155   2.019   0.954  12.319 -0.3989  0.0981 -0.3743
  550TMC3    C1 8156   1.080   3.182  12.333  0.9833  0.4618 -0.5402
  550TMC3    C2 8157   1.016   3.245  12.440  0.0129  0.2808 -0.0863
  550TMC3    C3 8158   0.909   3.323  12.420 -0.1313 -0.1964  0.4963
  550TMC3    C4 8159   1.026   3.182  12.205  0.1872 -0.1535 -0.3379
  550TMC3    C5 8160   0.913   3.260  12.199  0.3313  0.4379 -0.4996
  550TMC3    C6 8161   0.850   3.333  12.302 -0.6470 -0.4152  0.4672
  550TMC3     C 8162   1.188   3.094  12.362 -0.6563 -0.1411  0.9160
  550TMC3     O 8163   1.251   3.117  12.464  0.4721  0.2895  0.1322
  550TMC3     H 8164   1.057   3.222  12.538  1.6121  3.6946  0.0306
  550TMC3    H1 8165   1.080   3.155  12.115 -0.3556  0.8709 -0.9690
  550TMC3    H2 8166   0.769   3.402  12.283  1.3787  1.7329 -0.3889
  550TMC3    C7 8167   0.831   3.244  12.080  0.0392  0.0797  0.7413
  550TMC3    C8 8168   0.834   3.389  12.526  0.1579  0.3961  0.5195
  550TMC3    O1 8169   0.729   3.311  12.083  0.4986  0.0428  0.4033
  550TMC3    O2 8170   0.780   3.493  12.497 -0.1747 -0.1148 -0.1487
  551TMC3    C1 8171   3.107   1.113  13.111 -0.0271 -0.2083  0.4054
  551TMC3    C2 8172   3.200   1.166  13.026  0.2813 -0.2950 -0.6694
  551TMC3    C3 8173   3.298   1.243  13.076  0.2868 -0.7149 -0.5326
  551TMC3    C4 8174   3.118   1.130  13.247 -0.2197 -0.1713 -0.1769
  551TMC3    C5 8175   3.214   1.211  13.293  0.3787  0.3846  0.1694
  551TMC3    C6 8176   3.301   1.271  13.208  0.2813  0.5335  0.9061
  551TMC3     C 8177   3.025   1.014  13.048 -0.0789 -0.8999 -0.3655
  551TMC3     O 8178   2.981   1.036  12.931  0.0899 -0.0348  0.7118
  551TMC3     H 8179   3.201   1.142  12.920  0.3553 -0.4836 -0.6254
  551TMC3    H1 8180   3.033   1.093  13.303  0.6612 -0.4853  0.9443
  551TMC3    H2 8181   3.369   1.350  13.238  1.1018 -0.7141  2.3543
  551TMC3    C7 8182   3.191   1.264  13.424 -0.4703  0.2055 -0.3062
  551TMC3    C8 8183   3.394   1.309  12.990 -0.9751 -0.2736 -0.4093
  551TMC3    O1 8184   3.153   1.187  13.515  0.0957 -0.4421 -0.0160
  551TMC3    O2 8185   3.508   1.287  13.021  0.0636  0.4239 -0.3735
  552MPD2     C 8186   4.715   3.066  14.146  0.0436  0.7069 -0.7236
  552MPD2    C1 8187   0.048   2.944  14.124 -0.9266  0.4826 -0.1736
  552MPD2    C2 8188   0.167   2.914  14.176 -0.6133  0.8738  0.0926
  552MPD2    C3 8189   0.230   3.003  14.258 -0.0444  0.4348 -0.1376
  552MPD2    C4 8190   0.172   3.128  14.288  0.4386 -0.0861 -0.1190
  552MPD2    C5 8191   0.052   3.163  14.232  0.6140  0.0602  0.4907
  552MPD2     H 8192   0.221   2.823  14.153 -0.8659  0.6690  0.3162
  552MPD2    H1 8193   0.220   3.203  14.350  1.2462 -0.1953 -0.6211
  552MPD2    H2 8194   4.619   3.090  14.102 -0.2575  2.9552  1.1206
  552MPD2    H3 8195   0.009   3.262  14.242 -1.4078 -0.7473 -0.2935
  552MPD2     N 8196   0.370   2.990  14.288  0.0347  0.3267 -0.1663
  552MPD2    H5 8197   0.418   3.075  14.314 -0.7287  0.2156  1.6418
  552MPD2    N1 8198   4.714   2.846  14.046  0.0212 -0.3367 -0.3211
  552MPD2    H7 8199   0.040   2.756  14.037  0.1146 -0.1989 -1.2097
  553TMC3    C1 8200   4.584   2.746  13.887 -0.4960 -0.2483 -0.2691
  553TMC3    C2 8201   4.550   2.755  13.756  0.4551 -0.0422  1.0226
  553TMC3    C3 8202   4.501   2.639  13.704 -0.4104 -0.1034 -0.3530
  553TMC3    C4 8203   4.575   2.627  13.958  0.3836  0.3457  0.1698
  553TMC3    C5 8204   4.528   2.514  13.900  0.0580 -0.9600 -0.5336
  553TMC3    C6 8205   4.488   2.520  13.775 -0.6101 -0.6887  0.5996
  553TMC3     C 8206   4.611   2.864  13.959 -0.3501 -0.1715 -0.0353
  553TMC3     O 8207   4.527   2.948  13.947 -0.2951 -0.1789  0.3189
  553TMC3     H 8208   4.541   2.846  13.698 -0.4779 -0.0506  1.1534
  553TMC3    H1 8209   4.570   2.625  14.066  1.8540  1.0099  0.2455
  553TMC3    H2 8210   4.437   2.434  13.732  1.0984  0.1813 -3.2166
  553TMC3    C7 8211   4.547   2.379  13.955 -0.4138 -0.0514 -0.9625
  553TMC3    C8 8212   4.514   2.625  13.560  0.2351  0.1009  0.5128
  553TMC3    O1 8213   4.454   2.313  13.998  0.0844 -0.3000 -0.5385
  553TMC3    O2 8214   4.590   2.695  13.494 -0.4720 -0.5630  0.0441
  554TMC3    C1 8215   2.137   2.282  11.631  0.2525  0.5524  0.1641
  554TMC3    C2 8216   2.135   2.219  11.511 -0.3722  0.5101 -0.3202
  554TMC3    C3 8217   2.134   2.298  11.401 -0.3340 -0.2363 -0.3787
  554TMC3    C4 8218   2.149   2.419  11.643 -0.3269  0.1900  0.0634
  554TMC3    C5 8219   2.149   2.491  11.527  0.0684 -0.6256  0.4347
  554TMC3    C6 8220   2.130   2.432  11.410 -0.5162  0.0499 -0.6053
  554TMC3     C 8221   2.155   2.209  11.756  0.3846  0.9134  0.6401
  554TMC3     O 8222   2.165   2.282  11.855  0.3143  0.2881 -0.5138
  554TMC3     H 8223   2.110   2.114  11.501 -1.4677  0.5232  2.2896
  554TMC3    H1 8224   2.160   2.466  11.740  0.3396  0.5433 -0.1856
  554TMC3    H2 8225   2.091   2.489  11.327 -0.0545  0.8315 -0.2848
  554TMC3    C7 8226   2.154   2.635  11.540 -0.2632  0.6754  0.7132
  554TMC3    C8 8227   2.110   2.252  11.270 -0.1413  0.1451 -0.7964
  554TMC3    O1 8228   2.185   2.677  11.649  0.1535  0.3463  0.3591
  554TMC3    O2 8229   2.144   2.329  11.181 -0.0656  0.0973  0.1207
  555TMC3    C1 8230   1.162   1.490  14.830 -0.8862  0.5565 -0.1475
  555TMC3    C2 8231   1.134   1.577  14.932  0.1021 -0.4682  0.2488
  555TMC3    C3 8232   1.146   1.530  15.060 -0.2726  0.0562  0.0352
  555TMC3    C4 8233   1.196   1.358  14.848  0.6556 -0.6123 -0.1341
  555TMC3    C5 8234   1.211   1.317  14.983  0.3316  0.3926 -0.4730
  555TMC3    C6 8235   1.186   1.402  15.086  0.3212 -0.5422 -0.1671
  555TMC3     C 8236   1.181   1.544  14.694 -0.0624  0.0208 -0.0768
  555TMC3     O 8237   1.286   1.521  14.632 -0.0368 -0.5160  0.7524
  555TMC3     H 8238   1.096   1.677  14.914  0.2744 -0.4239  0.1238
  555TMC3    H1 8239   1.197   1.303  14.755  0.3339 -0.2070 -0.3767
  555TMC3    H2 8240   1.191   1.373  15.191  1.0385  2.5681  0.6441
  555TMC3    C7 8241   1.282   1.199  15.015 -0.1697  0.0574  0.0308
  555TMC3    C8 8242   1.181   1.636  15.153 -0.1876  0.4446  0.7324
  555TMC3    O1 8243   1.266   1.168  15.131  0.7183  0.0514 -0.1169
  555TMC3    O2 8244   1.131   1.744  15.137  0.1242 -0.3047  0.2760
  556MPD2     C 8245   4.633   3.012  10.720  0.3274  0.7309  0.5076
  556MPD2    C1 8246   4.497   3.013  10.696 -0.0491 -0.0286  0.0359
  556MPD2    C2 8247   4.436   2.905  10.631 -0.6135  0.4565  1.0163
  556MPD2    C3 8248   4.505   2.799  10.576  0.5844  0.7898  0.6557
  556MPD2    C4 8249   4.638   2.792  10.616 -0.6761 -0.1564 -0.9209
  556MPD2    C5 8250   4.694   2.896  10.689 -0.3153 -0.0076  1.4762
  556MPD2     H 8251   4.328   2.908  10.616 -1.0706 -2.6185  3.6011
  556MPD2    H1 8252   4.701   2.711  10.580 -0.5351  0.2139 -1.5261
  556MPD2    H2 8253   4.684   3.082  10.784  0.9633  0.3548  0.4119
  556MPD2    H3 8254   0.079   2.893  10.715 -0.2102 -0.0044  1.0464
  556MPD2     N 8255   4.434   2.694  10.517 -0.2060  0.5966 -0.3177
  556MPD2    H5 8256   4.336   2.717  10.505 -0.3761 -0.7011 -1.4918
  556MPD2    N1 8257   4.413   3.116  10.734  0.0690 -0.1245  0.2825
  556MPD2    H7 8258   4.314   3.101  10.722  0.5264 -2.6257 -0.5432
  557TMC3    C1 8259   4.391   2.484  10.422 -0.2887  0.4908  0.0428
  557TMC3    C2 8260   4.427   2.407  10.311 -0.6203  0.4373 -0.4541
  557TMC3    C3 8261   4.325   2.339  10.251 -0.9363 -0.0150 -0.2721
  557TMC3    C4 8262   4.275   2.480  10.485  0.1877  0.6285  0.2920
  557TMC3    C5 8263   4.175   2.414  10.416  0.3281 -0.2827  0.1285
  557TMC3    C6 8264   4.196   2.342  10.296 -0.3018 -0.5028  0.1601
  557TMC3     C 8265   4.491   2.579  10.462 -0.1168 -0.3522 -0.5856
  557TMC3     O 8266   4.610   2.546  10.451  0.4816 -0.0885 -0.2574
  557TMC3     H 8267   4.527   2.403  10.269 -0.3912 -0.2991  0.1704
  557TMC3    H1 8268   4.242   2.550  10.562 -0.8332 -0.1501  0.5571
  557TMC3    H2 8269   4.114   2.280  10.261 -0.2396  0.6359 -1.9867
  557TMC3    C7 8270   4.046   2.472  10.421 -0.0691  0.5563  0.4103
  557TMC3    C8 8271   4.356   2.255  10.134  0.5695  0.2220 -0.1125
  557TMC3    O1 8272   3.974   2.446  10.516  0.3245 -0.6774  0.2462
  557TMC3    O2 8273   4.476   2.227  10.112  0.4038 -0.0891 -0.0539
  558TMC3    C1 8274   2.096   1.314  10.363 -0.8141  0.0265 -0.0839
  558TMC3    C2 8275   2.058   1.177  10.383 -0.4715  0.3859  0.3846
  558TMC3    C3 8276   1.981   1.123  10.283  0.0956  0.1998  0.4815
  558TMC3    C4 8277   2.054   1.386  10.249 -0.0006  0.3752  0.4854
  558TMC3    C5 8278   1.980   1.326  10.155 -0.1229  0.8171 -0.1927
  558TMC3    C6 8279   1.957   1.188  10.164  0.2948 -0.3594  0.1085
  558TMC3     C 8280   2.181   1.386  10.454 -0.1755  0.5194  0.4517
  558TMC3     O 8281   2.255   1.474  10.410 -0.2887 -0.5003  0.1651
  558TMC3     H 8282   2.098   1.115  10.462 -0.1561  1.1055  0.7865
  558TMC3    H1 8283   2.069   1.494  10.246 -0.2312  0.3788 -0.4901
  558TMC3    H2 8284   1.895   1.128  10.098  0.9816  0.5357 -1.3452
  558TMC3    C7 8285   1.954   1.389  10.026  0.0734  0.1964 -0.0671
  558TMC3    C8 8286   1.913   0.995  10.305 -0.4187  0.9145 -0.4326
  558TMC3    O1 8287   2.005   1.500  10.021 -0.4994  0.4557  0.1782
  558TMC3    O2 8288   1.892   0.922  10.208  0.0069  0.4070 -0.2791
  559MPD2     C 8289   1.884   1.657  10.442 -0.1953 -0.0218 -0.3797
  559MPD2    C1 8290   1.835   1.590  10.547  0.4554 -0.5563  0.1531
  559MPD2    C2 8291   1.904   1.598  10.664 -0.1184 -0.4043  0.2462
  559MPD2    C3 8292   2.017   1.677  10.671  0.3534  0.1269  0.1170
  559MPD2    C4 8293   2.064   1.745  10.560  0.6137  0.3106 -0.1110
  559MPD2    C5 8294   1.993   1.738  10.445  0.5179  0.5162 -0.0516
  559MPD2     H 8295   1.860   1.551  10.752 -1.4327 -1.9009 -1.1972
  559MPD2    H1 8296   2.152   1.808  10.566 -0.0593  1.0420  1.9071
  559MPD2    H2 8297   1.837   1.644  10.345 -3.4014 -1.2798  1.3402
  559MPD2    H3 8298   2.034   1.780  10.353 -0.1902 -1.9171 -1.4635
  559MPD2     N 8299   2.077   1.693  10.801 -0.3212 -0.3006 -0.2106
  559MPD2    H5 8300   2.045   1.639  10.881  3.2755  0.4645  1.7394
  559MPD2    N1 8301   1.706   1.532  10.530  0.8479  0.0153  0.0198
  559MPD2    H7 8302   1.656   1.556  10.445 -1.4103 -1.1506  1.0281
  560TMC3    C1 8303   2.222   1.729  10.985  0.0327  0.1291 -0.4039
  560TMC3    C2 8304   2.155   1.627  11.041  0.1647 -0.7354  0.3769
  560TMC3    C3 8305   2.166   1.620  11.177 -0.7146 -0.0969 -0.3773
  560TMC3    C4 8306   2.293   1.832  11.054  0.0796 -0.8487  1.0428
  560TMC3    C5 8307   2.281   1.828  11.190  0.5633 -0.7479 -0.1528
  560TMC3    C6 8308   2.224   1.722  11.252 -0.1192  0.0568 -0.2899
  560TMC3     C 8309   2.191   1.759  10.844  0.0929 -0.6123  0.7962
  560TMC3     O 8310   2.258   1.834  10.777 -0.1629  0.6602 -0.5456
  560TMC3     H 8311   2.128   1.536  10.988 -1.0689 -0.9772  1.4011
  560TMC3    H1 8312   2.334   1.920  11.006 -2.8451 -1.2442 -2.1892
  560TMC3    H2 8313   2.204   1.721  11.358 -1.0463  0.3531 -0.4619
  560TMC3    C7 8314   2.316   1.939  11.278 -0.5929 -0.1093  0.4481
  560TMC3    C8 8315   2.143   1.488  11.240 -0.0335  0.4888  0.0082
  560TMC3    O1 8316   2.285   1.925  11.398 -0.5327 -0.7706 -0.0925
  560TMC3    O2 8317   2.046   1.419  11.201 -0.4397 -0.1558 -0.3129
  561TMC3    C1 8318   4.103   0.875  11.219  0.0823  0.5163  0.3483
  561TMC3    C2 8319   4.040   0.813  11.323 -0.2342 -0.0941  0.6121
  561TMC3    C3 8320   4.029   0.871  11.449 -0.2681  0.6241  0.2770
  561TMC3    C4 8321   4.172   0.985  11.246  0.0174  0.5489 -0.0307
  561TMC3    C5 8322   4.169   1.031  11.367 -0.7802  0.3410  0.6888
  561TMC3    C6 8323   4.095   0.982  11.470  0.2598  0.3361 -0.4096
  561TMC3     C 8324   4.069   0.827  11.089  0.6033 -0.4065  0.0613
  561TMC3     O 8325   3.958   0.780  11.088 -0.1685  0.2088 -0.3401
  561TMC3     H 8326   3.995   0.718  11.298  1.4774 -0.2847 -1.7452
  561TMC3    H1 8327   4.199   1.047  11.161  1.3513 -1.3311 -0.9876
  561TMC3    H2 8328   4.103   1.034  11.565  0.2416  0.0268 -0.2383
  561TMC3    C7 8329   4.236   1.164  11.386 -0.7105  1.2471 -0.0842
  561TMC3    C8 8330   3.986   0.780  11.559 -0.1490 -0.2739  0.5551
  561TMC3    O1 8331   4.189   1.229  11.472 -0.6908 -0.2037 -0.2249
  561TMC3    O2 8332   4.027   0.665  11.553  0.0407  0.4461  0.2778
  562TMC3    C1 8333   1.437   1.957  16.217  0.2344  1.2859  0.1080
  562TMC3    C2 8334   1.426   2.090  16.189 -0.6177  0.4146  0.1365
  562TMC3    C3 8335   1.337   2.120  16.088 -0.5092 -0.0482  0.4226
  562TMC3    C4 8336   1.374   1.855  16.151  0.3258 -0.7390 -0.1977
  562TMC3    C5 8337   1.287   1.889  16.052  0.6224  0.5316  0.1046
  562TMC3    C6 8338   1.257   2.021  16.033  0.5564  0.0109  0.1126
  562TMC3     C 8339   1.554   1.921  16.299 -0.1344  0.2362 -0.6880
  562TMC3     O 8340   1.581   1.801  16.294  0.9076 -0.1542 -0.7290
  562TMC3     H 8341   1.493   2.161  16.236 -0.8110 -0.1252  1.2373
  562TMC3    H1 8342   1.393   1.749  16.159  1.6299 -0.4822 -0.0170
  562TMC3    H2 8343   1.194   2.048  15.949 -1.1676  0.8065  1.6658
  562TMC3    C7 8344   1.190   1.785  16.005 -0.0386  0.4168 -0.1498
  562TMC3    C8 8345   1.317   2.256  16.047  0.2537  0.2595 -0.0211
  562TMC3    O1 8346   1.104   1.821  15.926 -0.0168  0.0859 -0.3158
  562TMC3    O2 8347   1.352   2.341  16.126 -0.3211  0.2865 -0.8054
  563MPD2     C 8348   3.670   3.309  15.526  0.4092 -0.5023  0.2553
  563MPD2    C1 8349   3.704   3.411  15.614  0.1364 -0.0593 -0.1515
  563MPD2    C2 8350   3.836   3.428  15.648 -0.1087  0.5581 -0.3231
  563MPD2    C3 8351   3.936   3.339  15.606 -0.4594  0.8757 -0.3523
  563MPD2    C4 8352   3.899   3.228  15.528 -0.3107 -0.1450 -0.1528
  563MPD2    C5 8353   3.769   3.224  15.478 -0.3748 -0.0158 -0.0884
  563MPD2     H 8354   3.866   3.517  15.703 -1.4421  0.6367  0.2630
  563MPD2    H1 8355   3.964   3.154  15.483  0.9967  0.6258  0.4648
  563MPD2    H2 8356   3.567   3.300  15.494  0.6692  1.6175 -1.1956
  563MPD2    H3 8357   3.742   3.145  15.408 -1.8671  0.5964 -0.2162
  563MPD2     N 8358   4.069   3.360  15.642  0.1236 -0.3618  0.0647
  563MPD2    H5 8359   4.094   3.435  15.706  1.2497 -1.9089  1.4271
  563MPD2    N1 8360   3.596   3.496  15.644 -0.1336 -0.3959 -0.0083
  563MPD2    H7 8361   3.502   3.479  15.610  0.7966 -0.6685 -2.4417
  564TMC3    C1 8362   3.489   3.613  15.815 -0.3056  0.5443 -0.3141
  564TMC3    C2 8363   3.396   3.523  15.794  0.2797 -0.4188 -0.0590
  564TMC3    C3 8364   3.317   3.489  15.901 -0.6007 -0.1514 -0.1327
  564TMC3    C4 8365   3.518   3.664  15.934 -0.0508 -0.3453 -0.8072
  564TMC3    C5 8366   3.449   3.616  16.045  0.2126  0.3881 -0.0927
  564TMC3    C6 8367   3.345   3.532  16.029 -0.1197  0.8683 -0.1027
  564TMC3     C 8368   3.604   3.596  15.731 -0.1955 -0.0537  0.0775
  564TMC3     O 8369   3.704   3.663  15.745 -0.0022 -0.3283 -0.1176
  564TMC3     H 8370   3.369   3.487  15.696 -2.1357  1.9174 -0.2547
  564TMC3    H1 8371   3.606   3.724  15.952 -1.6291  0.9585  2.6704
  564TMC3    H2 8372   3.275   3.524  16.111  1.1997 -2.1366  0.7226
  564TMC3    C7 8373   3.542   3.544  16.135  0.8059  0.0084 -0.7338
  564TMC3    C8 8374   3.276   3.348  15.907  0.5385 -0.9444 -0.0987
  564TMC3    O1 8375   3.647   3.597  16.155 -0.1692 -0.0107 -0.2075
  564TMC3    O2 8376   3.230   3.313  16.016  0.1904 -0.1794 -1.0405
  565TMC3    C1 8377   3.220   0.990   9.721  0.1255  0.3531 -0.1012
  565TMC3    C2 8378   3.275   0.887   9.796 -0.2429  0.5156  0.0413
  565TMC3    C3 8379   3.199   0.815   9.881  0.5662 -0.1241 -0.6201
  565TMC3    C4 8380   3.086   1.013   9.710 -0.1270  0.3386 -0.7318
  565TMC3    C5 8381   3.010   0.936   9.796 -0.0956  0.9424  0.2559
  565TMC3    C6 8382   3.064   0.840   9.883 -0.8875  0.1246 -0.5771
  565TMC3     C 8383   3.301   1.045   9.618 -0.1105  0.1448  0.3306
  565TMC3     O 8384   3.419   1.021   9.626 -0.5883  0.4521 -1.0371
  565TMC3     H 8385   3.379   0.860   9.779 -0.8393 -1.6907 -0.1237
  565TMC3    H1 8386   3.047   1.092   9.648 -0.4052  2.1012  1.6790
  565TMC3    H2 8387   2.997   0.779   9.942  0.3178 -0.5065  0.1572
  565TMC3    C7 8388   2.864   0.938   9.784  0.4409  0.2666 -0.4691
  565TMC3    C8 8389   3.244   0.690   9.935  1.3031  0.3687  0.6342
  565TMC3    O1 8390   2.807   0.837   9.820  0.0557  0.2457  0.4081
  565TMC3    O2 8391   3.340   0.639   9.883  0.2977  0.0714  0.3836
  566MPD2     C 8392   0.260   1.474  14.123 -0.4672  0.1440  0.2493
  566MPD2    C1 8393   0.293   1.584  14.041 -0.2751 -0.3339  0.2796
  566MPD2    C2 8394   0.199   1.623  13.942 -1.3659  0.3837 -0.0834
  566MPD2    C3 8395   0.078   1.568  13.937 -0.1890  0.1388 -0.9505
  566MPD2    C4 8396   0.044   1.472  14.031 -0.1077  0.0653  0.2833
  566MPD2    C5 8397   0.135   1.421  14.112  0.2926 -0.6698  0.4963
  566MPD2     H 8398   0.218   1.711  13.881 -1.3892 -0.6271 -1.5459
  566MPD2    H1 8399   4.664   1.432  14.019  0.0121  0.1983 -1.1244
  566MPD2    H2 8400   0.331   1.445  14.200 -0.1333  0.9123  0.2280
  566MPD2    H3 8401   0.104   1.341  14.178  0.6999 -0.8698  0.4511
  566MPD2     N 8402   4.687   1.608  13.863  0.1176  0.0617 -0.1926
  566MPD2    H5 8403   4.598   1.582  13.904  2.4306 -1.6402  3.7499
  566MPD2    N1 8404   0.425   1.640  14.053  0.3578  0.2573  0.4714
  566MPD2    H7 8405   0.475   1.613  14.137 -0.9215 -0.8540  0.8684
  567TMC3    C1 8406   0.624   1.763  13.983 -0.1085  0.3178  0.3080
  567TMC3    C2 8407   0.684   1.835  13.882 -0.0405  0.2145  0.1085
  567TMC3    C3 8408   0.818   1.855  13.893 -1.4076 -0.7077 -0.0952
  567TMC3    C4 8409   0.703   1.695  14.078  0.4808 -0.1414  0.0857
  567TMC3    C5 8410   0.843   1.698  14.070 -0.7880 -0.5992 -0.2185
  567TMC3    C6 8411   0.901   1.797  13.991  0.0550 -0.1615 -0.6510
  567TMC3     C 8412   0.480   1.734  13.967  0.0748  1.0126 -0.3038
  567TMC3     O 8413   0.430   1.768  13.862 -0.1438  0.3710 -0.5113
  567TMC3     H 8414   0.626   1.884  13.805  2.1242  0.0573 -1.6539
  567TMC3    H1 8415   0.660   1.650  14.167 -0.1743  0.7001  0.1943
  567TMC3    H2 8416   1.009   1.790  13.979  0.3451  1.6968  0.9197
  567TMC3    C7 8417   0.922   1.586  14.121  0.1631  0.1225 -0.4051
  567TMC3    C8 8418   0.869   1.914  13.771  0.4497 -0.0712  0.0743
  567TMC3    O1 8419   1.036   1.569  14.075  0.3647 -0.3971  0.2211
  567TMC3    O2 8420   0.800   1.890  13.677  0.0438 -0.0757 -0.1518
  568MPD2     C 8421   3.947   2.455  16.802  0.4172  0.2935 -0.1569
  568MPD2    C1 8422   3.808   2.473  16.821  0.2155 -0.4898  0.0655
  568MPD2    C2 8423   3.731   2.543  16.732 -0.9132 -0.3995 -0.2013
  568MPD2    C3 8424   3.793   2.602  16.626 -0.4359 -0.1072 -0.4063
  568MPD2    C4 8425   3.923   2.569  16.592 -0.0983  0.0994  0.2558
  568MPD2    C5 8426   3.995   2.494  16.676  0.6692 -0.9030 -0.0866
  568MPD2     H 8427   3.625   2.560  16.746 -0.8698 -1.4852  1.4276
  568MPD2    H1 8428   3.968   2.589  16.496  2.2800 -1.6076  1.0279
  568MPD2    H2 8429   3.993   2.379  16.864 -1.6126  0.2694  1.2926
  568MPD2    H3 8430   4.100   2.476  16.657  1.0749 -0.5544  1.8004
  568MPD2     N 8431   3.711   2.663  16.530  0.3009  0.5615  0.4199
  568MPD2    H5 8432   3.616   2.679  16.562  0.2447  0.4051  0.3363
  568MPD2    N1 8433   3.752   2.419  16.944 -0.0958  0.7776  0.1972
  568MPD2    H7 8434   3.805   2.354  17.001 -0.3312  2.5318  2.4166
  569TMC3    C1 8435   3.633   2.758  16.339 -0.2279 -0.1169 -0.2313
  569TMC3    C2 8436   3.543   2.826  16.412  0.3520  1.0340 -0.1361
  569TMC3    C3 8437   3.410   2.826  16.370 -0.0704  0.6353  0.7813
  569TMC3    C4 8438   3.603   2.704  16.223  0.5971 -0.0445 -0.1708
  569TMC3    C5 8439   3.483   2.711  16.173 -1.1076  0.1740 -0.2655
  569TMC3    C6 8440   3.381   2.765  16.251  0.8198  0.0438 -0.8223
  569TMC3     C 8441   3.741   2.705  16.410  0.4795  0.2805  0.5183
  569TMC3     O 8442   3.831   2.671  16.336  0.0345 -0.2608  0.9627
  569TMC3     H 8443   3.569   2.860  16.512  0.1783  1.0684 -0.1039
  569TMC3    H1 8444   3.680   2.647  16.170 -0.1346 -2.0542  0.9503
  569TMC3    H2 8445   3.279   2.779  16.217  0.6803  1.7159  0.2935
  569TMC3    C7 8446   3.466   2.740  16.030  0.5110  0.3986 -0.2796
  569TMC3    C8 8447   3.328   2.944  16.403 -0.2876  0.1213 -0.1677
  569TMC3    O1 8448   3.546   2.685  15.956 -0.1995  0.8374  0.2908
  569TMC3    O2 8449   3.212   2.935  16.369 -0.2020  0.2473 -0.0840
  570TMC3    C1 8450   2.462   1.256  16.167 -0.8386  0.3108  0.0060
  570TMC3    C2 8451   2.547   1.197  16.071  0.4263  0.3986  0.4884
  570TMC3    C3 8452   2.626   1.285  15.998  0.0397  0.3761 -0.2795
  570TMC3    C4 8453   2.450   1.394  16.179  0.4761  1.3073 -0.2109
  570TMC3    C5 8454   2.541   1.477  16.114 -0.1333  0.4419  0.1683
  570TMC3    C6 8455   2.626   1.419  16.023 -0.3160  0.3644  0.2521
  570TMC3     C 8456   2.373   1.170  16.242 -0.1149  0.1898 -0.0422
  570TMC3     O 8457   2.348   1.064  16.192  0.0025 -0.8917 -0.3455
  570TMC3     H 8458   2.553   1.089  16.062  0.5331  0.4491 -0.0486
  570TMC3    H1 8459   2.370   1.443  16.232 -1.6836  0.3850 -2.6136
  570TMC3    H2 8460   2.683   1.475  15.950  2.8977  0.4065  2.8135
  570TMC3    C7 8461   2.568   1.605  16.179  0.1011 -0.1681 -0.4394
  570TMC3    C8 8462   2.720   1.242  15.900  0.0663 -0.6107 -0.0168
  570TMC3    O1 8463   2.534   1.627  16.296 -0.1915 -0.7355  0.0612
  570TMC3    O2 8464   2.784   1.331  15.845 -0.1652 -0.0733 -0.2427
  571MPD2     C 8465   1.353   2.511  17.181  0.3734  0.0386 -0.0107
  571MPD2    C1 8466   1.221   2.511  17.157 -0.2133  0.0073  0.8057
  571MPD2    C2 8467   1.120   2.580  17.235  0.0074 -0.4601  0.4088
  571MPD2    C3 8468   1.173   2.656  17.344  0.6833  0.4721 -0.0759
  571MPD2    C4 8469   1.310   2.669  17.358  0.1688  0.6098 -0.5661
  571MPD2    C5 8470   1.397   2.590  17.277 -0.6466 -0.1336  0.2278
  571MPD2     H 8471   1.016   2.550  17.221  0.1086 -0.1100 -1.0356
  571MPD2    H1 8472   1.346   2.733  17.438 -0.6969 -1.3979  1.4440
  571MPD2    H2 8473   1.415   2.451  17.115  0.1998  0.4509 -0.5462
  571MPD2    H3 8474   1.502   2.591  17.302 -0.5780 -0.5773 -0.0478
  571MPD2     N 8475   1.097   2.716  17.444  0.2231 -0.7865  0.2357
  571MPD2    H5 8476   1.153   2.750  17.522 -0.3882 -0.5078  0.5501
  571MPD2    N1 8477   1.183   2.414  17.061 -0.2751 -0.0825  0.2128
  571MPD2    H7 8478   1.256   2.349  17.036 -0.9783 -1.5696  2.0389
  572TMC3    C1 8479   0.916   2.790  17.568  0.4440  0.8426  0.3304
  572TMC3    C2 8480   0.986   2.770  17.684  1.0889 -0.4055  0.0318
  572TMC3    C3 8481   0.949   2.840   0.109 -0.5013 -0.0437 -0.5264
  572TMC3    C4 8482   0.810   2.879  17.562  0.2676  0.1686 -0.0196
  572TMC3    C5 8483   0.770   2.943  17.675 -0.1617  0.1287 -0.2885
  572TMC3    C6 8484   0.840   2.927   0.108  0.0209  0.1898 -0.3483
  572TMC3     C 8485   0.959   2.733  17.445  0.3223 -0.4380  0.0106
  572TMC3     O 8486   0.880   2.728  17.352 -0.3553  0.4789 -0.1445
  572TMC3     H 8487   1.064   2.696   0.015  3.3337  1.6498 -1.4070
  572TMC3    H1 8488   0.752   2.887  17.470  0.4941  2.2552  0.0114
  572TMC3    H2 8489   0.817   2.998   0.187 -1.8775 -0.2959 -0.4566
  572TMC3    C7 8490   0.728   3.080  17.658  0.1011  0.6070 -0.0193
  572TMC3    C8 8491   1.012   2.821   0.235 -0.6152 -0.0993 -0.1206
  572TMC3    O1 8492   0.617   3.108  17.612  0.0796  0.5441 -0.1395
  572TMC3    O2 8493   1.124   2.773   0.231 -0.0412  0.0166 -0.6799
  573MPD2     C 8494   1.271   3.605   0.358 -0.2444 -0.1685  0.0870
  573MPD2    C1 8495   1.383   3.576   0.433  0.1709  0.1168 -0.4146
  573MPD2    C2 8496   1.503   3.545   0.363  0.5579 -0.8804 -0.0861
  573MPD2    C3 8497   1.501   3.533   0.227 -0.5005 -0.0157 -0.0073
  573MPD2    C4 8498   1.379   3.537   0.160 -0.3483 -0.0502 -0.7300
  573MPD2    C5 8499   1.269   3.578   0.230 -0.7244 -0.2578 -0.7831
  573MPD2     H 8500   1.597   3.535   0.415  0.0409 -0.2992  0.9498
  573MPD2    H1 8501   1.361   3.515   0.055  0.4743  0.1087 -0.9072
  573MPD2    H2 8502   1.180   3.632   0.411  0.6689  1.2813  0.9240
  573MPD2    H3 8503   1.177   3.605   0.178 -1.1796  1.7690  1.0729
  573MPD2     N 8504   1.619   3.526   0.146  0.2754 -0.3199 -0.1598
  573MPD2    H5 8505   1.605   3.509   0.047  1.4292  0.4186 -0.4404
  573MPD2    N1 8506   1.381   3.600   0.574  0.6730  0.5957  0.0023
  573MPD2    H7 8507   1.289   3.622   0.610  0.2726 -2.6605  1.0447
  574TMC3    C1 8508   1.833   3.536   0.080  0.1187  0.0114  0.1326
  574TMC3    C2 8509   1.813   3.483  17.645 -0.2220  0.2368 -0.3321
  574TMC3    C3 8510   1.917   3.477  17.557 -0.6460 -0.5698  0.3213
  574TMC3    C4 8511   1.956   3.581   0.113 -0.0324 -0.1507  0.3598
  574TMC3    C5 8512   2.058   3.570   0.024  0.1528  0.3514  0.2810
  574TMC3    C6 8513   2.044   3.525  17.578  0.3299 -0.0110 -0.2147
  574TMC3     C 8514   1.741   3.543   0.194 -0.2515  0.5262  0.0173
  574TMC3     O 8515   1.785   3.548   0.308 -0.4505 -0.6788  0.0558
  574TMC3     H 8516   1.723   3.425  17.628  0.6166 -1.0590 -0.3579
  574TMC3    H1 8517   1.960   3.641   0.203  1.6503  0.6010 -0.2123
  574TMC3    H2 8518   2.114   3.514  17.496  1.4661  0.5487  0.6927
  574TMC3    C7 8519   2.183   3.637   0.060 -0.1242  0.1244 -0.3718
  574TMC3    C8 8520   1.894   3.421  17.427  0.6920  0.2843  0.4343
  574TMC3    O1 8521   2.167   3.708   0.156  0.1687 -0.0430 -0.6557
  574TMC3    O2 8522   1.990   3.389  17.362  0.0319 -0.2798 -0.0429
  575TMC3    C1 8523   3.598   4.622  10.150  0.2790  0.1952  0.3294
  575TMC3    C2 8524   3.497   4.525  10.167  0.1069  0.1444  0.1670
  575TMC3    C3 8525   3.370   4.552  10.106  0.0993 -0.5854 -0.0193
  575TMC3    C4 8526   3.572   0.018  10.085 -0.3155 -0.1781  0.2129
  575TMC3    C5 8527   3.445   0.043  10.029  0.4773  0.3773  0.1786
  575TMC3    C6 8528   3.344   4.672  10.043 -0.7080 -0.3543  0.0277
  575TMC3     C 8529   3.729   4.585  10.192  0.1270 -0.5631  1.1521
  575TMC3     O 8530   3.736   4.500  10.276  0.0500 -0.3076 -0.1491
  575TMC3     H 8531   3.512   4.435  10.226 -1.1584 -0.6172 -0.6806
  575TMC3    H1 8532   3.641   0.101  10.087 -2.4024  1.5682 -0.1588
  575TMC3    H2 8533   3.257   4.685   9.979  0.1967  0.4483 -1.0237
  575TMC3    C7 8534   3.409   0.180  10.029  0.0443  0.3587 -0.0402
  575TMC3    C8 8535   3.285   4.435  10.102 -1.0798  0.0662  0.1716
  575TMC3    O1 8536   3.437   0.244   9.927  0.4564 -0.4147 -0.0022
  575TMC3    O2 8537   3.308   4.332  10.168  0.0559 -0.3304 -0.4063
  576MPD2     C 8538   3.160   1.313  12.561 -1.3997  0.0694 -0.2043
  576MPD2    C1 8539   3.220   1.390  12.457 -0.4757 -0.5896 -0.0122
  576MPD2    C2 8540   3.143   1.498  12.410 -0.3275  0.5921 -0.0349
  576MPD2    C3 8541   3.018   1.527  12.466 -0.2788  0.7289 -0.3281
  576MPD2    C4 8542   2.970   1.446  12.568 -0.2168  0.5928 -0.1788
  576MPD2    C5 8543   3.038   1.336  12.605  0.4081  0.7899 -0.1007
  576MPD2     H 8544   3.178   1.561  12.329  1.1821  1.0633  0.9801
  576MPD2    H1 8545   2.876   1.458  12.620 -0.3360  0.6947 -0.4165
  576MPD2    H2 8546   3.198   1.223  12.607 -1.1973  0.8887  1.2333
  576MPD2    H3 8547   3.002   1.269  12.682  3.3221 -1.2199 -0.4805
  576MPD2     N 8548   2.942   1.628  12.400  0.3682 -0.3828 -0.0351
  576MPD2    H5 8549   2.973   1.656  12.308 -0.6101  1.0603  0.0856
  576MPD2    N1 8550   3.349   1.359  12.401 -0.1597 -0.4488  0.2261
  576MPD2    H7 8551   3.387   1.417  12.327 -1.4605  1.0847  0.7730
  577TMC3    C1 8552   3.542   1.235  12.351  0.7402  0.1210 -0.2448
  577TMC3    C2 8553   3.601   1.111  12.346 -0.3532  0.3840  0.3121
  577TMC3    C3 8554   3.731   1.102  12.290 -0.5627  0.2599  0.2070
  577TMC3    C4 8555   3.604   1.353  12.321 -0.7632  0.0459  0.3992
  577TMC3    C5 8556   3.735   1.338  12.262  0.0962  0.2023  0.0383
  577TMC3    C6 8557   3.792   1.214  12.244 -0.5479 -0.1118 -0.4388
  577TMC3     C 8558   3.421   1.247  12.428  0.1939 -0.0498 -0.0019
  577TMC3     O 8559   3.386   1.149  12.492  0.6980  0.0142  0.4216
  577TMC3     H 8560   3.547   1.024  12.380  1.9577 -0.6518  1.3642
  577TMC3    H1 8561   3.557   1.450  12.333 -2.0317 -0.6261  0.8793
  577TMC3    H2 8562   3.883   1.209  12.184 -1.0689  0.4086 -1.2810
  577TMC3    C7 8563   3.783   1.450  12.178  0.0358 -0.3372  0.3131
  577TMC3    C8 8564   3.765   0.967  12.240 -0.9176 -0.6834  0.4772
  577TMC3    O1 8565   3.906   1.452  12.161  0.6165  0.4516  0.2466
  577TMC3    O2 8566   3.734   0.864  12.299  0.1768  0.2620  0.5261
  578MPD2     C 8567   2.036   1.384   0.931 -0.7726 -0.2935  0.4794
  578MPD2    C1 8568   2.102   1.274   0.884 -0.2634 -1.4616  0.2009
  578MPD2    C2 8569   2.154   1.176   0.969  0.2956 -0.0251 -0.1514
  578MPD2    C3 8570   2.141   1.198   1.107  0.4420 -0.1528 -0.0537
  578MPD2    C4 8571   2.069   1.308   1.152  0.0983 -0.0597  0.0238
  578MPD2    C5 8572   2.009   1.393   1.066  0.9359  0.0636  0.3431
  578MPD2     H 8573   2.225   1.102   0.934  0.8322 -0.2406  1.4132
  578MPD2    H1 8574   2.034   1.319   1.254 -2.1150  2.0188 -0.9424
  578MPD2    H2 8575   1.992   1.453   0.859  0.6165  0.3479  0.2480
  578MPD2    H3 8576   1.934   1.465   1.098  0.9489  0.4387 -0.4692
  578MPD2     N 8577   2.197   1.104   1.194  0.4630 -0.5574  0.2060
  578MPD2    H5 8578   2.227   1.020   1.145  1.0323  0.9824 -2.0816
  578MPD2    N1 8579   2.141   1.281   0.744 -0.0160 -0.2162 -0.2938
  578MPD2    H7 8580   2.110   1.366   0.697 -2.4309  0.7131  2.9670
  579TMC3    C1 8581   2.276   1.010   1.393 -0.4480 -0.4309 -0.0980
  579TMC3    C2 8582   2.348   1.033   1.505 -0.8718  0.4229  0.7380
  579TMC3    C3 8583   2.387   0.920   1.575  0.5048 -0.4665  0.0123
  579TMC3    C4 8584   2.239   0.884   1.348 -0.6886 -0.2255 -0.0139
  579TMC3    C5 8585   2.279   0.771   1.416 -0.0331  0.1533  0.0509
  579TMC3    C6 8586   2.352   0.791   1.529 -0.4431  0.2859 -0.2732
  579TMC3     C 8587   2.224   1.124   1.330  0.6807  0.8161  0.3556
  579TMC3     O 8588   2.206   1.220   1.408 -0.1824 -0.3846 -0.5163
  579TMC3     H 8589   2.372   1.133   1.540 -0.3369  0.3271  0.6545
  579TMC3    H1 8590   2.211   0.877   1.243 -2.0476 -0.3966  0.3718
  579TMC3    H2 8591   2.395   0.704   1.578 -2.6536 -1.3912 -1.3342
  579TMC3    C7 8592   2.312   0.643   1.351  0.4727 -0.1028  0.2952
  579TMC3    C8 8593   2.488   0.930   1.681  0.3538  0.2336  0.1766
  579TMC3    O1 8594   2.365   0.553   1.412  0.3996  0.0307  0.0056
  579TMC3    O2 8595   2.504   0.833   1.752  0.2159  0.2495 -0.0630
  580TMC3    C1 8596   1.744   4.095  11.865 -0.4307 -0.3080 -0.6793
  580TMC3    C2 8597   1.820   4.192  11.814  0.5442 -0.2620  0.1622
  580TMC3    C3 8598   1.922   4.239  11.894 -0.5721  0.0246  0.0773
  580TMC3    C4 8599   1.764   4.038  11.984 -0.0078 -0.0874  0.1437
  580TMC3    C5 8600   1.858   4.082  12.067  0.8156  0.3255 -0.7779
  580TMC3    C6 8601   1.937   4.187  12.021  0.5486 -0.3320 -0.2438
  580TMC3     C 8602   1.613   4.072  11.805 -0.1780  0.3021 -0.0441
  580TMC3     O 8603   1.600   4.016  11.698 -0.2821 -0.1155 -0.1351
  580TMC3     H 8604   1.787   4.226  11.716  1.3789 -0.5386 -0.2216
  580TMC3    H1 8605   1.699   3.956  12.013  0.0454 -0.4079 -0.6660
  580TMC3    H2 8606   2.024   4.212  12.080  1.4774 -0.8723 -1.3763
  580TMC3    C7 8607   1.823   4.087  12.205  0.4648  0.2152 -0.2947
  580TMC3    C8 8608   1.975   4.365  11.865 -0.0587  0.0984  0.0189
  580TMC3    O1 8609   1.834   4.195  12.265  0.2251 -0.1298 -0.5129
  580TMC3    O2 8610   1.951   4.412  11.752 -0.0687  0.5352 -0.0666
  581MPD2     C 8611   3.972   4.484  15.121  0.5478  0.3099 -1.0985
  581MPD2    C1 8612   3.984   4.617  15.156 -0.0176  0.2276 -0.5999
  581MPD2    C2 8613   3.879   4.703  15.119 -0.2834 -0.0441  0.0934
  581MPD2    C3 8614   3.780   4.657  15.037  0.6353 -0.6947 -0.0582
  581MPD2    C4 8615   3.771   4.521  15.008  0.4746  0.1241 -0.1531
  581MPD2    C5 8616   3.868   4.439  15.044 -0.2312  0.8938  0.2025
  581MPD2     H 8617   3.869   0.087  15.146 -2.3515  0.5522 -2.9899
  581MPD2    H1 8618   3.690   4.489  14.944  1.0442  1.1019 -1.3747
  581MPD2    H2 8619   4.050   4.415  15.153 -1.4619 -0.7465  1.4748
  581MPD2    H3 8620   3.851   4.335  15.017 -0.7583  0.4284  2.2944
  581MPD2     N 8621   3.690   0.033  14.979  0.3601  1.0017 -0.2714
  581MPD2    H5 8622   3.723   0.128  14.994 -0.3118  1.2244 -0.2112
  581MPD2    N1 8623   4.100   4.646  15.231 -0.7120 -0.2356  0.3489
  581MPD2    H7 8624   4.169   4.572  15.240 -3.0750 -2.3034  1.5649
  582TMC3    C1 8625   4.273   0.041  15.321  0.8181  1.0631 -0.1462
  582TMC3    C2 8626   4.310   0.097  15.434  0.0026  0.2372 -0.5982
  582TMC3    C3 8627   4.443   0.088  15.476  0.4771  0.6723  1.0497
  582TMC3    C4 8628   4.355   4.675  15.255 -0.2706  0.8313  0.0863
  582TMC3    C5 8629   4.475   4.648  15.319 -0.9060  0.0044  0.6711
  582TMC3    C6 8630   4.521   4.710  15.432 -0.2140  0.5872 -0.4264
  582TMC3     C 8631   4.127   0.045  15.290  0.1067  0.4633  0.6924
  582TMC3     O 8632   4.066   0.149  15.314  0.2385  0.1217  0.8485
  582TMC3     H 8633   4.243   0.169  15.479  0.9542 -0.1330  1.4073
  582TMC3    H1 8634   4.334   4.632  15.158  0.8379  0.0263  0.2042
  582TMC3    H2 8635   4.625   4.699  15.463  0.1056  1.8729 -1.0284
  582TMC3    C7 8636   4.542   4.535  15.259  0.3051  0.0533 -0.1410
  582TMC3    C8 8637   4.472   0.115  15.619 -0.2139 -0.6050  0.3292
  582TMC3    O1 8638   4.571   4.541  15.143 -0.3992  0.3171  0.4837
  582TMC3    O2 8639   4.378   0.132  15.699  0.2456  0.0384  0.3863
  583MPD2     C 8640   4.258   1.406  16.441  0.4622  0.0607  0.1737
  583MPD2    C1 8641   4.291   1.539  16.430  0.0585 -0.3771  0.2269
  583MPD2    C2 8642   4.283   1.621  16.540  0.1911 -0.3783  0.2224
  583MPD2    C3 8643   4.244   1.579  16.669 -0.3948 -1.2563  0.2873
  583MPD2    C4 8644   4.209   1.440  16.679 -0.5789  0.7324 -0.4147
  583MPD2    C5 8645   4.214   1.365  16.564 -0.8487 -0.9340  0.8383
  583MPD2     H 8646   4.291   1.728  16.522  2.1246 -0.7669 -1.2183
  583MPD2    H1 8647   4.169   1.392  16.767  2.0351 -1.0375 -0.1965
  583MPD2    H2 8648   4.262   1.333  16.360  0.9974 -0.1293  0.3739
  583MPD2    H3 8649   4.191   1.261  16.583 -1.3047 -0.9570  0.1613
  583MPD2     N 8650   4.243   1.670  16.773 -0.2501  0.5050  0.1538
  583MPD2    H5 8651   4.246   1.767  16.742  0.6103  0.2633 -0.5179
  583MPD2    N1 8652   4.350   1.591  16.305 -0.0236  0.7714 -0.5759
  583MPD2    H7 8653   4.397   1.680  16.306  1.1188  0.1687 -1.2037
  584TMC3    C1 8654   4.230   1.771  16.985 -0.3729  0.0514  0.1271
  584TMC3    C2 8655   4.270   1.887  16.920  0.2363  0.1146 -0.2714
  584TMC3    C3 8656   4.349   1.972  16.986  0.0436  0.1577 -0.5531
  584TMC3    C4 8657   4.252   1.749  17.112  0.0509  0.2311  0.4504
  584TMC3    C5 8658   4.327   1.837  17.178 -0.5091  0.1344  0.7979
  584TMC3    C6 8659   4.378   1.950  17.119 -0.8284 -0.7968  1.3024
  584TMC3     C 8660   4.198   1.654  16.900 -0.1740  0.1427  0.0259
  584TMC3     O 8661   4.137   1.556  16.947 -0.2929 -0.2307  0.5458
  584TMC3     H 8662   4.247   1.914  16.818  1.0690  0.5938 -0.3397
  584TMC3    H1 8663   4.230   1.654  17.158 -0.2571  0.4155  0.6912
  584TMC3    H2 8664   4.455   2.013  17.162 -0.9282  0.9441 -1.0827
  584TMC3    C7 8665   4.299   1.843  17.322 -0.3417  0.2664 -0.6683
  584TMC3    C8 8666   4.439   2.059  16.901 -0.2917  0.4480  0.1320
  584TMC3    O1 8667   4.271   1.747  17.390 -0.4334  0.3612  0.3624
  584TMC3    O2 8668   4.466   2.024  16.789 -0.3973  0.2851 -0.1112
  585MPD2     C 8669   3.061   1.314   0.883  0.0777  0.0467 -0.3641
  585MPD2    C1 8670   3.153   1.317   0.784  0.0961  0.5469  0.2960
  585MPD2    C2 8671   3.194   1.203   0.719  0.1441 -0.3421  0.3121
  585MPD2    C3 8672   3.140   1.077   0.751 -0.5308 -0.4448  0.8303
  585MPD2    C4 8673   3.055   1.074   0.864  0.7335  0.1408 -0.2618
  585MPD2    C5 8674   3.018   1.191   0.929 -0.5737 -0.0467  0.2505
  585MPD2     H 8675   3.266   1.200   0.638 -2.9122  1.3256 -2.4599
  585MPD2    H1 8676   3.021   0.984   0.913 -1.0105 -0.2674 -2.2051
  585MPD2    H2 8677   3.024   1.401   0.936 -0.3697 -0.8853  0.8762
  585MPD2    H3 8678   2.943   1.194   1.007 -0.1516  0.8994  0.6188
  585MPD2     N 8679   3.185   0.956   0.683 -0.6063  0.1285  0.7633
  585MPD2    H5 8680   3.258   0.971   0.614 -1.2609  2.4740  0.5865
  585MPD2    N1 8681   3.189   1.448   0.734 -0.0739  0.3580 -0.2925
  585MPD2    H7 8682   3.139   1.531   0.764  0.1326 -0.9159  3.5813
  586TMC3    C1 8683   3.157   0.747   0.589  0.4735  0.7573 -0.0052
  586TMC3    C2 8684   3.287   0.725   0.566  0.4060  0.6873 -0.4656
  586TMC3    C3 8685   3.315   0.613   0.499 -0.0946 -0.1185  0.1375
  586TMC3    C4 8686   3.062   0.664   0.544 -0.1815 -0.1779 -0.1317
  586TMC3    C5 8687   3.099   0.554   0.468  0.6124 -0.1160 -0.0403
  586TMC3    C6 8688   3.230   0.529   0.450  0.3799  0.4927 -0.1731
  586TMC3     C 8689   3.119   0.838   0.695 -0.4716 -0.9207  0.3049
  586TMC3     O 8690   3.030   0.803   0.768  0.1836  0.5984  0.8387
  586TMC3     H 8691   3.357   0.798   0.606 -1.3840  0.8701  2.3216
  586TMC3    H1 8692   2.957   0.688   0.554 -0.6605 -2.6259  0.6589
  586TMC3    H2 8693   3.265   0.444   0.393  1.0746  0.9477 -0.4276
  586TMC3    C7 8694   3.022   0.544   0.346  0.1293 -0.4509 -0.9483
  586TMC3    C8 8695   3.452   0.585   0.468  0.9914 -0.2958 -0.4149
  586TMC3    O1 8696   3.055   0.446   0.279  0.2916 -0.0761 -0.2048
  586TMC3    O2 8697   3.480   0.469   0.478 -0.0368  0.6311  0.6508
  587TMC3    C1 8698   1.167   3.735  16.356 -0.9791  0.1746 -0.1088
  587TMC3    C2 8699   1.163   3.861  16.409  0.4668  0.1608 -0.8172
  587TMC3    C3 8700   1.282   3.903  16.473  0.4711  0.0413  0.0538
  587TMC3    C4 8701   1.270   3.657  16.347 -0.4268 -0.0774  0.5262
  587TMC3    C5 8702   1.391   3.703  16.400 -0.1870 -1.2465  0.1876
  587TMC3    C6 8703   1.396   3.829  16.459 -0.0126  0.5917 -0.5279
  587TMC3     C 8704   1.041   3.670  16.324 -0.0850  0.1966  0.0503
  587TMC3     O 8705   1.055   3.582  16.239  0.0742  0.1826  0.2296
  587TMC3     H 8706   1.072   3.919  16.400 -0.6372 -1.4236  0.1489
  587TMC3    H1 8707   1.266   3.554  16.314  1.5879 -0.8640  2.6898
  587TMC3    H2 8708   1.489   3.874  16.492 -0.2119 -1.4192  2.8117
  587TMC3    C7 8709   1.511   3.631  16.372 -0.0836  0.1544 -0.5321
  587TMC3    C8 8710   1.308   4.042  16.473 -0.0352 -0.5847 -0.0387
  587TMC3    O1 8711   1.487   3.519  16.327 -0.4176  0.4897  0.1411
  587TMC3    O2 8712   1.420   4.078  16.441  0.4241  0.3858 -0.8115
  588TMC3    C1 8713   3.133   2.175   9.806  0.6365 -0.6512  0.0186
  588TMC3    C2 8714   3.028   2.108   9.844  0.2478  0.0788  0.1412
  588TMC3    C3 8715   2.988   2.111   9.973 -0.1700 -0.2015  0.0707
  588TMC3    C4 8716   3.191   2.271   9.891  0.7635  0.1613 -0.8464
  588TMC3    C5 8717   3.157   2.265  10.023 -0.0960  0.5233 -0.0469
  588TMC3    C6 8718   3.062   2.183  10.070 -0.6457  0.3099  0.3424
  588TMC3     C 8719   3.184   2.168   9.672 -0.9094  0.7159  0.5881
  588TMC3     O 8720   3.115   2.174   9.571  0.1112 -0.7835  0.2468
  588TMC3     H 8721   2.981   2.036   9.778 -0.2911  1.0175 -0.4881
  588TMC3    H1 8722   3.269   2.336   9.855  2.0802 -0.5477  0.7180
  588TMC3    H2 8723   3.037   2.166  10.174 -0.5808 -0.3051  0.2599
  588TMC3    C7 8724   3.262   2.298  10.126 -0.2152  0.2117 -0.0403
  588TMC3    C8 8725   2.927   1.990  10.020  0.1752 -0.1332 -0.4403
  588TMC3    O1 8726   3.247   2.240  10.235  0.4715  0.0575 -0.5709
  588TMC3    O2 8727   2.821   1.956   9.967 -0.1867 -0.2731 -0.2638
  589TMC3    C1 8728   2.257   3.883   1.201  0.4363  0.7856 -0.3710
  589TMC3    C2 8729   2.314   3.854   1.320 -0.6055 -0.3091 -0.4436
  589TMC3    C3 8730   2.419   3.773   1.328  0.7954  0.0053  0.0557
  589TMC3    C4 8731   2.311   3.840   1.080  0.8918  0.8631  0.9718
  589TMC3    C5 8732   2.426   3.774   1.098 -0.0351  0.8651 -0.1890
  589TMC3    C6 8733   2.491   3.734   1.214 -0.1433  0.1774  0.7365
  589TMC3     C 8734   2.160   3.991   1.180 -0.6658 -1.0816  0.3872
  589TMC3     O 8735   2.133   4.029   1.069 -0.2604  0.1762 -0.8373
  589TMC3     H 8736   2.267   3.886   1.412  0.0794 -0.4316 -0.0466
  589TMC3    H1 8737   2.262   3.852   0.984 -0.0514 -2.7220  0.9966
  589TMC3    H2 8738   2.573   3.663   1.213  0.6295  1.0636  0.8726
  589TMC3    C7 8739   2.499   3.725   0.979 -0.0234  0.1182 -0.2920
  589TMC3    C8 8740   2.482   3.753   1.455 -0.1484  0.3111 -0.0764
  589TMC3    O1 8741   2.429   3.706   0.883 -0.4552  1.0766 -0.1080
  589TMC3    O2 8742   2.421   3.751   1.563  0.2129  0.5801  0.3804
  590MPD2     C 8743   2.419   2.128  16.227  0.1808  0.1701  0.3215
  590MPD2    C1 8744   2.391   2.197  16.347 -0.3579 -0.2246  0.0823
  590MPD2    C2 8745   2.485   2.298  16.385  0.1015 -0.6850  0.2018
  590MPD2    C3 8746   2.592   2.325  16.300 -0.1498 -0.1154 -0.3637
  590MPD2    C4 8747   2.622   2.255  16.187 -0.0138  0.2319 -0.3918
  590MPD2    C5 8748   2.536   2.157  16.153 -0.8048 -0.4181  0.0162
  590MPD2     H 8749   2.474   2.353  16.478 -1.2412 -0.1599 -0.2615
  590MPD2    H1 8750   2.701   2.271  16.115 -0.4292  2.6294 -0.3165
  590MPD2    H2 8751   2.348   2.063  16.178  0.7956  0.7105 -1.2890
  590MPD2    H3 8752   2.562   2.112  16.058  0.5129 -0.0893  0.2336
  590MPD2     N 8753   2.667   2.438  16.340  0.1588  0.1981 -1.1161
  590MPD2    H5 8754   2.634   2.490  16.421 -0.5895 -0.4262 -1.0264
  590MPD2    N1 8755   2.266   2.175  16.410 -0.2598  0.2456 -0.5372
  590MPD2    H7 8756   2.198   2.121  16.359  0.0201 -0.6895  0.0699
  591TMC3    C1 8757   2.813   2.623  16.314 -0.4048  0.4989  0.4782
  591TMC3    C2 8758   2.933   2.663  16.270 -0.1002 -0.4175  0.6374
  591TMC3    C3 8759   2.939   2.779  16.203 -0.1323 -0.6935  0.8693
  591TMC3    C4 8760   2.702   2.703  16.325  0.2592 -0.2873  0.2840
  591TMC3    C5 8761   2.713   2.827  16.266  0.3282  0.3850  0.1125
  591TMC3    C6 8762   2.828   2.863  16.192 -0.0856  0.1230  0.8489
  591TMC3     C 8763   2.784   2.485  16.290 -0.0264  0.5740 -0.3713
  591TMC3     O 8764   2.850   2.426  16.203  0.4502  0.2014  0.4045
  591TMC3     H 8765   3.018   2.596  16.275  0.2061 -0.1515 -0.9639
  591TMC3    H1 8766   2.606   2.684  16.373  0.0223 -1.6212 -0.7026
  591TMC3    H2 8767   2.841   2.966  16.159  2.1491 -0.5561 -0.3927
  591TMC3    C7 8768   2.605   2.918  16.297  0.6620 -0.0966 -0.0220
  591TMC3    C8 8769   3.026   2.759  16.089 -0.1015  0.0110  0.0961
  591TMC3    O1 8770   2.541   2.912  16.399  0.2973 -0.1866  0.0704
  591TMC3    O2 8771   3.113   2.672  16.097  0.2212 -0.4645 -0.0732
  592MPD2     C 8772   2.745   0.120  10.990  0.1661  0.3564 -0.1342
  592MPD2    C1 8773   2.756   0.056  11.109 -0.1006  0.5109  0.3335
  592MPD2    C2 8774   2.674   4.664  11.130  0.0649 -0.0970  0.1542
  592MPD2    C3 8775   2.566   4.632  11.036  0.0470 -0.0404  0.1831
  592MPD2    C4 8776   2.553   4.715  10.924 -0.0707 -0.5370  0.1543
  592MPD2    C5 8777   2.644   0.091  10.907 -0.3454 -0.0747 -0.3229
  592MPD2     H 8778   2.689   4.608  11.222 -0.1188 -2.1205 -1.0335
  592MPD2    H1 8779   2.476   4.689  10.851 -2.0570  2.4485  1.1764
  592MPD2    H2 8780   2.804   0.206  10.960  0.8975  0.3803  1.4013
  592MPD2    H3 8781   2.646   0.141  10.811  2.6865 -0.2841 -0.3534
  592MPD2     N 8782   2.486   4.512  11.066  0.2361  0.1169  0.9341
  592MPD2    H5 8783   2.499   4.471  11.158  1.0119  0.4580  0.9798
  592MPD2    N1 8784   2.853   0.103  11.199  0.1546  0.8538 -0.1941
  592MPD2    H7 8785   2.936   0.154  11.168  0.7264 -1.2327 -2.0836
  593TMC3    C1 8786   2.950   0.089  11.422 -0.2703 -0.8955 -0.0327
  593TMC3    C2 8787   2.944   4.720  11.530  0.1313 -0.3695  0.4087
  593TMC3    C3 8788   3.024   0.035  11.634  0.6431  0.2035  0.5916
  593TMC3    C4 8789   3.027   0.199  11.422  0.1936  0.1718  0.3435
  593TMC3    C5 8790   3.095   0.234  11.533 -0.8683 -0.3096 -0.1156
  593TMC3    C6 8791   3.101   0.150  11.635  0.5652  0.0342 -0.3123
  593TMC3     C 8792   2.835   0.086  11.339  0.5274  0.9529 -0.5973
  593TMC3     O 8793   2.734   0.054  11.402  0.2349 -0.7064  0.7743
  593TMC3     H 8794   2.879   4.633  11.540 -2.0587  1.0595 -1.4520
  593TMC3    H1 8795   3.037   0.249  11.326 -1.2272 -0.1586  0.0160
  593TMC3    H2 8796   3.144   0.174  11.732 -0.2571  0.8376 -0.1404
  593TMC3    C7 8797   3.174   0.353  11.515 -0.1733 -0.7534  0.3235
  593TMC3    C8 8798   3.014   4.676  11.764 -0.8827  0.4080 -0.9828
  593TMC3    O1 8799   3.129   0.453  11.459  0.3647  0.0212  0.3636
  593TMC3    O2 8800   2.918   4.599  11.775  0.5265 -0.0241 -0.0690
  594MPD2     C 8801   0.846   3.148  13.909  0.1685 -1.1354  0.0537
  594MPD2    C1 8802   0.915   3.113  14.020  0.3484  0.0968 -0.2568
  594MPD2    C2 8803   1.031   3.185  14.059  0.0327 -0.4414 -0.1786
  594MPD2    C3 8804   1.065   3.289  13.967  0.2394  0.4837 -0.3380
  594MPD2    C4 8805   0.994   3.318  13.852 -0.2523 -0.1471  0.6552
  594MPD2    C5 8806   0.893   3.242  13.815 -0.1920  0.8923  0.1957
  594MPD2     H 8807   1.094   3.169  14.145 -0.6377  0.8811  0.5624
  594MPD2    H1 8808   1.028   3.394  13.784  0.8563 -1.7541 -0.5964
  594MPD2    H2 8809   0.758   3.093  13.878  0.2177 -0.5613 -1.1081
  594MPD2    H3 8810   0.841   3.259  13.721  0.0939 -0.9616 -0.3148
  594MPD2     N 8811   1.174   3.370  14.018 -0.3876  0.7884  0.0164
  594MPD2    H5 8812   1.220   3.337  14.102  1.1658 -0.2499 -1.2289
  594MPD2    N1 8813   0.846   3.023  14.107  0.1156 -0.1308 -0.1223
  594MPD2    H7 8814   0.768   2.975  14.063 -0.0323 -1.2670  1.3495
  595TMC3    C1 8815   1.575   3.460  14.024 -0.4107  0.3704 -0.0222
  595TMC3    C2 8816   1.451   3.423  14.018 -0.4766 -0.0374  0.6606
  595TMC3    C3 8817   1.357   3.517  13.996  0.1260 -0.2902  0.6774
  595TMC3    C4 8818   1.611   3.593  14.014  0.1469 -0.1948 -0.5078
  595TMC3    C5 8819   1.518   3.690  13.994 -0.4945 -0.7688  1.0305
  595TMC3    C6 8820   1.386   3.653  13.975  0.0867  0.1232  0.2926
  595TMC3     C 8821   1.667   3.388  14.109  0.2936  0.7294  0.1639
  595TMC3     O 8822   1.620   3.330  14.204 -0.4615 -0.1804 -0.0501
  595TMC3     H 8823   1.420   3.320  14.023 -0.1933 -0.2818 -2.2205
  595TMC3    H1 8824   1.715   3.619  14.000 -0.1058  1.5343  0.6922
  595TMC3    H2 8825   1.301   3.720  13.974  1.2022  1.5344 -0.9018
  595TMC3    C7 8826   1.530   3.785  14.109  0.4983  0.4179 -0.2159
  595TMC3    C8 8827   1.221   3.485  13.958  0.1936  0.6647  0.2434
  595TMC3    O1 8828   1.438   3.860  14.136  0.3257  0.0878 -0.0602
  595TMC3    O2 8829   1.182   3.551  13.860 -0.8605 -0.4199  0.4614
  596MPD2     C 8830   0.533   1.348  16.459 -0.7917 -0.4314  0.0428
  596MPD2    C1 8831   0.536   1.472  16.410 -0.5051 -0.0456  0.1150
  596MPD2    C2 8832   0.576   1.487  16.276  0.4785 -0.6936 -0.0983
  596MPD2    C3 8833   0.597   1.375  16.197 -0.2725  0.7200 -0.5291
  596MPD2    C4 8834   0.600   1.253  16.261 -0.2154 -0.2020 -0.9604
  596MPD2    C5 8835   0.578   1.244  16.395  0.5470  0.2355 -0.1947
  596MPD2     H 8836   0.571   1.588  16.237  0.4936 -0.5517  0.2705
  596MPD2    H1 8837   0.602   1.158  16.210  0.0162  0.0830 -1.4895
  596MPD2    H2 8838   0.513   1.331  16.564  0.1076  0.8285  0.4208
  596MPD2    H3 8839   0.567   1.146  16.439 -0.2129 -1.1343 -3.4537
  596MPD2     N 8840   0.607   1.378  16.057 -0.7448  0.7386 -0.2011
  596MPD2    H5 8841   0.605   1.287  16.013  0.4435 -0.7056  2.7685
  596MPD2    N1 8842   0.498   1.588  16.479 -0.6136  0.2497 -0.0595
  596MPD2    H7 8843   0.508   1.676  16.430  2.6565 -0.1658 -0.0951
  597TMC3    C1 8844   0.395   1.711  16.653 -0.5582 -0.4116 -0.4702
  597TMC3    C2 8845   0.349   1.806  16.559 -0.1931 -0.9170 -0.3639
  597TMC3    C3 8846   0.309   1.929  16.602 -0.2026 -0.0409  0.0461
  597TMC3    C4 8847   0.399   1.749  16.790  0.2079  0.1224 -0.7655
  597TMC3    C5 8848   0.362   1.877  16.819  0.3911 -0.0644  0.4391
  597TMC3    C6 8849   0.311   1.972  16.734 -0.4074  0.6833  0.1686
  597TMC3     C 8850   0.461   1.588  16.615 -0.7633 -0.7610 -0.7480
  597TMC3     O 8851   0.469   1.507  16.705  0.1143  0.0567  0.2809
  597TMC3     H 8852   0.338   1.788  16.452 -0.3856 -2.3628 -0.0996
  597TMC3    H1 8853   0.453   1.692  16.864  2.0101  2.3269 -0.3846
  597TMC3    H2 8854   0.259   2.061  16.765 -0.8865  0.6609 -0.5708
  597TMC3    C7 8855   0.359   1.917  16.965  0.4267  0.4931 -0.4157
  597TMC3    C8 8856   0.248   2.018  16.509  0.0917  0.3986  0.2372
  597TMC3    O1 8857   0.299   1.837  17.038  0.0098 -0.2581 -0.0449
  597TMC3    O2 8858   0.180   1.959  16.427 -0.0599 -0.3375 -0.1674
  598TMC3    C1 8859   3.200   2.978  14.922  0.2709  0.3585  0.1253
  598TMC3    C2 8860   3.092   2.900  14.934  0.6753 -0.3079 -0.7987
  598TMC3    C3 8861   2.975   2.926  14.883  0.4014  0.4055 -0.6971
  598TMC3    C4 8862   3.188   3.103  14.867  0.0203 -0.2990 -0.8759
  598TMC3    C5 8863   3.057   3.141  14.826  0.4784  0.1013  0.3003
  598TMC3    C6 8864   2.957   3.048  14.817 -0.2303  0.2693 -0.4785
  598TMC3     C 8865   3.331   2.948  14.990  0.7493  0.4325 -0.1927
  598TMC3     O 8866   3.420   3.033  14.972  0.0049  0.3558  0.4168
  598TMC3     H 8867   3.110   2.803  14.979  0.9885  0.8516  1.5828
  598TMC3    H1 8868   3.272   3.166  14.846 -0.5761  1.3700  1.6964
  598TMC3    H2 8869   2.860   3.087  14.787 -0.6595 -1.0346 -0.7736
  598TMC3    C7 8870   3.033   3.265  14.751  0.4829  0.4056  0.3619
  598TMC3    C8 8871   2.862   2.831  14.894  0.1522 -0.3168 -0.5474
  598TMC3    O1 8872   2.920   3.280  14.707 -0.3665 -0.3324 -0.3293
  598TMC3    O2 8873   2.764   2.843  14.823  0.3788  0.3317 -0.0503
  599MPD2     C 8874   3.538   0.969  15.883  0.3499  1.2001  1.4968
  599MPD2    C1 8875   3.433   0.873  15.886  0.1761  0.0473 -0.4820
  599MPD2    C2 8876   3.325   0.893  15.975  0.7168  0.1627 -0.6073
  599MPD2    C3 8877   3.308   1.009  16.049 -0.2905  0.2965  0.0034
  599MPD2    C4 8878   3.411   1.107  16.041  0.2463 -0.1076  0.9159
  599MPD2    C5 8879   3.529   1.077  15.967 -0.1021  0.0078  0.0847
  599MPD2     H 8880   3.257   0.811  15.994 -0.5667  1.8393  2.0743
  599MPD2    H1 8881   3.407   1.199  16.097 -2.1559 -0.0140  0.5954
  599MPD2    H2 8882   3.631   0.949  15.831 -0.3655 -0.0536  0.7090
  599MPD2    H3 8883   3.607   1.152  15.966  0.1294 -0.2012  2.7503
  599MPD2     N 8884   3.190   1.042  16.120 -0.4781 -0.6591  0.3776
  599MPD2    H5 8885   3.190   1.138  16.154  5.0239 -0.3964 -0.3445
  599MPD2    N1 8886   3.444   0.771  15.799  0.1241 -0.1275 -0.0473
  599MPD2    H7 8887   3.521   0.770  15.733 -1.8593  0.8836 -2.3516
  600TMC3    C1 8888   2.969   1.031  16.200 -0.6448 -0.1406  0.3797
  600TMC3    C2 8889   2.867   0.951  16.240 -0.1390 -0.3426  0.3572
  600TMC3    C3 8890   2.763   1.016  16.314 -0.4360 -0.3162  0.0582
  600TMC3    C4 8891   2.986   1.159  16.237 -0.0757 -0.0679  0.5567
  600TMC3    C5 8892   2.892   1.212  16.310 -0.3161 -0.1764 -0.3565
  600TMC3    C6 8893   2.781   1.147  16.351 -0.3878  0.2234 -1.0320
  600TMC3     C 8894   3.077   0.967  16.133  0.2158 -0.4335  0.4610
  600TMC3     O 8895   3.058   0.855  16.086  0.1690 -0.3222 -0.4686
  600TMC3     H 8896   2.856   0.851  16.198  0.2631 -0.2997  0.1447
  600TMC3    H1 8897   3.064   1.222  16.198  0.1361 -0.0851  0.9483
  600TMC3    H2 8898   2.718   1.199  16.423  0.4522 -0.1843 -0.0019
  600TMC3    C7 8899   2.918   1.334  16.377  0.1240 -0.3501 -0.8994
  600TMC3    C8 8900   2.666   0.944  16.396 -0.0971  0.4843 -0.1382
  600TMC3    O1 8901   2.818   1.405  16.396 -0.2635 -0.2414 -0.0880
  600TMC3    O2 8902   2.648   0.991  16.508  0.1997  0.1022 -0.2885
  601MPD2     C 8903   0.876   3.572  17.643 -0.1148 -0.4238  0.3241
  601MPD2    C1 8904   0.750   3.516  17.635  0.0185  0.6190  0.0714
  601MPD2    C2 8905   0.731   3.381  17.646  0.0788 -0.5852 -0.5958
  601MPD2    C3 8906   0.840   3.298  17.664 -0.2842 -0.5520  0.1873
  601MPD2    C4 8907   0.964   3.357  17.677  0.5455 -0.2909 -0.5121
  601MPD2    C5 8908   0.983   3.493  17.675 -0.2033  0.6110 -0.8031
  601MPD2     H 8909   0.628   3.349  17.646 -0.1371  0.1015 -1.5496
  601MPD2    H1 8910   1.055   3.299   0.004  1.4348  1.3610  1.0366
  601MPD2    H2 8911   0.891   3.678  17.628  0.4458 -0.2940  1.8473
  601MPD2    H3 8912   1.084   3.534  17.679  1.3340 -2.9279 -2.8151
  601MPD2     N 8913   0.834   3.158  17.681 -0.3273 -0.0528 -0.1303
  601MPD2    H5 8914   0.921   3.111   0.022  0.4752  0.7672 -1.3674
  601MPD2    N1 8915   0.636   3.600  17.626  0.0978 -0.0699  0.5087
  601MPD2    H7 8916   0.544   3.558  17.632  0.6959 -1.4741 -0.1778
  602TMC3    C1 8917   0.495   3.790  17.611  0.0258  0.4011  0.5626
  602TMC3    C2 8918   0.477   3.918  17.649 -0.8185 -0.6675 -0.1953
  602TMC3    C3 8919   0.346   3.956  17.656  0.7711  0.3833  0.1417
  602TMC3    C4 8920   0.396   3.714  17.546  0.7131 -1.0464 -0.1467
  602TMC3    C5 8921   0.270   3.776  17.536 -0.3225 -0.1175  0.8074
  602TMC3    C6 8922   0.244   3.893  17.603 -0.3238 -0.0411 -0.0774
  602TMC3     C 8923   0.632   3.740  17.619  0.1536 -0.2185 -0.7414
  602TMC3     O 8924   0.720   3.826  17.612  0.7445  0.2672 -0.4991
  602TMC3     H 8925   0.565   3.968   0.005 -0.6269 -0.7564 -0.5057
  602TMC3    H1 8926   0.423   3.639  17.473  0.6834  0.5834 -1.8502
  602TMC3    H2 8927   0.142   3.925  17.616 -0.6225 -1.2014  0.4180
  602TMC3    C7 8928   0.178   3.752  17.423 -0.1799  0.4000 -0.3510
  602TMC3    C8 8929   0.327   4.099   0.008 -0.5704  0.4496 -0.1496
  602TMC3    O1 8930   0.169   3.642  17.377 -0.1822 -0.2432  0.0498
  602TMC3    O2 8931   0.431   4.164   0.022  0.3453 -0.1495 -0.8367
  603TMC3    C1 8932   3.664   3.652  10.489 -0.4260 -0.2276  0.3466
  603TMC3    C2 8933   3.653   3.693  10.618 -0.0893  0.2582  0.1321
  603TMC3    C3 8934   3.548   3.768  10.649 -0.1734  0.1711 -0.1994
  603TMC3    C4 8935   3.583   3.695  10.395 -0.1735  0.5305  0.1318
  603TMC3    C5 8936   3.472   3.768  10.432  0.0903  0.0944 -0.5825
  603TMC3    C6 8937   3.447   3.813  10.559  0.1379  1.0443 -0.4006
  603TMC3     C 8938   3.778   3.566  10.453 -0.2025 -0.2088 -0.3526
  603TMC3     O 8939   3.874   3.553  10.527 -0.6110  0.1215  0.0885
  603TMC3     H 8940   3.723   3.650  10.690  2.0816  1.7454 -1.0738
  603TMC3    H1 8941   3.602   3.672  10.291  0.3410  0.3317  0.2731
  603TMC3    H2 8942   3.344   3.829  10.588 -0.6152 -0.3936 -2.2706
  603TMC3    C7 8943   3.357   3.752  10.338 -0.3642 -0.0101  0.5133
  603TMC3    C8 8944   3.540   3.817  10.783 -0.4746  0.5329 -0.0915
  603TMC3    O1 8945   3.380   3.698  10.230 -0.1587  0.0155  0.9023
  603TMC3    O2 8946   3.600   3.752  10.866 -0.2440  0.0935 -0.2582
  604MPD2     C 8947   4.679   3.008  15.917 -0.0323 -0.3908 -0.6509
  604MPD2    C1 8948   4.544   3.030  15.911 -0.3304 -0.0582 -0.0891
  604MPD2    C2 8949   4.480   2.967  15.803  0.5491 -0.5664  0.6757
  604MPD2    C3 8950   4.548   2.885  15.711  0.0312 -0.1519 -0.2065
  604MPD2    C4 8951   4.684   2.862  15.727  0.1850 -0.7989 -0.3721
  604MPD2    C5 8952   0.025   2.928  15.832  0.1600 -0.2339 -0.8995
  604MPD2     H 8953   4.376   2.990  15.785  1.6058  0.8441 -3.5806
  604MPD2    H1 8954   0.019   2.787  15.671 -0.2912 -0.9662 -0.6155
  604MPD2    H2 8955   0.014   3.035  16.007 -1.5253 -0.4645  0.2899
  604MPD2    H3 8956   0.130   2.911  15.853 -0.0220  1.7630  1.5423
  604MPD2     N 8957   4.479   2.829  15.601  0.5367 -0.0823 -0.4220
  604MPD2    H5 8958   4.378   2.837  15.602  0.3989 -2.1682  2.1726
  604MPD2    N1 8959   4.483   3.125  15.992 -0.0379 -0.3517 -0.1134
  604MPD2    H7 8960   4.544   3.180  16.051 -1.0028 -1.4790  1.9383
  605TMC3    C1 8961   4.321   3.201  16.133 -0.0906 -0.5278 -0.5561
  605TMC3    C2 8962   4.420   3.228  16.228  0.3772  0.0010  0.3717
  605TMC3    C3 8963   4.379   3.304  16.334 -0.1130  0.3198  0.4425
  605TMC3    C4 8964   4.192   3.245  16.142  0.0929 -0.2398 -0.2354
  605TMC3    C5 8965   4.163   3.329  16.243  0.1345  0.7514 -0.2555
  605TMC3    C6 8966   4.256   3.370  16.336  0.2014 -0.1636  0.0963
  605TMC3     C 8967   4.352   3.137  16.012  0.3971  0.4759 -0.1743
  605TMC3     O 8968   4.264   3.091  15.939  0.3471  0.0898 -0.0812
  605TMC3     H 8969   4.520   3.185  16.231 -0.1972 -1.3481  0.4190
  605TMC3    H1 8970   4.118   3.205  16.074  1.3734 -2.7790 -0.1722
  605TMC3    H2 8971   4.232   3.426  16.425  0.4211 -0.9847  0.6667
  605TMC3    C7 8972   4.020   3.331  16.276 -0.0606 -0.0230  0.3462
  605TMC3    C8 8973   4.502   3.376  16.386  0.4594  0.0275 -0.6081
  605TMC3    O1 8974   3.977   3.433  16.327  0.1118  0.5185  0.0702
  605TMC3    O2 8975   4.592   3.393  16.305 -0.0066 -0.6235 -0.3702
  606TMC3    C1 8976   0.620   1.216  16.859 -0.6848  0.2973 -0.3625
  606TMC3    C2 8977   0.754   1.177  16.857  0.0898 -0.2004  0.5083
  606TMC3    C3 8978   0.789   1.053  16.807  0.0247  0.1554 -0.3941
  606TMC3    C4 8979   0.515   1.128  16.837 -0.1005 -0.2369  0.6019
  606TMC3    C5 8980   0.555   1.003  16.796  0.4923  0.0138  0.3050
  606TMC3    C6 8981   0.685   0.971  16.775  0.6169 -0.2924 -0.0886
  606TMC3     C 8982   0.573   1.335  16.934  0.2186  0.3462  0.4976
  606TMC3     O 8983   0.463   1.315  16.984  0.4703  0.2770  0.4281
  606TMC3     H 8984   0.827   1.250  16.891 -1.6681  0.7234  2.3028
  606TMC3    H1 8985   0.408   1.137  16.844 -0.0503  0.7971 -0.0165
  606TMC3    H2 8986   0.711   0.875  16.733 -3.0565 -0.6098 -1.6347
  606TMC3    C7 8987   0.475   0.895  16.849  0.0100 -0.0208 -0.0157
  606TMC3    C8 8988   0.885   0.987  16.895 -0.1022 -0.0143 -0.5306
  606TMC3    O1 8989   0.553   0.809  16.895 -0.0546  0.0341 -0.5101
  606TMC3    O2 8990   0.975   1.061  16.933 -0.5084 -0.4412  0.0691
  607MPD2     C 8991   2.621   4.063  11.371  0.3608  0.0831 -0.8405
  607MPD2    C1 8992   2.697   4.107  11.477  0.2815  0.4014  0.2224
  607MPD2    C2 8993   2.652   4.069  11.600  0.0589  0.3854 -0.3706
  607MPD2    C3 8994   2.543   3.984  11.616 -0.1195  0.5928  0.0034
  607MPD2    C4 8995   2.485   3.930  11.507  0.0454 -0.4561  0.7028
  607MPD2    C5 8996   2.522   3.978  11.384 -0.1847 -0.2807  0.2985
  607MPD2     H 8997   2.702   4.095  11.694 -0.7556 -0.8536  0.3950
  607MPD2    H1 8998   2.402   3.860  11.509 -1.1810  0.9985  1.2083
  607MPD2    H2 8999   2.637   4.096  11.269  0.5169  1.1411 -0.4688
  607MPD2    H3 9000   2.477   3.935  11.295  0.8777  0.1926 -0.4567
  607MPD2     N 9001   2.524   3.931  11.745  0.2644  0.8136 -0.2992
  607MPD2    H5 9002   2.580   3.976  11.816 -0.6232 -0.6464  1.3180
  607MPD2    N1 9003   2.812   4.185  11.472  0.0794  0.4121 -0.6698
  607MPD2    H7 9004   2.849   4.210  11.563  1.5267 -1.8676 -0.6313
  608TMC3    C1 9005   3.005   4.263  11.400 -0.0974 -0.3939  0.0716
  608TMC3    C2 9006   3.061   4.218  11.521 -0.0073 -0.0739  0.6059
  608TMC3    C3 9007   3.166   4.286  11.577 -0.5570 -0.1703 -0.1925
  608TMC3    C4 9008   3.055   4.373  11.341 -0.6449 -0.5998  0.4842
  608TMC3    C5 9009   3.159   4.445  11.404  0.5721  0.1752  0.9629
  608TMC3    C6 9010   3.217   4.398  11.520  0.0342 -0.4674  0.3623
  608TMC3     C 9011   2.877   4.216  11.359  0.6779  0.6885 -0.1625
  608TMC3     O 9012   2.836   4.211  11.241 -0.1387  0.0429  0.3104
  608TMC3     H 9013   3.045   4.118  11.560  1.8667 -1.4544 -2.1470
  608TMC3    H1 9014   3.010   4.399  11.246 -1.0052 -1.7032  0.3492
  608TMC3    H2 9015   3.299   4.445  11.573 -0.2123  0.0302  0.3060
  608TMC3    C7 9016   3.219   4.553  11.328 -0.1640 -0.1297  0.2668
  608TMC3    C8 9017   3.191   4.273  11.716  0.1167 -0.0675 -0.4973
  608TMC3    O1 9018   3.154   4.595  11.234 -0.5366 -0.7063 -0.2632
  608TMC3    O2 9019   3.306   4.271  11.759  0.3494  0.2496  0.7341
  609TMC3    C1 9020   0.813   3.358   9.350  0.4174 -0.0932  0.0961
  609TMC3    C2 9021   0.760   3.263   9.264 -0.1294  0.3320  0.1152
  609TMC3    C3 9022   0.821   3.257   9.139  0.4361 -0.2762 -0.0115
  609TMC3    C4 9023   0.934   3.417   9.336  0.7082 -0.0251  0.0338
  609TMC3    C5 9024   0.997   3.398   9.220 -0.1835  0.1871 -0.5607
  609TMC3    C6 9025   0.940   3.325   9.113  0.6580  0.3488 -0.1726
  609TMC3     C 9026   0.731   3.389   9.463 -1.0659 -0.6388  0.1110
  609TMC3     O 9027   0.631   3.318   9.479  0.2698  0.4231  0.4731
  609TMC3     H 9028   0.665   3.215   9.284  0.7532 -1.0162  1.0800
  609TMC3    H1 9029   0.983   3.461   9.422 -0.3454  0.4926  0.3650
  609TMC3    H2 9030   0.981   3.321   9.012  3.7291  0.8493  1.0476
  609TMC3    C7 9031   1.135   3.428   9.220 -0.1893 -0.3670 -0.2462
  609TMC3    C8 9032   0.803   3.149   9.049 -0.0947 -0.0745  0.0102
  609TMC3    O1 9033   1.180   3.484   9.321 -0.1083  0.3860  0.7532
  609TMC3    O2 9034   0.901   3.125   8.981  0.0191 -0.1893 -0.0670
  610TMC3    C1 9035   2.860   3.653  12.644 -0.0485 -0.3449  0.5158
  610TMC3    C2 9036   2.910   3.732  12.743  0.0278 -0.6153 -0.4204
  610TMC3    C3 9037   3.034   3.682  12.783  1.2083 -0.3280  0.1495
  610TMC3    C4 9038   2.916   3.540  12.595  0.2216  0.4216 -0.0965
  610TMC3    C5 9039   3.049   3.509  12.625  0.0296  0.0086 -0.1851
  610TMC3    C6 9040   3.105   3.582  12.720  0.4510 -0.2251  0.1342
  610TMC3     C 9041   2.731   3.690  12.589  0.2206 -0.5887 -0.3236
  610TMC3     O 9042   2.704   3.805  12.620  0.5166  0.6486  0.0147
  610TMC3     H 9043   2.872   3.830  12.770 -0.5318 -0.7498 -0.7182
  610TMC3    H1 9044   2.864   3.476  12.525 -0.8299  0.7291  0.3934
  610TMC3    H2 9045   3.204   3.565  12.759  0.8663  1.2621 -0.2693
  610TMC3    C7 9046   3.097   3.375  12.604  0.2419  0.3555 -0.1572
  610TMC3    C8 9047   3.091   3.753  12.901  0.2743  0.1311 -0.2236
  610TMC3    O1 9048   3.189   3.337  12.674  0.3676 -0.4237 -0.0103
  610TMC3    O2 9049   3.051   3.866  12.923 -0.1100 -0.7769  0.0315
  611MPD2     C 9050   1.891   4.588  10.118 -1.0749  0.3953 -0.3107
  611MPD2    C1 9051   1.913   4.461  10.073  0.1010  0.2577  0.0168
  611MPD2    C2 9052   2.031   4.399  10.110  0.1461 -0.1651  0.6943
  611MPD2    C3 9053   2.127   4.464  10.178 -0.2844  0.1902  0.2876
  611MPD2    C4 9054   2.102   4.594  10.220 -0.7049 -0.2228 -0.3667
  611MPD2    C5 9055   1.982   4.656  10.192 -0.1443 -0.1569 -0.0972
  611MPD2     H 9056   2.055   4.301  10.069  2.3142  0.1943  1.1570
  611MPD2    H1 9057   2.168   4.650  10.285  2.1613 -1.6247 -2.0923
  611MPD2    H2 9058   1.793   4.633  10.108 -2.2271 -1.8483  0.7934
  611MPD2    H3 9059   1.956   0.024  10.250 -4.1769 -2.2709  1.3255
  611MPD2     N 9060   2.253   4.413  10.215  0.7633  0.9105 -0.8794
  611MPD2    H5 9061   2.308   4.470  10.279 -0.5194 -0.8755  1.8025
  611MPD2    N1 9062   1.804   4.397  10.003 -0.7111 -0.1527  0.2961
  611MPD2    H7 9063   1.717   4.449   9.991 -1.2921 -1.2396 -0.2100
  612TMC3    C1 9064   2.435   4.265  10.249 -0.3786  0.0258 -0.1486
  612TMC3    C2 9065   2.480   4.135  10.224  0.1522 -1.1360  0.0049
  612TMC3    C3 9066   2.591   4.108  10.302 -0.0803 -0.4274 -0.2919
  612TMC3    C4 9067   2.498   4.359  10.330  0.4836  0.3032 -0.1553
  612TMC3    C5 9068   2.608   4.317  10.403  0.4755  0.3135  0.0472
  612TMC3    C6 9069   2.656   4.189  10.388 -0.1519  0.4428 -0.3214
  612TMC3     C 9070   2.312   4.295  10.175 -0.0445  0.6920  0.7016
  612TMC3     O 9071   2.269   4.223  10.089 -0.4724 -0.3952  0.1366
  612TMC3     H 9072   2.437   4.068  10.151 -2.3342 -0.0056  0.4295
  612TMC3    H1 9073   2.465   4.462  10.338  2.6846  1.1002 -1.1410
  612TMC3    H2 9074   2.730   4.158  10.461  0.2768  1.0118 -0.5071
  612TMC3    C7 9075   2.634   4.390  10.523  0.5421  0.1411 -0.3141
  612TMC3    C8 9076   2.671   3.999  10.253  0.1980 -0.5678  0.1907
  612TMC3    O1 9077   2.536   4.435  10.585  0.4014 -0.2733  0.1847
  612TMC3    O2 9078   2.624   3.937  10.158  0.3976 -0.4362  0.0726
  613MPD2     C 9079   1.844   1.283  16.490  0.0911 -1.0203 -0.2382
  613MPD2    C1 9080   1.737   1.319  16.400  0.0069 -0.4067  0.2220
  613MPD2    C2 9081   1.622   1.239  16.391  0.5970  0.9584  0.1085
  613MPD2    C3 9082   1.612   1.124  16.465  0.1934  0.6281 -0.2009
  613MPD2    C4 9083   1.714   1.095  16.562 -0.5189  0.6173 -0.0805
  613MPD2    C5 9084   1.822   1.176  16.573  0.2807  0.4443  0.0553
  613MPD2     H 9085   1.543   1.265  16.321  0.3352 -2.0771 -0.7382
  613MPD2    H1 9086   1.713   1.010  16.628  1.0050  0.0463 -0.7793
  613MPD2    H2 9087   1.932   1.347  16.491  1.0332 -2.3187 -0.5376
  613MPD2    H3 9088   1.895   1.136  16.642  0.4745  2.4215  0.9896
  613MPD2     N 9089   1.504   1.025  16.456  0.4482 -0.7768  0.2435
  613MPD2    H5 9090   1.518   0.943  16.514 -1.5694 -1.8701 -0.8310
  613MPD2    N1 9091   1.754   1.425  16.308 -0.3650 -0.2869  0.0098
  613MPD2    H7 9092   1.845   1.470  16.304 -0.0636 -0.6785  2.3831
  614TMC3    C1 9093   1.711   1.499  16.086  0.3837  0.0943 -0.0348
  614TMC3    C2 9094   1.760   1.387  16.023  0.6705 -0.1589 -0.7490
  614TMC3    C3 9095   1.754   1.370  15.891 -0.8862 -0.2481 -0.5321
  614TMC3    C4 9096   1.649   1.592  16.015  0.3094 -0.4575 -0.1652
  614TMC3    C5 9097   1.636   1.568  15.873 -0.0776 -0.5446 -0.5120
  614TMC3    C6 9098   1.691   1.460  15.807 -0.2940  0.3814  0.4266
  614TMC3     C 9099   1.656   1.470  16.217  0.8125  0.5924  0.5230
  614TMC3     O 9100   1.533   1.463  16.221 -0.3529 -0.3153 -0.2606
  614TMC3     H 9101   1.826   1.324  16.083  0.1389 -1.0684 -1.1230
  614TMC3    H1 9102   1.598   1.669  16.071 -1.4614 -1.4057 -0.4688
  614TMC3    H2 9103   1.690   1.452  15.699 -2.5222 -1.3369  0.5810
  614TMC3    C7 9104   1.525   1.627  15.807  0.0840 -0.2166 -0.1111
  614TMC3    C8 9105   1.755   1.227  15.860 -0.0690  0.1184  0.7970
  614TMC3    O1 9106   1.458   1.677  15.896  0.3490 -0.1718  0.5823
  614TMC3    O2 9107   1.803   1.147  15.944  0.2573  0.4432  0.3357
  615MPD2     C 9108   1.527   2.635  15.833  0.1234  0.6185  0.3399
  615MPD2    C1 9109   1.499   2.766  15.826  0.7183 -0.0692 -1.1675
  615MPD2    C2 9110   1.398   2.804  15.744  0.8841  0.3696  0.6649
  615MPD2    C3 9111   1.338   2.720  15.650 -0.0179 -0.4231 -0.1512
  615MPD2    C4 9112   1.370   2.591  15.656  0.0055 -0.2521  0.4920
  615MPD2    C5 9113   1.463   2.551  15.749  0.3011  0.3412  0.4226
  615MPD2     H 9114   1.390   2.912  15.740  2.4570  0.4101 -1.1682
  615MPD2    H1 9115   1.322   2.523  15.587  0.3135 -0.6075  0.6308
  615MPD2    H2 9116   1.593   2.583  15.900  1.8061  0.8403 -1.1369
  615MPD2    H3 9117   1.477   2.443  15.756 -1.5793  0.0106 -1.0842
  615MPD2     N 9118   1.236   2.764  15.560 -0.4192 -0.2402  0.7109
  615MPD2    H5 9119   1.201   2.699  15.490 -1.3143 -0.2579  1.1707
  615MPD2    N1 9120   1.571   2.857  15.902  1.1766  0.3101  0.1829
  615MPD2    H7 9121   1.533   2.951  15.911  0.3634  0.1467 -1.6033
  616TMC3    C1 9122   1.767   2.945  16.028  0.6915  0.2417  0.4530
  616TMC3    C2 9123   1.743   3.073  15.996 -0.1580  0.6864 -0.1870
  616TMC3    C3 9124   1.825   3.171  16.039  0.2337 -0.4082  0.4382
  616TMC3    C4 9125   1.876   2.918  16.110  0.6050  0.1853 -1.0295
  616TMC3    C5 9126   1.950   3.022  16.155  0.4444 -0.2396 -0.3991
  616TMC3    C6 9127   1.927   3.149  16.123  0.3256 -0.8603  0.7117
  616TMC3     C 9128   1.696   2.829  15.969 -0.2575  0.2051  0.0499
  616TMC3     O 9129   1.754   2.724  15.974 -0.2671 -0.2608 -0.2068
  616TMC3     H 9130   1.654   3.100  15.940 -0.3990 -0.2324 -0.2468
  616TMC3    H1 9131   1.895   2.817  16.143 -0.1902  0.5825  0.6624
  616TMC3    H2 9132   1.992   3.226  16.164  0.1175  1.5004 -3.4093
  616TMC3    C7 9133   2.051   2.994  16.260  0.1586  0.6789  0.3832
  616TMC3    C8 9134   1.776   3.306  16.027 -0.0657  0.2134 -0.1949
  616TMC3    O1 9135   2.071   3.072  16.353  0.1300  0.1555 -0.2880
  616TMC3    O2 9136   1.655   3.322  16.015 -1.2032 -0.0566  0.1745
  617MPD2     C 9137   3.707   1.226  13.349  0.0983  0.2147 -0.3106
  617MPD2    C1 9138   3.736   1.265  13.475  0.1446  0.4248  0.0431
  617MPD2    C2 9139   3.642   1.228  13.576 -0.1097  0.0900 -0.1644
  617MPD2    C3 9140   3.544   1.133  13.551  0.2130 -0.1547  0.1723
  617MPD2    C4 9141   3.518   1.089  13.419 -0.2854  0.2955 -0.0803
  617MPD2    C5 9142   3.601   1.145  13.324  0.4236  0.8135  0.2561
  617MPD2     H 9143   3.644   1.272  13.675 -0.0548  0.8340 -0.4962
  617MPD2    H1 9144   3.433   1.024  13.397 -1.3376  0.9785  1.9948
  617MPD2    H2 9145   3.746   1.269  13.257  1.0748 -0.2822 -0.1246
  617MPD2    H3 9146   3.572   1.128  13.221  0.6689 -0.2306  0.3547
  617MPD2     N 9147   3.461   1.085  13.648 -0.2652  0.5256  0.2981
  617MPD2    H5 9148   3.384   1.025  13.618  1.1439 -2.1389  2.0808
  617MPD2    N1 9149   3.844   1.353  13.495  0.0085  0.5829 -0.3204
  617MPD2    H7 9150   3.883   1.393  13.410 -1.0250  1.3063 -0.4616
  618TMC3    C1 9151   4.013   1.463  13.611  0.2037 -0.1936 -0.5726
  618TMC3    C2 9152   4.055   1.513  13.729  0.4810 -0.0625 -0.1409
  618TMC3    C3 9153   4.187   1.546  13.748  0.2727  0.7821 -0.4164
  618TMC3    C4 9154   4.098   1.448  13.507 -0.1664 -0.6978  0.4638
  618TMC3    C5 9155   4.224   1.497  13.521 -0.1489 -0.4875 -0.5875
  618TMC3    C6 9156   4.267   1.551  13.642  0.5288  0.8801 -0.5794
  618TMC3     C 9157   3.892   1.383  13.617  0.1792  0.2558  0.2030
  618TMC3     O 9158   3.854   1.330  13.721  0.5096 -0.3358 -0.0120
  618TMC3     H 9159   3.998   1.490  13.819 -0.1748 -2.5020 -1.1893
  618TMC3    H1 9160   4.070   1.387  13.422 -0.2387 -0.0278  0.0079
  618TMC3    H2 9161   4.360   1.608  13.649  1.9012 -1.6911  1.9076
  618TMC3    C7 9162   4.325   1.420  13.458  0.4160  0.3875  0.6927
  618TMC3    C8 9163   4.244   1.466  13.854  0.1511 -0.4526 -0.4019
  618TMC3    O1 9164   4.431   1.419  13.519 -0.3330  0.2295 -0.4001
  618TMC3    O2 9165   4.188   1.441  13.959  0.5284 -0.3016 -0.1349
  619MPD2     C 9166   0.232   2.053  13.858 -0.4328 -0.6030 -0.2994
  619MPD2    C1 9167   0.176   2.115  13.745 -0.3531  0.6317  0.2788
  619MPD2    C2 9168   0.040   2.124  13.724  0.3276 -0.4282  0.6319
  619MPD2    C3 9169   4.679   2.083  13.826  0.0734 -1.5230 -0.5264
  619MPD2    C4 9170   0.008   2.041  13.948  0.3678  0.2618  0.6206
  619MPD2    C5 9171   0.139   2.013  13.953 -0.2469 -0.0024 -0.3961
  619MPD2     H 9172   0.011   2.147  13.622  2.9844  1.3425  0.2968
  619MPD2    H1 9173   4.662   2.014  14.029 -0.9335  0.8421 -0.2612
  619MPD2    H2 9174   0.338   2.056  13.880 -0.2399  0.4112 -1.3431
  619MPD2    H3 9175   0.182   1.977  14.046 -1.0280 -1.2574 -0.5232
  619MPD2     N 9176   4.538   2.071  13.807  0.0465 -0.5369 -0.0837
  619MPD2    H5 9177   4.485   2.046  13.890  0.3413  1.3561  0.6745
  619MPD2    N1 9178   0.251   2.181  13.646  0.9957 -0.4426 -0.3307
  619MPD2    H7 9179   0.201   2.207  13.561 -0.9522  0.4401  1.0930
  620TMC3    C1 9180   0.439   2.286  13.546 -0.1983  0.1732 -0.2054
  620TMC3    C2 9181   0.359   2.278  13.430 -0.7082  0.7445 -0.1384
  620TMC3    C3 9182   0.361   2.394  13.352 -0.1967 -0.0823 -0.0273
  620TMC3    C4 9183   0.518   2.395  13.580 -0.5457  0.4939  0.5184
  620TMC3    C5 9184   0.524   2.498  13.491  0.5810  0.7334  0.4151
  620TMC3    C6 9185   0.449   2.493  13.378 -0.2282 -1.1369  1.0290
  620TMC3     C 9186   0.386   2.207  13.650  0.2577 -0.6992  0.4732
  620TMC3     O 9187   0.460   2.185  13.743  0.1086 -0.0720  0.4071
  620TMC3     H 9188   0.290   2.195  13.419 -0.9291  1.1372 -1.6054
  620TMC3    H1 9189   0.552   2.421  13.680  0.0831  2.8762 -0.3084
  620TMC3    H2 9190   0.455   2.577  13.310 -2.6094  0.9522  3.3827
  620TMC3    C7 9191   0.508   2.629  13.553 -0.3309  0.8483 -0.1520
  620TMC3    C8 9192   0.232   2.447  13.319  0.0133 -0.6564  0.1025
  620TMC3    O1 9193   0.570   2.639  13.658  0.2126  0.3422  0.1208
  620TMC3    O2 9194   0.207   2.562  13.348 -0.0366  0.2543  0.2531
  621MPD2     C 9195   1.135   2.256   9.818 -0.2397  0.1865 -0.7459
  621MPD2    C1 9196   1.246   2.246   9.906  0.6140 -0.4885  0.1301
  621MPD2    C2 9197   1.346   2.343   9.893  0.0837 -0.3095  0.4752
  621MPD2    C3 9198   1.331   2.461   9.818 -0.5178 -0.3456 -1.0331
  621MPD2    C4 9199   1.222   2.461   9.733  0.6240 -0.6013 -0.3065
  621MPD2    C5 9200   1.125   2.363   9.733  0.3458 -0.6554 -0.1169
  621MPD2     H 9201   1.433   2.333   9.957  0.1784  0.0774  0.4106
  621MPD2    H1 9202   1.211   2.545   9.665 -1.2645 -2.2075 -1.9813
  621MPD2    H2 9203   1.054   2.183   9.821 -0.1613  0.0930 -0.9173
  621MPD2    H3 9204   1.041   2.352   9.665  0.1228  2.0307 -0.2728
  621MPD2     N 9205   1.412   2.571   9.838 -0.2403  0.1592 -0.1395
  621MPD2    H5 9206   1.477   2.567   9.915 -0.2076  0.8698 -0.1349
  621MPD2    N1 9207   1.256   2.138   9.999  0.3226  0.3503 -0.0053
  621MPD2    H7 9208   1.337   2.117  10.057 -1.7557 -0.7133  2.5481
  622TMC3    C1 9209   1.168   1.962  10.138  0.4054  1.0106 -0.1287
  622TMC3    C2 9210   1.096   1.973  10.255  0.3608  0.5697  0.1088
  622TMC3    C3 9211   1.134   1.880  10.350 -0.2876 -0.1076  0.4320
  622TMC3    C4 9212   1.255   1.855  10.114  0.3465  0.2366 -0.1966
  622TMC3    C5 9213   1.262   1.751  10.206 -0.0797 -0.5434  0.2951
  622TMC3    C6 9214   1.203   1.767  10.329 -0.1162  0.1683  0.2179
  622TMC3     C 9215   1.138   2.078  10.048  0.6262 -0.0332 -0.1581
  622TMC3     O 9216   1.022   2.104  10.030  0.3887 -0.6756 -0.0786
  622TMC3     H 9217   1.033   2.059  10.273  2.4896  2.0073  0.7263
  622TMC3    H1 9218   1.316   1.843  10.025 -0.9652 -2.1532 -0.7881
  622TMC3    H2 9219   1.191   1.680  10.393  0.4973 -0.4257 -0.4843
  622TMC3    C7 9220   1.226   1.621  10.148  0.5737 -0.5998 -0.1038
  622TMC3    C8 9221   1.066   1.872  10.472 -0.3140  0.6444  0.1218
  622TMC3    O1 9222   1.217   1.527  10.225 -0.8189  0.3560  0.3088
  622TMC3    O2 9223   1.106   1.814  10.569  0.0135  0.1649 -0.2964
  623MPD2     C 9224   0.234   3.192  15.653 -0.5927  0.2590 -0.4350
  623MPD2    C1 9225   0.164   3.246  15.759  0.9376  0.3678 -0.6374
  623MPD2    C2 9226   0.231   3.273  15.875  0.1418 -0.7918  0.5700
  623MPD2    C3 9227   0.359   3.228  15.894 -0.2689  0.5175 -0.0734
  623MPD2    C4 9228   0.428   3.161  15.794 -0.3845 -0.1670 -0.1762
  623MPD2    C5 9229   0.358   3.137  15.676 -0.3321 -0.5739 -0.1833
  623MPD2     H 9230   0.174   3.334  15.945 -0.3114  0.1025 -0.5636
  623MPD2    H1 9231   0.532   3.132  15.804  0.4232  2.2458 -1.3312
  623MPD2    H2 9232   0.194   3.170  15.555  3.0953  0.8914 -2.0853
  623MPD2    H3 9233   0.412   3.080  15.601  1.2855  0.3474  0.2920
  623MPD2     N 9234   0.406   3.257  16.018  0.5237 -0.1456 -0.2841
  623MPD2    H5 9235   0.347   3.291  16.094 -0.4596 -0.5651 -0.8718
  623MPD2    N1 9236   0.032   3.281  15.763 -0.1197 -0.7271  0.3932
  623MPD2    H7 9237   0.006   3.332  15.847  0.2371 -2.9197  1.8390
  624TMC3    C1 9238   0.546   3.090  16.406 -0.0117  0.2630  0.0113
  624TMC3    C2 9239   0.456   3.172  16.468  0.2773 -0.6233 -0.2237
  624TMC3    C3 9240   0.405   3.278  16.403  0.1202  0.0225 -0.6464
  624TMC3    C4 9241   0.592   3.112  16.279  0.0842 -0.3735  0.3802
  624TMC3    C5 9242   0.534   3.217  16.211 -0.9422  0.4409  0.0617
  624TMC3    C6 9243   0.440   3.299  16.269  0.5258  0.0249  0.5981
  624TMC3     C 9244   0.636   3.036  16.506 -0.4171 -0.0327  0.5751
  624TMC3     O 9245   0.668   3.111  16.594 -0.0822  0.1726  0.1997
  624TMC3     H 9246   0.430   3.148  16.571 -0.4716  0.8876 -0.0649
  624TMC3    H1 9247   0.670   3.055  16.229 -0.7497  0.0836 -1.4614
  624TMC3    H2 9248   0.403   3.388  16.220  3.5319  0.4046 -0.9901
  624TMC3    C7 9249   0.528   3.218  16.069 -0.1618  0.0554 -0.0623
  624TMC3    C8 9250   0.278   3.321  16.442 -0.4260  0.1861 -0.1631
  624TMC3    O1 9251   0.621   3.162  16.009 -0.3794  0.1000 -0.0892
  624TMC3    O2 9252   0.201   3.335  16.347  0.4414  0.2753  1.0517
  625MPD2     C 9253   0.183   3.980   0.623 -0.3581  1.1117  0.5115
  625MPD2    C1 9254   0.211   4.112   0.639 -0.1915 -0.4470 -0.4382
  625MPD2    C2 9255   0.340   4.146   0.666  0.6832 -0.8013 -0.2750
  625MPD2    C3 9256   0.443   4.051   0.653  0.3938 -0.2871 -0.4175
  625MPD2    C4 9257   0.411   3.919   0.621  0.1097  0.0483  0.7901
  625MPD2    C5 9258   0.279   3.884   0.618 -0.3752  0.3682 -0.0970
  625MPD2     H 9259   0.363   4.251   0.684 -0.3074 -0.6283 -0.0250
  625MPD2    H1 9260   0.476   3.837   0.594 -0.0872  0.4874 -1.0105
  625MPD2    H2 9261   0.080   3.945   0.617 -0.3955  0.8338  2.7674
  625MPD2    H3 9262   0.253   3.781   0.599  0.1748  0.3165 -0.5777
  625MPD2     N 9263   0.576   4.097   0.661 -0.1667  0.3522 -0.8713
  625MPD2    H5 9264   0.593   4.197   0.660 -0.9715  0.4789 -1.6340
  625MPD2    N1 9265   0.111   4.215   0.639 -0.4007 -0.8638 -0.2025
  625MPD2    H7 9266   0.146   4.310   0.635 -2.5559 -0.0198  0.8910
  626TMC3    C1 9267   4.617   4.312   0.664 -0.1110  0.7963  0.8698
  626TMC3    C2 9268   4.638   4.401   0.565 -0.0949  0.8239 -0.2491
  626TMC3    C3 9269   4.533   4.476   0.520 -0.7129  0.0224 -0.0323
  626TMC3    C4 9270   4.489   4.304   0.711 -0.2729 -0.4476 -0.2583
  626TMC3    C5 9271   4.393   4.390   0.666 -0.2465 -0.5359 -0.0488
  626TMC3    C6 9272   4.412   4.483   0.576  0.6877  0.0560 -0.7090
  626TMC3     C 9273   4.696   4.193   0.666 -0.4138  0.4116  0.3548
  626TMC3     O 9274   4.633   4.091   0.693 -0.5297 -0.1878 -0.3530
  626TMC3     H 9275   0.012   4.414   0.513  1.1295 -1.0856  1.4839
  626TMC3    H1 9276   4.465   4.231   0.788 -0.5811 -0.8346 -0.7180
  626TMC3    H2 9277   4.330   4.548   0.550 -0.9758 -1.7236  0.0718
  626TMC3    C7 9278   4.262   4.373   0.717  0.4792  0.1574 -0.0570
  626TMC3    C8 9279   4.549   4.559   0.404 -0.2402 -0.2248 -0.4972
  626TMC3    O1 9280   4.200   4.479   0.725  0.6902 -0.0384  0.2950
  626TMC3    O2 9281   4.566   4.512   0.293 -0.0761  0.5028  0.5258
  627MPD2     C 9282   2.943   4.644  14.565  0.2265 -0.4483  0.0658
  627MPD2    C1 9283   3.001   4.638  14.693 -0.4332 -0.2014  0.3237
  627MPD2    C2 9284   2.936   4.559  14.786 -0.6744 -0.3069 -0.3723
  627MPD2    C3 9285   2.843   4.472  14.746  0.6198  0.6594 -0.2317
  627MPD2    C4 9286   2.772   4.495  14.634 -0.4329 -0.1071 -0.6081
  627MPD2    C5 9287   2.825   4.584  14.546  0.2357 -0.4150  0.6949
  627MPD2     H 9288   2.984   4.563  14.884 -2.8796  0.0751  0.6826
  627MPD2    H1 9289   2.683   4.439  14.606  0.5370 -0.5522 -2.7830
  627MPD2    H2 9290   2.980   4.695  14.477  2.8118  2.0906  2.6126
  627MPD2    H3 9291   2.772   4.592  14.452  1.4604  1.1799  0.1238
  627MPD2     N 9292   2.808   4.361  14.828  0.5602  0.4610 -0.3060
  627MPD2    H5 9293   2.856   4.359  14.918  0.7071  1.0489 -0.3688
  627MPD2    N1 9294   3.119   4.717  14.730  0.1235 -0.1231  0.7009
  627MPD2    H7 9295   3.159   4.705  14.822 -0.0340  2.0481  1.0454
  628TMC3    C1 9296   3.319   0.110  14.696  0.4136 -0.8539 -0.2299
  628TMC3    C2 9297   3.379   0.039  14.790  0.0144  0.3244  0.3628
  628TMC3    C3 9298   3.494   0.091  14.842  0.1580 -0.2026  0.6023
  628TMC3    C4 9299   3.366   0.228  14.648 -0.3166 -0.3591 -0.0375
  628TMC3    C5 9300   3.478   0.278  14.698  0.1933 -0.2940 -0.2218
  628TMC3    C6 9301   3.545   0.209  14.798  0.6960 -0.6386  0.0440
  628TMC3     C 9302   3.192   0.070  14.642 -0.6202 -0.1738 -0.0151
  628TMC3     O 9303   3.153   0.124  14.540 -0.5667 -0.3031 -0.0556
  628TMC3     H 9304   3.338   4.661  14.812 -0.0527  0.2734  0.0085
  628TMC3    H1 9305   3.318   0.279  14.565  1.0067 -0.4302 -0.8484
  628TMC3    H2 9306   3.645   0.233  14.832  0.3968  2.2351 -1.1003
  628TMC3    C7 9307   3.547   0.400  14.648 -0.3892 -0.9224 -0.6452
  628TMC3    C8 9308   3.571   4.716  14.923  0.1848  0.2014 -0.1029
  628TMC3    O1 9309   3.614   0.454  14.733 -0.2789 -0.2686 -0.0247
  628TMC3    O2 9310   3.509   4.615  14.958  0.8789  0.0407  0.4662
  629MPD2     C 9311   1.884   3.805  16.068  0.6627 -0.6129 -1.1234
  629MPD2    C1 9312   1.995   3.737  16.052 -0.0876 -0.0835 -0.7126
  629MPD2    C2 9313   1.988   3.598  16.036 -0.6087 -0.0082 -0.1418
  629MPD2    C3 9314   1.874   3.531  16.042 -0.5668  0.6866  0.1755
  629MPD2    C4 9315   1.762   3.600  16.061 -0.1233 -0.1293  0.3056
  629MPD2    C5 9316   1.769   3.732  16.074 -0.1634  1.1561  0.7980
  629MPD2     H 9317   2.083   3.546  16.032  1.0251  3.0133 -1.3234
  629MPD2    H1 9318   1.666   3.559  16.091  0.1551 -0.6512  0.4787
  629MPD2    H2 9319   1.884   3.910  16.095  0.7073 -1.1979  1.1394
  629MPD2    H3 9320   1.680   3.788  16.099 -1.3313  0.0122 -0.8794
  629MPD2     N 9321   1.878   3.394  16.039  0.5510 -0.2900  0.4601
  629MPD2    H5 9322   1.967   3.349  16.025  0.5298 -0.7265  1.7443
  629MPD2    N1 9323   2.118   3.809  16.041  0.2320  0.1734  0.1389
  629MPD2    H7 9324   2.115   3.909  16.061 -2.1303  0.3077 -0.8913
  630TMC3    C1 9325   2.364   3.854  15.990  0.4790  0.3734 -0.7038
  630TMC3    C2 9326   2.346   3.991  15.994  0.6145 -0.3503  1.1452
  630TMC3    C3 9327   2.464   4.064  15.987  0.3282  0.1039 -0.2563
  630TMC3    C4 9328   2.487   3.794  15.985  0.5698 -0.3197 -0.0612
  630TMC3    C5 9329   2.592   3.871  16.014  0.3760 -0.1582  0.2117
  630TMC3    C6 9330   2.585   4.003  15.997  0.4815 -0.7753  0.2609
  630TMC3     C 9331   2.247   3.755  16.008  0.5314 -0.1058  0.1500
  630TMC3     O 9332   2.278   3.637  15.996 -0.1667  0.3346  0.6021
  630TMC3     H 9333   2.250   4.041  15.998  0.8127  0.1557 -0.7449
  630TMC3    H1 9334   2.499   3.690  16.010 -0.6796 -1.3024 -3.6010
  630TMC3    H2 9335   2.671   4.068  16.004 -0.6955  0.8805 -0.7718
  630TMC3    C7 9336   2.671   3.819  16.121  0.3661 -0.0929  0.7043
  630TMC3    C8 9337   2.458   4.195  16.056 -0.1478 -0.0705 -0.4348
  630TMC3    O1 9338   2.669   3.698  16.151 -0.3886  0.0656 -0.0332
  630TMC3    O2 9339   2.560   4.259  16.031 -0.4501  0.0068 -0.0378
  631MPD2     C 9340   0.253   2.886  15.481 -0.7627  0.1258 -0.5709
  631MPD2    C1 9341   0.293   2.965  15.369  0.5573  1.1807 -0.0041
  631MPD2    C2 9342   0.431   2.962  15.338 -0.8674  0.1535 -0.1741
  631MPD2    C3 9343   0.522   2.893  15.413  0.3633  0.3475  0.0083
  631MPD2    C4 9344   0.484   2.826  15.529 -0.0417 -0.1706 -0.0631
  631MPD2    C5 9345   0.348   2.824  15.556 -0.2127 -0.0377  0.3599
  631MPD2     H 9346   0.463   3.002  15.242 -1.2708  0.5453 -0.1440
  631MPD2    H1 9347   0.550   2.765  15.590 -0.7104 -0.5517  0.2887
  631MPD2    H2 9348   0.153   2.881  15.523 -0.7050  2.4512 -0.1675
  631MPD2    H3 9349   0.309   2.770  15.641 -2.4218 -1.4316 -1.5533
  631MPD2     N 9350   0.652   2.886  15.359  0.1513 -0.4037  0.0426
  631MPD2    H5 9351   0.670   2.928  15.269  1.8219 -2.0128 -0.3659
  631MPD2    N1 9352   0.199   3.045  15.300 -0.1187  0.1289 -0.8698
  631MPD2    H7 9353   0.104   3.046  15.336  0.2019 -1.5955  0.0253
  632TMC3    C1 9354   0.140   3.232  15.150 -0.2738 -0.0917  0.4112
  632TMC3    C2 9355   0.091   3.302  15.258  0.2747 -0.8105 -0.0362
  632TMC3    C3 9356   0.048   3.430  15.242  0.1805  0.0674  0.5064
  632TMC3    C4 9357   0.181   3.290  15.032  0.4804  0.9046  0.3866
  632TMC3    C5 9358   0.127   3.414  15.019 -0.2475  0.1634  0.2754
  632TMC3    C6 9359   0.059   3.477  15.115  0.3546  0.3318 -0.0467
  632TMC3     C 9360   0.226   3.117  15.183 -0.0886  0.5181  0.4333
  632TMC3     O 9361   0.323   3.102  15.107 -0.1687 -0.1476 -1.1726
  632TMC3     H 9362   0.078   3.260  15.357  2.1527  0.7014  0.8493
  632TMC3    H1 9363   0.210   3.233  14.945  0.5671 -1.2241  1.8237
  632TMC3    H2 9364   0.015   3.572  15.085 -0.5917  0.3323  1.3489
  632TMC3    C7 9365   0.212   3.505  14.944  0.4829  0.5930 -0.4082
  632TMC3    C8 9366   0.006   3.510  15.348  0.4970 -0.0702 -0.7550
  632TMC3    O1 9367   0.217   3.624  14.985  0.1233  0.1642 -0.8659
  632TMC3    O2 9368   4.633   3.586  15.324  0.1777 -0.1799 -0.2216
  633MPD2     C 9369   4.528   1.569  17.117  0.3765  0.3333  0.2865
  633MPD2    C1 9370   4.522   1.496  16.997 -0.7954 -0.0821  0.0122
  633MPD2    C2 9371   4.457   1.378  16.989 -0.7497 -0.3384 -0.3435
  633MPD2    C3 9372   4.390   1.324  17.100 -0.9626  0.0750  0.6574
  633MPD2    C4 9373   4.392   1.397  17.214 -0.4110  0.0421 -0.1363
  633MPD2    C5 9374   4.460   1.511  17.223  0.3616  0.5557 -0.3569
  633MPD2     H 9375   4.453   1.321  16.897 -0.5213  0.6143 -0.9476
  633MPD2    H1 9376   4.338   1.365  17.302  0.8653 -0.1450  0.5859
  633MPD2    H2 9377   4.598   1.650  17.133 -0.0183  1.3696 -3.3151
  633MPD2    H3 9378   4.475   1.546  17.324 -0.6929  2.3437 -0.8209
  633MPD2     N 9379   4.343   1.191  17.101  0.0418  0.1122  0.3092
  633MPD2    H5 9380   4.328   1.149  17.192 -0.6515 -3.3635 -1.3981
  633MPD2    N1 9381   4.600   1.535  16.885 -0.6453  0.2256 -0.1764
  633MPD2    H7 9382   4.617   1.467  16.812 -3.8133  1.9062 -2.5284
  634TMC3    C1 9383   4.693   1.680  16.736 -0.8284 -0.1660 -0.2073
  634TMC3    C2 9384   0.028   1.573  16.674  0.3654  0.8480  0.0431
  634TMC3    C3 9385   0.044   1.583  16.536  0.4120  0.3444 -0.5161
  634TMC3    C4 9386   4.629   1.781  16.665 -0.7349 -0.1184  0.5841
  634TMC3    C5 9387   4.649   1.785  16.531  0.0140  0.3831  0.0798
  634TMC3    C6 9388   4.711   1.687  16.456  0.3736 -0.0915  0.1120
  634TMC3     C 9389   4.660   1.658  16.875 -0.6266 -0.6356  0.4364
  634TMC3     O 9390   4.673   1.757  16.953  0.3312  1.0184  0.1953
  634TMC3     H 9391   0.064   1.492  16.736  0.4028  0.2965 -0.6944
  634TMC3    H1 9392   4.566   1.845  16.724 -0.7299 -1.5281  2.1130
  634TMC3    H2 9393   0.000   1.693  16.348 -0.3934  2.3321  0.1929
  634TMC3    C7 9394   4.569   1.871  16.448 -0.2843 -0.1099 -0.2730
  634TMC3    C8 9395   0.106   1.470  16.468 -0.0918 -0.1746 -0.3361
  634TMC3    O1 9396   4.582   1.855  16.330 -0.2854 -0.0463  0.4370
  634TMC3    O2 9397   0.127   1.379  16.545  0.2613 -0.1260  0.2851
  635TMC3    C1 9398   1.053   2.331  16.889 -0.2297  0.5821  0.0362
  635TMC3    C2 9399   1.115   2.212  16.900  0.3983 -0.5760 -0.3473
  635TMC3    C3 9400   1.076   2.110  16.813 -1.2158 -0.1297  0.5503
  635TMC3    C4 9401   0.963   2.360  16.793 -0.7030 -0.2924 -0.1250
  635TMC3    C5 9402   0.930   2.254  16.706  0.1653  0.3065 -0.4624
  635TMC3    C6 9403   0.983   2.129  16.715 -0.5468 -0.6202  0.0435
  635TMC3     C 9404   1.070   2.428  16.988  0.1706  0.0707 -0.0123
  635TMC3     O 9405   0.992   2.520  16.984 -0.1982 -0.9335 -0.5630
  635TMC3     H 9406   1.193   2.188  16.971 -0.9773 -1.0470  1.0011
  635TMC3    H1 9407   0.912   2.456  16.789 -2.0560 -0.9720  0.5254
  635TMC3    H2 9408   0.943   2.056  16.646 -0.5244  1.3115 -1.9879
  635TMC3    C7 9409   0.824   2.275  16.616  0.2507 -0.3472 -0.3557
  635TMC3    C8 9410   1.113   1.971  16.819 -0.2113  0.4255  0.0639
  635TMC3    O1 9411   0.729   2.340  16.655 -0.4713 -0.2825  0.1068
  635TMC3    O2 9412   1.053   1.886  16.753  0.0331  0.4586  0.2181
  636MPD2     C 9413   1.033   1.536  15.938 -0.0181 -0.6447 -0.0931
  636MPD2    C1 9414   1.125   1.544  16.035 -0.5713  0.2069 -0.6269
  636MPD2    C2 9415   1.158   1.426  16.101 -0.2267  0.5239 -0.6172
  636MPD2    C3 9416   1.086   1.305  16.082  0.1898 -0.8243 -0.6212
  636MPD2    C4 9417   0.979   1.306  15.994 -0.2929 -0.3906 -1.0830
  636MPD2    C5 9418   0.954   1.423  15.925 -0.0710  0.2227  0.0271
  636MPD2     H 9419   1.241   1.424  16.171  0.8972  0.1055 -1.9631
  636MPD2    H1 9420   0.921   1.215  15.985 -0.5722 -0.2764 -0.4210
  636MPD2    H2 9421   1.022   1.626  15.878  3.2204  0.4982  0.9958
  636MPD2    H3 9422   0.875   1.426  15.850  0.1307 -2.6460 -0.2823
  636MPD2     N 9423   1.112   1.182  16.148  0.3183  0.2850  0.4496
  636MPD2    H5 9424   1.176   1.186  16.227  1.3228 -1.2824 -0.2894
  636MPD2    N1 9425   1.200   1.660  16.065  0.3631 -0.4050 -0.8485
  636MPD2    H7 9426   1.253   1.638  16.149 -1.9689 -2.3655  0.1027
  637TMC3    C1 9427   1.172   0.953  16.163  0.1274 -0.2790  0.5095
  637TMC3    C2 9428   1.209   0.971  16.288 -0.0139  0.1051  0.1539
  637TMC3    C3 9429   1.326   0.928  16.343  0.1706 -0.1221  0.6035
  637TMC3    C4 9430   1.244   0.866  16.081 -0.0566 -0.1114  0.3255
  637TMC3    C5 9431   1.366   0.824  16.133 -0.9000  0.4958  0.4115
  637TMC3    C6 9432   1.403   0.843  16.268  0.0891 -0.2090  0.2110
  637TMC3     C 9433   1.094   1.051  16.094  0.0494  0.2288  0.2785
  637TMC3     O 9434   1.041   1.020  15.987  0.0555  0.4791 -0.1754
  637TMC3     H 9435   1.147   1.045  16.337 -1.8156 -2.2391  1.3975
  637TMC3    H1 9436   1.223   0.853  15.975  2.0147 -3.0206  0.2952
  637TMC3    H2 9437   1.506   0.837  16.301  0.5362  3.9123 -0.4858
  637TMC3    C7 9438   1.482   0.830  16.043  0.2591  0.7639 -0.1734
  637TMC3    C8 9439   1.402   1.048  16.370  0.7119 -0.4737 -1.0114
  637TMC3    O1 9440   1.582   0.871  16.096 -0.1017  0.1522  0.0684
  637TMC3    O2 9441   1.370   1.150  16.311  0.2554  0.4042 -0.6227
  638MPD2     C 9442   1.128   0.482  14.819 -0.4810 -0.0937  0.9201
  638MPD2    C1 9443   1.123   0.361  14.753  0.6593  0.9159 -0.5736
  638MPD2    C2 9444   1.067   0.250  14.823  0.3041  0.3019 -0.6300
  638MPD2    C3 9445   1.023   0.255  14.953  0.2664  0.4664  0.3749
  638MPD2    C4 9446   1.034   0.376  15.021  0.4344 -0.3577 -0.1875
  638MPD2    C5 9447   1.085   0.481  14.953  0.4335  0.3989  1.5472
  638MPD2     H 9448   1.067   0.156  14.767  3.7683  1.1523 -2.0565
  638MPD2    H1 9449   1.016   0.387  15.127 -4.2718 -0.7661 -0.9703
  638MPD2    H2 9450   1.170   0.573  14.779 -1.3603 -0.8115 -1.5975
  638MPD2    H3 9451   1.096   0.574  15.008  0.7553 -0.0338  2.2197
  638MPD2     N 9452   0.983   0.130  15.009  0.4427 -0.7241 -0.3811
  638MPD2    H5 9453   0.978   0.052  14.944  1.0753  0.9337 -2.4207
  638MPD2    N1 9454   1.188   0.347  14.624  0.2233  0.8924  0.6446
  638MPD2    H7 9455   1.237   0.431  14.596 -1.6516  1.8471  0.2064
  639TMC3    C1 9456   0.936   4.695  15.178  0.0165  0.0817  0.6359
  639TMC3    C2 9457   0.839   4.634  15.108 -0.7916  0.2402 -0.3580
  639TMC3    C3 9458   0.788   4.511  15.148  0.1833  0.8301 -0.0451
  639TMC3    C4 9459   1.000   4.627  15.280 -0.0690 -0.7212 -1.1016
  639TMC3    C5 9460   0.961   4.501  15.306  0.3665  0.1781  0.0728
  639TMC3    C6 9461   0.853   4.448  15.259 -0.2975  0.2504 -0.4534
  639TMC3     C 9462   0.971   0.112  15.141 -0.2980 -0.0617 -0.2118
  639TMC3     O 9463   0.992   0.186  15.237  0.3152  0.3646  0.1912
  639TMC3     H 9464   0.795   4.676  15.018 -1.7065 -1.2704 -0.6184
  639TMC3    H1 9465   1.090   4.674  15.320 -0.8172  1.7376 -2.2752
  639TMC3    H2 9466   0.832   4.343  15.280 -0.6900  0.7713  1.7395
  639TMC3    C7 9467   1.067   4.419  15.354  0.0829  0.5184  0.2513
  639TMC3    C8 9468   0.750   4.418  15.044 -0.2421 -0.0436  0.2343
  639TMC3    O1 9469   1.038   4.325  15.422  0.0315  0.2276  0.6252
  639TMC3    O2 9470   0.779   4.452  14.931  0.0812  0.4518 -0.1615
  640MPD2     C 9471   0.856   4.411   9.269  1.2403  0.3814  0.0790
  640MPD2    C1 9472   0.986   4.420   9.319  0.4936 -1.4832 -0.0935
  640MPD2    C2 9473   1.002   4.415   9.459  0.6286  0.2421  0.4407
  640MPD2    C3 9474   0.887   4.424   9.545  0.2251  0.3008  0.5620
  640MPD2    C4 9475   0.766   4.426   9.486 -0.5104 -0.4722  0.4636
  640MPD2    C5 9476   0.748   4.411   9.352  0.8362  0.2461  0.0687
  640MPD2     H 9477   1.103   4.414   9.498  0.7526 -0.5662  0.1032
  640MPD2    H1 9478   0.674   4.430   9.543  0.1106  0.8223  1.3866
  640MPD2    H2 9479   0.834   4.399   9.164 -1.6677  1.5944  0.5300
  640MPD2    H3 9480   0.645   4.410   9.318 -0.0401 -1.6683  2.7323
  640MPD2     N 9481   0.888   4.435   9.685 -0.0039 -0.4404 -0.4489
  640MPD2    H5 9482   0.798   4.423   9.731 -0.6735  3.1386 -0.7977
  640MPD2    N1 9483   1.090   4.426   9.231  0.4294  0.5424  0.2909
  640MPD2    H7 9484   1.064   4.436   9.133  2.2498 -0.1772 -0.2790
  641TMC3    C1 9485   1.311   4.433   9.145  0.2777  0.1281 -0.5945
  641TMC3    C2 9486   1.445   4.431   9.183  0.2513  0.4722  0.4210
  641TMC3    C3 9487   1.539   4.375   9.101  0.0537  0.2229 -0.9037
  641TMC3    C4 9488   1.274   4.357   9.034  0.1024  0.4166  0.0125
  641TMC3    C5 9489   1.375   4.307   8.952  0.8243  0.3107  0.1901
  641TMC3    C6 9490   1.508   4.314   8.985 -0.0117  0.7987 -0.0586
  641TMC3     C 9491   1.223   4.445   9.261  0.3814 -0.6575 -0.3911
  641TMC3     O 9492   1.270   4.477   9.369  0.0780  0.7492  0.0939
  641TMC3     H 9493   1.487   4.496   9.259  1.9478 -2.0523  1.6761
  641TMC3    H1 9494   1.169   4.334   9.020  0.8573 -1.4711 -2.5563
  641TMC3    H2 9495   1.588   4.270   8.927  0.4652  1.3978  0.1507
  641TMC3    C7 9496   1.330   4.184   8.893  0.2643  0.0673  0.6617
  641TMC3    C8 9497   1.633   4.292   9.168 -0.2227  0.6605 -0.0484
  641TMC3    O1 9498   1.223   4.187   8.835 -0.2530  0.5554 -0.1122
  641TMC3    O2 9499   1.654   4.181   9.118 -0.1533  0.2099 -0.0541
  642TMC3    C1 9500   2.700   0.000  12.071  0.2902 -0.1005 -0.9476
  642TMC3    C2 9501   2.663   4.679  12.195  0.4945  0.5363 -0.5828
  642TMC3    C3 9502   2.630   4.546  12.208  0.0431  0.8608 -0.1613
  642TMC3    C4 9503   2.663   4.646  11.961  0.6883  0.7819  0.1836
  642TMC3    C5 9504   2.623   4.519  11.977 -0.0061  0.1666 -0.5178
  642TMC3    C6 9505   2.626   4.459  12.103 -0.3677 -0.8999 -0.8809
  642TMC3     C 9506   2.695   0.144  12.045  0.2436 -0.3128  0.4749
  642TMC3     O 9507   2.765   0.190  11.957 -0.8132 -0.7017 -0.1938
  642TMC3     H 9508   2.663   0.029  12.278  1.8637 -0.3313  0.1519
  642TMC3    H1 9509   2.672   4.701  11.868  1.3786  1.3877  0.6113
  642TMC3    H2 9510   2.621   4.353  12.125 -1.0985 -0.6049  0.3944
  642TMC3    C7 9511   2.550   4.453  11.869  0.6386 -0.2774  0.1519
  642TMC3    C8 9512   2.616   4.492  12.346 -0.1284  0.5363  0.6435
  642TMC3    O1 9513   2.590   4.484  11.762 -0.2127 -0.3201 -0.4274
  642TMC3    O2 9514   2.537   4.398  12.353 -0.5159 -0.3265  0.5829
  643TMC3    C1 9515   2.057   4.166   0.308  0.0423  0.0191 -1.1695
  643TMC3    C2 9516   1.948   4.177   0.220 -0.1955  0.4460 -0.4869
  643TMC3    C3 9517   1.959   4.098   0.109  0.0289 -0.7565 -0.4571
  643TMC3    C4 9518   2.176   4.102   0.274 -0.7253  0.2768 -0.2617
  643TMC3    C5 9519   2.184   4.053   0.148 -0.2103  0.3472 -0.0223
  643TMC3    C6 9520   2.074   4.038   0.068  0.3742 -0.3873 -0.6485
  643TMC3     C 9521   2.057   4.265   0.416  0.3032 -0.0025  0.5948
  643TMC3     O 9522   1.988   4.365   0.401  0.7361  0.5050  0.1417
  643TMC3     H 9523   1.859   4.221   0.265  0.8243  1.1110  0.8753
  643TMC3    H1 9524   2.261   4.120   0.339 -1.0867 -2.0153  0.8264
  643TMC3    H2 9525   2.071   3.995  17.653 -0.4691  1.6030 -1.5014
  643TMC3    C7 9526   2.289   4.119   0.071  0.1103 -0.0543 -0.1065
  643TMC3    C8 9527   1.890   4.141  17.676  0.3934 -0.0487  0.5082
  643TMC3    O1 9528   2.277   4.238   0.093  0.4563 -0.1143 -0.1209
  643TMC3    O2 9529   1.857   4.065  17.584  0.0552  0.3854  0.2528
  644MPD2     C 9530   2.160   3.648   9.254  0.4736 -0.4382  0.2219
  644MPD2    C1 9531   2.190   3.687   9.376  0.4435 -0.7341 -0.2396
  644MPD2    C2 9532   2.250   3.593   9.458 -0.0488 -0.9176  0.1300
  644MPD2    C3 9533   2.272   3.467   9.420  0.5072  0.0079 -0.1255
  644MPD2    C4 9534   2.237   3.426   9.294 -0.3614  0.3547  0.2290
  644MPD2    C5 9535   2.183   3.519   9.207  0.2365  0.0628  0.0105
  644MPD2     H 9536   2.279   3.602   9.563  0.8335 -0.3202 -0.1707
  644MPD2    H1 9537   2.241   3.326   9.253  1.3368  0.9285 -1.0130
  644MPD2    H2 9538   2.105   3.714   9.188 -0.3171 -1.2590  0.0472
  644MPD2    H3 9539   2.159   3.485   9.107 -0.8597 -0.7277  0.5457
  644MPD2     N 9540   2.359   3.387   9.505  0.2851  0.1264 -0.2092
  644MPD2    H5 9541   2.379   3.427   9.596  0.4233 -0.2473 -0.0736
  644MPD2    N1 9542   2.175   3.825   9.404 -0.0223 -0.1814 -0.1893
  644MPD2    H7 9543   2.122   3.882   9.339  2.8181  0.6943 -1.7092
  645TMC3    C1 9544   2.514   3.215   9.551  0.4244 -0.7584  0.1866
  645TMC3    C2 9545   2.590   3.305   9.622  0.0044 -0.5043  0.7464
  645TMC3    C3 9546   2.692   3.258   9.702  0.0442 -0.5003  0.1397
  645TMC3    C4 9547   2.546   3.079   9.559 -0.5498  0.7038 -0.2166
  645TMC3    C5 9548   2.657   3.036   9.632  0.6278 -0.0233  0.2576
  645TMC3    C6 9549   2.723   3.125   9.708  0.1053 -0.4443 -0.4973
  645TMC3     C 9550   2.403   3.264   9.468  0.2672  0.1454  0.0676
  645TMC3     O 9551   2.349   3.181   9.400  0.2476 -0.1246  0.2029
  645TMC3     H 9552   2.596   3.411   9.600 -1.9942 -0.4647  0.3856
  645TMC3    H1 9553   2.493   3.013   9.491 -0.9085 -0.2943  1.0480
  645TMC3    H2 9554   2.803   3.082   9.768  1.2003  0.5788 -1.2205
  645TMC3    C7 9555   2.716   2.899   9.617 -0.0411  0.0543  0.2615
  645TMC3    C8 9556   2.788   3.355   9.739  0.0522 -0.1483 -0.6851
  645TMC3    O1 9557   2.635   2.815   9.584 -0.1412  0.4993  0.2353
  645TMC3    O2 9558   2.785   3.470   9.693  0.2652  0.3073  0.1221
  646MPD2     C 9559   1.383   3.542  14.479 -0.1956 -0.1965  0.1928
  646MPD2    C1 9560   1.302   3.573  14.588  0.4112 -0.1974  0.0895
  646MPD2    C2 9561   1.186   3.646  14.568 -0.7204  0.4422 -0.2520
  646MPD2    C3 9562   1.159   3.701  14.443  0.7329  0.3229 -0.3509
  646MPD2    C4 9563   1.241   3.677  14.334 -0.5879  0.1230 -0.4335
  646MPD2    C5 9564   1.348   3.591  14.353  0.4534  0.4343  0.8538
  646MPD2     H 9565   1.122   3.670  14.652 -1.0155  1.4472 -0.7652
  646MPD2    H1 9566   1.221   3.719  14.237 -1.2300  0.1399 -0.2969
  646MPD2    H2 9567   1.470   3.483  14.503  0.9449  0.5180 -2.2122
  646MPD2    H3 9568   1.399   3.558  14.264 -1.2102  1.2963 -0.4278
  646MPD2     N 9569   1.048   3.784  14.440  0.5834  0.0038  0.3517
  646MPD2    H5 9570   0.967   3.758  14.494  1.0765  1.9712  2.0843
  646MPD2    N1 9571   1.344   3.515  14.708 -0.2187 -0.5183  0.1659
  646MPD2    H7 9572   1.427   3.457  14.699  0.2952  0.2008  0.2573
  647TMC3    C1 9573   1.350   3.478  14.942  0.2493  0.2011  0.0626
  647TMC3    C2 9574   1.276   3.448  15.055  0.9180  0.4901 -0.1952
  647TMC3    C3 9575   1.339   3.428  15.177  0.2669  0.1690  0.0756
  647TMC3    C4 9576   1.486   3.492  14.959  0.0306 -0.2260 -0.4546
  647TMC3    C5 9577   1.537   3.497  15.084 -0.1285 -0.4271  0.9927
  647TMC3    C6 9578   1.462   3.468  15.198  0.4942 -0.0847  0.4924
  647TMC3     C 9579   1.269   3.519  14.830  0.4147 -0.1011 -0.4380
  647TMC3     O 9580   1.155   3.562  14.850 -0.2134  0.4105  0.1479
  647TMC3     H 9581   1.170   3.433  15.041  0.6828  3.5842 -1.8887
  647TMC3    H1 9582   1.553   3.519  14.877  0.2707 -0.6173 -0.3846
  647TMC3    H2 9583   1.513   3.432  15.286  0.1814  0.1578  0.7751
  647TMC3    C7 9584   1.651   3.415  15.097 -0.3939 -0.5229 -0.2162
  647TMC3    C8 9585   1.320   3.293  15.225  0.5880  0.8873  0.9474
  647TMC3    O1 9586   1.712   3.421  15.205 -0.4653 -0.1101  0.1805
  647TMC3    O2 9587   1.354   3.268  15.341  0.3050  0.3951 -0.4137
  648TMC3    C1 9588   0.578   1.446  15.834  0.0651 -0.9473 -0.1037
  648TMC3    C2 9589   0.584   1.315  15.798 -0.0517  0.2090  0.7750
  648TMC3    C3 9590   0.539   1.277  15.677 -0.2555  0.2216  0.3369
  648TMC3    C4 9591   0.521   1.544  15.752  0.4782  0.0192 -0.0468
  648TMC3    C5 9592   0.472   1.506  15.628  0.0175  0.7238  0.3068
  648TMC3    C6 9593   0.476   1.369  15.594  0.5746  0.4666 -0.8073
  648TMC3     C 9594   0.607   1.484  15.970 -0.2776  0.0167  0.6105
  648TMC3     O 9595   0.620   1.602  15.995 -0.5901  0.2675  0.8060
  648TMC3     H 9596   0.641   1.238  15.850  1.4795  2.0594  1.8265
  648TMC3    H1 9597   0.519   1.649  15.779 -1.9985 -0.0216 -0.0474
  648TMC3    H2 9598   0.411   1.333  15.515  1.3922  0.0413 -1.2924
  648TMC3    C7 9599   0.389   1.586  15.541  0.1525  0.0434  0.5951
  648TMC3    C8 9600   0.517   1.138  15.652 -0.3536 -0.1665  0.6516
  648TMC3    O1 9601   0.371   1.546  15.428 -0.0567  0.1399  0.1433
  648TMC3    O2 9602   0.410   1.106  15.601 -0.2798  0.1902 -0.7959
  649TMC3    C1 9603   3.564   2.265  12.763  0.2033  0.0309 -0.0454
  649TMC3    C2 9604   3.683   2.321  12.763 -0.2486 -0.7453  0.1957
  649TMC3    C3 9605   3.767   2.287  12.867  0.2987 -0.6358 -0.6076
  649TMC3    C4 9606   3.517   2.174  12.855 -0.0918  0.3651 -0.5603
  649TMC3    C5 9607   3.594   2.150  12.964  0.6041  0.8410 -0.0520
  649TMC3    C6 9608   3.716   2.214  12.972  0.7913 -0.6127  0.7854
  649TMC3     C 9609   3.467   2.297  12.657  0.9101 -0.5054 -0.3326
  649TMC3     O 9610   3.351   2.294  12.695  0.3639 -0.0346 -0.4675
  649TMC3     H 9611   3.704   2.388  12.680 -0.8294 -1.2319 -0.3458
  649TMC3    H1 9612   3.422   2.122  12.846 -1.2827  2.2137  1.2589
  649TMC3    H2 9613   3.780   2.204  13.059 -1.4646  0.1407  2.5218
  649TMC3    C7 9614   3.525   2.095  13.079 -0.7057 -0.6798  0.3160
  649TMC3    C8 9615   3.878   2.365  12.894  0.2465  0.1033  0.0397
  649TMC3    O1 9616   3.404   2.095  13.072  0.6625  0.1913 -0.3873
  649TMC3    O2 9617   3.925   2.353  13.008 -0.4128  0.4038 -0.7521
  650TMC3    C1 9618   1.900   4.319  12.906  0.2396  0.1610  0.1645
  650TMC3    C2 9619   1.891   4.437  12.842 -0.0450  0.2705  0.9413
  650TMC3    C3 9620   1.769   4.463  12.792 -0.0267  0.3467 -0.0824
  650TMC3    C4 9621   1.794   4.236  12.935  0.3638 -0.2798 -0.4093
  650TMC3    C5 9622   1.674   4.265  12.871  0.1703 -0.3555  0.2777
  650TMC3    C6 9623   1.667   4.378  12.794 -0.3653  0.5451  0.3200
  650TMC3     C 9624   2.029   4.259  12.894 -0.2404 -0.1033  0.4038
  650TMC3     O 9625   2.130   4.323  12.916  0.6319 -0.3156  0.3192
  650TMC3     H 9626   1.981   4.497  12.838 -0.0080  0.2380  1.2701
  650TMC3    H1 9627   1.804   4.139  12.983 -1.8012  0.2329  1.0831
  650TMC3    H2 9628   1.575   4.388  12.736 -0.3615 -0.7976  0.0903
  650TMC3    C7 9629   1.623   4.141  12.814 -0.0148  1.2082  0.2489
  650TMC3    C8 9630   1.768   4.581  12.717 -0.4079  0.7381 -0.2498
  650TMC3    O1 9631   1.599   4.050  12.893 -0.5084  0.8408  0.4590
  650TMC3    O2 9632   1.870   4.641  12.699  0.1399 -0.0886 -0.0661
  651MPD2     C 9633   0.782   1.066  10.855 -0.7483  0.3550  0.1633
  651MPD2    C1 9634   0.776   1.199  10.872  0.2532 -0.0517  0.2483
  651MPD2    C2 9635   0.881   1.278  10.842  0.4578 -0.0594 -0.0330
  651MPD2    C3 9636   0.998   1.223  10.795 -0.4692  0.2600 -0.1865
  651MPD2    C4 9637   1.009   1.088  10.779 -0.4641 -0.5194 -1.0105
  651MPD2    C5 9638   0.900   1.010  10.814 -0.3981  0.1776 -0.8060
  651MPD2     H 9639   0.876   1.386  10.850  2.9403  0.0863 -0.6048
  651MPD2    H1 9640   1.089   1.036  10.728 -0.9674 -1.7392 -0.5406
  651MPD2    H2 9641   0.704   0.993  10.872 -0.0376 -0.6407 -0.8972
  651MPD2    H3 9642   0.895   0.906  10.783  0.6216  0.1167 -0.7549
  651MPD2     N 9643   1.100   1.317  10.764 -0.4588  0.3642 -0.2715
  651MPD2    H5 9644   1.083   1.416  10.755  0.2045  0.5210  0.1483
  651MPD2    N1 9645   0.655   1.264  10.907 -0.7791  0.3112  0.5165
  651MPD2    H7 9646   0.656   1.366  10.914 -1.0366  0.3576 -0.1094
  652TMC3    C1 9647   1.502   1.479  10.608  0.8135 -0.7904  0.0379
  652TMC3    C2 9648   1.437   1.371  10.662 -0.5710  0.5930 -0.2730
  652TMC3    C3 9649   1.318   1.399  10.717  0.1661 -0.2240 -0.6272
  652TMC3    C4 9650   1.460   1.609  10.628 -0.0550 -0.2520 -0.4176
  652TMC3    C5 9651   1.346   1.631  10.696 -0.4008  0.9592 -0.0691
  652TMC3    C6 9652   1.275   1.523  10.749  0.2156 -0.3665 -0.0202
  652TMC3     C 9653   1.642   1.471  10.631 -0.1710 -0.1827 -0.0490
  652TMC3     O 9654   1.673   1.394  10.724  0.0011  0.2126 -0.2574
  652TMC3     H 9655   1.471   1.269  10.657  0.4650  0.9549 -0.5821
  652TMC3    H1 9656   1.527   1.684  10.587 -2.0652  2.1521  0.6833
  652TMC3    H2 9657   1.186   1.534  10.811  0.2963 -0.9210  0.1929
  652TMC3    C7 9658   1.337   1.740  10.784  0.3346 -0.5093 -0.2814
  652TMC3    C8 9659   1.232   1.284  10.735  0.2689 -0.1091 -0.3610
  652TMC3    O1 9660   1.257   1.722  10.878 -0.2931  0.1909  0.2225
  652TMC3    O2 9661   1.278   1.170  10.719 -0.5277 -0.4650 -0.9139
  653MPD2     C 9662   4.510   1.581   0.206  0.4956 -0.1079 -0.0448
  653MPD2    C1 9663   4.515   1.661   0.089 -0.6072  0.2111 -0.6959
  653MPD2    C2 9664   4.443   1.620  17.670 -0.2797  0.3466 -0.4387
  653MPD2    C3 9665   4.364   1.506  17.678  0.1712 -0.3995 -0.0885
  653MPD2    C4 9666   4.365   1.431   0.111  0.1413  0.2459 -0.4944
  653MPD2    C5 9667   4.443   1.463   0.214  0.3575  0.4357  0.2102
  653MPD2     H 9668   4.437   1.678  17.578 -1.7017 -0.5612 -0.9154
  653MPD2    H1 9669   4.307   1.341   0.130  0.5934 -0.2706 -1.6003
  653MPD2    H2 9670   4.571   1.603   0.293  1.6069  0.1579 -0.8909
  653MPD2    H3 9671   4.439   1.402   0.303 -1.6929 -0.5853 -0.5876
  653MPD2     N 9672   4.284   1.468  17.564  0.4183 -0.4206 -0.1400
  653MPD2    H5 9673   4.280   1.546  17.499 -3.1585 -0.0732  0.5024
  653MPD2    N1 9674   4.587   1.784   0.085  0.1251 -0.8106 -0.1498
  653MPD2    H7 9675   4.629   1.813   0.173 -1.6297 -2.6285  1.2633
  654TMC3    C1 9676   4.133   1.337  17.439 -0.8354  0.1547  0.4724
  654TMC3    C2 9677   4.092   1.446  17.372 -0.6681  0.7552  0.2064
  654TMC3    C3 9678   4.008   1.435  17.269  0.3964 -0.3608  0.2589
  654TMC3    C4 9679   4.086   1.210  17.407  0.3261 -0.2909 -0.2471
  654TMC3    C5 9680   3.978   1.204  17.324 -0.0884  0.5366  0.3511
  654TMC3    C6 9681   3.949   1.314  17.245 -0.4683  0.3258 -0.0302
  654TMC3     C 9682   4.220   1.349  17.556  0.5302 -1.1215  0.2558
  654TMC3     O 9683   4.222   1.247  17.624 -0.5478 -0.3558  0.5831
  654TMC3     H 9684   4.113   1.549  17.395 -0.1438  0.8650 -0.7403
  654TMC3    H1 9685   4.106   1.123  17.469 -1.5899 -0.5082  0.0667
  654TMC3    H2 9686   3.880   1.306  17.162  0.7845  0.8179 -1.1306
  654TMC3    C7 9687   3.933   1.075  17.269 -0.1013 -0.2040  0.3284
  654TMC3    C8 9688   3.939   1.557  17.220  0.1877  0.5538 -0.1751
  654TMC3    O1 9689   3.840   1.080  17.188  0.4223 -0.1537  0.1761
  654TMC3    O2 9690   3.908   1.642  17.303 -0.4071  0.0910 -0.1157
  655MPD2     C 9691   0.960   1.556  15.532 -0.0166 -0.6484 -0.1680
  655MPD2    C1 9692   0.860   1.597  15.459 -0.5232 -0.3100  0.2746
  655MPD2    C2 9693   0.816   1.530  15.345  0.4190 -0.3508  0.4994
  655MPD2    C3 9694   0.895   1.425  15.299  0.2354 -0.8193  0.4730
  655MPD2    C4 9695   1.009   1.394  15.366  0.4538 -0.1340 -0.1356
  655MPD2    C5 9696   1.043   1.461  15.479 -0.3410  0.2620 -0.1735
  655MPD2     H 9697   0.735   1.566  15.282  1.0859 -0.6216 -0.5125
  655MPD2    H1 9698   1.065   1.306  15.336  1.2045 -0.1078  1.2120
  655MPD2    H2 9699   0.992   1.604  15.624  0.8330  2.8963 -2.3442
  655MPD2    H3 9700   1.134   1.433  15.530 -1.1815 -2.5983 -0.2421
  655MPD2     N 9701   0.853   1.342  15.198  0.0070 -0.3050 -0.5871
  655MPD2    H5 9702   0.909   1.262  15.171 -1.9490 -1.6033 -0.7959
  655MPD2    N1 9703   0.794   1.721  15.489 -0.7468  0.3026  0.3745
  655MPD2    H7 9704   0.727   1.755  15.420  0.5319 -0.1025 -1.0801
  656TMC3    C1 9705   0.724   1.912  15.604  0.8303 -0.1404  0.2145
  656TMC3    C2 9706   0.659   1.942  15.720  0.0276  0.0331  0.0482
  656TMC3    C3 9707   0.539   2.017  15.713 -0.2774 -0.0962  0.5520
  656TMC3    C4 9708   0.680   1.955  15.480 -0.1801  0.1913  0.0266
  656TMC3    C5 9709   0.569   2.033  15.485 -0.0228  0.1435  1.2145
  656TMC3    C6 9710   0.493   2.060  15.592  0.1491 -0.1298 -0.6323
  656TMC3     C 9711   0.800   1.790  15.609 -0.1219  0.2414  0.1307
  656TMC3     O 9712   0.838   1.760  15.719  0.4134  0.6928  0.1507
  656TMC3     H 9713   0.687   1.890  15.811  0.7675 -0.7792 -0.6439
  656TMC3    H1 9714   0.723   1.938  15.382  2.3356 -0.9040  1.3040
  656TMC3    H2 9715   0.399   2.112  15.605  0.2672  0.2059 -1.1471
  656TMC3    C7 9716   0.536   2.121  15.370 -0.4844 -0.5777  0.1749
  656TMC3    C8 9717   0.438   1.977  15.808  0.2392 -0.0835 -0.3444
  656TMC3    O1 9718   0.622   2.142  15.285 -0.0598 -0.9214  0.4578
  656TMC3    O2 9719   0.441   1.861  15.840  0.3004  0.2579 -0.2432
  657TMC3    C1 9720   4.548   0.646  15.022  0.2363 -0.1831  0.0452
  657TMC3    C2 9721   4.606   0.615  15.146 -0.5383 -0.0225  0.6941
  657TMC3    C3 9722   4.569   0.691  15.258  0.1048 -0.3505 -0.0548
  657TMC3    C4 9723   4.449   0.735  15.010  0.7313 -0.6359  0.0539
  657TMC3    C5 9724   4.409   0.807  15.123  1.1194  0.3107 -0.0532
  657TMC3    C6 9725   4.467   0.785  15.248  0.0274  0.2759  1.1296
  657TMC3     C 9726   4.580   0.557  14.917 -0.2529  0.2497  0.3346
  657TMC3     O 9727   4.503   0.560  14.818  0.1084 -0.4346  0.1911
  657TMC3     H 9728   4.652   0.520  15.167  1.2482  0.1913 -2.2980
  657TMC3    H1 9729   4.407   0.749  14.911  0.3781 -1.8627  0.0232
  657TMC3    H2 9730   4.440   0.837  15.338  0.5056  1.6085  0.5007
  657TMC3    C7 9731   4.278   0.879  15.121 -0.4266  0.4638  0.3902
  657TMC3    C8 9732   4.549   0.612  15.374  0.2925 -0.0640  0.2087
  657TMC3    O1 9733   4.223   0.886  15.227  0.3703  0.3143 -0.0546
  657TMC3    O2 9734   4.625   0.630  15.471 -1.0109  0.3290  0.0792
  658MPD2     C 9735   1.054   1.246  14.495 -1.0392 -0.4783  0.3885
  658MPD2    C1 9736   0.919   1.280  14.503 -0.3602 -0.5145 -0.1511
  658MPD2    C2 9737   0.864   1.366  14.407  0.0735  0.5127  0.3181
  658MPD2    C3 9738   0.937   1.422  14.307 -0.8215 -0.0514  0.8519
  658MPD2    C4 9739   1.070   1.386  14.300  0.2512  0.1921 -0.5238
  658MPD2    C5 9740   1.130   1.305  14.394 -1.6721  0.1242 -0.5836
  658MPD2     H 9741   0.760   1.396  14.414 -0.3278 -0.3033 -2.2109
  658MPD2    H1 9742   1.141   1.419  14.225  1.3152 -0.2681  0.2781
  658MPD2    H2 9743   1.111   1.177  14.556  1.9895  0.6018 -1.2237
  658MPD2    H3 9744   1.238   1.298  14.397 -1.5052  2.8615  0.1910
  658MPD2     N 9745   0.870   1.511  14.221 -0.7412  0.2358  0.1312
  658MPD2    H5 9746   0.770   1.521  14.237 -0.6535  2.1770 -0.5469
  658MPD2    N1 9747   0.836   1.242  14.609 -0.1694 -0.2352  0.1779
  658MPD2    H7 9748   0.742   1.280  14.610 -1.2074 -2.8000  0.0754
  659TMC3    C1 9749   0.779   1.166  14.824 -0.3567 -0.7302 -0.0763
  659TMC3    C2 9750   0.806   1.221  14.947  0.0343 -0.2068 -0.5221
  659TMC3    C3 9751   0.697   1.257  15.030 -0.8913 -0.1692 -0.7088
  659TMC3    C4 9752   0.652   1.136  14.788 -0.5722  0.1627 -0.4646
  659TMC3    C5 9753   0.549   1.169  14.866  0.2607  0.5416 -0.3813
  659TMC3    C6 9754   0.569   1.232  14.988 -0.0818 -0.5265 -0.5476
  659TMC3     C 9755   0.879   1.179  14.723  0.4251  0.3188  0.0585
  659TMC3     O 9756   0.979   1.114  14.742  0.3990  0.4302  0.1256
  659TMC3     H 9757   0.905   1.258  14.970  0.5965 -0.1796 -2.9718
  659TMC3    H1 9758   0.631   1.094  14.691 -1.0582 -0.1247 -0.2343
  659TMC3    H2 9759   0.487   1.250  15.057 -1.4037 -3.7432 -1.3019
  659TMC3    C7 9760   0.409   1.136  14.839 -0.3232  0.6342  0.1409
  659TMC3    C8 9761   0.726   1.354  15.139  0.1708 -0.0478  0.3145
  659TMC3    O1 9762   0.332   1.214  14.885 -0.8666 -0.2461  0.4134
  659TMC3    O2 9763   0.634   1.435  15.162  0.9575 -0.0825 -0.4214
  660MPD2     C 9764   4.017   4.673  12.891 -0.6630  0.2769  0.2678
  660MPD2    C1 9765   3.897   4.611  12.850 -0.2499  0.0969 -1.0187
  660MPD2    C2 9766   3.801   4.579  12.947 -0.2088 -0.0194  0.4148
  660MPD2    C3 9767   3.829   4.592  13.076 -0.5130  0.0538 -0.4671
  660MPD2    C4 9768   3.953   4.641  13.119 -0.0592  0.1648 -0.0533
  660MPD2    C5 9769   4.040   4.685  13.027  0.5521 -0.0531 -0.1404
  660MPD2     H 9770   3.708   4.528  12.924  0.5893  0.3072 -3.5564
  660MPD2    H1 9771   3.964   4.655  13.225  2.7271  0.3927 -0.3766
  660MPD2    H2 9772   4.090   4.709  12.819  0.3767  1.2158  1.7913
  660MPD2    H3 9773   4.135   0.006  13.060 -0.0791  0.7315  0.6841
  660MPD2     N 9774   3.733   4.550  13.170 -0.1984 -0.2379 -0.1906
  660MPD2    H5 9775   3.771   4.541  13.263 -0.5930 -1.1919 -0.1242
  660MPD2    N1 9776   3.873   4.600  12.705  0.0430 -0.3678  0.2284
  660MPD2    H7 9777   3.933   4.650  12.640  0.0319  0.5694  0.9469
  661TMC3    C1 9778   3.724   4.580  12.514 -0.0336 -0.5883 -0.0274
  661TMC3    C2 9779   3.789   4.675  12.440 -0.2103 -0.2908 -1.1695
  661TMC3    C3 9780   3.759   4.683  12.306 -0.5553 -0.9631 -0.3255
  661TMC3    C4 9781   3.623   4.508  12.458 -0.8173  0.1273  0.2145
  661TMC3    C5 9782   3.598   4.516  12.326 -0.1916 -0.4297 -0.2543
  661TMC3    C6 9783   3.664   4.610  12.252  0.6431  0.1840 -0.0290
  661TMC3     C 9784   3.750   4.561  12.654 -0.0516 -0.2860  0.0442
  661TMC3     O 9785   3.658   4.506  12.714  0.1372  0.0033 -0.1549
  661TMC3     H 9786   3.866   0.017  12.483 -0.5223  0.3915 -1.5965
  661TMC3    H1 9787   3.586   4.427  12.519 -0.4568  0.5816  1.0430
  661TMC3    H2 9788   3.652   4.618  12.145 -0.1224 -1.7686 -0.0946
  661TMC3    C7 9789   3.470   4.468  12.291  0.2607 -0.8308  0.1566
  661TMC3    C8 9790   3.833   0.050  12.217 -0.2866 -0.4082  0.1759
  661TMC3    O1 9791   3.418   4.385  12.364 -0.7984  0.4901  0.0151
  661TMC3    O2 9792   3.836   0.030  12.097 -0.4737 -0.4970 -0.2059
  662MPD2     C 9793   3.903   0.689   0.243  0.4311 -0.0432 -0.1807
  662MPD2    C1 9794   3.854   0.571   0.287 -0.1340  0.2582 -0.0312
  662MPD2    C2 9795   3.725   0.575   0.344  0.0448 -0.5050  0.6561
  662MPD2    C3 9796   3.648   0.690   0.348 -0.2848  0.1665 -0.5027
  662MPD2    C4 9797   3.700   0.807   0.293 -0.0818  0.5285 -0.1590
  662MPD2    C5 9798   3.820   0.803   0.238 -0.2258 -0.3569 -0.0734
  662MPD2     H 9799   3.685   0.487   0.393  2.2940 -1.5234  0.6518
  662MPD2    H1 9800   3.659   0.906   0.310  1.2575  1.1768 -0.7560
  662MPD2    H2 9801   4.003   0.701   0.201  1.8673 -1.7392  2.7594
  662MPD2    H3 9802   3.853   0.901   0.205  1.6296 -1.0785 -0.3791
  662MPD2     N 9803   3.514   0.697   0.405 -0.5616  0.1463 -0.0512
  662MPD2    H5 9804   3.458   0.780   0.394  0.5957  0.8717 -0.4794
  662MPD2    N1 9805   3.925   0.453   0.272  0.1070  0.0294 -0.3086
  662MPD2    H7 9806   4.015   0.449   0.226  0.2966 -1.5017  0.1916
  663TMC3    C1 9807   3.947   0.227   0.227  0.6455  0.9683 -0.2219
  663TMC3    C2 9808   4.019   0.144   0.317  0.3917 -0.9388  0.4980
  663TMC3    C3 9809   4.123   0.078   0.268  0.1979 -0.3947 -0.3427
  663TMC3    C4 9810   3.986   0.237   0.095  0.2838 -0.7314 -0.2045
  663TMC3    C5 9811   4.079   0.148   0.050 -1.3054 -0.1539  0.0383
  663TMC3    C6 9812   4.136   0.062   0.134 -0.3082 -1.0974  0.3730
  663TMC3     C 9813   3.874   0.332   0.294  0.1059 -0.1963 -0.2472
  663TMC3     O 9814   3.790   0.289   0.370  0.4425 -0.2199 -0.7393
  663TMC3     H 9815   4.017   0.178   0.420  0.0591 -0.8886  0.4762
  663TMC3    H1 9816   3.939   0.314   0.035 -0.1191 -1.5619 -0.9492
  663TMC3    H2 9817   4.217   0.003   0.092  0.2145  0.0052 -0.1826
  663TMC3    C7 9818   4.073   0.126  17.593 -0.8738 -0.8146  0.1046
  663TMC3    C8 9819   4.134   4.671   0.334 -0.5358  0.9971 -0.0981
  663TMC3    O1 9820   4.047   0.225  17.528  0.3153  0.0022 -0.1822
  663TMC3    O2 9821   4.231   4.604   0.321  0.4296  1.2500 -0.2474
  664MPD2     C 9822   2.266   3.090  17.007 -0.2123 -0.6911  0.0477
  664MPD2    C1 9823   2.263   3.217  17.074 -1.2575 -0.5342 -0.6194
  664MPD2    C2 9824   2.225   3.219  17.206 -0.3184  0.2338 -0.2331
  664MPD2    C3 9825   2.178   3.099  17.266 -0.0665 -0.0304 -0.8119
  664MPD2    C4 9826   2.181   2.974  17.200  0.6588 -0.1421  0.2079
  664MPD2    C5 9827   2.232   2.971  17.075  0.5304 -0.6850  0.5606
  664MPD2     H 9828   2.217   3.317  17.253  0.2524  1.1339 -2.0200
  664MPD2    H1 9829   2.163   2.881  17.253  0.2059  1.2401  2.4892
  664MPD2    H2 9830   2.295   3.068  16.905 -1.1254  2.0715 -0.8027
  664MPD2    H3 9831   2.255   2.880  17.021  0.5855 -0.7557  0.7037
  664MPD2     N 9832   2.145   3.115  17.402  0.5550  0.6879 -0.4172
  664MPD2    H5 9833   2.162   3.206  17.444 -0.0556  0.1870  0.9164
  664MPD2    N1 9834   2.301   3.338  17.013 -0.1547  0.1325 -0.0377
  664MPD2    H7 9835   2.276   3.421  17.065 -1.5732  0.2419 -0.9028
  665TMC3    C1 9836   2.046   3.070  17.608  0.1012  0.0644 -0.1273
  665TMC3    C2 9837   1.925   3.049  17.663  0.5169 -1.0776  0.1024
  665TMC3    C3 9838   1.886   3.110   0.091 -0.2668  0.0188 -0.1576
  665TMC3    C4 9839   2.136   3.148  17.677 -0.0101  0.3075  0.7187
  665TMC3    C5 9840   2.105   3.191   0.114 -0.5941 -0.3014 -0.0492
  665TMC3    C6 9841   1.979   3.178   0.164 -0.1592 -0.5069 -0.5855
  665TMC3     C 9842   2.069   3.024  17.476 -0.0246  0.3426 -0.4321
  665TMC3     O 9843   2.025   2.913  17.447  0.0803  0.3638  0.1355
  665TMC3     H 9844   1.857   2.984  17.610 -1.9520  2.8239 -1.4742
  665TMC3    H1 9845   2.239   3.151  17.646 -0.5667 -2.6102 -1.3802
  665TMC3    H2 9846   1.950   3.247   0.242  1.4817 -1.2397  0.6614
  665TMC3    C7 9847   2.204   3.278   0.175 -0.7315 -0.1728 -0.3343
  665TMC3    C8 9848   1.744   3.131   0.116 -0.4388 -0.1334 -0.3245
  665TMC3    O1 9849   2.301   3.299   0.103  0.1698 -0.2259 -0.4913
  665TMC3    O2 9850   1.715   3.165   0.232  0.1226  0.0702  0.3256
  666TMC3    C1 9851   1.500   2.789   9.825 -0.1666  0.0210  0.5575
  666TMC3    C2 9852   1.553   2.752   9.948  0.0703  0.2336 -0.0059
  666TMC3    C3 9853   1.596   2.853  10.028 -0.8071 -0.3140 -0.2704
  666TMC3    C4 9854   1.476   2.924   9.802  0.2191  0.1242  0.3048
  666TMC3    C5 9855   1.514   3.021   9.893  0.1813  0.1308 -0.1194
  666TMC3    C6 9856   1.577   2.988  10.006 -0.9912 -0.0715 -0.7117
  666TMC3     C 9857   1.405   2.690   9.765  0.4347 -0.1587 -0.4327
  666TMC3     O 9858   1.329   2.719   9.673  1.0594 -0.0937  0.0687
  666TMC3     H 9859   1.594   2.652   9.952  1.4547  0.7246 -1.6129
  666TMC3    H1 9860   1.425   2.957   9.712  0.8988  0.3410 -0.0001
  666TMC3    H2 9861   1.600   3.053  10.090  0.2524 -0.7718 -0.5124
  666TMC3    C7 9862   1.426   3.141   9.911 -1.1028  0.2954  0.4725
  666TMC3    C8 9863   1.680   2.804  10.133 -0.1375  0.2658 -0.1004
  666TMC3    O1 9864   1.385   3.175  10.022 -0.6740  0.1136  0.0258
  666TMC3    O2 9865   1.694   2.683  10.145  0.0114 -0.3383  0.7625
  667MPD2     C 9866   2.093   2.800  14.973 -0.2097 -0.3121  0.6924
  667MPD2    C1 9867   2.180   2.691  14.981  0.1677 -0.4183  0.1603
  667MPD2    C2 9868   2.130   2.571  14.936 -0.6481  0.0725  0.0706
  667MPD2    C3 9869   2.009   2.558  14.868  0.2038 -0.5252 -0.1358
  667MPD2    C4 9870   1.938   2.667  14.834  0.1082  0.3166  0.6665
  667MPD2    C5 9871   1.987   2.779  14.886  0.4843  0.7246  0.6251
  667MPD2     H 9872   2.187   2.479  14.941  1.0518  1.2152  1.5904
  667MPD2    H1 9873   1.847   2.666  14.776  0.8578 -1.7355 -0.4959
  667MPD2    H2 9874   2.112   2.904  14.998 -1.5430 -0.0563  0.6230
  667MPD2    H3 9875   1.936   2.871  14.858 -0.1655  0.6712  1.5991
  667MPD2     N 9876   1.965   2.434  14.829  0.5575  0.4876 -0.2200
  667MPD2    H5 9877   1.889   2.432  14.762 -1.1967  0.4168  1.7779
  667MPD2    N1 9878   2.305   2.700  15.047 -0.1240 -0.3925 -0.1643
  667MPD2    H7 9879   2.357   2.613  15.050  3.6494  1.9468  1.8095
  668TMC3    C1 9880   2.470   2.796  15.165 -0.3387 -0.2599 -0.6735
  668TMC3    C2 9881   2.560   2.896  15.175  0.9128 -0.2262  0.2993
  668TMC3    C3 9882   2.667   2.877  15.253  0.7865 -0.2429 -0.3201
  668TMC3    C4 9883   2.476   2.680  15.240 -0.1165 -0.0952  0.5338
  668TMC3    C5 9884   2.595   2.659  15.306  0.3633 -0.5167  0.8710
  668TMC3    C6 9885   2.691   2.753  15.310 -0.5763 -0.7374  0.3075
  668TMC3     C 9886   2.355   2.822  15.091  0.5248 -0.0563  0.4299
  668TMC3     O 9887   2.324   2.939  15.076  0.1968 -0.0705  0.4921
  668TMC3     H 9888   2.545   2.989  15.122 -0.1682 -0.4026  0.3132
  668TMC3    H1 9889   2.395   2.608  15.240 -0.2786  0.0808  1.9489
  668TMC3    H2 9890   2.785   2.729  15.358  0.2912  1.7579 -0.0942
  668TMC3    C7 9891   2.613   2.545  15.393 -0.1347  1.2899  0.0864
  668TMC3    C8 9892   2.769   2.974  15.263  1.0492 -0.5076 -0.2276
  668TMC3    O1 9893   2.545   2.444  15.376  0.3109 -0.2269 -0.1591
  668TMC3    O2 9894   2.851   2.962  15.355  0.4165  0.7538 -0.0746
  669TMC3    C1 9895   0.732   2.787  14.496 -0.1904  0.2504 -0.4424
  669TMC3    C2 9896   0.599   2.792  14.454 -0.4200  0.6131 -0.1289
  669TMC3    C3 9897   0.565   2.882  14.356 -0.0345 -0.0269  0.6252
  669TMC3    C4 9898   0.829   2.849  14.419 -0.0211 -0.0234 -0.3384
  669TMC3    C5 9899   0.791   2.922  14.314  0.5119  0.0296 -0.2127
  669TMC3    C6 9900   0.655   2.937  14.270 -0.9427  0.5811  0.5958
  669TMC3     C 9901   0.767   2.710  14.608 -0.4418  0.1527  0.1090
  669TMC3     O 9902   0.672   2.667  14.675 -0.3404  0.8224  0.1342
  669TMC3     H 9903   0.522   2.734  14.502 -0.2350  0.3656 -0.1332
  669TMC3    H1 9904   0.935   2.846  14.437 -0.6216 -2.0510  2.8189
  669TMC3    H2 9905   0.629   3.013  14.197  2.1920  1.1116  0.0176
  669TMC3    C7 9906   0.890   2.988  14.234  0.1706  0.6642  0.5638
  669TMC3    C8 9907   0.429   2.868  14.312 -0.0114  0.1574  0.1554
  669TMC3    O1 9908   1.000   3.005  14.280  0.2115 -0.2599 -0.4442
  669TMC3    O2 9909   0.383   2.756  14.308 -0.1376  0.4412 -0.1210
  670MPD2     C 9910   4.193   0.875  14.074 -0.6158  0.2858  0.2190
  670MPD2    C1 9911   4.293   0.778  14.080 -0.0648 -0.1901 -0.2750
  670MPD2    C2 9912   4.288   0.700  14.194  0.5646 -0.5382  0.1018
  670MPD2    C3 9913   4.185   0.702  14.283  0.3815  0.0219  0.1125
  670MPD2    C4 9914   4.100   0.813  14.288 -0.3700  0.4600  0.2156
  670MPD2    C5 9915   4.117   0.899  14.183  0.5684  0.2977 -0.0505
  670MPD2     H 9916   4.355   0.615  14.202 -0.8668 -1.7955 -1.4235
  670MPD2    H1 9917   4.013   0.824  14.351 -1.1126  1.1995 -0.9538
  670MPD2    H2 9918   4.179   0.943  13.991  0.5464  0.4332  0.1394
  670MPD2    H3 9919   4.051   0.985  14.175 -1.4418 -1.1129  1.3617
  670MPD2     N 9920   4.163   0.588  14.360 -0.0406 -0.1975  0.7002
  670MPD2    H5 9921   4.232   0.514  14.372  0.3118 -0.1858 -1.2541
  670MPD2    N1 9922   4.400   0.781  13.982  0.0751 -0.5441  0.2801
  670MPD2    H7 9923   4.471   0.710  13.999 -0.6081 -2.1727 -3.5328
  671TMC3    C1 9924   4.070   0.470  14.536 -0.0188 -0.4119  0.0919
  671TMC3    C2 9925   4.195   0.445  14.584 -0.1725 -0.1579 -0.6397
  671TMC3    C3 9926   4.214   0.340  14.665 -0.1863 -0.1456 -0.2127
  671TMC3    C4 9927   3.957   0.395  14.565 -0.7438  0.5322 -0.0799
  671TMC3    C5 9928   3.982   0.281  14.647  0.2601  0.7016  0.8773
  671TMC3    C6 9929   4.112   0.255  14.699 -0.6121 -0.1294  0.4300
  671TMC3     C 9930   4.051   0.580  14.436  0.2793 -0.2572  0.0876
  671TMC3     O 9931   3.936   0.617  14.412  0.4913 -0.2504  0.8302
  671TMC3     H 9932   4.274   0.519  14.574  0.2586 -0.6468 -0.8407
  671TMC3    H1 9933   3.863   0.402  14.511 -0.1069  1.9474 -1.0022
  671TMC3    H2 9934   4.131   0.165  14.756  1.6637 -0.8200 -1.4358
  671TMC3    C7 9935   3.886   0.173  14.641 -0.4756  0.1074  0.0781
  671TMC3    C8 9936   4.346   0.289  14.637 -0.3113 -0.0693  0.8859
  671TMC3    O1 9937   3.907   0.096  14.733 -0.4832 -0.1692 -0.1951
  671TMC3    O2 9938   4.419   0.335  14.550  0.2251 -0.5574 -0.1804
  672MPD2     C 9939   3.965   1.281   1.781  0.4803  0.1176  0.1179
  672MPD2    C1 9940   4.025   1.326   1.663  0.5250 -0.1875  0.1169
  672MPD2    C2 9941   4.121   1.421   1.676 -0.6455 -0.2937  0.1388
  672MPD2    C3 9942   4.185   1.450   1.793  0.1630  0.0354 -0.3939
  672MPD2    C4 9943   4.136   1.396   1.907  0.2903  0.4269 -0.0665
  672MPD2    C5 9944   4.025   1.310   1.901  0.1686  0.3555  0.7225
  672MPD2     H 9945   4.158   1.457   1.581 -1.2081  2.1348  0.8230
  672MPD2    H1 9946   4.182   1.422   2.001 -0.4442  0.6014  0.2440
  672MPD2    H2 9947   3.880   1.214   1.778 -0.8313  1.8091 -0.2661
  672MPD2    H3 9948   3.986   1.266   1.993 -2.0098 -1.7413 -1.2084
  672MPD2     N 9949   4.304   1.528   1.792  0.1227  0.5138  0.1483
  672MPD2    H5 9950   4.368   1.507   1.867 -0.7868  0.4229  0.8945
  672MPD2    N1 9951   3.973   1.296   1.532 -0.6819  0.2220  0.7097
  672MPD2    H7 9952   4.015   1.353   1.459  1.5776 -0.2554  1.6398
  673TMC3    C1 9953   3.858   1.185   1.366  0.1497  1.1512 -0.0771
  673TMC3    C2 9954   3.880   1.065   1.300 -1.1415 -1.7513 -0.7224
  673TMC3    C3 9955   3.873   1.066   1.160  0.1553 -0.1718  0.0506
  673TMC3    C4 9956   3.831   1.297   1.292  0.2580 -0.0328  0.3393
  673TMC3    C5 9957   3.810   1.285   1.158  1.2541 -0.4338  0.8007
  673TMC3    C6 9958   3.832   1.169   1.084  0.3138 -0.3135 -0.0825
  673TMC3     C 9959   3.890   1.191   1.501  0.3554  0.2267  0.1425
  673TMC3     O 9960   3.865   1.107   1.585  0.0068 -0.0520  0.2596
  673TMC3     H 9961   3.888   0.972   1.355  2.2362  0.1145  1.9031
  673TMC3    H1 9962   3.808   1.391   1.341 -0.0707  0.4696 -0.7876
  673TMC3    H2 9963   3.836   1.163   0.976 -2.2496 -0.0702 -0.1824
  673TMC3    C7 9964   3.791   1.405   1.083 -0.3457 -0.7023  0.1594
  673TMC3    C8 9965   3.942   0.953   1.097  0.0643 -0.5092  1.2323
  673TMC3    O1 9966   3.740   1.500   1.140 -0.5674  0.0157 -0.6334
  673TMC3    O2 9967   3.918   0.929   0.980  0.0277  0.5604  0.6429
  674MPD2     C 9968   3.962   1.228   0.431 -1.2587 -0.1987 -0.2144
  674MPD2    C1 9969   3.855   1.194   0.519 -0.1232 -0.8650 -0.0481
  674MPD2    C2 9970   3.758   1.287   0.546 -0.6858 -0.9451  0.1992
  674MPD2    C3 9971   3.758   1.407   0.479  0.4717 -0.3869 -1.0446
  674MPD2    C4 9972   3.868   1.439   0.403  0.3449  0.0426 -0.1645
  674MPD2    C5 9973   3.966   1.351   0.375  0.7139 -0.3200  0.1487
  674MPD2     H 9974   3.674   1.270   0.612  0.4727  0.5244  2.0703
  674MPD2    H1 9975   3.880   1.533   0.351 -0.9946  0.2434 -0.1182
  674MPD2    H2 9976   4.045   1.159   0.424 -1.2186 -0.2101  0.3693
  674MPD2    H3 9977   4.054   1.384   0.320  1.9255  0.8115  2.7874
  674MPD2     N 9978   3.657   1.504   0.506 -0.1566  0.3323  0.5576
  674MPD2    H5 9979   3.578   1.473   0.562 -1.2398 -1.4778 -2.0014
  674MPD2    N1 9980   3.846   1.063   0.570 -0.4319  0.5309 -0.8494
  674MPD2    H7 9981   3.928   1.006   0.548  1.0234  1.4565  2.1734
  675TMC3    C1 9982   3.743   0.865   0.659  0.1777 -0.5858 -0.3831
  675TMC3    C2 9983   3.643   0.819   0.737  0.0338  0.2470  0.0934
  675TMC3    C3 9984   3.644   0.692   0.783  0.0677  0.0138 -1.3504
  675TMC3    C4 9985   3.843   0.778   0.622  0.0861 -0.8082 -0.0081
  675TMC3    C5 9986   3.849   0.648   0.672 -0.4666  0.6256 -0.2314
  675TMC3    C6 9987   3.755   0.605   0.765  0.4068 -0.0476 -0.7931
  675TMC3     C 9988   3.735   1.010   0.631 -0.3104  0.3111 -0.3762
  675TMC3     O 9989   3.630   1.073   0.650  0.2594  0.1734  0.2021
  675TMC3     H 9990   3.563   0.884   0.769  0.0523  0.3019  0.0279
  675TMC3    H1 9991   3.901   0.808   0.535  0.7593  0.1481  0.7664
  675TMC3    H2 9992   3.766   0.514   0.824 -1.6053 -0.6260 -1.3121
  675TMC3    C7 9993   3.965   0.580   0.645 -0.6429  0.1056  0.4836
  675TMC3    C8 9994   3.523   0.630   0.829  0.2577 -0.3256 -0.3510
  675TMC3    O1 9995   4.064   0.644   0.611 -0.0414  0.6448 -0.4013
  675TMC3    O2 9996   3.447   0.714   0.878 -0.0925 -0.7666 -0.2013
  676MPD2     C 9997   2.263   3.980  10.487  0.0748 -0.4146 -0.2392
  676MPD2    C1 9998   2.129   3.982  10.500 -0.8228  0.0043 -0.0390
  676MPD2    C2 9999   2.061   3.865  10.529  0.0876  0.9905  0.3043
  676MPD2    C310000   2.123   3.742  10.508  0.7348  0.1745 -0.2567
  676MPD2    C410001   2.256   3.743  10.474  0.0762 -0.0538 -0.3904
  676MPD2    C510002   2.328   3.861  10.469 -0.2470  0.1166  0.3262
  676MPD2     H10003   1.954   3.869  10.548 -0.3935  0.9599 -2.3691
  676MPD2    H110004   2.301   3.646  10.456  1.4805  0.5801 -0.3595
  676MPD2    H210005   2.317   4.073  10.500 -1.4486  0.6831 -1.8158
  676MPD2    H310006   2.435   3.846  10.463 -0.0082  0.7115  3.5842
  676MPD2     N10007   2.058   3.617  10.513  0.8892  0.7722 -0.1372
  676MPD2    H510008   2.108   3.534  10.482 -1.6828 -0.1031 -1.9049
  676MPD2    N110009   2.063   4.104  10.495 -0.4035 -0.7419  0.0337
  676MPD2    H710010   1.962   4.094  10.501 -0.3258 -0.7356  1.2695
  677TMC3    C110011   2.011   4.336  10.476  0.2596 -0.8219  0.7107
  677TMC3    C210012   1.904   4.303  10.403 -0.7826  0.3613  0.3994
  677TMC3    C310013   1.784   4.364  10.431  0.2253  0.0994  0.6156
  677TMC3    C410014   2.007   4.433  10.575  0.0557  0.3633  0.0641
  677TMC3    C510015   1.895   4.497  10.592  0.0271  0.1082 -0.7901
  677TMC3    C610016   1.785   4.480  10.509  0.2541 -0.1027 -0.6033
  677TMC3     C10017   2.117   4.231  10.488 -0.6385  0.3668 -0.8685
  677TMC3     O10018   2.225   4.280  10.470  0.0504 -0.1535  0.0323
  677TMC3     H10019   1.913   4.217  10.338  0.8611  0.7091  0.1690
  677TMC3    H110020   2.098   4.445  10.632 -0.3081 -2.6449  1.2734
  677TMC3    H210021   1.694   4.530  10.541  1.1832  1.0124  0.3101
  677TMC3    C710022   1.856   4.540  10.726  0.1149  0.6031 -0.0312
  677TMC3    C810023   1.703   4.257  10.484  0.4265  0.0065 -0.0619
  677TMC3    O110024   1.749   4.600  10.742  0.1094  0.0663  0.2009
  677TMC3    O210025   1.762   4.153  10.489 -0.7800  0.8296 -0.5915
  678MPD2     C10026   2.901   3.558   1.675  0.2056  0.1978  0.4224
  678MPD2    C110027   2.944   3.606   1.553  0.3810  0.1213 -0.2909
  678MPD2    C210028   2.848   3.665   1.477 -1.1854  0.0929  0.5068
  678MPD2    C310029   2.713   3.663   1.507 -0.5843 -0.5785 -0.1533
  678MPD2    C410030   2.670   3.614   1.632  0.3204  1.1376 -0.2991
  678MPD2    C510031   2.771   3.569   1.714  0.7105 -0.2937 -0.7261
  678MPD2     H10032   2.877   3.729   1.394 -2.6234  2.0041  1.4638
  678MPD2    H110033   2.567   3.615   1.663  0.7985  1.6484  1.2690
  678MPD2    H210034   2.973   3.507   1.738  1.5089  0.9332 -0.4685
  678MPD2    H310035   2.740   3.523   1.807  1.0290 -0.2510 -0.5999
  678MPD2     N10036   2.620   3.732   1.426 -0.0502 -0.2151 -0.0062
  678MPD2    H510037   2.654   3.779   1.342  0.9737 -0.4588  0.2720
  678MPD2    N110038   3.078   3.607   1.506  0.4214  0.2092 -0.0829
  678MPD2    H710039   3.096   3.643   1.413 -0.9129 -0.1149 -0.4536
  679TMC3    C110040   3.437   3.360   1.410  0.3189  0.1133  0.6437
  679TMC3    C210041   3.344   3.404   1.500  0.1170  0.1146  0.0550
  679TMC3    C310042   3.293   3.528   1.481  0.1259 -0.1458  0.1509
  679TMC3    C410043   3.471   3.429   1.299  0.1571 -0.3252  0.7536
  679TMC3    C510044   3.415   3.555   1.282 -0.3664  0.0016  0.6104
  679TMC3    C610045   3.323   3.605   1.375 -0.0872 -0.0564  0.3956
  679TMC3     C10046   3.520   3.242   1.438 -0.3052  0.1936 -0.0303
  679TMC3     O10047   3.602   3.207   1.355 -0.0595 -0.3491 -0.1174
  679TMC3     H10048   3.317   3.339   1.583  1.9882 -0.1820  0.4135
  679TMC3    H110049   3.548   3.380   1.241 -0.4947  1.4500 -1.5939
  679TMC3    H210050   3.274   3.700   1.359  0.0911  0.3045  1.9321
  679TMC3    C710051   3.450   3.648   1.170  0.1211  0.0648  0.8110
  679TMC3    C810052   3.185   3.559   1.570  0.4087  0.6187 -0.4159
  679TMC3    O110053   3.385   3.753   1.163 -0.1170  0.7166 -0.2796
  679TMC3    O210054   3.196   3.500   1.678  0.2096 -0.1259 -0.3972
  680MPD2     C10055   2.952   2.702  13.453 -0.6919 -0.0037  0.2604
  680MPD2    C110056   3.033   2.656  13.552  0.7260  0.0045  0.3805
  680MPD2    C210057   3.141   2.731  13.596  0.1883 -0.2033 -0.4579
  680MPD2    C310058   3.162   2.861  13.541  0.2787 -0.1716 -0.8597
  680MPD2    C410059   3.073   2.904  13.447 -0.4400  0.0017 -0.1459
  680MPD2    C510060   2.968   2.829  13.404  0.0101 -0.8006  0.2548
  680MPD2     H10061   3.198   2.686  13.676  1.7687  1.1199 -0.8342
  680MPD2    H110062   3.070   3.004  13.406 -1.7142  1.3821  3.2777
  680MPD2    H210063   2.866   2.647  13.418  1.1418 -1.9606 -1.1244
  680MPD2    H310064   2.893   2.875  13.341  2.0811  0.4641 -1.2675
  680MPD2     N10065   3.269   2.948  13.579  0.1060 -0.3859  0.3289
  680MPD2    H510066   3.291   3.026  13.517 -2.7561  1.8083  2.0805
  680MPD2    N110067   3.014   2.521  13.601  0.4345  0.9165 -0.1928
  680MPD2    H710068   3.081   2.487  13.669  0.4951 -2.1098 -1.7722
  681TMC3    C110069   2.929   2.300  13.633  0.2798 -0.4778 -0.1435
  681TMC3    C210070   2.850   2.265  13.743  0.2677  0.3530  0.1371
  681TMC3    C310071   2.897   2.176  13.836 -0.0172  0.3629 -0.1252
  681TMC3    C410072   3.045   2.244  13.606  0.0122  0.5613 -0.1528
  681TMC3    C510073   3.085   2.140  13.689  0.2982 -0.3343 -0.2043
  681TMC3    C610074   3.020   2.117  13.809 -0.6423  0.5560 -0.3673
  681TMC3     C10075   2.910   2.429  13.574 -0.3672  0.2373 -0.9228
  681TMC3     O10076   2.809   2.446  13.505 -0.3406 -0.8571  0.0765
  681TMC3     H10077   2.757   2.318  13.761  0.0265  0.1874 -0.6365
  681TMC3    H110078   3.100   2.285  13.523  2.9027 -1.2242  0.8502
  681TMC3    H210079   3.063   2.044  13.877  0.9163  0.8039 -1.0796
  681TMC3    C710080   3.219   2.092  13.668  1.0731 -0.2833 -0.4902
  681TMC3    C810081   2.880   2.230  13.970 -0.6511 -0.4478 -0.2606
  681TMC3    O110082   3.248   2.004  13.749  0.4153 -0.6182  0.1754
  681TMC3    O210083   2.767   2.256  14.003  0.0490  1.2144  0.3229
  682MPD2     C10084   0.595   3.817  10.588  0.4020  0.7459  0.3994
  682MPD2    C110085   0.653   3.686  10.593 -0.8491  0.5904  0.1102
  682MPD2    C210086   0.666   3.615  10.705 -0.1739  0.9225 -0.1964
  682MPD2    C310087   0.619   3.665  10.825  0.4249 -0.1647  0.0450
  682MPD2    C410088   0.559   3.788  10.832 -0.0586 -0.0763  0.8455
  682MPD2    C510089   0.547   3.859  10.713  0.1903  0.0444  0.4621
  682MPD2     H10090   0.702   3.514  10.689 -2.1422  0.3595 -1.0960
  682MPD2    H110091   0.517   3.836  10.920 -0.7787  2.3966 -0.8239
  682MPD2    H210092   0.581   3.871  10.495 -0.1681 -0.5967 -0.2920
  682MPD2    H310093   0.486   3.949  10.718  1.9579  1.3667 -1.5604
  682MPD2     N10094   0.620   3.593  10.948  0.7198 -0.2394  0.0416
  682MPD2    H510095   0.572   3.647  11.020  0.7333  1.3802 -1.1699
  682MPD2    N110096   0.711   3.632  10.475  0.2605  0.6104 -0.6092
  682MPD2    H710097   0.737   3.534  10.474 -0.6640  0.3283  2.5980
  683TMC3    C110098   0.743   3.411  11.305  0.2307 -0.5359 -0.0803
  683TMC3    C210099   0.727   3.270  11.315 -0.0060  0.1072 -0.1030
  683TMC3    C310100   0.681   3.206  11.202 -0.2698 -0.4666  0.3007
  683TMC3    C410101   0.688   3.476  11.196 -0.5343  0.5902  0.2235
  683TMC3    C510102   0.647   3.401  11.088  0.9667  0.2363 -0.0135
  683TMC3    C610103   0.645   3.268  11.086  0.5924 -0.0240 -0.2661
  683TMC3     C10104   0.776   3.496  11.417 -1.2390 -0.0980  0.0150
  683TMC3     O10105   0.757   3.613  11.406  0.6686  0.3465 -0.0969
  683TMC3     H10106   0.740   3.216  11.408 -1.3725  0.8163  0.4957
  683TMC3    H110107   0.688   3.584  11.185  0.1004  0.5564 -0.0952
  683TMC3    H210108   0.636   3.210  10.995  3.1235 -1.0019  0.1030
  683TMC3    C710109   0.632   3.458  10.952  0.5551 -0.2729  0.9582
  683TMC3    C810110   0.718   3.067  11.199 -0.5409  0.7311  0.0762
  683TMC3    O110111   0.603   3.384  10.862 -0.3001  0.5342 -0.0255
  683TMC3    O210112   0.655   3.000  11.121 -0.0712 -0.2360  0.2254
  684MPD2     C10113   4.368   3.672  16.229  0.0119 -0.0369 -0.6676
  684MPD2    C110114   4.284   3.685  16.120 -0.5376  0.8968 -0.1003
  684MPD2    C210115   4.187   3.788  16.131  0.1473 -1.4360 -1.0928
  684MPD2    C310116   4.176   3.867  16.246  0.6710  0.2671 -0.5244
  684MPD2    C410117   4.247   3.830  16.356 -0.1235  1.0584 -0.3029
  684MPD2    C510118   4.341   3.733  16.350 -0.1185  0.3502 -0.4572
  684MPD2     H10119   4.121   3.812  16.048  0.5039  1.5432 -0.4955
  684MPD2    H110120   4.229   3.879  16.451  0.8431  0.3662  0.2425
  684MPD2    H210121   4.459   3.612  16.230  0.3623  0.4940 -1.0154
  684MPD2    H310122   4.395   3.701  16.438  0.8639  0.3434 -1.0622
  684MPD2     N10123   4.084   3.973  16.269 -0.6445 -0.6928 -0.0638
  684MPD2    H510124   4.087   4.000  16.367 -2.3303  0.1060 -0.2330
  684MPD2    N110125   4.295   3.616  15.992  0.8853  0.7082  0.2648
  684MPD2    H710126   4.216   3.619  15.929  0.2019  0.9260  1.1412
  685TMC3    C110127   4.410   3.460  15.843 -0.2035  0.5487  0.2378
  685TMC3    C210128   4.292   3.403  15.790  0.0087  0.5615  0.7264
  685TMC3    C310129   4.299   3.320  15.679 -0.0411  0.5815  0.1673
  685TMC3    C410130   4.529   3.423  15.794 -0.0786 -0.3828 -0.3355
  685TMC3    C510131   4.535   3.336  15.684 -0.8906 -0.3976  0.3789
  685TMC3    C610132   4.423   3.284  15.630  0.1616  0.3005  0.2803
  685TMC3     C10133   4.417   3.548  15.953  0.2152  0.1675 -0.4384
  685TMC3     O10134   4.530   3.558  16.000 -0.6681 -0.3932 -0.2098
  685TMC3     H10135   4.199   3.428  15.841 -1.2565 -1.0880 -0.8059
  685TMC3    H110136   4.623   3.472  15.815  1.0808 -2.5142 -0.6422
  685TMC3    H210137   4.427   3.217  15.544  1.1208  1.0545 -0.2586
  685TMC3    C710138   4.665   3.262  15.662  0.1610  0.1607  0.2055
  685TMC3    C810139   4.173   3.273  15.619  0.3139 -0.0835  0.2258
  685TMC3    O110140   4.680   3.210  15.554 -0.2154  0.3167 -0.4585
  685TMC3    O210141   4.175   3.183  15.531  0.0359 -0.1098 -0.2867
  686MPD2     C10142   1.037   3.359  15.703 -0.2687 -0.3641  0.5244
  686MPD2    C110143   0.956   3.257  15.658 -0.1582 -0.0395 -0.0870
  686MPD2    C210144   0.940   3.235  15.522 -0.4042  0.0102 -0.6125
  686MPD2    C310145   1.006   3.318  15.433  0.4868  0.2028 -0.0382
  686MPD2    C410146   1.067   3.428  15.478  0.0882 -0.1112  0.2957
  686MPD2    C510147   1.086   3.449  15.612  0.4184 -0.0249  0.0021
  686MPD2     H10148   0.877   3.159  15.477 -2.6848  1.4938  0.1411
  686MPD2    H110149   1.114   3.505  15.418  0.8045 -0.8314 -0.0629
  686MPD2    H210150   1.058   3.379  15.808  1.4513 -0.0302  0.1256
  686MPD2    H310151   1.139   3.539  15.637 -0.6437  0.4552  0.5686
  686MPD2     N10152   1.004   3.292  15.294  0.1751  0.2861 -0.1335
  686MPD2    H510153   1.033   3.370  15.236  2.4771 -1.4066 -1.2710
  686MPD2    N110154   0.900   3.168  15.755  0.4149  0.2202 -0.1799
  686MPD2    H710155   0.924   3.179  15.853 -0.9624  1.1453  0.0543
  687TMC3    C110156   0.986   3.046  15.296 -0.6040 -0.3871  0.2685
  687TMC3    C210157   0.886   2.959  15.284  0.6777  0.0554 -0.1807
  687TMC3    C310158   0.889   2.842  15.352 -0.2010  0.3523  0.4172
  687TMC3    C410159   1.097   3.014  15.367  0.1669  0.3078  0.2787
  687TMC3    C510160   1.091   2.905  15.444 -0.0743  0.3179  0.3078
  687TMC3    C610161   0.990   2.807  15.427 -0.0485 -0.6091  0.0573
  687TMC3     C10162   0.972   3.172  15.227  0.6918  0.2901  0.8938
  687TMC3     O10163   0.969   3.170  15.104  0.6176 -0.0511  1.1091
  687TMC3     H10164   0.815   2.992  15.209  1.2565 -1.3405 -1.3397
  687TMC3    H110165   1.180   3.084  15.374  0.9887 -0.5965 -0.3778
  687TMC3    H210166   0.990   2.716  15.487 -1.4289  0.9892  2.4730
  687TMC3    C710167   1.195   2.894  15.544 -0.1789 -0.3993 -0.2353
  687TMC3    C810168   0.758   2.823  15.422 -0.3743 -0.1870 -0.4096
  687TMC3    O110169   1.224   2.996  15.603 -0.3507 -0.1208 -0.0104
  687TMC3    O210170   0.764   2.752  15.524 -0.2629 -0.3642  0.4624
  688MPD2     C10171   0.373   2.288  17.323 -0.3275  0.1575 -0.0351
  688MPD2    C110172   0.325   2.161  17.328  0.3181 -0.1013  0.5495
  688MPD2    C210173   0.329   2.077  17.220 -0.3396  0.4591 -0.2716
  688MPD2    C310174   0.377   2.126  17.101 -0.6713 -0.3461 -0.0587
  688MPD2    C410175   0.440   2.248  17.089 -0.2705  0.5202 -0.5398
  688MPD2    C510176   0.435   2.325  17.202  0.0229 -0.6335  0.3940
  688MPD2     H10177   0.299   1.974  17.231 -2.2298  1.0350 -0.0293
  688MPD2    H110178   0.512   2.282  17.016  0.2876 -1.7480 -1.0512
  688MPD2    H210179   0.388   2.362  17.400  0.3319  0.0448 -0.0487
  688MPD2    H310180   0.490   2.418  17.209  0.2088 -0.8043  1.1967
  688MPD2     N10181   0.384   2.050  16.979  0.0716  0.1225 -0.0229
  688MPD2    H510182   0.424   2.099  16.900  1.9123  0.5433  1.1490
  688MPD2    N110183   0.275   2.116  17.451 -0.0903  0.3282 -0.6687
  688MPD2    H710184   0.250   2.017  17.455  0.7189  0.1692  0.4264
  689TMC3    C110185   0.172   2.108  17.653 -0.3134  0.1005 -0.0754
  689TMC3    C210186   0.146   2.179   0.087 -0.0828 -0.7223  0.6257
  689TMC3    C310187   0.048   2.137   0.176  0.1121 -0.0420 -0.8998
  689TMC3    C410188   0.083   2.013  17.615  0.5551 -0.3537  0.3887
  689TMC3    C510189   4.706   1.976   0.022  0.1731 -0.0314 -0.9310
  689TMC3    C610190   4.688   2.034   0.147  1.0494 -0.3605  0.0267
  689TMC3     C10191   0.243   2.191  17.556 -0.3838 -0.0120 -0.7551
  689TMC3     O10192   0.219   2.312  17.559  0.1442 -0.4959  0.0987
  689TMC3     H10193   0.228   2.247   0.109 -1.7059  0.6317  2.4796
  689TMC3    H110194   0.103   1.947  17.532  0.2037 -1.7790  1.4339
  689TMC3    H210195   4.615   1.998   0.218 -0.4886  1.8770 -0.4502
  689TMC3    C710196   4.624   1.868  17.663 -0.2885 -0.6720  0.0457
  689TMC3    C810197   0.026   2.206   0.300 -1.0119 -0.1879  0.5703
  689TMC3    O110198   4.611   1.846  17.541 -0.0544 -0.1703 -0.0109
  689TMC3    O210199   4.671   2.152   0.378 -0.2859 -0.6845 -0.0569
  690MPD2     C10200   2.105   4.192  15.822 -0.1438 -0.4215  0.3954
  690MPD2    C110201   2.138   4.103  15.726 -0.0552 -0.2084 -0.1040
  690MPD2    C210202   2.239   4.132  15.626 -0.6082  0.0289 -0.1148
  690MPD2    C310203   2.301   4.250  15.629  0.1016  0.5171 -0.0322
  690MPD2    C410204   2.271   4.341  15.727  0.2317  0.1962  0.2266
  690MPD2    C510205   2.172   4.314  15.818  0.3760 -0.7520 -0.2973
  690MPD2     H10206   2.260   4.055  15.554 -2.0244  0.0900 -0.6076
  690MPD2    H110207   2.317   4.439  15.727  0.9051 -0.1267  0.1878
  690MPD2    H210208   2.025   4.175  15.893 -0.6971  0.2308 -0.0771
  690MPD2    H310209   2.148   4.393  15.887 -1.8515 -0.8530 -0.9656
  690MPD2     N10210   2.391   4.285  15.527 -0.1941  0.4115 -0.9127
  690MPD2    H510211   2.438   4.208  15.481  1.5668  1.1299 -0.3344
  690MPD2    N110212   2.072   3.983  15.720 -0.6203 -0.0160  0.1534
  690MPD2    H710213   2.123   3.912  15.668  0.9810 -0.1782  1.9468
  691TMC3    C110214   1.895   3.833  15.716  0.5883 -0.1332 -0.4200
  691TMC3    C210215   1.769   3.827  15.666 -0.0521  0.9416  0.6373
  691TMC3    C310216   1.726   3.707  15.620  0.8321 -0.1557 -0.0621
  691TMC3    C410217   1.983   3.729  15.717 -0.2485  0.3653  0.2708
  691TMC3    C510218   1.943   3.611  15.653 -0.9188 -0.0648  0.3324
  691TMC3    C610219   1.816   3.603  15.609  0.6465 -0.7034  0.5880
  691TMC3     C10220   1.939   3.965  15.756  0.0900  0.0153 -0.0141
  691TMC3     O10221   1.849   4.051  15.762 -0.2074  0.1541 -0.1011
  691TMC3     H10222   1.703   3.912  15.654  0.8895  1.5715 -0.0971
  691TMC3    H110223   2.081   3.730  15.762 -0.1198  1.0333 -0.0223
  691TMC3    H210224   1.782   3.512  15.560 -2.3396  0.8171 -0.1341
  691TMC3    C710225   2.005   3.493  15.707  0.1050  0.2762  0.0882
  691TMC3    C810226   1.604   3.684  15.545 -0.5867 -0.0274 -0.0219
  691TMC3    O110227   2.121   3.500  15.723 -0.1022 -0.3479 -0.0636
  691TMC3    O210228   1.606   3.630  15.439 -0.2985 -0.2965  0.0074
  692TMC3    C110229   3.429   0.562  15.706  1.4452 -0.4426 -0.5888
  692TMC3    C210230   3.547   0.589  15.642  0.0869 -0.0806  0.7594
  692TMC3    C310231   3.644   0.495  15.619 -0.1524  0.2864 -0.5489
  692TMC3    C410232   3.392   0.431  15.735 -0.4554 -0.1423 -0.0074
  692TMC3    C510233   3.488   0.337  15.709  0.1771  0.3391 -0.0895
  692TMC3    C610234   3.613   0.365  15.663  0.1278 -0.5416 -1.1647
  692TMC3     C10235   3.365   0.661  15.787 -0.1260 -0.0997  0.7384
  692TMC3     O10236   3.277   0.627  15.862  0.3133  0.8158 -0.3968
  692TMC3     H10237   3.575   0.692  15.625 -1.1793  0.6618  3.1518
  692TMC3    H110238   3.298   0.401  15.780 -1.0045  0.3704 -0.7961
  692TMC3    H210239   3.682   0.287  15.630  0.3753 -0.3027 -1.2153
  692TMC3    C710240   3.444   0.192  15.728  0.2653 -0.7508 -0.9497
  692TMC3    C810241   3.772   0.544  15.647  0.0572  0.2822 -0.2495
  692TMC3    O110242   3.324   0.171  15.714 -0.0443  0.6199  0.1916
  692TMC3    O210243   3.811   0.624  15.563  0.3972  0.3486 -0.4357
  693MPD2     C10244   2.912   3.377  10.963 -0.0037 -0.2364  0.1478
  693MPD2    C110245   2.867   3.322  10.844 -0.0571  0.0146 -0.4145
  693MPD2    C210246   2.956   3.260  10.756  0.4144  0.3918 -0.8582
  693MPD2    C310247   3.081   3.231  10.806 -0.2246  0.6314  0.3154
  693MPD2    C410248   3.125   3.288  10.925 -0.1134  0.5722  0.9232
  693MPD2    C510249   3.040   3.366  11.004 -0.1075  0.2502  0.5912
  693MPD2     H10250   2.921   3.221  10.661 -0.4738  0.5711 -0.5957
  693MPD2    H110251   3.222   3.263  10.966  0.5550 -1.2733 -1.7917
  693MPD2    H210252   2.835   3.400  11.035  1.0936  0.0132  1.2485
  693MPD2    H310253   3.078   3.402  11.100  2.2245 -2.2461  0.5880
  693MPD2     N10254   3.165   3.131  10.747  0.0130  0.1062  0.5482
  693MPD2    H510255   3.253   3.098  10.784  1.3256  2.5316 -0.4157
  693MPD2    N110256   2.723   3.316  10.827 -0.1143  0.0567  0.0491
  693MPD2    H710257   2.679   3.347  10.914 -1.4133  0.8787 -0.9079
  694TMC3    C110258   2.547   3.155  10.779  0.2446  0.2472  0.5547
  694TMC3    C210259   2.533   3.035  10.707  0.1482  0.1314  0.1052
  694TMC3    C310260   2.419   2.958  10.739  0.1858  0.2884 -0.4013
  694TMC3    C410261   2.456   3.199  10.871  0.1964 -0.4586 -0.3688
  694TMC3    C510262   2.343   3.121  10.897  0.1496 -0.2186 -0.1616
  694TMC3    C610263   2.321   3.005  10.827 -0.2723  0.0394 -0.0175
  694TMC3     C10264   2.661   3.235  10.736 -0.1427  0.0271  0.2283
  694TMC3     O10265   2.691   3.214  10.618  0.5223 -0.0494  0.1802
  694TMC3     H10266   2.618   2.994  10.654 -0.5584  2.0089 -2.4235
  694TMC3    H110267   2.468   3.304  10.893  1.2830 -0.2413 -1.9291
  694TMC3    H210268   2.235   2.942  10.848 -0.7008 -0.2671 -2.7754
  694TMC3    C710269   2.296   3.141  11.034 -0.5087 -0.9659  0.9484
  694TMC3    C810270   2.395   2.825  10.678  0.1087  0.3183 -0.7184
  694TMC3    O110271   2.318   3.249  11.086  0.3253 -0.5766  0.3923
  694TMC3    O210272   2.288   2.767  10.693  0.3240 -0.6008  0.1870
  695MPD2     C10273   4.234   4.294  13.768 -0.2551 -0.7026  0.5059
  695MPD2    C110274   4.229   4.407  13.850  0.7752  0.0188 -0.4866
  695MPD2    C210275   4.105   4.469  13.861 -0.8189 -0.2005  0.0270
  695MPD2    C310276   3.990   4.420  13.792 -0.5618  0.6556  0.1165
  695MPD2    C410277   3.998   4.295  13.728 -0.3413 -0.3139  0.2626
  695MPD2    C510278   4.120   4.246  13.711  0.1963 -0.7317 -0.2118
  695MPD2     H10279   4.101   4.554  13.928 -0.0736 -0.4600  0.4062
  695MPD2    H110280   3.906   4.255  13.687 -0.8473  1.1072  0.0173
  695MPD2    H210281   4.326   4.245  13.738  0.6057  0.6471  0.9673
  695MPD2    H310282   4.133   4.158  13.649  1.2138 -0.7360  0.0086
  695MPD2     N10283   3.869   4.491  13.809  0.2945  0.0587  0.1149
  695MPD2    H510284   3.879   4.572  13.869 -1.0133  0.8380 -0.7106
  695MPD2    N110285   4.336   4.467  13.918  0.3281  0.2292  0.3618
  695MPD2    H710286   4.307   4.551  13.966 -1.7683  0.1633 -0.7920
  696TMC3    C110287   3.665   4.585  13.777  0.3158 -0.5381 -0.1537
  696TMC3    C210288   3.657   4.610  13.912  0.1815 -0.3312 -0.2729
  696TMC3    C310289   3.595   0.005  13.950 -0.0445 -0.3096 -0.3431
  696TMC3    C410290   3.611   4.664  13.681 -0.1879  0.2609  0.5999
  696TMC3    C510291   3.552   0.062  13.718  0.1729 -0.1639 -0.1238
  696TMC3    C610292   3.545   0.093  13.856 -0.0873 -0.5303  0.4974
  696TMC3     C10293   3.753   4.478  13.736 -0.2528 -0.2503 -0.1963
  696TMC3     O10294   3.732   4.430  13.623 -0.1573  0.6281 -0.1595
  696TMC3     H10295   3.708   4.549  13.986 -1.2286  0.2517  1.1914
  696TMC3    H110296   3.618   4.645  13.574 -0.3159 -0.0309  0.6428
  696TMC3    H210297   3.489   0.179  13.893 -0.3319 -0.5965  0.2808
  696TMC3    C710298   3.485   0.138  13.619  0.0574  1.0195  0.0153
  696TMC3    C810299   3.601   0.047  14.087  0.5646 -0.0317  0.4296
  696TMC3    O110300   3.484   0.094  13.505 -0.0626 -0.1994 -0.3460
  696TMC3    O210301   3.596   0.162  14.124  0.0980  0.5008 -0.2289
  697MPD2     C10302   3.447   1.918  15.707  0.5831 -0.2858 -0.6349
  697MPD2    C110303   3.418   1.877  15.576  0.1705  0.1443  0.2922
  697MPD2    C210304   3.440   1.972  15.475 -0.0172  0.4898 -0.1190
  697MPD2    C310305   3.495   2.096  15.498  0.4232  0.5656  0.4896
  697MPD2    C410306   3.516   2.129  15.632  0.4186 -0.0146  0.5989
  697MPD2    C510307   3.486   2.045  15.733 -1.1676 -0.1387  0.2490
  697MPD2     H10308   3.416   1.949  15.372  1.7891  0.5855 -0.5648
  697MPD2    H110309   3.541   2.232  15.656  0.8240  0.3666 -1.4662
  697MPD2    H210310   3.437   1.846  15.787  1.8872  1.9222  1.5157
  697MPD2    H310311   3.488   2.086  15.833  0.5822  0.3881  0.0063
  697MPD2     N10312   3.522   2.184  15.389 -0.1415  0.2724  0.0669
  697MPD2    H510313   3.495   2.157  15.296  2.2939  0.1667 -0.6016
  697MPD2    N110314   3.358   1.753  15.541  0.6618  0.3041 -0.9825
  697MPD2    H710315   3.339   1.752  15.441  2.7963 -0.3997 -1.3716
  698TMC3    C110316   3.616   2.361  15.271  0.1024 -0.4665  0.2589
  698TMC3    C210317   3.735   2.423  15.243  0.0070 -0.4983 -0.6113
  698TMC3    C310318   3.760   2.468  15.117  0.1967  0.5068  0.3846
  698TMC3    C410319   3.524   2.346  15.173  0.1209  0.1832  0.2649
  698TMC3    C510320   3.555   2.396  15.048 -0.1324  0.0937  0.8713
  698TMC3    C610321   3.669   2.455  15.014 -0.1586 -0.2176 -0.9511
  698TMC3     C10322   3.605   2.296  15.400  0.1279 -0.8965  0.2225
  698TMC3     O10323   3.663   2.349  15.494 -0.5931  0.0410 -0.5297
  698TMC3     H10324   3.811   2.443  15.318  1.7225 -1.7155 -1.9954
  698TMC3    H110325   3.426   2.303  15.188  1.7970 -3.1790  1.5014
  698TMC3    H210326   3.700   2.483  14.914 -3.1533 -2.0858 -2.3962
  698TMC3    C710327   3.449   2.380  14.942 -0.6864 -0.0427  0.1712
  698TMC3    C810328   3.872   2.562  15.110  0.0707  0.3434  0.0769
  698TMC3    O110329   3.361   2.299  14.964 -0.1702 -0.4044 -0.2286
  698TMC3    O210330   3.974   2.530  15.171 -0.6008  0.1506  0.1333
  699TMC3    C110331   3.522   4.505  13.262  0.2328  0.4449 -0.1293
  699TMC3    C210332   3.559   4.400  13.340  0.2944 -0.8105  0.1657
  699TMC3    C310333   3.469   4.359  13.434 -0.4421 -0.1362  0.8940
  699TMC3    C410334   3.418   4.590  13.286  0.1192 -0.5432  0.3066
  699TMC3    C510335   3.345   4.566  13.400 -0.9861  0.5207 -0.5120
  699TMC3    C610336   3.357   4.441  13.460  0.2652 -1.2023 -0.1467
  699TMC3     C10337   3.601   4.551  13.151 -0.9208 -0.2700 -0.3131
  699TMC3     O10338   3.541   4.597  13.054  0.3452  0.0604 -0.1020
  699TMC3     H10339   3.632   4.329  13.303 -0.0065 -0.8027 -0.4366
  699TMC3    H110340   3.416   4.685  13.235 -0.7579  0.6952  2.6481
  699TMC3    H210341   3.294   4.414  13.544  0.2245  1.3084  0.6389
  699TMC3    C710342   3.223   4.634  13.404  0.0160 -0.2332  0.0626
  699TMC3    C810343   3.478   4.225  13.499 -0.4487 -0.0559  0.2024
  699TMC3    O110344   3.160   4.624  13.510 -0.6770  0.3881 -0.1228
  699TMC3    O210345   3.377   4.188  13.560  0.0992 -0.3082 -0.2691
  700TMC3    C110346   2.718   3.097  16.907 -0.8034  0.0265 -0.8655
  700TMC3    C210347   2.768   2.971  16.919 -0.2871 -0.5655  0.1269
  700TMC3    C310348   2.863   2.956  17.023 -0.2426  0.4635 -0.5482
  700TMC3    C410349   2.751   3.197  16.998 -0.2892 -0.2395  0.1739
  700TMC3    C510350   2.842   3.170  17.095  0.2660  0.4991 -0.1959
  700TMC3    C610351   2.908   3.053  17.106 -0.4567  0.1010  0.2758
  700TMC3     C10352   2.710   3.131  16.768 -0.8501  0.3017  0.2232
  700TMC3     O10353   2.677   3.039  16.695 -0.2026 -0.7910 -0.1664
  700TMC3     H10354   2.758   2.889  16.848  2.2288  2.0052 -3.1914
  700TMC3    H110355   2.685   3.283  17.003 -0.5890 -0.4064 -0.9767
  700TMC3    H210356   2.970   3.024  17.190 -0.7093 -1.2023  0.0135
  700TMC3    C710357   2.934   3.277  17.130  0.4910  0.1624  0.2154
  700TMC3    C810358   2.922   2.831  17.034 -0.1744  0.8754  0.3694
  700TMC3    O110359   3.031   3.251  17.196  0.3623  0.4739 -0.0738
  700TMC3    O210360   3.025   2.820  17.103  0.4574  0.2372 -0.0014
  701TMC3    C110361   2.582   1.250  15.509  0.8257  0.3835  0.1095
  701TMC3    C210362   2.603   1.171  15.403 -0.3413 -0.3274  0.5168
  701TMC3    C310363   2.710   1.202  15.323 -0.0615 -0.0926  0.0365
  701TMC3    C410364   2.685   1.331  15.568  1.0982 -0.0971 -0.1623
  701TMC3    C510365   2.789   1.367  15.486 -0.5996  0.1085 -0.0098
  701TMC3    C610366   2.804   1.296  15.369 -0.4269 -0.4266 -0.2754
  701TMC3     C10367   2.480   1.214  15.600  0.2138 -1.0213  0.8937
  701TMC3     O10368   2.432   1.101  15.592  0.5577 -0.2180  0.0488
  701TMC3     H10369   2.526   1.104  15.368 -1.1421 -0.1056  1.8590
  701TMC3    H110370   2.671   1.392  15.657  0.3823  0.1747 -0.4570
  701TMC3    H210371   2.885   1.321  15.302  1.2226 -0.4090  1.7457
  701TMC3    C710372   2.864   1.486  15.511 -0.2642 -0.0080  0.0423
  701TMC3    C810373   2.708   1.170  15.180 -0.7272 -0.3189  0.3519
  701TMC3    O110374   2.908   1.555  15.418  0.2829  0.7637  0.0094
  701TMC3    O210375   2.746   1.264  15.115  0.2740 -0.1819 -0.0472
  702MPD2     C10376   1.700   3.411   9.929 -0.3093  0.1654 -0.4703
  702MPD2    C110377   1.736   3.501  10.029 -0.0177  0.2221  0.8760
  702MPD2    C210378   1.720   3.635  10.013 -0.3135 -0.3023 -0.2159
  702MPD2    C310379   1.654   3.674   9.896 -0.2926 -0.3518 -0.6215
  702MPD2    C410380   1.613   3.587   9.803  0.5349 -0.2987 -0.6564
  702MPD2    C510381   1.628   3.459   9.824  0.0842 -0.3910 -0.5602
  702MPD2     H10382   1.760   3.704  10.087  2.7758 -0.1414 -2.0354
  702MPD2    H110383   1.565   3.624   9.713  0.8823  0.0916 -0.6784
  702MPD2    H210384   1.712   3.303   9.941 -1.3145  0.1397  0.3355
  702MPD2    H310385   1.608   3.392   9.741 -0.2543 -2.4594  1.2115
  702MPD2     N10386   1.645   3.815   9.882 -0.0608 -0.3079 -0.0626
  702MPD2    H510387   1.681   3.876   9.955 -1.1847 -1.6589  1.6147
  702MPD2    N110388   1.798   3.454  10.149  0.4500 -0.0503  0.5046
  702MPD2    H710389   1.821   3.537  10.202  0.2828  0.2781  0.0554
  703TMC3    C110390   1.583   4.018   9.811  0.4988  1.2543  0.1967
  703TMC3    C210391   1.464   4.083   9.821  0.4268  0.1708 -0.0476
  703TMC3    C310392   1.459   4.202   9.886  1.2574 -0.6368  0.2075
  703TMC3    C410393   1.700   4.066   9.865 -0.0490 -0.0856 -0.2730
  703TMC3    C510394   1.698   4.190   9.927  0.9356  0.8424 -0.0809
  703TMC3    C610395   1.578   4.254   9.945 -0.5953  0.3040  0.1114
  703TMC3     C10396   1.579   3.876   9.786  0.2755  0.0559  0.6147
  703TMC3     O10397   1.481   3.834   9.717 -0.5967 -0.3347  0.1808
  703TMC3     H10398   1.372   4.029   9.803  1.5220 -0.8039 -2.7467
  703TMC3    H110399   1.796   4.022   9.840 -0.8717 -1.5178 -0.9046
  703TMC3    H210400   1.574   4.354   9.987  0.5399  0.3129  0.2135
  703TMC3    C710401   1.819   4.265   9.961 -0.5532  0.3260 -0.3471
  703TMC3    C810402   1.353   4.233   9.977 -0.1259 -0.1184  0.0885
  703TMC3    O110403   1.926   4.207   9.934  0.4838 -0.5784 -0.3418
  703TMC3    O210404   1.381   4.270  10.091 -0.2196  0.0455  0.3277
  704TMC3    C110405   4.009   1.788  12.429 -0.4751  0.3477 -1.1043
  704TMC3    C210406   4.139   1.806  12.403 -0.5306 -0.3287 -0.7651
  704TMC3    C310407   4.233   1.745  12.484  0.2682  0.3426 -0.5126
  704TMC3    C410408   3.970   1.714  12.534 -0.1395  0.1948 -0.3715
  704TMC3    C510409   4.065   1.650  12.609  0.4779  0.3957  0.0762
  704TMC3    C610410   4.197   1.657  12.580  0.1620 -0.7536 -0.5075
  704TMC3     C10411   3.918   1.822  12.314  0.7374  0.5341 -0.7133
  704TMC3     O10412   3.801   1.811  12.352  0.2287  0.3411 -0.3102
  704TMC3     H10413   4.163   1.882  12.330 -2.2003  1.1025  0.1844
  704TMC3    H110414   3.864   1.709  12.559 -0.0338 -0.5069 -0.0652
  704TMC3    H210415   4.260   1.607  12.654 -0.0837 -0.9610 -0.4402
  704TMC3    C710416   4.034   1.524  12.679  0.8647 -0.3300  0.3709
  704TMC3    C810417   4.361   1.727  12.421  1.2714  0.6456 -0.3789
  704TMC3    O110418   3.953   1.532  12.769  0.0491  0.0615  0.2926
  704TMC3    O210419   4.359   1.706  12.297 -1.2131  0.1521 -0.0746
  705MPD2     C10420   3.870   0.121  16.367 -0.2991 -0.1780 -0.4428
  705MPD2    C110421   3.898   0.237  16.437  0.8286 -0.0485 -0.4784
  705MPD2    C210422   3.801   0.316  16.495 -0.7286  0.0458 -0.1411
  705MPD2    C310423   3.667   0.278  16.488 -1.0580  0.0959 -0.5464
  705MPD2    C410424   3.635   0.158  16.422 -0.4606 -0.0721 -0.0105
  705MPD2    C510425   3.738   0.084  16.372 -0.2876  0.2560  0.5215
  705MPD2     H10426   3.830   0.408  16.544  1.4548 -1.4781  1.3787
  705MPD2    H110427   3.532   0.126  16.409 -1.0727  1.6527  0.6385
  705MPD2    H210428   3.941   0.063  16.310 -0.7121 -2.3505  1.2350
  705MPD2    H310429   3.724   4.713  16.316  1.4612  1.1663 -1.3792
  705MPD2     N10430   3.558   0.342  16.546  0.2218  0.9367  0.5104
  705MPD2    H510431   3.471   0.290  16.544  1.2469 -0.8084  1.2301
  705MPD2    N110432   4.030   0.285  16.437 -0.8025 -0.0390 -0.4011
  705MPD2    H710433   4.028   0.378  16.477 -0.7732 -0.7340  1.2141
  706TMC3    C110434   4.478   0.345  16.297  0.2774  0.0672 -0.4954
  706TMC3    C210435   4.476   0.472  16.342  0.7779 -0.4122  0.2588
  706TMC3    C310436   4.357   0.517  16.400 -0.2999  0.2024  0.0113
  706TMC3    C410437   4.371   0.267  16.324  0.3396 -0.7317  0.2303
  706TMC3    C510438   4.259   0.309  16.378  0.4378 -0.4567  0.5835
  706TMC3    C610439   4.242   0.444  16.410  0.2548  0.6154  0.0140
  706TMC3     C10440   4.598   0.304  16.232  0.5520 -0.4092 -0.1681
  706TMC3     O10441   4.699   0.376  16.251 -0.5594  0.0361 -0.7137
  706TMC3     H10442   4.549   0.545  16.310 -0.4744  0.9820  0.6032
  706TMC3    H110443   4.378   0.164  16.291 -1.5582 -0.6618 -0.4182
  706TMC3    H210444   4.172   0.477  16.486 -2.4676  0.8389 -2.5936
  706TMC3    C710445   4.141   0.218  16.385 -0.0504 -0.8664  0.4265
  706TMC3    C810446   4.345   0.661  16.390 -0.6734  0.0642  0.2367
  706TMC3    O110447   4.158   0.098  16.360 -0.4048  0.1681 -0.0533
  706TMC3    O210448   4.433   0.726  16.344  0.0531  0.3448 -0.5217
  707TMC3    C110449   0.643   4.058   1.084 -0.0689  0.1786  0.7471
  707TMC3    C210450   0.590   3.973   0.988 -0.3679 -0.3267 -0.2084
  707TMC3    C310451   0.453   3.957   0.976  0.9557 -0.2339  0.2886
  707TMC3    C410452   0.560   4.143   1.160 -0.4543 -0.1975  0.4719
  707TMC3    C510453   0.428   4.137   1.136  0.2255 -0.2313 -0.3606
  707TMC3    C610454   0.372   4.037   1.051 -1.2836 -0.4128 -0.7354
  707TMC3     C10455   0.787   4.067   1.080  0.2418  0.0819 -0.4879
  707TMC3     O10456   0.845   4.054   0.968  0.1070  0.0504 -0.3647
  707TMC3     H10457   0.657   3.902   0.940  0.8167  1.4673 -1.2536
  707TMC3    H110458   0.613   4.219   1.216 -0.2270  1.1123 -1.5063
  707TMC3    H210459   0.266   4.016   1.045 -0.8827 -2.4663 -0.9014
  707TMC3    C710460   0.339   4.238   1.195 -0.5212  0.4611 -0.1918
  707TMC3    C810461   0.401   3.817   0.951  0.1452  0.6632  0.2018
  707TMC3    O110462   0.225   4.248   1.154  0.0394  0.3545  0.1212
  707TMC3    O210463   0.284   3.792   0.966 -0.1721  0.1691 -0.6534
  708MPD2     C10464   2.488   2.402  13.720 -0.2549 -0.9964  0.0759
  708MPD2    C110465   2.403   2.505  13.756  0.2431 -0.0867 -0.8010
  708MPD2    C210466   2.290   2.485  13.828 -0.2303  0.1141 -0.0408
  708MPD2    C310467   2.277   2.358  13.892  0.4487 -0.6565 -0.4164
  708MPD2    C410468   2.368   2.259  13.864 -0.1881 -0.1963 -0.2830
  708MPD2    C510469   2.480   2.284  13.785 -0.9285  0.2893 -0.2361
  708MPD2     H10470   2.225   2.566  13.856 -0.2020  0.7740 -1.8538
  708MPD2    H110471   2.344   2.167  13.915  1.3754 -0.7734 -0.5911
  708MPD2    H210472   2.574   2.425  13.659 -1.5284  1.9518 -0.6017
  708MPD2    H310473   2.546   2.199  13.777  0.7243  1.5228  0.1654
  708MPD2     N10474   2.169   2.342  13.978  0.3640  0.2456  0.8212
  708MPD2    H510475   2.105   2.421  13.987 -1.3402 -1.1673  1.0244
  708MPD2    N110476   2.422   2.637  13.722 -0.1848 -0.1344  0.3553
  708MPD2    H710477   2.343   2.697  13.744  0.5397  1.0112 -0.1795
  709TMC3    C110478   2.496   2.834  13.643 -0.3329 -1.2219 -0.4956
  709TMC3    C210479   2.444   2.857  13.517 -0.0092 -0.3270 -0.1216
  709TMC3    C310480   2.343   2.950  13.502  0.6155 -0.1100 -0.3228
  709TMC3    C410481   2.445   2.906  13.748 -0.0856 -0.3853 -0.1540
  709TMC3    C510482   2.322   2.977  13.737 -0.1274 -0.2274 -0.1546
  709TMC3    C610483   2.279   3.008  13.611 -0.0607 -0.2637  0.0350
  709TMC3     C10484   2.523   2.696  13.658 -0.1314 -0.0522 -0.2398
  709TMC3     O10485   2.617   2.649  13.596 -0.2610 -0.4482  0.5655
  709TMC3     H10486   2.487   2.801  13.435  0.3971  0.2036 -0.2730
  709TMC3    H110487   2.480   2.877  13.847 -1.4180 -2.2304 -0.2285
  709TMC3    H210488   2.192   3.071  13.605  0.5379  0.4086 -1.6373
  709TMC3    C710489   2.220   2.916  13.817 -0.2250 -0.3037  0.4014
  709TMC3    C810490   2.287   2.972  13.364 -0.2394  0.3893 -0.2905
  709TMC3    O110491   2.239   2.805  13.865  0.7842  0.2162  0.0646
  709TMC3    O210492   2.224   3.072  13.339  0.0688 -0.0200  0.1896
  710TMC3    C110493   3.238   4.342   0.706  0.2605 -0.5469  0.5066
  710TMC3    C210494   3.344   4.414   0.656  0.0300  0.6826  0.5632
  710TMC3    C310495   3.462   4.343   0.643  0.0267 -0.0588 -0.1078
  710TMC3    C410496   3.242   4.203   0.738 -0.1334  0.5608 -0.5842
  710TMC3    C510497   3.364   4.141   0.718 -0.2619 -0.5258 -0.1194
  710TMC3    C610498   3.475   4.211   0.675 -0.6928  0.5356 -0.3972
  710TMC3     C10499   3.105   4.397   0.681  0.6567  0.2575 -0.1408
  710TMC3     O10500   3.035   4.326   0.611  0.1883 -0.5323  0.7415
  710TMC3     H10501   3.333   4.517   0.625  2.0656  0.0522 -2.2493
  710TMC3    H110502   3.149   4.159   0.770  0.9417 -1.1186  0.2253
  710TMC3    H210503   3.572   4.164   0.688 -0.7101  0.2227 -1.3726
  710TMC3    C710504   3.382   4.009   0.782  0.1032  0.1148  0.0459
  710TMC3    C810505   3.583   4.406   0.595 -0.6801 -0.6884  0.6914
  710TMC3    O110506   3.291   3.973   0.852 -0.0786 -0.5995  0.7974
  710TMC3    O210507   3.598   4.521   0.619  0.3995 -0.4241 -0.2798
  711TMC3    C110508   3.404   0.465  15.093 -0.8557  0.3566  0.1148
  711TMC3    C210509   3.418   0.599  15.127  0.0284 -0.3446  0.0289
  711TMC3    C310510   3.513   0.624  15.226  0.4816  0.2536  0.2861
  711TMC3    C410511   3.464   0.365  15.155 -0.1475 -0.8009 -0.1270
  711TMC3    C510512   3.560   0.398  15.247 -0.0760  0.0632 -0.2948
  711TMC3    C610513   3.584   0.527  15.280  0.5010  0.4405  0.2612
  711TMC3     C10514   3.324   0.437  14.974 -0.5020  0.6717  0.4107
  711TMC3     O10515   3.263   0.331  14.960  0.4332 -0.0763 -0.1998
  711TMC3     H10516   3.376   0.682  15.073  1.5546  1.4030  1.5121
  711TMC3    H110517   3.435   0.270  15.111  0.6559 -1.3806  0.6054
  711TMC3    H210518   3.659   0.549  15.356 -1.8880 -1.2677  3.1076
  711TMC3    C710519   3.645   0.299  15.304  0.0768 -0.3808 -0.2464
  711TMC3    C810520   3.504   0.751  15.295  0.0334 -0.4190  0.1065
  711TMC3    O110521   3.736   0.343  15.367 -0.6647 -0.9056  0.3406
  711TMC3    O210522   3.392   0.801  15.303 -0.0816  0.5837 -0.2416
  712MPD2     C10523   4.192   1.546  13.025  0.6593  0.5110  0.3868
  712MPD2    C110524   4.085   1.580  13.102  1.1478 -0.6394  0.0910
  712MPD2    C210525   4.098   1.678  13.201 -1.2833  0.2623 -0.3119
  712MPD2    C310526   4.214   1.739  13.236 -0.1143 -0.0083  0.0962
  712MPD2    C410527   4.326   1.688  13.168 -0.4515 -0.1622 -0.5992
  712MPD2    C510528   4.315   1.593  13.064  0.4779 -0.1929  0.5691
  712MPD2     H10529   4.005   1.708  13.249 -2.9130 -2.7202 -1.6057
  712MPD2    H110530   4.423   1.722  13.204 -0.0172 -0.9644 -1.0208
  712MPD2    H210531   4.178   1.493  12.932  1.5494  1.9936 -0.5835
  712MPD2    H310532   4.400   1.570  13.001  0.1429 -0.8719  0.3637
  712MPD2     N10533   4.233   1.829  13.339  0.4192 -0.2739 -0.1642
  712MPD2    H510534   4.331   1.846  13.361  0.0646 -0.0092  1.1940
  712MPD2    N110535   3.956   1.552  13.064  0.5183  0.0597 -0.1818
  712MPD2    H710536   3.934   1.526  12.969 -1.2259  0.5668  0.0803
  713TMC3    C110537   4.194   1.997  13.495 -0.4133  0.0550  0.0094
  713TMC3    C210538   4.292   1.952  13.585 -0.6227 -0.0742 -0.6015
  713TMC3    C310539   4.329   2.038  13.680 -0.1823 -0.3334  0.3365
  713TMC3    C410540   4.118   2.104  13.508  0.1221  0.7121  0.3999
  713TMC3    C510541   4.151   2.181  13.619  0.4047 -0.2941  0.7878
  713TMC3    C610542   4.249   2.146  13.709  0.4918 -0.1831 -0.1241
  713TMC3     C10543   4.134   1.901  13.406 -0.1352 -0.6729 -0.1966
  713TMC3     O10544   4.011   1.919  13.384 -0.3784  1.1050 -0.4366
  713TMC3     H10545   4.351   1.862  13.589 -0.2151  0.2231  0.1181
  713TMC3    H110546   4.048   2.143  13.435  0.6395  1.1399  0.1309
  713TMC3    H210547   4.275   2.218  13.785 -2.0140  1.1291 -0.5061
  713TMC3    C710548   4.121   2.329  13.620 -0.1921 -0.1867  0.2198
  713TMC3    C810549   4.474   2.059  13.681  0.1621 -0.4747 -0.2592
  713TMC3    O110550   4.216   2.402  13.654 -0.1960 -0.4006 -0.4812
  713TMC3    O210551   4.532   2.041  13.575 -0.2074 -0.6881 -0.0259
  714MPD2     C10552   1.692   0.659   1.037 -0.2435  0.9066 -0.3720
  714MPD2    C110553   1.720   0.527   1.061 -0.4608 -0.0547 -0.0979
  714MPD2    C210554   1.658   0.436   0.983 -0.1475  0.4022 -0.1228
  714MPD2    C310555   1.583   0.471   0.871 -0.4764  0.0140  0.8638
  714MPD2    C410556   1.574   0.605   0.842  0.2178 -0.1107  0.0102
  714MPD2    C510557   1.620   0.698   0.929  0.0650 -0.1524  0.8730
  714MPD2     H10558   1.671   0.330   1.002 -0.2982  0.0522 -1.9070
  714MPD2    H110559   1.524   0.649   0.756 -0.3140  0.2071  0.4864
  714MPD2    H210560   1.727   0.738   1.102 -2.2833  0.7288  0.9188
  714MPD2    H310561   1.598   0.798   0.894 -1.6374 -0.1845  1.8360
  714MPD2     N10562   1.510   0.365   0.807  0.1729  0.3974 -0.2464
  714MPD2    H510563   1.525   0.271   0.842 -0.2927 -0.0536 -1.2855
  714MPD2    N110564   1.818   0.499   1.158  0.3597 -0.2112 -0.2811
  714MPD2    H710565   1.858   0.585   1.195 -2.4420  0.9227  0.1188
  715TMC3    C110566   1.955   0.377   1.302  0.0821  0.2486 -0.3830
  715TMC3    C210567   2.036   0.267   1.305 -0.1546 -0.5148 -0.4210
  715TMC3    C310568   2.098   0.248   1.420  0.0383  0.1014 -0.2927
  715TMC3    C410569   1.935   0.454   1.413  0.0952 -0.0005 -0.2577
  715TMC3    C510570   1.991   0.420   1.533  0.3464 -0.3226 -0.1294
  715TMC3    C610571   2.084   0.315   1.538  0.1480  0.1117 -0.4234
  715TMC3     C10572   1.865   0.378   1.192  0.4555  0.4931  0.4077
  715TMC3     O10573   1.817   0.279   1.145  0.1090 -0.4792  0.0706
  715TMC3     H10574   2.054   0.209   1.214 -0.3110  0.3645 -1.0107
  715TMC3    H110575   1.856   0.527   1.397 -2.9021 -3.0640  0.4793
  715TMC3    H210576   2.157   0.314   1.618  0.2153  0.4944 -0.4798
  715TMC3    C710577   2.008   0.516   1.634  0.5992 -0.0718 -0.1080
  715TMC3    C810578   2.170   0.121   1.426 -0.3612  0.3170  0.2993
  715TMC3    O110579   2.062   0.479   1.736  0.0871  0.1107 -0.1272
  715TMC3    O210580   2.234   0.088   1.327 -0.3743 -0.1264  0.2249
  716MPD2     C10581   1.785   4.350   9.501 -0.1095 -0.2112  0.0362
  716MPD2    C110582   1.747   4.285   9.392  0.8027  0.5105  0.0558
  716MPD2    C210583   1.757   4.149   9.393  0.6225  0.2930  0.2562
  716MPD2    C310584   1.818   4.085   9.497  0.2623 -0.9280 -0.2540
  716MPD2    C410585   1.885   4.156   9.597 -0.7431  0.2708  0.4444
  716MPD2    C510586   1.849   4.286   9.602 -1.1094  0.7588 -0.5177
  716MPD2     H10587   1.716   4.087   9.313  0.6182 -0.0889  0.5552
  716MPD2    H110588   1.938   4.113   9.681  0.9315 -0.8276 -1.1800
  716MPD2    H210589   1.780   4.458   9.513  0.2364  0.0216 -1.7821
  716MPD2    H310590   1.876   4.347   9.687  0.3379 -0.4550 -0.1079
  716MPD2     N10591   1.826   3.941   9.506  0.3214  0.0596  0.0081
  716MPD2    H510592   1.793   3.900   9.419 -1.0172 -1.0426  1.0410
  716MPD2    N110593   1.681   4.350   9.284 -0.0629  0.3597 -0.0828
  716MPD2    H710594   1.681   4.451   9.292 -3.0137  0.1717  2.4857
  717TMC3    C110595   1.853   3.719   9.583  0.5097  0.3264  0.0169
  717TMC3    C210596   1.761   3.679   9.494 -0.6810 -0.4647 -0.6518
  717TMC3    C310597   1.751   3.552   9.462  0.0105  0.1269  0.2934
  717TMC3    C410598   1.934   3.627   9.648  0.4894 -0.1745  0.2870
  717TMC3    C510599   1.913   3.498   9.620  0.5515  0.1165  1.0839
  717TMC3    C610600   1.827   3.455   9.521 -0.4153  0.3637 -0.0931
  717TMC3     C10601   1.880   3.861   9.602  0.6033  0.6417  0.1974
  717TMC3     O10602   1.936   3.884   9.713 -0.6029 -0.0721  0.3174
  717TMC3     H10603   1.689   3.753   9.458  0.4532  0.4148 -1.1036
  717TMC3    H110604   2.016   3.668   9.706  1.0788 -0.4804 -0.3384
  717TMC3    H210605   1.816   3.349   9.502  3.3917 -0.0261 -0.2297
  717TMC3    C710606   1.983   3.399   9.701 -0.1853 -0.0487  0.3045
  717TMC3    C810607   1.630   3.501   9.394 -0.5841  0.2071 -0.0262
  717TMC3    O110608   1.977   3.284   9.667  0.0492 -0.0573 -0.1556
  717TMC3    O210609   1.528   3.573   9.402 -0.3261  0.2586 -0.0647
  718MPD2     C10610   1.207   1.894  13.050  0.0418  0.3109 -0.1107
  718MPD2    C110611   1.188   1.910  12.918 -0.5431 -0.4975 -0.0784
  718MPD2    C210612   1.071   1.881  12.860 -0.2472 -0.1556 -0.1576
  718MPD2    C310613   0.963   1.840  12.932 -0.1660  0.3215 -0.6326
  718MPD2    C410614   0.984   1.811  13.064 -0.4849  0.2057 -0.7773
  718MPD2    C510615   1.102   1.843  13.127 -0.6525  0.6164 -0.2751
  718MPD2     H10616   1.063   1.896  12.753 -0.2334 -2.3676 -0.4554
  718MPD2    H110617   0.903   1.775  13.127  0.8826  2.6779  2.3804
  718MPD2    H210618   1.297   1.910  13.109  0.6827  0.4795 -1.1326
  718MPD2    H310619   1.113   1.828  13.234 -3.6962 -3.6527 -0.5287
  718MPD2     N10620   0.841   1.830  12.862  0.4261  0.3139 -0.3164
  718MPD2    H510621   0.849   1.827  12.760  1.4325  1.2973 -0.2616
  718MPD2    N110622   1.286   1.953  12.825 -0.1584  0.7147 -0.1771
  718MPD2    H710623   1.258   1.955  12.727  0.2586  0.6307 -0.2964
  719TMC3    C110624   1.462   2.055  12.727  0.3081 -0.5593  0.1614
  719TMC3    C210625   1.419   1.976  12.620 -0.3228  0.1892  0.1579
  719TMC3    C310626   1.396   2.035  12.501 -0.1894 -0.2861  0.6644
  719TMC3    C410627   1.499   2.188  12.720  0.0586  0.6453 -0.6872
  719TMC3    C510628   1.486   2.239  12.591 -1.0876 -0.4524 -0.1862
  719TMC3    C610629   1.418   2.174  12.487  0.4939 -1.1862  0.2654
  719TMC3     C10630   1.406   2.010  12.854 -0.4882 -0.1152 -0.3598
  719TMC3     O10631   1.447   2.057  12.958 -0.1228  0.0213  0.0270
  719TMC3     H10632   1.420   1.869  12.636 -0.2251  0.0198 -1.0526
  719TMC3    H110633   1.494   2.250  12.808  1.7096 -1.3004  0.7755
  719TMC3    H210634   1.407   2.227  12.393 -3.1085  0.5883  1.7118
  719TMC3    C710635   1.575   2.344  12.562 -0.4357  0.6049 -0.0540
  719TMC3    C810636   1.264   1.986  12.468 -0.2730  0.2292  0.4899
  719TMC3    O110637   1.575   2.385  12.445  0.0447  0.6408  0.0448
  719TMC3    O210638   1.223   1.887  12.535 -0.5729 -0.3327 -0.1033
  720MPD2     C10639   0.114   3.327  13.782 -0.0624 -0.5754 -0.4898
  720MPD2    C110640   0.201   3.420  13.725 -0.1507 -0.1797 -0.7876
  720MPD2    C210641   0.324   3.452  13.796 -0.3072 -0.9186 -0.7642
  720MPD2    C310642   0.358   3.387  13.915  0.3119  0.2780  0.0612
  720MPD2    C410643   0.268   3.286  13.961  0.0234 -0.7256  0.0345
  720MPD2    C510644   0.143   3.273  13.904  0.5341 -0.0481 -0.4583
  720MPD2     H10645   0.389   3.533  13.767 -1.2787  0.5784  1.2335
  720MPD2    H110646   0.283   3.228  14.051  0.2358 -1.9314 -0.7758
  720MPD2    H210647   0.024   3.300  13.728 -0.9228  1.1877  0.0512
  720MPD2    H310648   0.070   3.213  13.956  1.8869 -1.1422  0.1624
  720MPD2     N10649   0.483   3.411  13.976  0.0223  0.3263 -1.0237
  720MPD2    H510650   0.525   3.499  13.948 -0.4913  0.2244 -2.1091
  720MPD2    N110651   0.149   3.485  13.609  0.5851  0.3578  0.0773
  720MPD2    H710652   0.055   3.451  13.590  0.0051  1.9062  0.1305
  721TMC3    C110653   0.673   3.390  14.115 -0.1736  0.6348  0.1921
  721TMC3    C210654   0.680   3.398  14.252  0.4726 -0.2165 -0.4875
  721TMC3    C310655   0.762   3.497  14.305 -0.3484 -0.3395  0.7366
  721TMC3    C410656   0.746   3.463  14.034 -0.5764 -0.2151 -0.4904
  721TMC3    C510657   0.843   3.548  14.085 -0.3447 -0.6842 -0.7969
  721TMC3    C610658   0.852   3.561  14.224 -0.0620 -0.2212  0.0351
  721TMC3     C10659   0.543   3.331  14.072 -0.2417 -0.4968  0.5893
  721TMC3     O10660   0.501   3.233  14.129  0.4795 -0.5635  0.0605
  721TMC3     H10661   0.633   3.327  14.318  1.0231 -0.3845 -0.2810
  721TMC3    H110662   0.720   3.473  13.929  1.9241 -2.1356 -1.3020
  721TMC3    H210663   0.922   3.632  14.265 -0.7868  1.1613 -1.1272
  721TMC3    C710664   0.900   3.658  14.013 -0.3070 -0.9002 -0.5018
  721TMC3    C810665   0.746   3.537  14.442 -0.2250 -1.7660 -0.3413
  721TMC3    O110666   0.998   3.710  14.071  0.2040  0.2139  0.3122
  721TMC3    O210667   0.844   3.585  14.496 -0.0059 -0.0891  0.7115
  722MPD2     C10668   3.029   2.179  13.268  0.2706  0.2231 -0.5800
  722MPD2    C110669   2.985   2.298  13.215  0.0639  0.1959  0.1960
  722MPD2    C210670   2.865   2.302  13.145  0.0274 -0.1852 -0.5918
  722MPD2    C310671   2.794   2.185  13.118 -0.7870  0.2528  0.2428
  722MPD2    C410672   2.844   2.069  13.163 -0.2218  0.4463 -1.0970
  722MPD2    C510673   2.961   2.066  13.241 -0.3276 -0.4770  0.0640
  722MPD2     H10674   2.827   2.398  13.113 -1.3191 -1.1299 -1.8013
  722MPD2    H110675   2.798   1.974  13.139 -2.2949  0.7736  1.5091
  722MPD2    H210676   3.129   2.164  13.308 -1.0340 -2.6786  1.6319
  722MPD2    H310677   3.012   1.973  13.264  0.3087 -0.4201 -1.1667
  722MPD2     N10678   2.679   2.188  13.032 -0.3426  0.3665  0.1037
  722MPD2    H510679   2.668   2.280  12.989 -2.4780  0.1202  0.1149
  722MPD2    N110680   3.062   2.415  13.216  0.1185 -0.3957  0.1221
  722MPD2    H710681   3.039   2.491  13.153 -0.4984  0.4926  1.3934
  723TMC3    C110682   2.502   2.124  12.882  0.1417  0.0995  0.5184
  723TMC3    C210683   2.401   2.040  12.848  0.3672 -0.7595 -0.3613
  723TMC3    C310684   2.320   2.073  12.743 -0.1181  0.0609  0.1496
  723TMC3    C410685   2.510   2.254  12.817 -0.4155  0.3001 -0.1236
  723TMC3    C510686   2.413   2.282  12.726 -0.2711 -0.0887 -0.4575
  723TMC3    C610687   2.316   2.193  12.689 -0.0574 -0.4783 -0.0710
  723TMC3     C10688   2.597   2.084  12.988  0.6414 -0.0224 -0.2905
  723TMC3     O10689   2.588   1.965  13.018 -0.3472 -0.0774  0.2054
  723TMC3     H10690   2.393   1.940  12.890  0.3807 -0.7507 -0.3376
  723TMC3    H110691   2.594   2.322  12.830  0.1094 -0.6276  1.3544
  723TMC3    H210692   2.247   2.216  12.609 -1.6195 -3.6016  0.3594
  723TMC3    C710693   2.432   2.399  12.643 -0.0705  0.3315  0.5115
  723TMC3    C810694   2.274   1.970  12.648 -0.2536 -0.1146  0.0325
  723TMC3    O110695   2.388   2.386  12.531 -0.6422  0.2456 -0.3516
  723TMC3    O210696   2.174   2.000  12.587 -0.5331 -0.2327 -0.0044
  724TMC3    C110697   3.635   0.670  10.492 -0.4587  0.4255 -0.6902
  724TMC3    C210698   3.522   0.697  10.419 -0.0560 -0.0042 -0.1680
  724TMC3    C310699   3.522   0.782  10.307 -0.2670 -0.5430 -0.0051
  724TMC3    C410700   3.757   0.707  10.442 -0.0455  0.5348 -0.2329
  724TMC3    C510701   3.756   0.789  10.333  0.4031 -0.3679  0.0567
  724TMC3    C610702   3.645   0.824  10.262  0.3543 -0.1734  0.3445
  724TMC3     C10703   3.638   0.539  10.563 -0.5779  0.1481  0.2597
  724TMC3     O10704   3.740   0.522  10.627  0.1697  0.1222 -0.5223
  724TMC3     H10705   3.434   0.686  10.481 -0.3738  0.3518 -0.5498
  724TMC3    H110706   3.851   0.680  10.488 -0.0265 -0.5823 -0.9219
  724TMC3    H210707   3.673   0.882  10.175  1.4489 -0.0740  0.7622
  724TMC3    C710708   3.870   0.868  10.311  0.3036 -0.0534 -0.1099
  724TMC3    C810709   3.406   0.858  10.271  0.4134 -0.4386 -0.6846
  724TMC3    O110710   3.900   0.896  10.192  0.0292 -0.5861  0.1434
  724TMC3    O210711   3.309   0.846  10.342 -0.0483  0.5217 -0.3235
  725TMC3    C110712   0.573   4.072  12.922 -0.0965  0.8319 -0.3247
  725TMC3    C210713   0.438   4.085  12.919 -0.4947  0.2814 -0.1106
  725TMC3    C310714   0.358   3.973  12.919  0.0882  0.1340  0.3463
  725TMC3    C410715   0.627   3.947  12.920 -0.7678 -0.5317 -0.2958
  725TMC3    C510716   0.545   3.837  12.927  0.2668  0.4980  0.0226
  725TMC3    C610717   0.410   3.848  12.911  0.2853 -0.4023 -0.4526
  725TMC3     C10718   0.660   4.188  12.947  0.7338  0.1813 -0.3984
  725TMC3     O10719   0.608   4.297  12.938 -0.5916 -0.3926  0.2085
  725TMC3     H10720   0.397   4.184  12.903  0.4168  0.5805 -0.6305
  725TMC3    H110721   0.733   3.928  12.920 -0.9194 -1.3550 -0.5915
  725TMC3    H210722   0.333   3.772  12.904 -1.7215  1.5929 -0.0605
  725TMC3    C710723   0.607   3.719  12.871  0.5491  0.2743  0.1172
  725TMC3    C810724   0.233   3.978  12.849 -0.2560 -0.3249  0.3313
  725TMC3    O110725   0.708   3.736  12.805 -0.3302 -0.2589 -0.1175
  725TMC3    O210726   0.141   3.922  12.905  0.2109  0.4793  0.2510
  726MPD2     C10727   3.414   0.992  11.025  0.2528 -0.2687 -0.3229
  726MPD2    C110728   3.349   1.091  10.949 -0.2925  0.3156  0.7418
  726MPD2    C210729   3.213   1.108  10.951 -0.9388  0.1514 -0.2801
  726MPD2    C310730   3.138   1.017  11.020 -0.1073  0.4600 -0.0703
  726MPD2    C410731   3.198   0.906  11.082 -0.5988 -0.9545 -0.3593
  726MPD2    C510732   3.338   0.900  11.089  0.3248 -0.2144 -1.5761
  726MPD2     H10733   3.164   1.178  10.885 -1.2927  0.4714  0.3234
  726MPD2    H110734   3.150   0.828  11.140 -1.9355 -0.2453 -0.5093
  726MPD2    H210735   3.521   0.975  11.022  0.7614  2.5058  1.9514
  726MPD2    H310736   3.390   0.817  11.135  1.0431  0.8464 -0.4607
  726MPD2     N10737   2.999   1.026  11.026 -0.7186 -0.1051  0.4963
  726MPD2    H510738   2.951   0.954  11.079 -0.8134  1.3457  2.3926
  726MPD2    N110739   3.424   1.199  10.890  0.4359 -0.3168 -0.6991
  726MPD2    H710740   3.379   1.282  10.853 -0.0327 -0.2656 -0.0228
  727TMC3    C110741   3.612   1.329  10.841  0.0639  0.3926 -0.1330
  727TMC3    C210742   3.749   1.338  10.834  0.1287  0.2215 -0.7337
  727TMC3    C310743   3.806   1.446  10.778  0.6383  0.3333 -0.1868
  727TMC3    C410744   3.537   1.409  10.758  0.0594 -0.7484 -0.0550
  727TMC3    C510745   3.598   1.516  10.700  0.4164  0.3596  0.0297
  727TMC3    C610746   3.732   1.540  10.708 -0.1694  0.0560  0.8087
  727TMC3     C10747   3.562   1.213  10.901  0.0867  0.2337  0.2048
  727TMC3     O10748   3.645   1.153  10.970 -0.0373  0.0002 -1.2968
  727TMC3     H10749   3.819   1.270  10.881 -0.7719  0.7728  1.4000
  727TMC3    H110750   3.429   1.396  10.763 -0.0862 -0.0287 -1.3257
  727TMC3    H210751   3.789   1.616  10.655 -1.2987 -0.1446 -0.6866
  727TMC3    C710752   3.516   1.609  10.637  0.0357 -0.0944 -0.1890
  727TMC3    C810753   3.949   1.445  10.759  0.9205  0.0432  0.2473
  727TMC3    O110754   3.418   1.564  10.588 -0.3770  0.1307 -0.2258
  727TMC3    O210755   4.002   1.340  10.728  0.0880  0.1633  0.3658
  728TMC3    C110756   2.543   4.396  15.395  0.3221  0.1777  0.1616
  728TMC3    C210757   2.640   4.499  15.414  0.3491  0.2192 -0.7199
  728TMC3    C310758   2.662   4.586  15.316 -0.2656 -1.1893 -0.1445
  728TMC3    C410759   2.478   4.383  15.276 -0.0827 -0.5101  0.4414
  728TMC3    C510760   2.511   4.464  15.176 -0.3849 -0.2090  0.0366
  728TMC3    C610761   2.606   4.562  15.190  0.2212 -0.1719 -0.8435
  728TMC3     C10762   2.452   4.407  15.510 -0.2150  0.6024  0.3623
  728TMC3     O10763   2.438   4.517  15.557 -0.2928 -0.2231 -0.1313
  728TMC3     H10764   2.675   4.511  15.516 -1.2244 -0.8052 -0.0507
  728TMC3    H110765   2.405   4.304  15.257  0.8702 -0.9059 -1.6051
  728TMC3    H210766   2.641   4.628  15.111 -2.9784  3.4588  0.7968
  728TMC3    C710767   2.456   4.432  15.051  0.1563 -0.1583 -0.6204
  728TMC3    C810768   2.797   4.623  15.306 -0.0324  0.1285  0.4061
  728TMC3    O110769   2.395   4.329  15.028 -0.0464  0.9028 -0.1378
  728TMC3    O210770   2.830   0.008  15.259  0.3191  0.6158  0.2037
  729MPD2     C10771   4.639   0.376  16.629  0.4066  0.1713 -0.5453
  729MPD2    C110772   4.651   0.513  16.621 -0.3027  0.0612 -0.2477
  729MPD2    C210773   4.548   0.591  16.663  0.5400 -0.5024 -0.2425
  729MPD2    C310774   4.437   0.535  16.717 -0.3222 -0.4554  0.2912
  729MPD2    C410775   4.423   0.396  16.721 -0.7005 -0.3503 -0.0650
  729MPD2    C510776   4.520   0.318  16.668  0.8777 -0.0669 -0.3873
  729MPD2     H10777   4.558   0.696  16.690 -2.8878  0.0766 -1.2213
  729MPD2    H110778   4.330   0.347  16.749 -1.6315  1.8983  0.7658
  729MPD2    H210779   4.719   0.315  16.588  1.1752  0.9667 -0.2468
  729MPD2    H310780   4.508   0.211  16.671 -2.5132  0.3512  1.7167
  729MPD2     N10781   4.323   0.611  16.772  0.1273  0.3996  0.0476
  729MPD2    H510782   4.255   0.555  16.821  0.7410  0.0822  0.5334
  729MPD2    N110783   0.055   0.563  16.577 -0.3421  0.2958  0.1099
  729MPD2    H710784   0.127   0.495  16.557  0.6746  1.2854  0.3584
  730TMC3    C110785   4.244   0.777  16.905 -0.0586 -0.2379 -0.3219
  730TMC3    C210786   4.320   0.714  16.995 -0.1574 -0.6567 -0.0557
  730TMC3    C310787   4.398   0.790  17.076  0.1306 -0.4712  0.0091
  730TMC3    C410788   4.223   0.908  16.915 -0.1475 -0.2471  0.6178
  730TMC3    C510789   4.293   0.985  17.008 -0.0351 -0.5661 -1.0449
  730TMC3    C610790   4.386   0.925  17.088  0.4631  0.7375  0.7300
  730TMC3     C10791   4.314   0.746  16.784 -0.0615 -1.2524 -0.5342
  730TMC3     O10792   4.372   0.834  16.717  0.4834  0.2843 -0.2232
  730TMC3     H10793   4.339   0.608  16.998 -1.0000 -0.8187 -0.3534
  730TMC3    H110794   4.163   0.962  16.842 -0.9627 -2.2017 -0.1416
  730TMC3    H210795   4.456   0.981  17.149  1.5884 -1.1612  1.1754
  730TMC3    C710796   4.293   1.127  16.991 -1.0888  0.0589 -0.9104
  730TMC3    C810797   4.525   0.728  17.092  0.1641  0.1461  0.0769
  730TMC3    O110798   4.257   1.178  16.883 -0.1531  0.4557 -0.4483
  730TMC3    O210799   4.534   0.606  17.112  0.4372 -0.0438  0.0985
  731MPD2     C10800   4.607   3.660  11.992 -0.2102  0.3001  0.2321
  731MPD2    C110801   4.662   3.533  11.978  0.8404 -0.2365  0.4065
  731MPD2    C210802   4.653   3.444  12.079  0.7419 -0.1360  0.3578
  731MPD2    C310803   4.562   3.479  12.183  0.7261  0.0447  0.9332
  731MPD2    C410804   4.505   3.598  12.198  0.4261  0.1775  0.0235
  731MPD2    C510805   4.541   3.688  12.107 -0.2074 -0.1865  0.0314
  731MPD2     H10806   4.705   3.349  12.080  0.0869 -0.4922  1.0773
  731MPD2    H110807   4.440   3.632  12.278 -1.0792 -2.4369 -0.0784
  731MPD2    H210808   4.611   3.731  11.910  0.2085 -1.3444 -1.1834
  731MPD2    H310809   4.503   3.790  12.106 -1.6818 -0.7163  1.6335
  731MPD2     N10810   4.531   3.375  12.276  0.3413  0.7922 -0.8888
  731MPD2    H510811   4.571   3.284  12.254 -0.2077  0.7685 -1.8066
  731MPD2    N110812   0.014   3.509  11.858 -0.0089 -0.6697 -0.1749
  731MPD2    H710813   4.707   3.559  11.774  0.7451 -0.2670 -0.1802
  732TMC3    C110814   0.143   3.397  11.697 -0.5074  0.5945 -0.0339
  732TMC3    C210815   0.044   3.368  11.603  0.0029 -0.1460  0.4060
  732TMC3    C310816   0.092   3.302  11.492  0.3023 -0.1624 -0.2340
  732TMC3    C410817   0.278   3.360  11.693  0.4938  0.8495  0.0625
  732TMC3    C510818   0.318   3.298  11.574 -0.0982 -0.0806  0.2757
  732TMC3    C610819   0.222   3.286  11.472  0.2818 -0.0224 -0.0896
  732TMC3     C10820   0.105   3.411  11.838  0.0017 -0.0441 -0.1026
  732TMC3     O10821   0.161   3.338  11.920 -0.0037 -0.3046 -0.5576
  732TMC3     H10822   4.660   3.360  11.628 -0.4271  0.9668 -1.0209
  732TMC3    H110823   0.349   3.389  11.770  1.7580  0.6921 -1.0374
  732TMC3    H210824   0.240   3.226  11.384  1.4826 -0.0288  0.1508
  732TMC3    C710825   0.447   3.234  11.552  1.0006  0.3973 -0.0324
  732TMC3    C810826   4.718   3.230  11.402  0.4757 -0.6902  0.5720
  732TMC3    O110827   0.463   3.170  11.452 -0.4512  0.3267 -0.3024
  732TMC3    O210828   0.052   3.141  11.342  0.1653 -0.1500 -0.0631
  733TMC3    C110829   0.425   1.914  12.737  0.2997 -0.0476  0.5615
  733TMC3    C210830   0.506   1.887  12.840  0.8582  0.7410 -0.3577
  733TMC3    C310831   0.622   1.821  12.811 -0.0628 -0.2182  0.3960
  733TMC3    C410832   0.446   1.855  12.611 -0.0043 -0.2344  0.0903
  733TMC3    C510833   0.567   1.795  12.589 -0.1555 -0.5589  0.1287
  733TMC3    C610834   0.656   1.768  12.689 -0.3304  0.4011 -0.1544
  733TMC3     C10835   0.292   1.934  12.766  0.1888  0.7742 -0.1132
  733TMC3     O10836   0.236   1.989  12.675 -0.6694  0.0235  0.6927
  733TMC3     H10837   0.482   1.933  12.935 -2.6475 -0.3573 -0.6966
  733TMC3    H110838   0.370   1.865  12.535 -0.0167 -1.1120 -0.0077
  733TMC3    H210839   0.748   1.713  12.672  0.2597  1.3015  0.1307
  733TMC3    C710840   0.626   1.839  12.464  0.4237  0.3012 -0.3559
  733TMC3    C810841   0.718   1.832  12.917 -0.7928  0.0736  0.4962
  733TMC3    O110842   0.546   1.881  12.384 -0.0140  0.5732 -0.0175
  733TMC3    O210843   0.676   1.818  13.034  0.2032 -0.2275 -0.0811
  734MPD2     C10844   3.029   4.131  12.174  0.0891  0.6659 -0.3733
  734MPD2    C110845   2.925   4.121  12.090 -0.3736  0.4416 -0.0106
  734MPD2    C210846   2.939   4.161  11.960  0.1506 -0.1683  0.2501
  734MPD2    C310847   3.060   4.204  11.915  0.5845 -0.0622 -0.4430
  734MPD2    C410848   3.172   4.195  12.000 -0.0171 -0.3211 -0.3732
  734MPD2    C510849   3.155   4.163  12.133 -0.4277 -0.0080 -0.0001
  734MPD2     H10850   2.849   4.169  11.899 -0.8656  0.4912  1.8249
  734MPD2    H110851   3.268   4.235  11.972 -1.3560  2.8349 -0.5353
  734MPD2    H210852   3.015   4.106  12.278  3.0942 -0.0821 -0.1381
  734MPD2    H310853   3.237   4.176  12.203  0.3704 -0.1023 -0.9054
  734MPD2     N10854   3.075   4.241  11.778  0.0279  0.3533 -0.2470
  734MPD2    H510855   2.988   4.256  11.729 -1.6138  0.7227  2.7756
  734MPD2    N110856   2.794   4.070  12.137  0.5243 -0.0974  0.2441
  734MPD2    H710857   2.800   4.021  12.226 -0.1548 -2.2385 -0.8886
  735TMC3    C110858   2.600   3.940  12.082  0.1478  0.6477  0.1202
  735TMC3    C210859   2.491   3.936  11.999  0.3944 -0.0027  0.6012
  735TMC3    C310860   2.453   3.822  11.938 -0.0676 -0.0011  0.0849
  735TMC3    C410861   2.660   3.823  12.104 -0.3908 -0.0309  0.3007
  735TMC3    C510862   2.614   3.706  12.050  0.5151  0.9103 -0.1698
  735TMC3    C610863   2.512   3.703  11.965 -0.2073 -0.0660  0.2744
  735TMC3     C10864   2.690   4.049  12.050 -0.6840  0.5664  0.0225
  735TMC3     O10865   2.656   4.118  11.953  0.5151 -0.5895  0.2676
  735TMC3     H10866   2.441   4.029  11.974  1.6394  0.7828  1.0803
  735TMC3    H110867   2.753   3.823  12.160 -1.9539  0.7587  2.8982
  735TMC3    H210868   2.505   3.621  11.895  3.0614  0.4591 -0.6707
  735TMC3    C710869   2.712   3.598  12.044  0.4937 -0.4989 -0.4740
  735TMC3    C810870   2.439   3.836  11.794  0.0222  0.9722 -0.2241
  735TMC3    O110871   2.663   3.489  12.039 -0.0443 -0.1019 -0.1454
  735TMC3    O210872   2.371   3.754  11.732  0.2092 -0.1574  0.0600
  736MPD2     C10873   2.959   3.444  11.973  0.3399 -0.1814  0.5025
  736MPD2    C110874   2.949   3.582  11.968  0.5836  0.3833  0.0012
  736MPD2    C210875   3.050   3.655  11.910 -0.1085 -0.4881  0.4524
  736MPD2    C310876   3.159   3.590  11.855 -0.6568 -0.0078  0.0050
  736MPD2    C410877   3.165   3.455  11.864 -0.0921  0.7693 -0.6514
  736MPD2    C510878   3.073   3.379  11.930  0.0663 -0.6308  0.1268
  736MPD2     H10879   3.041   3.763  11.909  0.2212 -0.4431  1.5628
  736MPD2    H110880   3.251   3.402  11.824 -1.6161 -2.8988  1.0248
  736MPD2    H210881   2.884   3.380  12.020 -1.2614  0.8422 -0.6530
  736MPD2    H310882   3.078   3.272  11.948 -1.1524 -0.5208  1.1502
  736MPD2     N10883   3.264   3.647  11.786 -0.8324 -0.5989  0.3699
  736MPD2    H510884   3.333   3.578  11.759 -1.6599 -0.6929 -1.5407
  736MPD2    N110885   2.833   3.651  12.010 -0.5327  0.1040  0.0500
  736MPD2    H710886   2.846   3.751  12.001 -0.4021  0.2016  1.3734
  737TMC3    C110887   3.388   3.807  11.688  0.3782  0.0058  0.1202
  737TMC3    C210888   3.384   3.902  11.593  0.4389  0.5172 -0.0376
  737TMC3    C310889   3.476   3.904  11.491  0.2728 -0.1976 -0.1280
  737TMC3    C410890   3.492   3.718  11.698  0.1126  0.1658  0.5895
  737TMC3    C510891   3.583   3.724  11.599  0.1533  0.0191 -0.4287
  737TMC3    C610892   3.570   3.810  11.493 -0.5359  0.4803  0.5584
  737TMC3     C10893   3.273   3.786  11.770 -0.4458 -0.1023 -0.3249
  737TMC3     O10894   3.191   3.875  11.795 -0.2761 -0.1539 -0.2337
  737TMC3     H10895   3.300   3.970  11.591 -0.3166 -0.5008 -2.8905
  737TMC3    H110896   3.507   3.632  11.762 -2.4949 -0.9095 -0.2591
  737TMC3    H210897   3.649   3.817  11.419  0.1656 -0.2599  1.2389
  737TMC3    C710898   3.642   3.596  11.557  0.0235 -0.2353  0.0207
  737TMC3    C810899   3.460   4.005  11.391  0.1489  0.2457  0.0522
  737TMC3    O110900   3.616   3.502  11.632 -0.1507 -0.1757 -0.8069
  737TMC3    O210901   3.382   4.096  11.413 -0.4999  0.2023  0.5476
  738MPD2     C10902   4.079   2.772  15.066  0.3660 -0.6144  0.7636
  738MPD2    C110903   3.945   2.780  15.021 -0.2835  0.3194 -0.3519
  738MPD2    C210904   3.900   2.897  14.964  0.0630  0.2406 -0.0385
  738MPD2    C310905   3.991   3.004  14.949  0.1802 -1.0014  0.5990
  738MPD2    C410906   4.114   2.992  15.000  0.5177 -0.6864  0.0155
  738MPD2    C510907   4.159   2.880  15.052  0.3045 -0.1561  0.1542
  738MPD2     H10908   3.802   2.896  14.919  0.0354  0.3361  0.0196
  738MPD2    H110909   4.189   3.069  15.010 -2.0743  1.9436 -0.6864
  738MPD2    H210910   4.118   2.678  15.103  0.9760 -0.4591  0.5114
  738MPD2    H310911   4.261   2.877  15.088 -0.3138 -1.4069  1.8236
  738MPD2     N10912   3.956   3.129  14.894  0.1356  0.0052  0.0121
  738MPD2    H510913   4.035   3.193  14.892 -0.2146  0.4043 -0.8640
  738MPD2    N110914   3.848   2.670  15.026  0.1187  0.4387  0.0203
  738MPD2    H710915   3.751   2.677  14.995  0.1804  0.6834 -0.1134
  739TMC3    C110916   3.860   3.288  14.757 -0.3404 -0.1427  0.5264
  739TMC3    C210917   3.780   3.311  14.654 -0.5138 -0.2063 -0.5568
  739TMC3    C310918   3.816   3.425  14.578  0.6571 -0.4314 -0.7068
  739TMC3    C410919   3.955   3.379  14.804 -0.7941 -0.0391 -0.6826
  739TMC3    C510920   3.969   3.498  14.738  0.6285  0.0412  0.5599
  739TMC3    C610921   3.917   3.514  14.610  0.6894 -0.3175  0.1315
  739TMC3     C10922   3.845   3.156  14.820 -0.1409  0.4455  0.2272
  739TMC3     O10923   3.747   3.084  14.795 -0.1650  0.1161  0.4417
  739TMC3     H10924   3.706   3.238  14.624  2.1730 -2.7962 -0.8695
  739TMC3    H110925   3.997   3.361  14.903 -0.6755  0.9673 -0.5440
  739TMC3    H210926   3.929   3.602  14.548 -0.8703 -1.0613 -1.2151
  739TMC3    C710927   4.045   3.601  14.801 -0.0009  0.2696 -0.5647
  739TMC3    C810928   3.755   3.426  14.447 -0.4771 -0.4172  0.6780
  739TMC3    O110929   4.063   3.598  14.923  0.1223  0.0941  0.2347
  739TMC3    O210930   3.654   3.353  14.437  0.5022 -0.0037 -0.3964
  740TMC3    C110931   4.367   4.200  14.223  0.6256  0.0233 -0.3555
  740TMC3    C210932   4.393   4.223  14.358  0.0263  0.0536  0.4450
  740TMC3    C310933   4.518   4.209  14.410 -0.8187  0.1310  0.0127
  740TMC3    C410934   4.472   4.165  14.143  0.4548 -0.2622 -0.3164
  740TMC3    C510935   4.597   4.146  14.199 -0.2185  0.0271 -0.0713
  740TMC3    C610936   4.621   4.164  14.329  0.2243  0.3583  0.0606
  740TMC3     C10937   4.234   4.217  14.178  0.4562  0.1691 -0.0395
  740TMC3     O10938   4.213   4.177  14.065 -0.2423  0.6698 -0.4162
  740TMC3     H10939   4.313   4.235  14.430 -0.0927  1.0686  0.1500
  740TMC3    H110940   4.445   4.174  14.038  1.7934 -1.7968 -0.7881
  740TMC3    H210941   0.004   4.171  14.362  0.4169  0.4646 -0.5682
  740TMC3    C710942   4.700   4.085  14.114 -0.5283  0.3027 -0.0685
  740TMC3    C810943   4.537   4.219  14.556  0.0361 -0.4582 -0.6756
  740TMC3    O110944   0.084   4.048  14.168  0.7788  0.1978  0.7829
  740TMC3    O210945   4.488   4.307  14.618 -0.2824  0.5680  0.5807
  741TMC3    C110946   3.483   3.722  14.347 -0.2872  0.2733  0.6223
  741TMC3    C210947   3.412   3.615  14.309 -0.3068 -0.9140  0.4564
  741TMC3    C310948   3.400   3.511  14.391 -0.2954 -0.4225 -0.8446
  741TMC3    C410949   3.542   3.725  14.472 -0.5609 -0.2067  0.3784
  741TMC3    C510950   3.519   3.621  14.555 -0.3630  0.3377 -0.1858
  741TMC3    C610951   3.436   3.513  14.521  0.0778  0.1601 -0.7807
  741TMC3     C10952   3.553   3.801  14.245 -0.5709 -0.5737  0.5971
  741TMC3     O10953   3.670   3.836  14.257 -0.4829 -0.0379 -0.3974
  741TMC3     H10954   3.381   3.601  14.206 -0.5693 -1.9510  0.6700
  741TMC3    H110955   3.611   3.807  14.490  0.3809 -0.6631 -1.1981
  741TMC3    H210956   3.412   3.434  14.592 -1.3860  1.6952  0.4421
  741TMC3    C710957   3.580   3.621  14.686 -0.0586  0.2738  0.1507
  741TMC3    C810958   3.307   3.402  14.352  0.4924 -0.0945 -0.3433
  741TMC3    O110959   3.543   3.530  14.760  0.1260  0.6970 -0.4326
  741TMC3    O210960   3.221   3.412  14.266 -0.0487 -0.4254 -0.5549
  742TMC3    C110961   4.128   2.091  14.828 -0.1140 -0.0799 -0.0145
  742TMC3    C210962   4.014   2.045  14.761  0.0455 -0.3509  0.0067
  742TMC3    C310963   3.985   1.909  14.760  0.5917  0.1461  0.1220
  742TMC3    C410964   4.210   2.003  14.888 -0.6237  0.1445  0.2922
  742TMC3    C510965   4.171   1.869  14.896  0.0667  0.9571 -0.3673
  742TMC3    C610966   4.058   1.822  14.836 -0.5753  0.4760  0.3777
  742TMC3     C10967   4.180   2.225  14.799 -0.3812 -0.9103  0.2458
  742TMC3     O10968   4.295   2.254  14.839 -0.5743 -0.0848 -0.0939
  742TMC3     H10969   3.971   2.113  14.688  0.1903  0.9956  1.1669
  742TMC3    H110970   4.312   2.026  14.914 -0.4714  0.8200 -0.9037
  742TMC3    H210971   4.032   1.716  14.834 -4.4425  1.3849  1.5374
  742TMC3    C710972   4.255   1.776  14.959  0.4002 -0.3818 -0.6247
  742TMC3    C810973   3.885   1.859  14.671  0.5969 -0.7729  0.0071
  742TMC3    O110974   4.246   1.663  14.920 -0.4618  0.0002 -0.1261
  742TMC3    O210975   3.894   1.747  14.623  0.2491  0.0856 -0.1958
  743MPD2     C10976   1.152   3.417   1.086  0.6746 -0.2889  0.7403
  743MPD2    C110977   1.209   3.348   0.982  0.9152 -0.3455 -0.7544
  743MPD2    C210978   1.309   3.257   1.007 -0.0982  0.0573  0.6669
  743MPD2    C310979   1.352   3.233   1.136 -0.6581  0.4349  0.1948
  743MPD2    C410980   1.302   3.309   1.240  0.0682 -0.3462  0.2817
  743MPD2    C510981   1.198   3.399   1.220  0.0359 -0.5718 -0.1606
  743MPD2     H10982   1.336   3.186   0.930  2.6054 -2.1388  3.6369
  743MPD2    H110983   1.330   3.298   1.344  1.6217 -0.7367 -0.1856
  743MPD2    H210984   1.079   3.496   1.069  1.6534  0.5264  0.3261
  743MPD2    H310985   1.160   3.453   1.306  1.5218  0.8273 -0.3778
  743MPD2     N10986   1.457   3.138   1.153 -0.0775  0.7169 -0.1982
  743MPD2    H510987   1.496   3.105   1.065 -1.7284  1.3175 -1.1440
  743MPD2    N110988   1.144   3.375   0.860 -0.2052 -0.0431  0.6380
  743MPD2    H710989   1.059   3.430   0.857 -0.3322 -0.2459  0.5187
  744TMC3    C110990   1.112   3.331   0.628 -0.5852 -0.2410 -0.0438
  744TMC3    C210991   0.981   3.332   0.648 -0.5296  0.6134  0.2500
  744TMC3    C310992   0.899   3.307   0.539  0.1044  0.6120 -0.4206
  744TMC3    C410993   1.170   3.319   0.504  0.1996  0.3975 -0.3407
  744TMC3    C510994   1.083   3.292   0.399 -0.3970 -0.2527  0.0166
  744TMC3    C610995   0.945   3.290   0.410  0.6227 -0.0556  0.4286
  744TMC3     C10996   1.204   3.332   0.738 -0.3792 -0.2060  0.1649
  744TMC3     O10997   1.318   3.300   0.714 -0.3471  0.3826  0.5939
  744TMC3     H10998   0.938   3.323   0.747  1.4870 -0.9607  0.9761
  744TMC3    H110999   1.278   3.315   0.494  0.0053  1.0169 -2.4853
  744TMC3    H211000   0.880   3.300   0.324  0.9268 -0.6708  0.1334
  744TMC3    C711001   1.121   3.213   0.277 -0.2856  0.8896 -0.2277
  744TMC3    C811002   0.760   3.338   0.546  0.3109  0.1709 -0.1906
  744TMC3    O111003   1.032   3.163   0.216 -0.0312  0.4564  0.3432
  744TMC3    O211004   0.684   3.292   0.461 -0.1459 -0.0075 -0.4725
  745TMC3    C111005   3.720   1.542  13.080 -0.4632  0.4748  0.5915
  745TMC3    C211006   3.621   1.533  13.172 -0.7003 -0.1103  0.6504
  745TMC3    C311007   3.529   1.632  13.177  0.3201 -0.6156  0.0190
  745TMC3    C411008   3.709   1.645  12.988 -0.3862 -0.0089  0.6209
  745TMC3    C511009   3.604   1.731  12.987 -0.0255  0.6174 -0.5114
  745TMC3    C611010   3.519   1.733  13.088  0.4323  0.7919  0.5951
  745TMC3     C11011   3.849   1.536  13.147 -0.3956 -0.1169 -0.5866
  745TMC3     O11012   3.853   1.530  13.270  0.0344 -0.4807 -0.7141
  745TMC3     H11013   3.616   1.447  13.238 -0.8629  0.9496  2.0195
  745TMC3    H111014   3.762   1.630  12.895  1.7525  0.0624  1.8388
  745TMC3    H211015   3.442   1.808  13.093  2.1877  2.5487  1.1006
  745TMC3    C711016   3.582   1.809  12.875 -0.4273  0.3285 -0.0107
  745TMC3    C811017   3.478   1.659  13.315  0.1664 -0.0439  0.7076
  745TMC3    O111018   3.470   1.845  12.843 -0.5120 -0.2215 -0.0758
  745TMC3    O211019   3.374   1.723  13.325  0.8008  0.2688  0.0083
  746TMC3    C111020   1.881   3.465  10.511 -0.4024  0.3082 -0.3363
  746TMC3    C211021   1.913   3.429  10.378 -0.1887 -0.2439 -0.4611
  746TMC3    C311022   1.861   3.317  10.329  0.9842  0.0371 -0.0370
  746TMC3    C411023   1.799   3.391  10.593  0.4304  0.2168  0.5829
  746TMC3    C511024   1.760   3.266  10.543 -0.2614 -0.5621  0.3080
  746TMC3    C611025   1.793   3.232  10.409  0.7541 -0.0993 -0.0582
  746TMC3     C11026   1.930   3.591  10.557 -0.1168  0.0940  0.2123
  746TMC3     O11027   1.856   3.660  10.622 -0.1392 -0.0781 -0.7649
  746TMC3     H11028   1.957   3.498  10.307  0.4010  0.9847  1.1004
  746TMC3    H111029   1.781   3.427  10.693  0.8042  1.7713  0.0976
  746TMC3    H211030   1.757   3.136  10.373 -1.7960  1.1815 -0.8836
  746TMC3    C711031   1.657   3.187  10.615  0.3244 -0.0589  0.0345
  746TMC3    C811032   1.802   3.320  10.193  0.5274  0.1992 -0.1851
  746TMC3    O111033   1.590   3.113  10.545 -0.3338  0.2979  0.3912
  746TMC3    O211034   1.763   3.216  10.141 -0.0858 -0.0541  0.4977
  747TMC3    C111035   4.367   3.350  10.807 -0.5067 -0.1983  0.1618
  747TMC3    C211036   4.242   3.316  10.865 -0.5282  0.6282  0.5717
  747TMC3    C311037   4.204   3.389  10.975 -0.7454  0.4798 -0.3048
  747TMC3    C411038   4.439   3.457  10.860  0.5241  0.1166 -0.3780
  747TMC3    C511039   4.404   3.512  10.976 -0.1574  0.0685 -1.0102
  747TMC3    C611040   4.286   3.483  11.038  0.5692 -0.0782  0.2888
  747TMC3     C11041   4.456   3.242  10.762 -0.2847  0.2269 -0.2077
  747TMC3     O11042   4.575   3.277  10.750  0.3459  0.1245  0.2097
  747TMC3     H11043   4.183   3.235  10.823 -1.1172  0.4361  1.7706
  747TMC3    H111044   4.532   3.496  10.820  0.1581 -0.1383 -1.5018
  747TMC3    H211045   4.258   3.528  11.132 -0.1680  0.3091 -0.1185
  747TMC3    C711046   4.511   3.537  11.070 -0.3917 -0.1937 -0.2680
  747TMC3    C811047   4.085   3.338  11.042 -1.0753 -0.2703 -0.3523
  747TMC3    O111048   4.484   3.603  11.168 -0.1089  0.0340  0.2388
  747TMC3    O211049   4.042   3.227  11.008  0.0914 -0.0797 -0.1352
  748MPD2     C11050   1.215   0.186   1.896  1.0065  0.4829  0.7303
  748MPD2    C111051   1.152   0.061   1.890 -0.0392 -0.2388 -0.0124
  748MPD2    C211052   1.205   4.692   1.796  0.0345  0.4474  0.7510
  748MPD2    C311053   1.309   0.004   1.709 -0.3177  0.4690  0.6563
  748MPD2    C411054   1.376   0.125   1.730  0.3979  0.5349 -0.9673
  748MPD2    C511055   1.328   0.211   1.820 -0.2847 -0.5149  0.4707
  748MPD2     H11056   1.169   4.591   1.783  2.2622 -0.1744 -0.6342
  748MPD2    H111057   1.471   0.142   1.681  1.0639 -0.7916 -0.1394
  748MPD2    H211058   1.188   0.267   1.963  1.4637  0.6904  0.6630
  748MPD2    H311059   1.385   0.303   1.828 -0.0051 -0.5637 -1.0969
  748MPD2     N11060   1.341   4.633   1.608 -0.3939 -0.2003  0.1296
  748MPD2    H511061   1.309   4.537   1.617  1.4655 -1.1855 -3.5721
  748MPD2    N111062   1.037   0.043   1.962 -0.2000 -0.5035  0.2700
  748MPD2    H711063   1.013   0.126   2.015  0.0428 -0.1936 -0.1100
  749TMC3    C111064   1.473   4.541   1.426 -0.0301 -0.0540 -0.2339
  749TMC3    C211065   1.461   4.411   1.465 -0.3083  0.0851 -0.3463
  749TMC3    C311066   1.505   4.313   1.380  0.3131 -0.5023 -0.3364
  749TMC3    C411067   1.537   4.572   1.312  0.3470 -0.4343 -0.6034
  749TMC3    C511068   1.574   4.468   1.228  0.0429  0.0941  0.5117
  749TMC3    C611069   1.570   4.335   1.262 -0.2033  0.0467  0.5880
  749TMC3     C11070   1.432   4.662   1.506 -0.0195  0.0308  0.3097
  749TMC3     O11071   1.486   0.047   1.480 -0.2722 -0.7410 -0.1519
  749TMC3     H11072   1.412   4.388   1.559 -0.7290  3.0647  0.1624
  749TMC3    H111073   1.534   4.675   1.279  0.2211  0.6773  2.8471
  749TMC3    H211074   1.613   4.255   1.201  0.7816 -0.0158  1.3571
  749TMC3    C711075   1.613   4.521   1.099  0.4213 -0.2677 -0.6027
  749TMC3    C811076   1.494   4.174   1.434 -0.3823  0.5007 -0.1657
  749TMC3    O111077   1.633   4.641   1.090  0.7192 -0.2333 -0.6101
  749TMC3    O211078   1.431   4.157   1.537  0.1865 -0.4472 -0.0245
  750MPD2     C11079   2.159   0.369  11.760  0.4813  0.4393  0.1486
  750MPD2    C111080   2.068   0.268  11.752  0.0532  1.3732  0.4162
  750MPD2    C211081   2.020   0.236  11.626 -0.0954  0.4783 -0.2442
  750MPD2    C311082   2.064   0.299  11.510  0.0704  0.1845 -0.4818
  750MPD2    C411083   2.158   0.393  11.524  0.2021  0.5047 -0.3747
  750MPD2    C511084   2.198   0.427  11.648 -0.0428  0.6626 -0.7366
  750MPD2     H11085   1.935   0.170  11.627 -0.8789  1.5093  0.4927
  750MPD2    H111086   2.191   0.449  11.437 -0.1074  2.3714  0.7244
  750MPD2    H211087   2.210   0.399  11.851 -0.4301 -0.1873  0.8579
  750MPD2    H311088   2.266   0.511  11.654 -1.3763  1.7451 -0.5952
  750MPD2     N11089   2.007   0.270  11.379  0.4521  0.5899  0.8653
  750MPD2    H511090   2.044   0.335  11.310  1.6478  0.5118  1.4280
  750MPD2    N111091   2.012   0.213  11.877  0.7863  0.6743 -0.1641
  750MPD2    H711092   2.041   0.253  11.965 -1.3712 -2.3576  1.9441
  751TMC3    C111093   1.854   0.183  11.215 -0.2520 -0.5600 -0.7572
  751TMC3    C211094   1.729   0.130  11.204 -0.2648 -1.0788  0.5029
  751TMC3    C311095   1.667   0.131  11.083 -0.0151  0.9688  0.0762
  751TMC3    C411096   1.926   0.226  11.108 -0.7185 -0.4436  0.0326
  751TMC3    C511097   1.861   0.218  10.986  0.0889  0.4485 -0.5618
  751TMC3    C611098   1.728   0.182  10.968 -0.3323  0.4722  0.5912
  751TMC3     C11099   1.913   0.176  11.350 -0.1225 -0.3067  0.1312
  751TMC3     O11100   1.861   0.100  11.428 -0.4601  0.3177  0.0954
  751TMC3     H11101   1.676   0.109  11.296 -2.7714  1.7659 -0.2488
  751TMC3    H111102   2.033   0.242  11.115 -0.5339 -1.2377 -0.9605
  751TMC3    H211103   1.676   0.185  10.872 -1.3363  2.0944  1.1739
  751TMC3    C711104   1.940   0.239  10.863 -0.7627  0.0140 -0.2933
  751TMC3    C811105   1.561   0.038  11.057 -0.3926 -0.3909 -0.7331
  751TMC3    O111106   2.045   0.304  10.867 -0.1066 -0.1059 -0.3910
  751TMC3    O211107   1.506   0.034  10.946  0.2464 -0.0847  0.6600
  752TMC3    C111108   0.545   0.061  17.189  0.6915  0.0976 -0.0205
  752TMC3    C211109   0.576   4.649  17.213  0.3464  0.2031  0.2735
  752TMC3    C311110   0.498   4.582  17.305 -0.0555 -0.4118 -0.1118
  752TMC3    C411111   0.445   0.133  17.258  0.1427  0.0046  0.3540
  752TMC3    C511112   0.376   0.059  17.350  0.5372 -0.6290 -0.4020
  752TMC3    C611113   0.411   4.649  17.381  0.6868  0.3450 -0.9353
  752TMC3     C11114   0.641   0.125  17.097  0.7348 -0.2108 -0.4969
  752TMC3     O11115   0.750   0.071  17.082  0.4350  0.1821  0.3967
  752TMC3     H11116   0.654   4.598  17.158  1.6352 -0.0276  2.3386
  752TMC3    H111117   0.433   0.237  17.231  1.8600  0.2716  0.6251
  752TMC3    H211118   0.349   4.597  17.453  0.3807  0.4299 -1.1366
  752TMC3    C711119   0.277   0.136  17.432  0.2249  0.3612 -0.3171
  752TMC3    C811120   0.521   4.441  17.335  0.2917  0.0184  0.1326
  752TMC3    O111121   0.200   0.068  17.505  0.3368  0.5283  0.6470
  752TMC3    O211122   0.502   4.403  17.450  0.2727  0.0571  0.2351
  753TMC3    C111123   2.777   1.605  13.385  0.1782 -0.3408 -0.2630
  753TMC3    C211124   2.763   1.575  13.517  0.6578  0.1643 -0.3618
  753TMC3    C311125   2.769   1.445  13.559 -0.2206  0.3865  0.0211
  753TMC3    C411126   2.781   1.504  13.295 -0.6286  0.6876  0.2735
  753TMC3    C511127   2.780   1.373  13.339 -0.5801  0.2046 -0.6228
  753TMC3    C611128   2.789   1.344  13.471  0.8244  0.4497 -0.7207
  753TMC3     C11129   2.695   1.716  13.342  0.0610 -0.3433 -0.5390
  753TMC3     O11130   2.638   1.707  13.236  0.6364  0.2810 -0.2390
  753TMC3     H11131   2.742   1.645  13.598 -1.2225 -1.8286  0.8849
  753TMC3    H111132   2.773   1.526  13.189 -1.5500  1.0938  0.4300
  753TMC3    H211133   2.797   1.240  13.502 -0.5063  0.8029  0.7817
  753TMC3    C711134   2.767   1.273  13.230 -0.0343  1.1366 -0.1754
  753TMC3    C811135   2.794   1.404  13.697 -0.2825  0.5517  0.7771
  753TMC3    O111136   2.748   1.319  13.119  0.2545  0.1913  0.3610
  753TMC3    O211137   2.786   1.283  13.715 -0.0613 -0.3216  0.8815
  754MPD2     C11138   1.481   0.716  12.777  0.9916  0.2909  0.0530
  754MPD2    C111139   1.522   0.592  12.820 -0.6645  0.8873 -0.1582
  754MPD2    C211140   1.422   0.499  12.842 -0.5336 -0.0071 -0.8422
  754MPD2    C311141   1.289   0.534  12.832 -0.4128  0.3831 -0.2062
  754MPD2    C411142   1.250   0.661  12.812  0.1046 -0.1182 -1.3349
  754MPD2    C511143   1.346   0.754  12.787  0.2736 -0.6462 -1.0187
  754MPD2     H11144   1.451   0.395  12.853  0.5468  0.4257  0.4867
  754MPD2    H111145   1.147   0.693  12.825  0.5997  1.4811 -1.3399
  754MPD2    H211146   1.556   0.794  12.766  2.1712 -1.1229 -1.9015
  754MPD2    H311147   1.322   0.858  12.767  0.5416 -0.7360 -1.7891
  754MPD2     N11148   1.185   0.459  12.876 -0.3241 -0.0044 -0.0442
  754MPD2    H511149   1.091   0.494  12.861  0.8729  3.0178 -0.4500
  754MPD2    N111150   1.661   0.567  12.831 -0.2789  0.0186 -0.1448
  754MPD2    H711151   1.726   0.639  12.800 -0.2560  0.0839  0.0552
  755MPD2     C11152   0.470   0.847  13.093  0.3710 -0.2264  0.0424
  755MPD2    C111153   0.495   0.773  13.210  0.0894  0.1474  0.1567
  755MPD2    C211154   0.583   0.662  13.205 -0.0044 -0.0588  0.4977
  755MPD2    C311155   0.643   0.621  13.084  0.2637  0.0826  0.0479
  755MPD2    C411156   0.615   0.691  12.968 -0.3136 -0.2393 -0.0606
  755MPD2    C511157   0.530   0.798  12.974  0.4146 -0.4316 -0.5359
  755MPD2     H11158   0.595   0.603  13.295  1.0805 -0.5854  0.0169
  755MPD2    H111159   0.665   0.658  12.877  0.7620 -0.2158  0.5169
  755MPD2    H211160   0.407   0.935  13.089  1.0946  0.2783 -0.2440
  755MPD2    H311161   0.509   0.851  12.882  1.1438  1.3020  0.3059
  755MPD2     N11162   0.730   0.518  13.061  0.2629 -0.2554  0.0845
  755MPD2    H511163   0.779   0.494  12.975 -0.7050 -2.1949  0.0862
  755MPD2    N111164   0.433   0.804  13.336 -0.0978  0.6742  0.5159
  755MPD2    H711165   0.434   0.733  13.409 -3.0736 -0.8421 -0.9027
  756MPD2     C11166   1.922   1.460   9.746 -0.1189  0.5533  0.0118
  756MPD2    C111167   1.847   1.366   9.815 -0.0881 -0.0984 -0.3386
  756MPD2    C211168   1.741   1.300   9.752 -0.1325 -0.4787  0.0919
  756MPD2    C311169   1.711   1.339   9.620  0.5143  0.3680  0.0102
  756MPD2    C411170   1.767   1.460   9.573 -0.7151  0.3882  1.3047
  756MPD2    C511171   1.874   1.513   9.633 -0.4159  0.1193 -0.4527
  756MPD2     H11172   1.690   1.221   9.806  1.0249 -0.5460  1.0925
  756MPD2    H111173   1.727   1.517   9.490  0.1228  0.8353  1.2079
  756MPD2    H211174   2.010   1.509   9.787  1.0913  1.0808 -3.2342
  756MPD2    H311175   1.926   1.603   9.600  0.3802 -0.2101 -0.1136
  756MPD2     N11176   1.608   1.271   9.550 -0.0960  0.1907  1.1982
  756MPD2    H511177   1.565   1.194   9.599 -0.4518  0.5394  1.4337
  756MPD2    N111178   1.870   1.321   9.946 -0.0490 -0.2432  0.1658
  756MPD2    H711179   1.820   1.239   9.978  1.2053 -0.9893  0.2477
  757MPD2     C11180   1.404   0.360   9.491  0.2895  0.1297  0.0579
  757MPD2    C111181   1.281   0.404   9.455  1.0448  0.4554 -0.0108
  757MPD2    C211182   1.272   0.534   9.402 -0.1271  0.4794  0.2936
  757MPD2    C311183   1.384   0.612   9.394  0.3818  0.2962 -0.7201
  757MPD2    C411184   1.515   0.567   9.423 -0.8998 -0.3233 -0.0235
  757MPD2    C511185   1.517   0.435   9.472  0.2012  0.6409  0.5671
  757MPD2     H11186   1.178   0.580   9.378  0.0701  0.4178 -0.6316
  757MPD2    H111187   1.607   0.624   9.424 -1.1447  0.1471 -3.1584
  757MPD2    H211188   1.423   0.259   9.525  0.6336  0.3369  0.4765
  757MPD2    H311189   1.613   0.397   9.505  0.2275  2.1357  2.1920
  757MPD2     N11190   1.359   0.744   9.353 -0.0096 -0.2344  0.2597
  757MPD2    H511191   1.271   0.766   9.308 -0.1190 -2.1773 -0.4756
  757MPD2    N111192   1.166   0.315   9.461  0.1526 -0.3958 -0.2762
  757MPD2    H711193   1.176   0.219   9.491  0.0138  0.1105  1.3973
  758MPD2     C11194   1.710   4.180  16.008  0.1988 -0.0660  0.2949
  758MPD2    C111195   1.703   4.308  15.958 -0.6017  0.1803  0.0979
  758MPD2    C211196   1.681   4.412  16.048  0.3117 -0.3445 -0.3657
  758MPD2    C311197   1.659   4.386  16.183 -0.8520  0.4370  0.3135
  758MPD2    C411198   1.675   4.262  16.231 -0.2100  0.1356  0.3603
  758MPD2    C511199   1.695   4.160  16.143  1.0365 -0.3448 -0.2307
  758MPD2     H11200   1.697   4.514  16.017 -1.2833 -0.7450 -2.4881
  758MPD2    H111201   1.673   4.239  16.336  1.2460  0.7444  0.5288
  758MPD2    H211202   1.720   4.095  15.941 -0.0888  0.6481 -0.6473
  758MPD2    H311203   1.706   4.058  16.179 -3.9046  0.0185  2.2213
  758MPD2     N11204   1.627   4.484  16.283  0.1327  0.4075  0.0320
  758MPD2    H511205   1.618   4.460  16.381 -0.8148 -1.1903 -0.4490
  758MPD2    N111206   1.716   4.322  15.819  0.0901  0.1269 -0.2517
  758MPD2    H711207   1.750   4.246  15.762  0.3522  0.6953 -0.8510
  759MPD2     C11208   0.134   2.603  10.032  0.8182  0.3468  0.3472
  759MPD2    C111209   0.214   2.623  10.140 -0.0285  0.4086  0.2630
  759MPD2    C211210   0.268   2.751  10.146 -0.4893  0.0480 -0.0339
  759MPD2    C311211   0.235   2.853  10.058  0.0745 -0.1713 -0.0969
  759MPD2    C411212   0.162   2.826   9.949 -0.4230  0.6343 -0.2698
  759MPD2    C511213   0.113   2.697   9.938 -0.8977 -0.3743  0.6262
  759MPD2     H11214   0.330   2.781  10.230  0.0710 -1.3089  0.0375
  759MPD2    H111215   0.158   2.904   9.874  1.0362 -0.1167 -1.1295
  759MPD2    H211216   0.092   2.503  10.022 -0.2092  0.8221 -0.1195
  759MPD2    H311217   0.051   2.671   9.853  1.9831 -0.5979 -1.4503
  759MPD2     N11218   0.292   2.977  10.094  0.0923 -0.6423  0.4116
  759MPD2    H511219   0.350   2.985  10.177 -1.3520  1.3936  1.2183
  759MPD2    N111220   0.231   2.536  10.251 -0.0749  0.2701 -0.0715
  759MPD2    H711221   0.298   2.554  10.325 -0.4780 -0.2255  0.4131
  760MPD2     C11222   4.444   0.267  12.193 -0.9956 -0.2685 -0.5487
  760MPD2    C111223   4.568   0.252  12.133  0.0355 -0.5989 -0.1641
  760MPD2    C211224   4.611   0.125  12.105  0.1141  0.2423 -0.6166
  760MPD2    C311225   4.530   0.012  12.119  0.3558  0.3760 -0.2816
  760MPD2    C411226   4.414   0.026  12.180  0.6175 -0.2271 -0.3281
  760MPD2    C511227   4.374   0.155  12.209 -0.0030  0.0030 -0.5073
  760MPD2     H11228   4.714   0.110  12.073 -0.3750  0.8860 -2.5068
  760MPD2    H111229   4.344   4.663  12.187  1.0375 -0.6689 -1.3818
  760MPD2    H211230   4.394   0.362  12.210  1.1933  0.6549  0.6899
  760MPD2    H311231   4.271   0.169  12.239 -0.1548 -0.1984 -0.9453
  760MPD2     N11232   4.565   4.597  12.076 -0.4907  0.9401  0.3557
  760MPD2    H511233   4.496   4.525  12.092  0.4899 -0.2363 -0.6756
  760MPD2    N111234   4.654   0.357  12.105 -0.1472 -0.0119 -0.9017
  760MPD2    H711235   0.031   0.350  12.076  0.5312 -0.9070  1.5774
  761MPD2     C11236   1.171   4.473  11.230  0.1894 -0.1914 -0.4205
  761MPD2    C111237   1.196   4.515  11.103 -0.3924 -0.8937  0.7443
  761MPD2    C211238   1.311   4.585  11.078 -0.3667 -0.8281  0.3942
  761MPD2    C311239   1.402   4.614  11.184 -0.1432 -0.1633  0.3334
  761MPD2    C411240   1.373   4.564  11.310  0.0958 -0.4976  0.4795
  761MPD2    C511241   1.253   4.499  11.333 -0.0410 -0.0397  0.2459
  761MPD2     H11242   1.334   4.626  10.981 -1.1824  1.8182  1.3280
  761MPD2    H111243   1.438   4.590  11.393  1.8595  1.0647 -1.3907
  761MPD2    H211244   1.087   4.408  11.253 -1.4918  1.1796 -2.6125
  761MPD2    H311245   1.234   4.467  11.435  1.6070 -1.8117  0.0038
  761MPD2     N11246   1.518   4.693  11.172  0.1270  0.8165  0.3978
  761MPD2    H511247   1.574   4.691  11.257  1.6931 -0.2813 -0.6632
  761MPD2    N111248   1.097   4.474  11.003  0.7952  0.3404  0.0736
  761MPD2    H711249   1.010   4.433  11.036  1.4095 -1.5854 -0.7068
  762MPD2     C11250   0.894   4.110  10.161  0.8159 -0.6551  0.7248
  762MPD2    C111251   0.996   4.179  10.216 -0.0577  0.3847  0.0906
  762MPD2    C211252   1.111   4.217  10.142 -0.0156  0.0945  0.8879
  762MPD2    C311253   1.115   4.174  10.011 -0.5848  0.0232  0.6250
  762MPD2    C411254   1.012   4.103   9.954  0.1388  0.5538  0.3634
  762MPD2    C511255   0.904   4.069  10.028 -0.1533  0.2203  0.4764
  762MPD2     H11256   1.190   4.276  10.187 -0.6914  0.3557  1.7298
  762MPD2    H111257   1.023   4.080   9.848 -1.1210 -1.0035  0.5886
  762MPD2    H211258   0.805   4.081  10.216  0.7770  0.0362  1.0242
  762MPD2    H311259   0.834   3.997   9.988 -0.4692  1.1985 -0.7360
  762MPD2     N11260   1.233   4.194   9.932  0.7319 -0.3431  0.6213
  762MPD2    H511261   1.229   4.178   9.831  0.1290  1.2053  0.3892
  762MPD2    N111262   0.980   4.212  10.349  0.1608  0.0782  0.0271
  762MPD2    H711263   0.887   4.185  10.379  0.3967 -2.6685 -1.6921
  763MPD2     C11264   2.948   0.141  16.042  0.0860 -0.4442 -0.4677
  763MPD2    C111265   3.069   0.148  15.968 -0.4283  0.0039  0.0042
  763MPD2    C211266   3.168   0.234  16.024  0.1260  0.1196 -0.1128
  763MPD2    C311267   3.140   0.300  16.142 -0.0041 -0.0236 -0.0127
  763MPD2    C411268   3.030   0.275  16.217 -0.1201 -0.3547 -0.1261
  763MPD2    C511269   2.927   0.198  16.161 -0.3383 -0.5228 -0.1875
  763MPD2     H11270   3.252   0.263  15.962 -2.7501  1.4995 -3.3287
  763MPD2    H111271   3.000   0.321  16.311  1.3042 -1.3957  0.8357
  763MPD2    H211272   2.874   0.068  16.012 -1.3604 -0.3467  2.7967
  763MPD2    H311273   2.834   0.182  16.215 -0.6634 -0.5019 -0.7474
  763MPD2     N11274   3.229   0.398  16.193  0.0312  0.4644  0.5651
  763MPD2    H511275   3.203   0.438  16.283 -2.1096  1.7380 -0.6164
  763MPD2    N111276   3.083   0.086  15.841  0.2203 -0.3993 -0.1290
  763MPD2    H711277   3.165   0.105  15.784  0.7544 -1.1375  0.3802
  764MPD2     C11278   1.821   1.484  17.141  0.3034 -0.0213  0.9298
  764MPD2    C111279   1.747   1.414  17.047  0.3131  0.0058 -0.2717
  764MPD2    C211280   1.718   1.279  17.069 -0.2736 -0.6983  0.0472
  764MPD2    C311281   1.754   1.220  17.193  0.0940 -0.6856  0.5802
  764MPD2    C411282   1.819   1.293  17.287 -0.1350 -0.0182 -0.2041
  764MPD2    C511283   1.849   1.423  17.257  0.1274 -0.5780 -0.3400
  764MPD2     H11284   1.659   1.227  16.995 -2.6429  3.1436 -0.7640
  764MPD2    H111285   1.856   1.261  17.384  2.2065 -0.7993 -1.3436
  764MPD2    H211286   1.848   1.588  17.131 -0.4240  0.0767 -0.0551
  764MPD2    H311287   1.909   1.476  17.330  0.3125  0.5398 -1.3143
  764MPD2     N11288   1.697   1.095  17.226 -0.1021 -0.3989  0.2044
  764MPD2    H511289   1.632   1.061  17.156  0.5045 -1.1473 -0.0008
  764MPD2    N111290   1.700   1.468  16.923 -0.0088  0.4866  0.1453
  764MPD2    H711291   1.647   1.405  16.864 -0.5310  0.6408  0.4438
  765MPD2     C11292   1.111   3.830  15.462 -0.0953 -0.1419 -0.3673
  765MPD2    C111293   1.160   3.874  15.584  0.1520  0.3493 -0.1251
  765MPD2    C211294   1.286   3.846  15.624 -0.7719  0.1359  0.7485
  765MPD2    C311295   1.371   3.777  15.539 -0.1104  0.1347 -0.0156
  765MPD2    C411296   1.333   3.750  15.408 -0.3449  0.4717 -0.5950
  765MPD2    C511297   1.198   3.773  15.374 -0.2363  0.0321 -0.4200
  765MPD2     H11298   1.338   3.868  15.717  1.4696 -1.7472 -0.0412
  765MPD2    H111299   1.399   3.711  15.332  1.7615  1.5615  0.6751
  765MPD2    H211300   1.008   3.840  15.432 -0.1743  2.0382  0.6654
  765MPD2    H311301   1.165   3.752  15.273 -1.1688 -0.3224 -0.0429
  765MPD2     N11302   1.500   3.756  15.598 -0.1298  0.0758  0.0750
  765MPD2    H511303   1.519   3.802  15.687 -0.1062 -0.4189  0.3247
  765MPD2    N111304   1.078   3.958  15.668 -0.6450 -0.1375  0.2124
  765MPD2    H711305   0.980   3.954  15.645 -0.3970  1.6903 -1.1589
  766MPD2     C11306   0.667   3.976  15.380 -0.5298  0.6254 -0.8208
  766MPD2    C111307   0.778   4.057  15.374 -0.7947  0.2409  0.6272
  766MPD2    C211308   0.866   4.035  15.267  0.1185 -0.5077 -0.4224
  766MPD2    C311309   0.848   3.942  15.166 -1.2776  0.4617 -0.3301
  766MPD2    C411310   0.743   3.850  15.180  0.2102  0.8831 -0.0916
  766MPD2    C511311   0.655   3.874  15.281  0.0079  0.8649 -0.1020
  766MPD2     H11312   0.960   4.087  15.270 -1.2786  1.8571  1.6995
  766MPD2    H111313   0.723   3.770  15.109 -1.4873  0.6965  0.5977
  766MPD2    H211314   0.588   3.992  15.453 -0.0043  2.5487 -0.6824
  766MPD2    H311315   0.562   3.818  15.277  0.6480 -0.2734  1.1703
  766MPD2     N11316   0.948   3.919  15.061 -0.4293  0.1397  0.6305
  766MPD2    H511317   0.931   3.836  15.005  2.2444 -0.2736  0.4135
  766MPD2    N111318   0.819   4.150  15.476 -0.4362 -0.0419 -0.1816
  766MPD2    H711319   0.903   4.204  15.462 -0.6590 -0.0338 -1.4653
  767MPD2     C11320   0.549   4.114  15.071 -0.0045  0.4242 -0.6451
  767MPD2    C111321   0.636   4.203  15.017 -0.1748 -0.0874 -0.2733
  767MPD2    C211322   0.674   4.175  14.883 -0.0443  0.2795  0.1626
  767MPD2    C311323   0.621   4.067  14.806  0.3774 -0.3812  0.3056
  767MPD2    C411324   0.527   3.987  14.870  0.1414  0.7585  0.1295
  767MPD2    C511325   0.499   4.010  15.005  0.0159  0.4370  0.7347
  767MPD2     H11326   0.743   4.247  14.841 -1.8920  1.6624 -0.4883
  767MPD2    H111327   0.482   3.896  14.831  0.6548  0.6781 -0.2759
  767MPD2    H211328   0.512   4.122  15.173  1.4349  1.4779 -0.2091
  767MPD2    H311329   0.438   3.941  15.062  1.3037 -0.4518  1.0340
  767MPD2     N11330   0.658   4.039  14.679  0.0919 -0.3447 -0.2631
  767MPD2    H511331   0.735   4.102  14.655 -0.4315 -0.1100 -1.3300
  767MPD2    N111332   0.683   4.314  15.093  0.4382 -0.5087 -0.0396
  767MPD2    H711333   0.647   4.313  15.188 -0.3307  0.8745 -0.3238
  768MPD2     C11334   1.497   2.698  10.537  0.2173 -0.3886  0.6661
  768MPD2    C111335   1.459   2.643  10.654 -0.1723  0.1636  0.1240
  768MPD2    C211336   1.550   2.647  10.759 -1.2152 -0.5541  0.6361
  768MPD2    C311337   1.665   2.727  10.750 -0.2959  0.0626 -0.5241
  768MPD2    C411338   1.701   2.785  10.636  0.5559  0.6928  0.5027
  768MPD2    C511339   1.615   2.768  10.529 -0.6583 -0.5727 -0.0916
  768MPD2     H11340   1.522   2.591  10.848  0.5481 -1.1835  0.8011
  768MPD2    H111341   1.782   2.856  10.628  0.3751  0.8926  0.4447
  768MPD2    H211342   1.436   2.688  10.448 -2.8582 -0.3013  2.7621
  768MPD2    H311343   1.635   2.827  10.440  4.0628 -3.0562 -0.6868
  768MPD2     N11344   1.736   2.770  10.861 -0.2547 -0.1609 -0.9245
  768MPD2    H511345   1.812   2.835  10.846 -2.3331  2.0741 -1.9346
  768MPD2    N111346   1.331   2.586  10.671  0.0719  0.3275  0.1642
  768MPD2    H711347   1.310   2.558  10.767 -2.6424  2.0416  0.0634
  769MPD2     C11348   2.658   0.899  14.747  0.3243  0.4516  0.4766
  769MPD2    C111349   2.613   0.814  14.856  0.2923 -0.4782 -0.3521
  769MPD2    C211350   2.623   0.873  14.983 -0.2128 -0.1460  0.0259
  769MPD2    C311351   2.663   0.997  15.006  0.4118  0.9764 -0.1578
  769MPD2    C411352   2.695   1.080  14.900  0.0039  0.8178  0.4865
  769MPD2    C511353   2.691   1.030  14.767 -0.0358  0.1495  0.2989
  769MPD2     H11354   2.587   0.825  15.073 -1.3462 -0.8746 -0.8157
  769MPD2    H111355   2.710   1.187  14.910 -1.5104  0.9724  0.9805
  769MPD2    H211356   2.652   0.868  14.643  0.7912  1.1113  0.2500
  769MPD2    H311357   2.714   1.091  14.680  1.8498  0.6481  1.1538
  769MPD2     N11358   2.661   1.050  15.140  0.0259 -0.3836  0.4786
  769MPD2    H511359   2.635   0.991  15.219  0.9053 -1.6533 -0.1778
  769MPD2    N111360   2.556   0.685  14.829  0.8074  0.6722 -0.2191
  769MPD2    H711361   2.576   0.653  14.735 -0.8864  0.2946 -0.4626
  770MPD2     C11362   2.065   4.470  15.127  0.7071  0.1972  0.0608
  770MPD2    C111363   2.031   4.503  14.997 -0.2190 -0.6584 -0.3281
  770MPD2    C211364   2.079   4.619  14.940  0.1425 -0.1478  0.1462
  770MPD2    C311365   2.164   4.706  15.009  0.1651 -0.0486 -0.5087
  770MPD2    C411366   2.199   4.666  15.137 -0.2166 -0.1601  0.4459
  770MPD2    C511367   2.158   4.551  15.195  0.0654 -0.0824 -0.6903
  770MPD2     H11368   2.045   4.653  14.843 -0.1485 -2.3057 -0.5039
  770MPD2    H111369   2.280   0.000  15.184 -0.5733  2.5640 -2.0954
  770MPD2    H211370   2.027   4.380  15.174 -1.8249  0.0979 -2.1587
  770MPD2    H311371   2.203   4.516  15.287 -3.5807 -3.1995 -0.1029
  770MPD2     N11372   2.205   0.100  14.940 -0.2639 -0.4595  0.2340
  770MPD2    H511373   2.159   0.108  14.850 -1.2237  3.6667  1.0788
  770MPD2    N111374   1.944   4.418  14.926  0.3714  0.1312  0.4642
  770MPD2    H711375   1.916   4.333  14.975 -2.6402  0.1465 -1.2725
  771MPD2     C11376   2.919   3.104  13.702  0.3978 -0.8959 -0.0420
  771MPD2    C111377   2.988   3.201  13.628  0.3058 -0.3257 -0.0691
  771MPD2    C211378   2.939   3.235  13.502 -0.1962  0.3155 -0.0057
  771MPD2    C311379   2.829   3.165  13.447 -0.2500  0.1726 -0.5884
  771MPD2    C411380   2.753   3.085  13.525  1.1540 -0.7112  0.0518
  771MPD2    C511381   2.794   3.057  13.657  0.0155  0.0109 -0.4878
  771MPD2     H11382   2.998   3.306  13.446  0.5229 -0.8361 -0.7045
  771MPD2    H111383   2.660   3.043  13.490  0.1654  0.1875  1.6182
  771MPD2    H211384   2.952   3.056  13.793 -2.7549  0.3702  1.7546
  771MPD2    H311385   2.736   2.997  13.725 -0.0811  0.9364  0.2533
  771MPD2     N11386   2.790   3.192  13.316  0.6227 -0.2441  0.8110
  771MPD2    H511387   2.834   3.269  13.265 -0.2305 -0.4220 -0.2082
  771MPD2    N111388   3.099   3.268  13.671  0.1921  0.5733  0.5942
  771MPD2    H711389   3.127   3.350  13.620  0.9367 -1.2763 -1.9742
  772MPD2     C11390   2.933   3.802  14.128  0.2986  0.2569 -0.0485
  772MPD2    C111391   2.933   3.690  14.046 -0.0322 -0.5190 -0.0452
  772MPD2    C211392   2.821   3.668  13.979  0.3996  0.1402  1.0704
  772MPD2    C311393   2.703   3.733  14.005  0.2208 -0.3397 -0.4118
  772MPD2    C411394   2.699   3.840  14.088  0.1506  0.2079  0.4075
  772MPD2    C511395   2.815   3.878  14.147  0.2367 -0.1004  0.5856
  772MPD2     H11396   2.831   3.584  13.911 -0.1155  0.9550 -0.0132
  772MPD2    H111397   2.603   3.872  14.127 -0.9453 -0.6564 -1.6079
  772MPD2    H211398   3.017   3.836  14.187  1.4878  0.3588 -1.8039
  772MPD2    H311399   2.822   3.950  14.227 -3.0475  1.8093 -0.8888
  772MPD2     N11400   2.575   3.690  13.955 -0.8469 -0.0865  0.2169
  772MPD2    H511401   2.498   3.755  13.969 -1.3557 -1.1871  2.5696
  772MPD2    N111402   3.050   3.615  14.022 -0.4491  0.0914  0.3028
  772MPD2    H711403   3.029   3.526  13.978 -3.2399  0.7364  0.3013
  773MPD2     C11404   2.096   0.464   0.347  0.1466 -0.2801  0.0511
  773MPD2    C111405   2.063   0.353   0.277  0.3831 -0.6656 -0.3837
  773MPD2    C211406   2.095   0.235   0.335 -0.4324  0.5950  0.0540
  773MPD2    C311407   2.168   0.211   0.448  0.4587 -0.2920 -0.0673
  773MPD2    C411408   2.212   0.322   0.515 -0.2291 -0.2130  0.2100
  773MPD2    C511409   2.171   0.445   0.465 -0.5452  0.7939 -0.5577
  773MPD2     H11410   2.073   0.147   0.275  1.1606 -0.2295  0.6688
  773MPD2    H111411   2.277   0.326   0.601 -0.0635 -0.9831  0.1205
  773MPD2    H211412   2.055   0.560   0.319  1.7895  0.2619 -0.4511
  773MPD2    H311413   2.188   0.538   0.519  0.4442 -0.1098  0.6604
  773MPD2     N11414   2.202   0.079   0.476 -0.4569 -0.5505  0.0412
  773MPD2    H511415   2.160   0.012   0.413  0.2859  0.4806 -1.5459
  773MPD2    N111416   1.996   0.345   0.148 -0.0085 -0.2782  0.4401
  773MPD2    H711417   1.983   0.252   0.109 -2.2052  0.8183 -1.4523
  774MPD2     C11418   1.941   4.303  13.266  0.1289  0.0808  0.6750
  774MPD2    C111419   1.804   4.306  13.268  0.1617  0.1575 -0.3622
  774MPD2    C211420   1.744   4.425  13.224  0.4624  0.3801  0.1188
  774MPD2    C311421   1.817   4.524  13.169  0.4532 -0.0391  0.1979
  774MPD2    C411422   1.951   4.511  13.161  0.8396 -0.3622 -0.2830
  774MPD2    C511423   2.016   4.407  13.217 -0.6840  0.3180  0.6396
  774MPD2     H11424   1.637   4.439  13.232  0.2754 -1.5065  0.9759
  774MPD2    H111425   2.013   4.591  13.122  0.1928  0.2300 -0.1010
  774MPD2    H211426   2.000   4.217  13.296 -2.4692 -0.7416  3.4324
  774MPD2    H311427   2.121   4.390  13.201 -0.8810 -1.1128  0.9213
  774MPD2     N11428   1.739   4.633  13.114  0.3053 -0.5795 -0.0089
  774MPD2    H511429   1.639   4.636  13.131 -0.2013 -0.5202 -3.1069
  774MPD2    N111430   1.731   4.209  13.341 -0.5112  0.2886 -0.3869
  774MPD2    H711431   1.785   4.143  13.396 -1.3899 -0.2035 -0.1050
  775MPD2     C11432   2.752   0.915  15.725 -0.0303  0.6772  0.3458
  775MPD2    C111433   2.787   1.041  15.775 -0.2553 -0.1165  0.8381
  775MPD2    C211434   2.900   1.099  15.723  0.3937 -0.7957  0.0337
  775MPD2    C311435   2.972   1.043  15.614  0.0039  0.5007  0.0777
  775MPD2    C411436   2.914   0.929  15.558  0.1114  0.0381 -0.0529
  775MPD2    C511437   2.808   0.861  15.618  0.1882  0.6279 -0.1777
  775MPD2     H11438   2.939   1.193  15.760  1.3484 -0.4526 -1.8174
  775MPD2    H111439   2.943   0.895  15.460 -0.3562  3.2696 -1.3126
  775MPD2    H211440   2.670   0.860  15.770 -0.2642  0.2837 -0.5595
  775MPD2    H311441   2.754   0.774  15.583 -0.9382  1.0986  0.3991
  775MPD2     N11442   3.087   1.106  15.556 -0.0817 -0.0798  0.4963
  775MPD2    H511443   3.124   1.071  15.469  0.7459  0.9608  0.4240
  775MPD2    N111444   2.706   1.110  15.871 -0.6446  0.1760  0.2396
  775MPD2    H711445   2.629   1.060  15.916  0.0387  0.5639  1.8507
  776MPD2     C11446   1.301   0.337  12.212 -0.1901  1.0469 -0.5265
  776MPD2    C111447   1.421   0.354  12.145  0.4931  0.1698  0.1280
  776MPD2    C211448   1.425   0.410  12.018 -0.5151 -0.1684  0.2136
  776MPD2    C311449   1.304   0.457  11.962  0.0780  0.0180  0.4221
  776MPD2    C411450   1.185   0.441  12.031 -0.5257 -0.0786  0.2325
  776MPD2    C511451   1.189   0.384  12.153  0.2495  0.4401  0.7350
  776MPD2     H11452   1.516   0.401  11.960 -0.1374 -2.4782  1.1752
  776MPD2    H111453   1.087   0.463  11.990  1.6313  3.0063 -3.2491
  776MPD2    H211454   1.299   0.292  12.310  0.7261 -0.7399 -1.3248
  776MPD2    H311455   1.093   0.367  12.199  0.1230 -0.8577 -0.0139
  776MPD2     N11456   1.300   0.503  11.831  0.1275 -0.1679 -0.4029
  776MPD2    H511457   1.204   0.511  11.799  0.3836 -3.0940 -1.9251
  776MPD2    N111458   1.533   0.279  12.189  0.0411 -0.3468  0.2409
  776MPD2    H711459   1.519   0.206  12.258  1.1665  0.2537  1.0956
  777MPD2     C11460   2.391   3.595   0.546  0.0738  0.3238  0.0240
  777MPD2    C111461   2.270   3.545   0.587  0.2169  0.1400  0.0956
  777MPD2    C211462   2.207   3.450   0.508  0.1591 -0.8773  0.0497
  777MPD2    C311463   2.256   3.424   0.381  0.0753 -0.2161 -0.3261
  777MPD2    C411464   2.374   3.484   0.339 -0.7991  0.1266  0.9831
  777MPD2    C511465   2.445   3.570   0.422 -0.0940 -0.2426  0.4319
  777MPD2     H11466   2.122   3.397   0.549 -0.0042 -1.7563 -1.4633
  777MPD2    H111467   2.425   3.461   0.247 -0.4209  0.7557  1.0319
  777MPD2    H211468   2.433   3.677   0.603  1.1151 -0.9001  1.0334
  777MPD2    H311469   2.541   3.613   0.398 -0.8047  0.7387 -0.6732
  777MPD2     N11470   2.176   3.335   0.297 -0.0192 -0.2946 -0.5585
  777MPD2    H511471   2.094   3.296   0.340 -0.4512 -0.7375 -1.7795
  777MPD2    N111472   2.238   3.580   0.713  0.2584 -0.0592  0.0149
  777MPD2    H711473   2.304   3.636   0.766 -1.6304  0.3507  1.9191
  778MPD2     C11474   2.998   3.159  15.209 -0.4616 -0.0985 -0.2533
  778MPD2    C111475   2.871   3.168  15.153  0.7285 -0.5776 -0.2800
  778MPD2    C211476   2.845   3.279  15.078  0.1512  0.0343  0.9508
  778MPD2    C311477   2.938   3.380  15.059 -0.3868  0.2350  0.0748
  778MPD2    C411478   3.065   3.374  15.116 -0.3884 -0.0002 -0.4330
  778MPD2    C511479   3.092   3.259  15.189 -0.3289  0.6412 -0.0911
  778MPD2     H11480   2.749   3.278  15.027  0.0849 -1.6004  1.0880
  778MPD2    H111481   3.145   3.447  15.116  0.2311 -0.6932  1.7732
  778MPD2    H211482   3.033   3.078  15.273  1.7654  1.5318  0.5570
  778MPD2    H311483   3.187   3.259  15.241 -0.4221  3.0936  0.0780
  778MPD2     N11484   2.911   3.503  14.994  0.1655 -0.0759  0.7033
  778MPD2    H511485   2.814   3.511  14.965  0.5945  1.0339 -0.4286
  778MPD2    N111486   2.767   3.070  15.167  0.2141 -0.1330  0.1192
  778MPD2    H711487   2.688   3.077  15.104 -0.4463 -0.5780  0.9040
  779MPD2     C11488   2.502   2.380  14.258  0.6374 -0.2505  0.4000
  779MPD2    C111489   2.611   2.410  14.336  0.1953 -0.8259  0.1422
  779MPD2    C211490   2.629   2.544  14.359  0.6099  0.3665 -0.1018
  779MPD2    C311491   2.540   2.643  14.318 -0.2139  0.2998  0.3304
  779MPD2    C411492   2.431   2.607  14.254  0.6178 -0.0743  0.4959
  779MPD2    C511493   2.411   2.476  14.227 -0.2200  0.0185 -0.5441
  779MPD2     H11494   2.713   2.580  14.416  0.5264 -0.9281  0.8487
  779MPD2    H111495   2.364   2.685  14.219  0.3086  0.0467  1.3500
  779MPD2    H211496   2.467   2.278  14.243  0.7189 -0.0847 -0.8775
  779MPD2    H311497   2.324   2.448  14.169 -1.3672  1.4950  0.4600
  779MPD2     N11498   2.561   2.765  14.371  0.2214 -0.1430 -0.3309
  779MPD2    H511499   2.630   2.765  14.445  1.0988  3.0556 -1.1529
  779MPD2    N111500   2.714   2.318  14.376  0.2050  0.9732  0.0315
  779MPD2    H711501   2.794   2.355  14.427 -0.2560  1.4403  0.4140
  780MPD2     C11502   2.795   2.886   0.649 -0.1118  0.5011  0.0421
  780MPD2    C111503   2.764   2.812   0.538 -0.1199 -0.5171  0.4240
  780MPD2    C211504   2.792   2.869   0.412 -0.1768 -0.2944 -0.1950
  780MPD2    C311505   2.860   2.992   0.401 -0.0705  0.9090  0.0981
  780MPD2    C411506   2.890   3.057   0.517  0.2865  0.0749 -0.4389
  780MPD2    C511507   2.858   3.006   0.632  0.1462  0.0570 -0.0523
  780MPD2     H11508   2.761   2.822   0.320  1.5777 -0.6390 -0.6129
  780MPD2    H111509   2.934   3.156   0.525  1.3354 -0.5993  2.0328
  780MPD2    H211510   2.768   2.862   0.751 -0.2988 -0.6789 -0.2878
  780MPD2    H311511   2.887   3.065   0.718  0.1148 -2.1017  1.4459
  780MPD2     N11512   2.893   3.035   0.265 -0.4161  0.1766  0.0391
  780MPD2    H511513   2.873   2.961   0.199 -1.1640  0.6723 -0.2952
  780MPD2    N111514   2.718   2.675   0.554 -0.2035 -0.0412  0.0135
  780MPD2    H711515   2.716   2.638   0.648 -2.9564  0.5544  0.1804
  781MPD2     C11516   4.289   4.099  11.796 -0.3892 -0.1601  0.4254
  781MPD2    C111517   4.379   4.073  11.903  0.0214  0.3467  0.1041
  781MPD2    C211518   4.510   4.027  11.876 -0.8396 -0.0062  0.6982
  781MPD2    C311519   4.549   4.016  11.739 -0.4671 -0.1312  0.3979
  781MPD2    C411520   4.458   4.042  11.639  0.5076 -0.4670 -0.5777
  781MPD2    C511521   4.334   4.087  11.664 -0.1335  0.0920  0.4894
  781MPD2     H11522   4.578   4.014  11.958  2.3742  2.3822 -1.5749
  781MPD2    H111523   4.489   4.022  11.537 -0.0359  0.7732 -0.9945
  781MPD2    H211524   4.190   4.142  11.809 -0.6618 -1.3432  2.2444
  781MPD2    H311525   4.268   4.111  11.582  0.5730  0.1539 -0.0626
  781MPD2     N11526   4.673   3.950  11.703  0.8621 -0.4611 -0.4586
  781MPD2    H511527   4.690   3.920  11.608  0.2553  0.2369 -0.7866
  781MPD2    N111528   4.326   4.084  12.037 -0.2888 -0.0174 -0.0062
  781MPD2    H711529   4.392   4.073  12.113 -1.6832 -0.6591  1.1310
  782MPD2     C11530   2.460   1.125  10.311  0.3386 -0.7434 -0.7115
  782MPD2    C111531   2.426   1.016  10.391  0.1524  0.7309 -0.1573
  782MPD2    C211532   2.437   1.026  10.530  0.2105 -0.4478  0.2226
  782MPD2    C311533   2.512   1.138  10.573 -0.3997  0.3512 -0.0922
  782MPD2    C411534   2.534   1.243  10.495  0.6500 -0.2106  0.5753
  782MPD2    C511535   2.514   1.238  10.363  0.4829 -0.0029 -0.1532
  782MPD2     H11536   2.395   0.951  10.595  2.1257 -0.9923  0.8399
  782MPD2    H111537   2.562   1.343  10.526 -0.6618 -0.2935  1.9834
  782MPD2    H211538   2.437   1.117  10.205 -1.7235  0.5133 -0.3496
  782MPD2    H311539   2.528   1.325  10.300 -0.3701  1.1683  1.2667
  782MPD2     N11540   2.550   1.148  10.708  0.0686  0.5168 -0.3833
  782MPD2    H511541   2.618   1.219  10.733  1.3706 -0.5832 -0.8158
  782MPD2    N111542   2.375   0.890  10.342 -0.8534  0.1536  0.7980
  782MPD2    H711543   2.343   0.827  10.414 -2.0224 -1.7199 -1.3875
  783MPD2     C11544   1.804   0.161  10.535 -0.3804  0.3346 -0.7313
  783MPD2    C111545   1.896   0.211  10.623 -0.1406 -0.3515  0.7035
  783MPD2    C211546   1.990   0.301  10.574  0.7154 -0.5811 -0.4283
  783MPD2    C311547   1.983   0.342  10.444 -0.1857 -0.8114 -0.0682
  783MPD2    C411548   1.884   0.300  10.366 -0.2587 -0.0958  0.3647
  783MPD2    C511549   1.799   0.199  10.405 -0.1375 -0.4352 -0.0333
  783MPD2     H11550   2.071   0.339  10.636 -1.1897  2.0844  0.4171
  783MPD2    H111551   1.876   0.336  10.264  2.0452 -0.2057  0.1463
  783MPD2    H211552   1.729   0.089  10.566  1.7969 -1.5702  0.1444
  783MPD2    H311553   1.731   0.149  10.337 -1.4813  0.5626  0.5913
  783MPD2     N11554   2.085   0.427  10.405 -0.5067  0.0045 -0.4324
  783MPD2    H511555   2.160   0.452  10.469  1.1214 -1.6596 -1.6960
  783MPD2    N111556   1.881   0.176  10.756  0.0927  0.2179  0.1567
  783MPD2    H711557   1.798   0.122  10.780  0.8166 -0.5354  0.9947
  784MPD2     C11558   4.311   0.577   1.131  0.1450 -0.4003  0.2835
  784MPD2    C111559   4.330   0.671   1.228 -0.4921  0.2116 -0.3769
  784MPD2    C211560   4.239   0.771   1.242 -0.4886 -0.3439  0.3388
  784MPD2    C311561   4.127   0.782   1.156  0.3868  0.3393 -0.4815
  784MPD2    C411562   4.115   0.694   1.044 -0.0174 -0.0127  0.3226
  784MPD2    C511563   4.209   0.584   1.037  0.4254  0.0201  0.3061
  784MPD2     H11564   4.251   0.847   1.317 -1.9176 -0.0842  0.3186
  784MPD2    H111565   4.026   0.690   0.982  0.4616 -1.1573 -0.2955
  784MPD2    H211566   4.388   0.503   1.111  0.5190  0.3892 -1.1942
  784MPD2    H311567   4.202   0.528   0.945  2.7004 -2.1316  1.4574
  784MPD2     N11568   4.037   0.892   1.185  0.2829  0.1507 -0.5680
  784MPD2    H511569   4.055   0.941   1.272  2.1567 -0.7385 -0.4511
  784MPD2    N111570   4.435   0.682   1.318 -0.0415 -0.2406 -0.1888
  784MPD2    H711571   4.442   0.772   1.364  1.0709  0.0009 -0.8227
  785MPD2     C11572   4.076   3.640   9.813  0.7273 -0.4540  0.2817
  785MPD2    C111573   4.019   3.688   9.931 -0.5291 -0.0561  0.1345
  785MPD2    C211574   3.912   3.771   9.916 -0.6093 -1.1590 -0.2178
  785MPD2    C311575   3.859   3.793   9.790 -0.0799 -0.7391 -0.0996
  785MPD2    C411576   3.912   3.742   9.673 -0.1218  0.4104 -0.8899
  785MPD2    C511577   4.021   3.664   9.690  0.3461 -0.0915 -0.4982
  785MPD2     H11578   3.871   3.816  10.005  0.8828 -0.6588  0.2120
  785MPD2    H111579   3.871   3.756   9.574  2.0119 -0.5108 -1.8973
  785MPD2    H211580   4.163   3.577   9.824  0.6048 -0.8435 -1.0816
  785MPD2    H311581   4.054   3.606   9.605  0.1454  1.0199 -1.3254
  785MPD2     N11582   3.748   3.879   9.791 -0.3195 -0.2589 -0.1145
  785MPD2    H511583   3.700   3.887   9.880  1.0592 -2.6415  0.8602
  785MPD2    N111584   4.092   3.671  10.054 -0.8433 -0.9620 -0.3242
  785MPD2    H711585   4.172   3.611  10.040 -1.0029 -1.6173  1.5803
  786MPD2     C11586   3.394   1.918  14.498  0.5550  0.3341 -0.3748
  786MPD2    C111587   3.485   1.813  14.484 -0.2495  0.3383 -0.6170
  786MPD2    C211588   3.607   1.815  14.550  0.5413  0.8158  0.0876
  786MPD2    C311589   3.651   1.924  14.615  0.7368 -0.6238  0.6893
  786MPD2    C411590   3.569   2.028  14.629  0.0131  0.5960 -0.2112
  786MPD2    C511591   3.444   2.024  14.576 -0.2640 -0.1438  0.2403
  786MPD2     H11592   3.673   1.729  14.538  0.0729  0.5353 -0.5090
  786MPD2    H111593   3.600   2.124  14.669 -0.9033  1.1963 -0.9367
  786MPD2    H211594   3.296   1.910  14.452 -0.4887 -1.0385  2.0460
  786MPD2    H311595   3.379   2.108  14.592  1.5842  1.7442 -2.1073
  786MPD2     N11596   3.778   1.940  14.668 -0.0610  0.0996  0.0383
  786MPD2    H511597   3.789   2.028  14.719 -1.7315  0.2214  0.1719
  786MPD2    N111598   3.462   1.702  14.403 -0.5131  0.3349  0.2498
  786MPD2    H711599   3.548   1.650  14.390 -0.8372 -0.6887  2.1173
  787MPD2     C11600   3.311   1.184  14.705 -0.0274  0.8334 -1.0072
  787MPD2    C111601   3.398   1.156  14.598 -0.4406 -0.1570 -0.2833
  787MPD2    C211602   3.508   1.083  14.625 -0.1534 -0.3000  0.4419
  787MPD2    C311603   3.531   1.022  14.747  0.1327  0.4765 -0.0882
  787MPD2    C411604   3.442   1.051  14.848 -0.0148  0.0335  0.7113
  787MPD2    C511605   3.343   1.143  14.827 -0.2990  0.4815 -0.1610
  787MPD2     H11606   3.564   1.051  14.538  1.7851 -1.5452  2.1481
  787MPD2    H111607   3.461   1.018  14.949  0.5325  1.1176  0.9554
  787MPD2    H211608   3.215   1.232  14.688 -0.2847  0.4867 -0.5366
  787MPD2    H311609   3.268   1.166  14.902  1.3296  0.5599  1.4575
  787MPD2     N11610   3.637   0.933  14.754 -0.0734  0.2507 -0.0806
  787MPD2    H511611   3.719   0.938  14.695  0.0445 -0.7669 -0.0001
  787MPD2    N111612   3.368   1.219  14.476 -0.5216 -0.2640  0.2925
  787MPD2    H711613   3.290   1.284  14.480 -2.1165 -2.3427  2.6638
  788MPD2     C11614   1.024   4.693   0.783 -0.0266  0.1666 -0.4645
  788MPD2    C111615   1.025   4.643   0.650  0.3488  0.3711  0.2672
  788MPD2    C211616   1.064   0.004   0.544 -0.1561  0.5078 -0.2053
  788MPD2    C311617   1.067   0.139   0.561 -0.2242 -0.4630 -0.2059
  788MPD2    C411618   1.065   0.193   0.681 -0.4540 -0.6527  0.3075
  788MPD2    C511619   1.047   0.113   0.791 -0.7042  0.5267  0.4455
  788MPD2     H11620   1.065   4.676   0.447  2.8418  0.0028  0.0630
  788MPD2    H111621   1.080   0.298   0.704 -1.7841 -0.4531  0.2543
  788MPD2    H211622   1.003   4.633   0.870 -1.7032  1.3331 -0.0672
  788MPD2    H311623   1.033   0.164   0.885 -1.1793  1.6777 -0.2493
  788MPD2     N11624   1.067   0.229   0.458  0.3957  0.1846 -0.3387
  788MPD2    H511625   1.048   0.328   0.476  0.1854  0.5062 -2.2886
  788MPD2    N111626   1.004   4.503   0.625 -0.0703  0.0731 -0.0808
  788MPD2    H711627   1.022   4.462   0.534 -0.9859  0.0499 -0.2479
  789MPD2     C11628   1.285   4.326  16.445 -0.2007 -0.3699  0.1341
  789MPD2    C111629   1.178   4.248  16.482 -0.3343  0.3333  0.3087
  789MPD2    C211630   1.052   4.309  16.512  0.0532  0.1195 -0.6179
  789MPD2    C311631   1.058   4.449  16.530 -0.3139 -0.0208 -0.2606
  789MPD2    C411632   1.166   4.524  16.496  0.4329 -0.3874  0.3485
  789MPD2    C511633   1.280   4.462  16.456 -0.3687  0.1098  0.7463
  789MPD2     H11634   0.967   4.243  16.520  1.1611 -1.1161  1.0318
  789MPD2    H111635   1.176   4.631  16.509 -1.5399  0.0586 -1.7754
  789MPD2    H211636   1.380   4.288  16.411  0.5095  1.8122 -0.2947
  789MPD2    H311637   1.369   4.522  16.441  0.6877 -1.3506  1.0845
  789MPD2     N11638   0.939   4.521  16.564 -0.0126 -0.1852  0.2204
  789MPD2    H511639   0.945   4.621  16.549 -0.2325 -0.0293  1.2186
  789MPD2    N111640   1.192   4.108  16.493  0.2511  0.2914  0.2275
  789MPD2    H711641   1.113   4.054  16.527  0.1100  0.5562  0.3163
  790MPD2     C11642   1.789   1.360  13.418 -0.0939  0.3717  0.0486
  790MPD2    C111643   1.831   1.226  13.394 -0.6634  0.1678 -0.2917
  790MPD2    C211644   1.813   1.171  13.265 -1.1248  0.8208 -0.4017
  790MPD2    C311645   1.767   1.246  13.163 -0.4302  0.3559 -1.0873
  790MPD2    C411646   1.737   1.379  13.187 -0.1279 -0.4347  0.9327
  790MPD2    C511647   1.747   1.433  13.311 -0.1087  0.1797  0.9686
  790MPD2     H11648   1.841   1.068  13.245  2.5472  1.2676  2.4495
  790MPD2    H111649   1.702   1.439  13.103 -1.3532  1.5460  2.8410
  790MPD2    H211650   1.786   1.399  13.519 -0.4949  0.6374 -0.0651
  790MPD2    H311651   1.704   1.530  13.331 -1.2461  0.0774 -0.9483
  790MPD2     N11652   1.763   1.194  13.034  0.1164  0.0839 -0.0833
  790MPD2    H511653   1.794   1.097  13.033 -2.5571 -0.7557  0.9891
  790MPD2    N111654   1.883   1.143  13.501 -0.5741 -1.0987  0.0838
  790MPD2    H711655   1.908   1.047  13.476  0.8897 -0.3540 -1.3152
  791MPD2     C11656   1.194   1.228  12.431  0.2036  0.0962 -0.2002
  791MPD2    C111657   1.245   1.113  12.489  0.2468 -0.2008  0.5483
  791MPD2    C211658   1.163   1.004  12.494 -0.0843  0.0172  0.3887
  791MPD2    C311659   1.037   1.009  12.444 -0.6318  0.3749  0.3514
  791MPD2    C411660   0.992   1.121  12.382  0.1722 -0.2301  0.7259
  791MPD2    C511661   1.073   1.230  12.376 -0.2908 -0.0899 -0.1065
  791MPD2     H11662   1.199   0.914  12.542 -2.1507 -1.7151 -1.3048
  791MPD2    H111663   0.892   1.108  12.341  0.3845  0.3244  0.0386
  791MPD2    H211664   1.255   1.318  12.431  1.1511 -0.5545 -2.6047
  791MPD2    H311665   1.036   1.321  12.330  1.5228  0.9472  0.4929
  791MPD2     N11666   0.954   0.893  12.466  0.3968  0.4965 -0.1071
  791MPD2    H511667   0.996   0.812  12.509 -0.1186  1.2036  1.7155
  791MPD2    N111668   1.382   1.122  12.537  0.0715  0.9687 -0.0498
  791MPD2    H711669   1.421   1.215  12.552  0.3277  1.4188 -3.5075
  792MPD2     C11670   2.330   1.320  11.499 -0.0441 -0.2661  0.9681
  792MPD2    C111671   2.265   1.336  11.383 -0.3206  0.3096  0.3973
  792MPD2    C211672   2.230   1.218  11.315  0.6165  0.3210  0.7553
  792MPD2    C311673   2.270   1.092  11.362 -0.2207 -0.5160 -0.3473
  792MPD2    C411674   2.345   1.081  11.484 -0.6615  0.4358 -0.4796
  792MPD2    C511675   2.361   1.198  11.556  0.2846  0.6483  0.1482
  792MPD2     H11676   2.170   1.228  11.225  0.8271  0.7153  0.6572
  792MPD2    H111677   2.367   0.987  11.532  2.5651  0.2617 -2.3447
  792MPD2    H211678   2.371   1.412  11.540  0.0236 -0.6759  1.8176
  792MPD2    H311679   2.418   1.199  11.648  1.8340  2.6116 -0.8277
  792MPD2     N11680   2.232   0.974  11.297 -0.1100 -0.2543  0.4830
  792MPD2    H511681   2.269   0.888  11.336  0.6145  0.3182  1.0463
  792MPD2    N111682   2.240   1.459  11.326 -0.7289 -0.3387 -0.4506
  792MPD2    H711683   2.314   1.526  11.340 -1.5564  0.4615  0.0434
  793MPD2     C11684   1.817   0.747  10.432 -0.0761 -0.5842  0.2877
  793MPD2    C111685   1.843   0.864  10.500  0.1334  0.4024 -0.5208
  793MPD2    C211686   1.856   0.857  10.637  0.5153  0.3826  0.4912
  793MPD2    C311687   1.871   0.736  10.701  0.8336 -0.0789 -0.5604
  793MPD2    C411688   1.841   0.619  10.637  0.5394  0.1740 -0.4193
  793MPD2    C511689   1.801   0.631  10.508  0.4543  0.1661 -0.3964
  793MPD2     H11690   1.877   0.953  10.684 -0.4607  1.2832 -0.8992
  793MPD2    H111691   1.842   0.520  10.680  1.5676  0.8270  1.0909
  793MPD2    H211692   1.799   0.745  10.325 -0.1180  1.5012  0.2502
  793MPD2    H311693   1.763   0.537  10.470 -0.0534 -0.6386  2.1614
  793MPD2     N11694   1.919   0.748  10.830  0.0278 -0.2529 -0.3112
  793MPD2    H511695   1.966   0.834  10.854  3.7281 -2.0066 -1.2397
  793MPD2    N111696   1.873   0.984  10.441 -0.0005  0.3751 -0.3184
  793MPD2    H711697   1.895   1.064  10.499  2.2121  0.4476 -1.2609
  794MPD2     C11698   1.824   0.764  17.068 -0.6485 -0.0759 -0.4765
  794MPD2    C111699   1.755   0.648  17.092 -0.5662 -0.4077 -0.3856
  794MPD2    C211700   1.643   0.618  17.023  0.6435  0.6190  0.2847
  794MPD2    C311701   1.585   0.714  16.947  0.4267  1.1020  0.2238
  794MPD2    C411702   1.645   0.839  16.929 -0.3739  0.3190  0.6453
  794MPD2    C511703   1.766   0.856  16.980  0.1953  0.0842  0.5131
  794MPD2     H11704   1.597   0.521  17.035 -1.7075  1.7313  0.1856
  794MPD2    H111705   1.599   0.912  16.862 -1.0534 -0.1350  0.6170
  794MPD2    H211706   1.920   0.780  17.116 -1.9304  0.1218  2.0560
  794MPD2    H311707   1.817   0.950  16.961  0.2026 -0.1161 -0.4481
  794MPD2     N11708   1.458   0.692  16.884 -0.0015 -0.9022  0.6009
  794MPD2    H511709   1.419   0.767  16.829 -1.9033 -1.8249  0.7000
  794MPD2    N111710   1.800   0.549  17.188  0.1557 -0.1509  0.7117
  794MPD2    H711711   1.760   0.456  17.179  1.6136 -0.8564  1.6473
  795MPD2     C11712   3.813   2.745  13.540 -0.0072  0.2941 -0.0952
  795MPD2    C111713   3.743   2.631  13.500  0.2407 -0.1585 -0.1961
  795MPD2    C211714   3.807   2.510  13.507 -0.1289  0.4548 -0.1319
  795MPD2    C311715   3.939   2.491  13.555 -0.2706 -0.0835  0.3396
  795MPD2    C411716   4.009   2.606  13.581 -0.4433 -0.3702 -0.8669
  795MPD2    C511717   3.942   2.728  13.583 -0.9008 -0.1456 -0.0906
  795MPD2     H11718   3.760   2.424  13.459 -0.4879 -0.2765  1.5266
  795MPD2    H111719   4.108   2.601  13.624 -1.3345  1.4228  1.4133
  795MPD2    H211720   3.770   2.842  13.517  0.5386  0.6100  0.2091
  795MPD2    H311721   3.996   2.818  13.610  1.8652 -1.6785 -0.5591
  795MPD2     N11722   3.992   2.359  13.576  0.0781  0.1982  0.0608
  795MPD2    H511723   3.943   2.273  13.554 -0.2248  0.7316 -1.3304
  795MPD2    N111724   3.612   2.634  13.437 -0.7238 -0.3403  0.1259
  795MPD2    H711725   3.569   2.544  13.418  1.1796 -1.6608  2.0278
  796MPD2     C11726   3.509   4.449  15.930  0.6413  0.0823  0.0317
  796MPD2    C111727   3.629   4.511  15.958 -0.3525  0.2715 -0.3179
  796MPD2    C211728   3.639   4.650  15.913 -0.2383  0.0466  0.1333
  796MPD2    C311729   3.531   4.709  15.842  0.2870 -0.7066  0.1334
  796MPD2    C411730   3.419   4.635  15.814 -0.2807 -0.0835  0.0515
  796MPD2    C511731   3.404   4.507  15.861 -0.2098  0.3898 -0.7703
  796MPD2     H11732   3.727   4.703  15.946  1.6944 -1.6905 -2.2537
  796MPD2    H111733   3.338   4.673  15.753 -0.6764 -1.2830 -0.1562
  796MPD2    H211734   3.496   4.348  15.966  2.3567  0.3772  1.4675
  796MPD2    H311735   3.312   4.451  15.848 -0.0137 -0.0975 -0.0937
  796MPD2     N11736   3.545   0.118  15.783 -0.2290  0.6821  0.6388
  796MPD2    H511737   3.638   0.155  15.798  0.6206 -1.2817  0.2635
  796MPD2    N111738   3.722   4.442  16.039 -0.0993  0.0180 -0.1769
  796MPD2    H711739   3.708   4.343  16.059  0.5567 -0.2185 -0.8509
  797MPD2     C11740   4.715   3.779  17.191 -0.7252  0.3561  0.3307
  797MPD2    C111741   0.017   3.877  17.288  0.4591 -0.5979 -0.3737
  797MPD2    C211742   4.657   3.985  17.291  0.0352 -0.0089  0.3212
  797MPD2    C311743   4.541   3.998  17.210 -0.2030  0.6667  0.4907
  797MPD2    C411744   4.519   3.899  17.111 -0.6220 -0.0240 -0.0952
  797MPD2    C511745   4.613   3.798  17.097 -0.2280  0.4938  0.2508
  797MPD2     H11746   4.668   4.051  17.376 -1.5172  0.8382 -0.1438
  797MPD2    H111747   4.424   3.892  17.059  0.1970  2.1341 -1.8768
  797MPD2    H211748   0.059   3.694  17.172  0.1474  0.2789  3.6867
  797MPD2    H311749   4.597   3.730  17.014 -0.1983  0.0972  0.5646
  797MPD2     N11750   4.448   4.110  17.221 -0.0297  0.4640 -0.1470
  797MPD2    H511751   4.369   4.112  17.157  0.0061 -0.6095 -0.2150
  797MPD2    N111752   0.118   3.868  17.384 -0.0123 -0.3729 -0.1864
  797MPD2    H711753   0.141   3.948  17.443 -0.5786 -0.1604 -0.2585
  798MPD2     C11754   0.054   4.538  17.629 -0.0424 -0.3068 -0.5122
  798MPD2    C111755   4.697   4.427  17.597 -0.7249 -0.1038 -0.1555
  798MPD2    C211756   0.021   4.297  17.622 -0.3268 -0.0267  0.0803
  798MPD2    C311757   0.147   4.272  17.671  0.3789 -0.3255 -0.6670
  798MPD2    C411758   0.230   4.383   0.003 -0.2223  0.0045 -0.6941
  798MPD2    C511759   0.182   4.509  17.671 -0.1766  0.3269 -0.4897
  798MPD2     H11760   4.689   4.209  17.586 -3.9963  1.3293  2.0937
  798MPD2    H111761   0.332   4.361   0.034 -0.0546  0.8422 -0.6568
  798MPD2    H211762   0.015   4.639  17.618 -0.0522 -0.1781  0.6479
  798MPD2    H311763   0.254   4.589  17.682  2.3139 -1.8167 -1.3033
  798MPD2     N11764   0.199   4.139  17.680 -1.0158  0.1843 -0.0701
  798MPD2    H511765   0.130   4.068  17.659 -2.1765  0.9759  1.0388
  798MPD2    N111766   4.576   4.435  17.530 -0.0660 -0.4274  0.0694
  798MPD2    H711767   4.546   4.346  17.493 -0.4624 -0.2704  0.0085
  799MPD2     C11768   3.636   0.649  14.527 -0.7674  0.6898 -0.3280
  799MPD2    C111769   3.550   0.560  14.465  0.4685 -0.1992 -0.2751
  799MPD2    C211770   3.489   0.604  14.344  0.0073  0.3883  0.2385
  799MPD2    C311771   3.514   0.734  14.298  0.2358  0.3452 -0.2721
  799MPD2    C411772   3.608   0.807  14.362  0.0239 -0.3816  0.0580
  799MPD2    C511773   3.666   0.764  14.475  0.2903  0.4821 -0.4419
  799MPD2     H11774   3.412   0.551  14.288  0.8753 -0.6817  0.0525
  799MPD2    H111775   3.617   0.908  14.322  2.4092  0.0553  1.7408
  799MPD2    H211776   3.675   0.631  14.627  1.8414 -0.3771 -1.5214
  799MPD2    H311777   3.734   0.828  14.531 -1.4528 -0.0428  2.3003
  799MPD2     N11778   3.458   0.803  14.190  0.7091  0.0918 -0.5963
  799MPD2    H511779   3.483   0.901  14.185 -1.0228  0.5180 -0.9774
  799MPD2    N111780   3.513   0.437  14.520 -0.7294 -0.6962  0.2343
  799MPD2    H711781   3.455   0.384  14.456 -2.0693 -2.4010  2.8656
  800MPD2     C11782   3.561   1.732  13.811 -0.2352  0.3607 -0.3563
  800MPD2    C111783   3.688   1.729  13.751 -0.1840  0.0039 -0.0052
  800MPD2    C211784   3.697   1.691  13.615 -0.7700  0.3513 -0.2155
  800MPD2    C311785   3.578   1.675  13.546  0.1983  0.5242 -0.9041
  800MPD2    C411786   3.456   1.691  13.608 -0.3551 -0.6143  0.6437
  800MPD2    C511787   3.449   1.698  13.745  0.3636 -0.3713 -1.2541
  800MPD2     H11788   3.793   1.677  13.566  0.7087  3.5324  1.7630
  800MPD2    H111789   3.365   1.675  13.552 -0.4262 -3.3460  1.5675
  800MPD2    H211790   3.549   1.758  13.915 -2.2061 -0.1706 -0.4432
  800MPD2    H311791   3.355   1.708  13.798  1.1280 -0.4925  0.1001
  800MPD2     N11792   3.585   1.656  13.404  0.0273 -0.4401  0.6374
  800MPD2    H511793   3.673   1.622  13.365 -0.5927 -0.4157 -0.7740
  800MPD2    N111794   3.797   1.782  13.829  0.2187 -0.1529  0.0156
  800MPD2    H711795   3.773   1.810  13.924  0.0429  0.0375 -0.0869
  801MPD2     C11796   4.186   2.525  13.973 -0.1069  0.1656 -0.0353
  801MPD2    C111797   4.059   2.465  13.970 -0.5291  0.1184  0.0196
  801MPD2    C211798   3.945   2.536  13.949 -0.4214 -0.2805  0.2640
  801MPD2    C311799   3.949   2.675  13.923 -0.8332  0.4933 -0.3665
  801MPD2    C411800   4.071   2.737  13.916  0.1807  0.0068  0.1135
  801MPD2    C511801   4.186   2.668  13.949 -0.0868 -0.3177  0.4989
  801MPD2     H11802   3.848   2.488  13.961 -0.4636  0.6571  3.5151
  801MPD2    H111803   4.085   2.843  13.902 -3.2938  0.7896  2.7294
  801MPD2    H211804   4.272   2.467  14.006 -0.6515 -0.9697 -0.6313
  801MPD2    H311805   4.279   2.725  13.955 -0.5459  0.6910 -2.2829
  801MPD2     N11806   3.841   2.762  13.908 -0.3874  0.4744 -0.0912
  801MPD2    H511807   3.858   2.862  13.903  0.9629  0.2188 -0.7933
  801MPD2    N111808   4.067   2.333  13.996  0.3267  0.5537 -0.0117
  801MPD2    H711809   4.162   2.297  13.998  0.5665  1.3023  1.9736
  802MPD2     C11810   4.114   3.610   0.098  0.2669  0.0413  0.2429
  802MPD2    C111811   4.026   3.631  17.675  0.1467  0.6120  0.0417
  802MPD2    C211812   4.049   3.556  17.559 -0.2383  0.0223 -0.1414
  802MPD2    C311813   4.135   3.445  17.568  0.0662  0.1943  0.5837
  802MPD2    C411814   4.204   3.421  17.683  0.0496 -0.1485  0.6281
  802MPD2    C511815   4.194   3.498   0.112  0.1170 -0.0319 -0.0796
  802MPD2     H11816   4.005   3.580  17.463 -0.4330 -1.7342 -0.4924
  802MPD2    H111817   4.273   3.338   0.010  0.7847  0.8301  3.6095
  802MPD2    H211818   4.100   3.660   0.193  0.4310  1.6346 -0.5789
  802MPD2    H311819   4.247   3.475   0.203  1.5450 -1.7324 -1.3443
  802MPD2     N11820   4.155   3.373  17.449  0.1605  0.5445 -0.2326
  802MPD2    H511821   4.110   3.415  17.369  1.8340  1.0328 -0.9147
  802MPD2    N111822   3.932   3.732  17.672 -0.0297 -0.0590  0.3595
  802MPD2    H711823   3.873   3.747  17.590 -0.0202  0.5786  0.4738
  803MPD2     C11824   4.527   1.205  11.698  0.1299 -0.1576  0.0571
  803MPD2    C111825   4.600   1.216  11.820  0.2088 -0.8551 -0.1675
  803MPD2    C211826   4.553   1.149  11.931  0.3072 -0.0724  0.3893
  803MPD2    C311827   4.440   1.073  11.927 -0.3746  0.0406  0.3031
  803MPD2    C411828   4.379   1.058  11.802 -0.1669 -0.6497  0.6603
  803MPD2    C511829   4.419   1.122  11.693  0.1217  0.2672  0.6798
  803MPD2     H11830   4.593   1.166  12.031  0.7912  1.0758  0.0045
  803MPD2    H111831   4.296   0.991  11.782 -1.3101  0.8814  0.3046
  803MPD2    H211832   4.559   1.257  11.609 -2.5599  1.8986  0.3032
  803MPD2    H311833   4.375   1.090  11.599  0.5040 -1.6493  1.1715
  803MPD2     N11834   4.393   0.988  12.035 -0.3001 -0.1173  0.9119
  803MPD2    H511835   4.302   0.944  12.022 -0.3965 -0.3086  2.2448
  803MPD2    N111836   4.711   1.304  11.840 -0.2348 -0.2779  0.6579
  803MPD2    H711837   0.022   1.323  11.934  1.0320 -0.1063  0.2020
  804MPD2     C11838   4.619   2.270  16.794  0.8371 -0.2635  0.2486
  804MPD2    C111839   4.592   2.258  16.926  0.4928 -0.1530 -0.8535
  804MPD2    C211840   4.666   2.336  17.016 -0.1076  0.0450  0.0391
  804MPD2    C311841   0.048   2.419  16.980  0.2043 -1.3912  0.0298
  804MPD2    C411842   0.083   2.425  16.847  0.3739  0.1790 -0.0786
  804MPD2    C511843   0.004   2.360  16.756  0.0865  0.0808  0.2177
  804MPD2     H11844   4.640   2.333  17.121  0.3845 -0.7908  0.1393
  804MPD2    H111845   0.163   2.491  16.814  0.0428 -0.3798 -2.0007
  804MPD2    H211846   4.558   2.228  16.714  1.7059 -0.6440 -0.2111
  804MPD2    H311847   0.030   2.388  16.655 -2.3510  1.0950 -0.1380
  804MPD2     N11848   0.097   2.503  17.083 -0.2778  0.0034  0.3696
  804MPD2    H511849   0.068   2.484  17.178 -0.1970 -0.4805  0.2942
  804MPD2    N111850   4.503   2.157  16.975 -0.1624  0.1799 -0.5621
  804MPD2    H711851   4.475   2.165  17.072 -1.3031  1.4381 -1.0078
  805MPD2     C11852   3.529   0.969  15.481 -0.3536 -0.3724  0.5212
  805MPD2    C111853   3.637   0.900  15.431 -0.0205 -0.0119 -0.6535
  805MPD2    C211854   3.762   0.930  15.486 -0.9069  0.3386 -0.6978
  805MPD2    C311855   3.777   1.043  15.566  0.4588 -0.1492 -0.0263
  805MPD2    C411856   3.667   1.114  15.602 -0.0443  0.2441  0.3657
  805MPD2    C511857   3.543   1.081  15.558  0.0045 -0.2440  0.0845
  805MPD2     H11858   3.843   0.866  15.452  0.6475  1.1382  1.4370
  805MPD2    H111859   3.663   1.202  15.665 -1.0184  1.2422 -1.0810
  805MPD2    H211860   3.427   0.937  15.464 -0.8415  1.1985  0.4934
  805MPD2    H311861   3.460   1.136  15.601  0.0406  0.8527 -1.2473
  805MPD2     N11862   3.908   1.078  15.604  0.4200  0.2986  0.0841
  805MPD2    H511863   3.984   1.020  15.569  1.4646  2.6971 -1.6030
  805MPD2    N111864   3.617   0.787  15.355  0.5082 -0.4919  0.1425
  805MPD2    H711865   3.700   0.730  15.340  0.8464  0.8612 -3.2157
  806MPD2     C11866   3.268   0.253   1.064 -0.2012  0.5995  0.0299
  806MPD2    C111867   3.391   0.205   1.009  0.6247  0.5342 -0.1080
  806MPD2    C211868   3.471   0.288   0.935  0.4262 -0.8164  0.0921
  806MPD2    C311869   3.439   0.422   0.915 -0.1493 -0.0136  0.2146
  806MPD2    C411870   3.312   0.468   0.955  0.0405  1.0560 -0.5053
  806MPD2    C511871   3.231   0.387   1.036  0.0029 -0.7275 -0.1970
  806MPD2     H11872   3.574   0.267   0.908  0.4274 -0.6598 -0.0286
  806MPD2    H111873   3.281   0.571   0.940 -1.2933  0.9428  1.4069
  806MPD2    H211874   3.191   0.200   1.119  1.5040 -0.2735  1.5693
  806MPD2    H311875   3.147   0.429   1.089 -0.3765 -2.4448  0.5664
  806MPD2     N11876   3.531   0.498   0.846 -0.2341  0.1345 -0.3030
  806MPD2    H511877   3.605   0.449   0.797 -0.9624 -0.8981 -0.3758
  806MPD2    N111878   3.420   0.068   1.025  0.0006  0.1674 -0.0023
  806MPD2    H711879   3.357   0.019   1.088 -2.7230  1.2761 -1.8504
  807MPD2     C11880   3.291   4.264   1.590  0.1543 -0.2800  0.2319
  807MPD2    C111881   3.386   4.218   1.510 -0.3945 -0.2277  0.8986
  807MPD2    C211882   3.441   4.085   1.535 -0.1840  0.2108 -0.6360
  807MPD2    C311883   3.400   4.000   1.643  0.7700 -0.1431 -0.3228
  807MPD2    C411884   3.297   4.052   1.717  0.2189 -0.0254  0.1675
  807MPD2    C511885   3.240   4.175   1.685 -0.3620  0.9532 -0.1595
  807MPD2     H11886   3.521   4.040   1.478 -0.7592 -0.8818 -0.5886
  807MPD2    H111887   3.258   4.008   1.808 -0.9868 -0.5270 -0.5944
  807MPD2    H211888   3.234   4.348   1.551  0.1309 -0.2416  0.3479
  807MPD2    H311889   3.142   4.198   1.727 -0.6814  1.0372 -0.9489
  807MPD2     N11890   3.458   3.878   1.662 -0.7581 -0.4781  0.4390
  807MPD2    H511891   3.533   3.853   1.598 -0.3784  3.0253 -0.5257
  807MPD2    N111892   3.440   4.284   1.394 -0.5450  0.3108 -0.4004
  807MPD2    H711893   3.502   4.229   1.336 -0.1496  0.3982 -0.0539
  808MPD2     C11894   3.876   1.631   9.341 -0.1116  0.4644 -0.3947
  808MPD2    C111895   3.855   1.608   9.474  0.7513  0.0452  0.2224
  808MPD2    C211896   3.962   1.615   9.565 -0.0453 -0.0355 -0.1978
  808MPD2    C311897   4.087   1.646   9.507  0.0109 -0.0579 -0.3886
  808MPD2    C411898   4.106   1.668   9.372 -0.0058 -0.3060  0.0011
  808MPD2    C511899   4.001   1.650   9.283  0.8773  0.1455  0.3717
  808MPD2     H11900   3.945   1.586   9.668  0.2992  1.4484  0.2811
  808MPD2    H111901   4.205   1.673   9.329 -1.8185  1.4989 -3.9538
  808MPD2    H211902   3.792   1.624   9.272 -0.1870  1.5749 -0.4162
  808MPD2    H311903   4.001   1.651   9.175  0.9842 -1.6540  0.3481
  808MPD2     N11904   4.206   1.649   9.585  0.1500  0.1077 -0.3597
  808MPD2    H511905   4.288   1.677   9.532  1.0237 -0.7192  0.5534
  808MPD2    N111906   3.726   1.574   9.518 -0.2303  0.4237 -0.6561
  808MPD2    H711907   3.720   1.553   9.617 -0.0556  0.1229 -0.7095
  809MPD2     C11908   0.172   1.661   9.176  0.2072  0.3696 -0.4449
  809MPD2    C111909   0.231   1.650   9.303 -0.5089  0.0482 -0.1526
  809MPD2    C211910   0.157   1.636   9.414 -0.2410 -0.2028 -0.2021
  809MPD2    C311911   0.021   1.648   9.404 -0.7077 -0.3986 -0.1209
  809MPD2    C411912   4.683   1.661   9.281 -0.0851 -0.2288  0.3481
  809MPD2    C511913   0.039   1.664   9.170  0.3462  0.0285  0.0858
  809MPD2     H11914   0.208   1.643   9.510  0.8132  0.0480 -0.7814
  809MPD2    H111915   4.577   1.654   9.263 -0.0739  0.6195 -0.0410
  809MPD2    H211916   0.229   1.669   9.084  1.6418  0.6474  0.4609
  809MPD2    H311917   4.712   1.667   9.073  1.6608 -3.5637 -0.6592
  809MPD2     N11918   4.652   1.639   9.523 -0.1780 -0.0406  0.5027
  809MPD2    H511919   4.558   1.673   9.507  0.3484  1.3355  0.3306
  809MPD2    N111920   0.372   1.654   9.327  0.8871 -0.2859  0.1011
  809MPD2    H711921   0.398   1.626   9.421  0.3815  0.2373  0.3963
  810MPD2     C11922   3.877   1.303   9.784  0.2952  0.3795 -0.1305
  810MPD2    C111923   3.895   1.331   9.919  0.0295 -0.2913  0.1831
  810MPD2    C211924   4.023   1.360   9.970 -0.4285  0.6436  0.1497
  810MPD2    C311925   4.139   1.336   9.896 -1.0627 -0.2105 -0.0932
  810MPD2    C411926   4.121   1.314   9.757  0.7205 -0.7691  0.0312
  810MPD2    C511927   3.990   1.312   9.704  0.2423 -0.1166 -0.4384
  810MPD2     H11928   4.029   1.391  10.074 -2.7539  0.4496  0.3611
  810MPD2    H111929   4.210   1.314   9.695  2.0075 -2.0941  1.8954
  810MPD2    H211930   3.785   1.281   9.730 -0.8667  1.4254  1.4456
  810MPD2    H311931   3.978   1.308   9.596 -0.0940  2.2002 -0.4872
  810MPD2     N11932   4.265   1.353   9.948 -0.2206 -0.8295  0.4494
  810MPD2    H511933   4.339   1.313   9.891 -0.2738 -1.5791  0.9207
  810MPD2    N111934   3.775   1.339   9.995 -0.5583  0.7908  0.2197
  810MPD2    H711935   3.686   1.336   9.946 -0.1525 -2.3551 -0.3060
  811MPD2     C11936   2.983   1.525  10.228  0.0442  0.0092  0.2403
  811MPD2    C111937   3.109   1.583  10.210  0.1449 -0.2527 -0.1593
  811MPD2    C211938   3.113   1.709  10.154 -0.3447  0.4775 -0.0048
  811MPD2    C311939   2.997   1.784  10.139  0.9225  0.3692 -0.1251
  811MPD2    C411940   2.872   1.723  10.152  0.2289  0.2547  0.3402
  811MPD2    C511941   2.869   1.597  10.206  1.1430  0.5400 -0.0482
  811MPD2     H11942   3.209   1.754  10.132  1.0827 -2.0472  1.0228
  811MPD2    H111943   2.784   1.784  10.137  0.1166 -0.0593 -0.2580
  811MPD2    H211944   2.978   1.425  10.271 -2.6161  0.4663  0.9482
  811MPD2    H311945   2.766   1.573  10.231  1.1098  1.6225  0.8398
  811MPD2     N11946   3.017   1.916  10.091  0.4079 -0.3170 -0.1089
  811MPD2    H511947   3.117   1.935  10.096  0.5744 -1.1687 -0.2693
  811MPD2    N111948   3.226   1.504  10.238 -0.4895  0.6393  0.3227
  811MPD2    H711949   3.215   1.414  10.284 -2.2300  0.1091 -1.1351
  812MPD2     C11950   2.704   0.975  11.998  0.3870 -0.0791 -0.0364
  812MPD2    C111951   2.575   0.967  12.046 -0.1517 -0.2768  0.9497
  812MPD2    C211952   2.540   0.870  12.142  0.4061 -0.1454 -0.1881
  812MPD2    C311953   2.637   0.791  12.198 -0.0847 -1.1463  0.1978
  812MPD2    C411954   2.769   0.801  12.160  0.4445  0.1257 -0.1112
  812MPD2    C511955   2.799   0.889  12.057 -0.5576  0.3007  0.4132
  812MPD2     H11956   2.438   0.855  12.177 -0.2733  2.7169 -0.9314
  812MPD2    H111957   2.854   0.757  12.211 -0.5373  0.3299  1.7197
  812MPD2    H211958   2.729   1.047  11.921  0.7879  0.4332  0.5729
  812MPD2    H311959   2.903   0.906  12.033 -0.5572 -0.1296  0.1166
  812MPD2     N11960   2.596   0.707  12.304 -0.2567 -0.4028  0.5513
  812MPD2    H511961   2.498   0.709  12.330 -1.7950 -4.0858 -5.0110
  812MPD2    N111962   2.487   1.054  11.984 -0.2159 -0.4246  0.1747
  812MPD2    H711963   2.527   1.119  11.917 -3.6745  0.7920 -0.7242
  813MPD2     C11964   1.590   2.930  12.658  0.2221 -0.3280  1.1287
  813MPD2    C111965   1.605   3.058  12.720  0.7727  0.0860  0.1675
  813MPD2    C211966   1.538   3.087  12.836 -0.3911 -0.4416  0.2062
  813MPD2    C311967   1.457   2.990  12.888  0.3199 -1.0636 -0.1209
  813MPD2    C411968   1.425   2.880  12.817  0.5049 -0.2609 -0.1816
  813MPD2    C511969   1.493   2.851  12.702  0.7436 -0.1688 -0.7838
  813MPD2     H11970   1.552   3.183  12.884  0.4603  0.2868 -1.4876
  813MPD2    H111971   1.343   2.815  12.841  0.8849 -0.6581  0.0372
  813MPD2    H211972   1.635   2.915  12.561 -0.9001 -1.6558  0.8181
  813MPD2    H311973   1.472   2.762  12.644 -2.7943  0.6343 -0.7176
  813MPD2     N11974   1.390   3.021  13.006  0.1202  0.0685  0.7249
  813MPD2    H511975   1.403   3.116  13.038  1.8394  0.3261 -0.7436
  813MPD2    N111976   1.708   3.138  12.675 -0.3432 -0.6410 -0.2800
  813MPD2    H711977   1.777   3.099  12.612  0.6264  0.5599  0.0513
  814MPD2     C11978   2.165   4.183  11.652 -0.4061 -0.2511  0.1022
  814MPD2    C111979   2.252   4.279  11.599 -0.2100 -0.5558 -0.7081
  814MPD2    C211980   2.356   4.335  11.677 -0.1025  0.3044 -0.8440
  814MPD2    C311981   2.364   4.301  11.815  0.6165  0.4483  0.2329
  814MPD2    C411982   2.274   4.210  11.865  0.1932 -0.7449  0.5570
  814MPD2    C511983   2.188   4.148  11.785 -0.0732  0.8418 -0.7761
  814MPD2     H11984   2.419   4.412  11.636 -0.3518 -0.1599 -2.1084
  814MPD2    H111985   2.284   4.174  11.967 -1.8979 -0.4330  0.8759
  814MPD2    H211986   2.095   4.121  11.597  1.5262 -1.1899 -1.2602
  814MPD2    H311987   2.137   4.064  11.830 -0.1009  2.1711  1.6986
  814MPD2     N11988   2.455   4.361  11.904 -0.6178  0.8295  0.4959
  814MPD2    H511989   2.443   4.335  12.001 -2.8431  2.5311  0.6763
  814MPD2    N111990   2.248   4.319  11.464  0.0635 -0.2627  0.4640
  814MPD2    H711991   2.329   4.372  11.434  0.0597  0.0651  1.0198
  815MPD2     C11992   2.304   3.387  11.799  0.4773 -0.3568  0.0836
  815MPD2    C111993   2.314   3.256  11.834 -0.4364 -0.2991 -0.1215
  815MPD2    C211994   2.232   3.210  11.935  0.1924  0.0564  0.3549
  815MPD2    C311995   2.138   3.296  11.999 -0.1987 -0.5891  0.0332
  815MPD2    C411996   2.131   3.429  11.959  0.6085  0.8858  0.6146
  815MPD2    C511997   2.216   3.469  11.867  0.4602  0.0831 -0.2662
  815MPD2     H11998   2.243   3.106  11.965 -0.1281  0.4738  1.9328
  815MPD2    H111999   2.060   3.503  11.995  0.6622  0.8803  0.7336
  815MPD2    H212000   2.364   3.437  11.725 -0.6905  1.2751  0.2394
  815MPD2    H312001   2.223   3.575  11.850  0.2269  0.0335 -0.6736
  815MPD2     N12002   2.061   3.241  12.100  0.4908  0.4997  0.2908
  815MPD2    H512003   2.092   3.149  12.129 -1.8445 -0.5516 -0.5034
  815MPD2    N112004   2.400   3.171  11.770  0.4841 -0.0224  0.2830
  815MPD2    H712005   2.432   3.204  11.679 -1.2480  0.2459 -0.2431
  816MPD2     C12006   2.777   2.499  16.965  0.6176 -0.0072 -0.3650
  816MPD2    C112007   2.877   2.591  16.996 -0.4916  0.4257 -0.1136
  816MPD2    C212008   3.001   2.544  17.020  0.4601  0.7347  0.5764
  816MPD2    C312009   3.028   2.411  17.019  0.4687  0.4830 -0.3695
  816MPD2    C412010   2.933   2.316  16.983 -0.5017  0.0053  0.3861
  816MPD2    C512011   2.814   2.366  16.956 -0.1921 -0.0193  0.2605
  816MPD2     H12012   3.076   2.611  17.061  0.8524  0.7288 -0.1209
  816MPD2    H112013   2.959   2.211  16.968 -0.3423  0.0897  0.0520
  816MPD2    H212014   2.673   2.525  16.949  0.9898 -0.2032 -3.0600
  816MPD2    H312015   2.732   2.303  16.923  0.1780  0.7296 -2.0695
  816MPD2     N12016   3.158   2.374  17.055  0.5264 -0.5092 -0.2624
  816MPD2    H512017   3.221   2.444  17.092 -1.7523 -0.1872  2.9661
  816MPD2    N112018   2.835   2.727  17.002  0.0669 -0.2133  0.1065
  816MPD2    H712019   2.738   2.749  16.981  0.7960  2.1680 -0.7041
  817MPD2     C12020   2.945   4.003   9.477  0.3296  0.5277 -0.3940
  817MPD2    C112021   2.835   3.911   9.484 -0.3800  0.3183  0.0808
  817MPD2    C212022   2.712   3.957   9.523 -0.5667  0.4788 -0.2864
  817MPD2    C312023   2.691   4.083   9.548 -0.9078  0.7988  0.4421
  817MPD2    C412024   2.793   4.176   9.541  0.0872 -0.5430  0.1120
  817MPD2    C512025   2.911   4.131   9.494 -0.1374  0.7794  0.1667
  817MPD2     H12026   2.633   3.882   9.515 -1.3265  1.2351  0.0957
  817MPD2    H112027   2.776   4.281   9.559 -1.7445 -0.4222 -2.2943
  817MPD2    H212028   3.049   3.982   9.458  0.4503  0.0130  0.8966
  817MPD2    H312029   3.002   4.191   9.496  0.9292 -0.7850 -1.1069
  817MPD2     N12030   2.558   4.103   9.586 -0.6961 -0.6361 -0.1677
  817MPD2    H512031   2.500   4.022   9.602  0.2380 -1.3798 -0.4854
  817MPD2    N112032   2.845   3.767   9.464  0.2104  0.4259  0.1861
  817MPD2    H712033   2.757   3.719   9.451 -0.3155  1.4074  0.1095
  818MPD2     C12034   1.150   3.519   9.715  0.6796 -0.0490 -0.1060
  818MPD2    C112035   1.127   3.447   9.830  0.1748  0.1915  0.0178
  818MPD2    C212036   1.207   3.342   9.867 -0.3004  1.0012  0.9088
  818MPD2    C312037   1.310   3.306   9.774  0.2653 -1.2124  0.2641
  818MPD2    C412038   1.325   3.377   9.653 -0.1653  0.3179 -0.8591
  818MPD2    C512039   1.248   3.482   9.629  0.3444  0.6334 -0.6463
  818MPD2     H12040   1.200   3.298   9.966 -2.2682  1.5908  1.0158
  818MPD2    H112041   1.402   3.347   9.583  0.4939  2.2508 -0.9571
  818MPD2    H212042   1.090   3.606   9.690  1.5543  0.6497  0.1915
  818MPD2    H312043   1.272   3.542   9.542  1.0659 -1.1862 -1.7001
  818MPD2     N12044   1.395   3.198   9.791  0.2930 -0.4826  0.7691
  818MPD2    H512045   1.454   3.167   9.714 -0.5218  0.5381 -0.2630
  818MPD2    N112046   1.033   3.486   9.924  0.1901 -0.0004 -0.6944
  818MPD2    H712047   1.024   3.424  10.004  0.1723  2.4137  1.1641
  819MPD2     C12048   4.148   0.557  16.035 -0.5117  0.4219  0.6459
  819MPD2    C112049   4.214   0.437  16.010  0.0350 -0.0589 -0.3251
  819MPD2    C212050   4.348   0.439  15.983  0.2244 -0.5593 -0.5749
  819MPD2    C312051   4.423   0.553  16.011  0.4343  0.4292  0.5574
  819MPD2    C412052   4.356   0.667  16.049  0.2144 -0.0799 -0.3473
  819MPD2    C512053   4.218   0.676  16.047  0.5435 -0.1576 -0.0979
  819MPD2     H12054   4.396   0.349  15.948  1.3245  0.0689 -0.7108
  819MPD2    H112055   4.412   0.759  16.064 -0.4458  0.3191 -0.3421
  819MPD2    H212056   4.047   0.563  16.074 -0.6630 -2.7877  0.7138
  819MPD2    H312057   4.169   0.768  16.075 -2.9702 -1.9120 -0.4980
  819MPD2     N12058   4.558   0.543  15.977 -0.2003  0.2120  0.4123
  819MPD2    H512059   4.589   0.457  15.933 -0.3961  0.8494 -0.9841
  819MPD2    N112060   4.139   0.320  16.007  0.5255 -0.3055  0.5029
  819MPD2    H712061   4.038   0.327  16.011  0.4345 -1.1301 -0.2613
  820MPD2     C12062   3.581   4.665  15.305 -0.7221 -0.2388  1.3826
  820MPD2    C112063   3.640   0.060  15.342 -0.0396 -1.0825  0.4820
  820MPD2    C212064   3.736   0.067  15.447 -0.5585 -0.1456  0.0531
  820MPD2    C312065   3.762   4.661  15.509  0.1480 -0.0172 -0.9029
  820MPD2    C412066   3.708   4.542  15.458 -1.0207 -0.4758  0.3538
  820MPD2    C512067   3.612   4.550  15.366  0.0565  0.2032  0.6531
  820MPD2     H12068   3.782   0.162  15.470  0.1630 -0.6724  0.7927
  820MPD2    H112069   3.723   4.448  15.509  2.4470 -0.5565 -0.8201
  820MPD2    H212070   3.512   4.664  15.221  1.7092  2.5373 -0.6572
  820MPD2    H312071   3.574   4.458  15.323 -0.8672  0.5731  0.6640
  820MPD2     N12072   3.855   4.654  15.616  0.0908 -0.1786  0.1043
  820MPD2    H512073   3.870   4.558  15.646 -1.5299  0.1132  1.8554
  820MPD2    N112074   3.592   0.175  15.276 -0.0553 -0.3286  0.0665
  820MPD2    H712075   3.514   0.167  15.212  1.1858 -0.8376 -1.3833
  821MPD2     C12076   3.622   1.944  12.610 -0.8935 -0.4748  0.4531
  821MPD2    C112077   3.722   1.920  12.707 -0.0103 -0.6075 -0.0126
  821MPD2    C212078   3.837   1.996  12.698 -0.0579  0.4058 -0.1665
  821MPD2    C312079   3.858   2.090  12.595  0.2288 -0.8109  0.1013
  821MPD2    C412080   3.763   2.092  12.487  0.0348  1.2783 -0.5712
  821MPD2    C512081   3.645   2.021  12.495 -0.3341  0.1009  0.4698
  821MPD2     H12082   3.917   1.974  12.768  0.9493  0.5402 -1.2630
  821MPD2    H112083   3.780   2.160  12.404  0.2628  1.8815 -0.0285
  821MPD2    H212084   3.525   1.896  12.623 -1.1816  0.6817  2.5241
  821MPD2    H312085   3.577   2.036  12.412  0.8226 -0.3842 -0.5735
  821MPD2     N12086   3.982   2.165  12.593 -0.1450  0.3517 -0.7425
  821MPD2    H512087   3.998   2.210  12.503 -0.9485 -0.8868 -1.5132
  821MPD2    N112088   3.699   1.842  12.823 -0.3061 -0.2119 -0.3937
  821MPD2    H712089   3.781   1.829  12.882  0.5748  1.0240 -1.3467
  822MPD2     C12090   0.247   1.819  15.400 -0.6689 -0.4861  0.1858
  822MPD2    C112091   0.254   1.793  15.533  0.3025 -0.0138 -0.1677
  822MPD2    C212092   0.177   1.869  15.613 -0.0239  0.0326 -0.1426
  822MPD2    C312093   0.093   1.975  15.569  0.7126  0.5891  0.5777
  822MPD2    C412094   0.079   1.998  15.440 -0.8063 -0.6573  0.3035
  822MPD2    C512095   0.159   1.916  15.355  0.0353 -0.3543 -0.5332
  822MPD2     H12096   0.174   1.850  15.720  0.1589 -1.6985 -0.4560
  822MPD2    H112097   0.001   2.064  15.406  0.9193  1.5383  0.6112
  822MPD2    H212098   0.323   1.785  15.330  0.7231  0.6216  1.1738
  822MPD2    H312099   0.155   1.936  15.248  0.2401 -0.4842 -0.5652
  822MPD2     N12100   0.028   2.052  15.667  0.3652  0.6929 -0.1273
  822MPD2    H512101   0.033   2.025  15.764 -0.5632 -1.2593 -0.6236
  822MPD2    N112102   0.345   1.704  15.597 -0.2535  0.5318 -0.5227
  822MPD2    H712103   0.373   1.720  15.694 -0.4572 -0.8957 -0.2273
  823MPD2     C12104   4.223   2.238  16.334 -0.2388  0.0995  0.4215
  823MPD2    C112105   4.304   2.169  16.255 -0.0933 -0.0588  0.5861
  823MPD2    C212106   4.384   2.071  16.311  0.5072 -0.1781  0.2350
  823MPD2    C312107   4.398   2.052  16.448  0.5600  0.1073 -0.1762
  823MPD2    C412108   4.314   2.133  16.531  0.8256 -0.5372 -1.0940
  823MPD2    C512109   4.229   2.224  16.468 -0.6331 -0.4746  0.1994
  823MPD2     H12110   4.454   2.020  16.246  1.2546  0.9315  0.1782
  823MPD2    H112111   4.309   2.111  16.637 -1.4633  0.1079 -1.0835
  823MPD2    H212112   4.151   2.313  16.303 -0.5480 -1.3980 -2.4655
  823MPD2    H312113   4.164   2.291  16.523  1.3078 -0.0734  2.0086
  823MPD2     N12114   4.479   1.953  16.509 -0.4592  0.0180  0.1080
  823MPD2    H512115   4.486   1.958  16.610 -1.3097  0.4288  0.1430
  823MPD2    N112116   4.330   2.223  16.125 -0.7755 -0.1239 -0.4060
  823MPD2    H712117   4.292   2.314  16.099  0.2900  0.7485  1.0952
  824MPD2     C12118   0.531   0.851  15.601 -0.1163  0.3265 -0.6342
  824MPD2    C112119   0.637   0.926  15.640  0.8180  1.0324 -0.1877
  824MPD2    C212120   0.765   0.868  15.619 -0.1503 -0.3040  0.0772
  824MPD2    C312121   0.785   0.740  15.568  0.0139  0.0815  0.1194
  824MPD2    C412122   0.670   0.670  15.539  0.2864  0.0813 -0.7053
  824MPD2    C512123   0.546   0.721  15.550 -0.5438  0.0836  0.3916
  824MPD2     H12124   0.848   0.923  15.661  0.6373  0.8238 -2.9571
  824MPD2    H112125   0.677   0.568  15.502  0.0431 -0.0879 -0.2910
  824MPD2    H212126   0.429   0.886  15.612 -0.5256 -1.1112  0.2670
  824MPD2    H312127   0.459   0.666  15.515 -1.5255  1.7355  0.2603
  824MPD2     N12128   0.913   0.684  15.540 -0.1744  0.2110 -0.0547
  824MPD2    H512129   0.994   0.744  15.544  1.7498 -2.5227  1.3892
  824MPD2    N112130   0.628   1.065  15.669  0.0991  0.1578  0.8954
  824MPD2    H712131   0.714   1.115  15.688  0.6962 -0.2655 -0.6712
  825MPD2     C12132   1.464   0.727  14.893  0.5980  0.3714  0.5534
  825MPD2    C112133   1.390   0.772  15.000  0.0540  0.9112 -0.4326
  825MPD2    C212134   1.354   0.907  14.997 -0.4830  0.7548  0.2373
  825MPD2    C312135   1.390   0.998  14.899  0.7529 -0.1455  0.5628
  825MPD2    C412136   1.467   0.944  14.803 -0.0476  0.1451  0.2065
  825MPD2    C512137   1.492   0.811  14.792  0.0497  0.0995 -0.1435
  825MPD2     H12138   1.290   0.944  15.077 -0.7466  0.0209  0.3615
  825MPD2    H112139   1.490   1.002  14.714 -1.6156 -1.0489 -0.9688
  825MPD2    H212140   1.484   0.621  14.884 -0.7070  0.1180  0.6047
  825MPD2    H312141   1.531   0.767  14.701 -1.0445 -0.8495 -0.1581
  825MPD2     N12142   1.346   1.133  14.903  0.5841 -0.2034  0.1116
  825MPD2    H512143   1.365   1.182  14.817  1.0293 -1.8661 -0.7429
  825MPD2    N112144   1.362   0.680  15.107 -0.6972  0.1587  0.2598
  825MPD2    H712145   1.387   0.582  15.098 -0.4304  0.5155 -2.6751
  826MPD2     C12146   0.649   1.102  13.658  0.2330  0.0743 -0.2512
  826MPD2    C112147   0.618   1.142  13.530 -0.0199 -0.2053 -0.2289
  826MPD2    C212148   0.532   1.251  13.524  0.5000  0.1563 -0.3830
  826MPD2    C312149   0.469   1.307  13.637 -0.6838 -0.5651  0.4492
  826MPD2    C412150   0.508   1.261  13.758  0.3045  0.0312  0.4174
  826MPD2    C512151   0.606   1.170  13.769  0.0611  0.2054  0.4528
  826MPD2     H12152   0.498   1.272  13.423 -2.2929  1.3091  0.8035
  826MPD2    H112153   0.467   1.298  13.851 -0.9028 -1.5745  0.5322
  826MPD2    H212154   0.718   1.021  13.682  0.6271  0.0668 -1.4320
  826MPD2    H312155   0.643   1.152  13.870 -1.3242  0.2023  0.9598
  826MPD2     N12156   0.367   1.410  13.628 -0.2062  0.4314 -0.0673
  826MPD2    H512157   0.341   1.463  13.711  4.9759 -0.2064  1.9395
  826MPD2    N112158   0.676   1.076  13.414  0.3288  0.6147 -0.3221
  826MPD2    H712159   0.734   0.994  13.430  0.3015  0.6982  0.2187
  827MPD2     C12160   1.867   2.462   9.966  0.1500  0.2584  0.0686
  827MPD2    C112161   1.837   2.333  10.014  0.1715 -0.1579  0.0660
  827MPD2    C212162   1.755   2.246   9.944  0.3286  0.3897 -0.2276
  827MPD2    C312163   1.685   2.292   9.836  0.2691 -0.4100 -0.3030
  827MPD2    C412164   1.715   2.420   9.792 -0.7440 -0.1074 -0.4208
  827MPD2    C512165   1.803   2.505   9.856 -0.6004  0.1931 -0.4750
  827MPD2     H12166   1.734   2.150   9.991  2.1940  0.5550  0.9510
  827MPD2    H112167   1.654   2.457   9.710 -1.1606  0.5450  0.1834
  827MPD2    H212168   1.931   2.528  10.023 -0.3414  1.3459 -0.6239
  827MPD2    H312169   1.818   2.609   9.830  0.5919  0.7182  2.3402
  827MPD2     N12170   1.595   2.201   9.774  0.6140  0.0056  0.1656
  827MPD2    H512171   1.572   2.114   9.821 -3.0373  0.6924 -0.3299
  827MPD2    N112172   1.898   2.296  10.137 -0.0114  0.0231 -0.7977
  827MPD2    H712173   1.942   2.373  10.187  2.0021 -3.3192  2.5677
  828MPD2     C12174   4.511   2.053  12.324  0.2615  0.8303 -0.0929
  828MPD2    C112175   4.492   2.074  12.189 -0.1791 -0.4573 -0.5712
  828MPD2    C212176   4.604   2.070  12.107  0.7716  0.4699 -0.2316
  828MPD2    C312177   0.007   2.030  12.158 -0.2629  0.3769  0.1315
  828MPD2    C412178   0.024   2.020  12.298  0.4721  0.4219  0.5213
  828MPD2    C512179   4.633   2.030  12.379 -0.5406  0.4095 -0.3961
  828MPD2     H12180   4.585   2.094  12.003 -0.7919 -2.3831 -0.6166
  828MPD2    H112181   0.115   1.993  12.350  1.3209  0.3854 -0.9908
  828MPD2    H212182   4.424   2.054  12.389 -0.0139  1.4526 -0.4804
  828MPD2    H312183   4.646   2.013  12.486  0.3364  0.4107 -0.5018
  828MPD2     N12184   0.127   2.006  12.084 -0.1128  0.0666 -0.0264
  828MPD2    H512185   0.211   1.973  12.131 -0.1343 -0.7769 -0.5792
  828MPD2    N112186   4.374   2.119  12.127 -0.3597 -0.0311 -0.9500
  828MPD2    H712187   4.374   2.125  12.025 -1.4050  0.2677 -0.9268
  829MPD2     C12188   4.601   2.374  11.462 -0.0420 -0.0606  0.2357
  829MPD2    C112189   4.497   2.456  11.460 -0.3243  0.4693  0.3666
  829MPD2    C212190   4.396   2.443  11.561 -0.2335 -0.3811  0.0349
  829MPD2    C312191   4.412   2.361  11.669  0.2941  0.2004 -0.0745
  829MPD2    C412192   4.531   2.296  11.683  0.1473 -0.0122 -0.4513
  829MPD2    C512193   4.618   2.294  11.573  0.2486  0.3957 -0.2634
  829MPD2     H12194   4.305   2.500  11.546  0.0552  0.2317  0.5875
  829MPD2    H112195   4.557   2.241  11.773  0.2096  1.6923  0.5792
  829MPD2    H212196   4.670   2.374  11.378  0.7223  0.2371  0.8682
  829MPD2    H312197   4.701   2.224  11.578 -0.8159 -0.7883  0.9220
  829MPD2     N12198   4.325   2.349  11.772  0.5754  0.2515  0.1608
  829MPD2    H512199   4.358   2.289  11.847 -2.1797  0.0425  1.2355
  829MPD2    N112200   4.482   2.542  11.347 -0.2244 -0.4491  1.0608
  829MPD2    H712201   4.545   2.511  11.274 -0.7987  1.1160 -0.0871
  830MPD2     C12202   0.064   0.360  15.450 -0.1392 -0.0014  0.0120
  830MPD2    C112203   0.183   0.409  15.496  0.0068  0.0986  0.3089
  830MPD2    C212204   0.302   0.393  15.422 -0.1258 -0.6021  0.0153
  830MPD2    C312205   0.298   0.305  15.317  0.0248 -0.4339  0.5825
  830MPD2    C412206   0.183   0.246  15.273 -0.0683  0.2205  0.2516
  830MPD2    C512207   0.061   0.279  15.336  0.2151  0.2717 -0.4493
  830MPD2     H12208   0.395   0.442  15.446  0.1418 -0.1898 -1.8753
  830MPD2    H112209   0.179   0.179  15.189  1.7291  0.1933  0.1856
  830MPD2    H212210   4.689   0.393  15.491 -0.3204  1.4829 -1.6054
  830MPD2    H312211   4.688   0.238  15.296  0.8133  0.2268 -1.7977
  830MPD2     N12212   0.415   0.275  15.241 -0.3283  0.0084  0.9339
  830MPD2    H512213   0.405   0.208  15.165  2.0710 -1.1755  1.6545
  830MPD2    N112214   0.170   0.477  15.617 -0.0680  0.0133 -0.4548
  830MPD2    H712215   0.080   0.478  15.663 -0.7035  0.1900 -1.6958
  831MPD2     C12216   0.209   2.194  16.017 -0.0226  0.2240  0.1533
  831MPD2    C112217   0.253   2.076  15.951 -0.2251  0.4611  0.4367
  831MPD2    C212218   0.187   1.957  15.973 -0.6378  0.6841 -0.3840
  831MPD2    C312219   0.064   1.960  16.047  0.0492  0.0092 -0.2162
  831MPD2    C412220   0.036   2.068  16.126  0.1107 -0.0897  0.6249
  831MPD2    C512221   0.110   2.181  16.108 -0.1452  0.0830 -0.0633
  831MPD2     H12222   0.218   1.866  15.922  0.5769  0.7240  0.2661
  831MPD2    H112223   4.678   2.072  16.201  0.8236  0.8379  1.3241
  831MPD2    H212224   0.260   2.289  16.028  0.0903  0.1065  0.6332
  831MPD2    H312225   0.073   2.277  16.143 -0.1748 -0.2750  0.8751
  831MPD2     N12226   4.690   1.852  16.057  0.1860 -0.4049  0.5025
  831MPD2    H512227   4.614   1.866  16.123 -0.5765 -1.2126 -0.2025
  831MPD2    N112228   0.363   2.084  15.860  0.6902 -0.2374 -0.4285
  831MPD2    H712229   0.397   2.179  15.848 -0.1397  0.0552 -0.4677
  832MPD2     C12230   3.770   3.567  16.912  0.6850  0.0794  0.4811
  832MPD2    C112231   3.759   3.705  16.923 -0.5867  0.1339  0.2644
  832MPD2    C212232   3.652   3.766  16.864  0.7109 -0.3016 -0.4248
  832MPD2    C312233   3.538   3.698  16.820  0.7858 -0.1900  0.1836
  832MPD2    C412234   3.544   3.560  16.821  0.6603 -0.8019  0.3679
  832MPD2    C512235   3.658   3.501  16.862 -0.5683  0.3104  0.6108
  832MPD2     H12236   3.642   3.874  16.863  1.6200 -0.1977  0.8316
  832MPD2    H112237   3.476   3.489  16.777 -0.5319  0.1638  0.6652
  832MPD2    H212238   3.854   3.513  16.955  1.3896  1.4588  0.8193
  832MPD2    H312239   3.666   3.394  16.852 -0.1857  0.4180 -0.2012
  832MPD2     N12240   3.424   3.760  16.765 -0.0324 -0.1182 -0.2270
  832MPD2    H512241   3.340   3.706  16.749  0.3300 -0.8601  0.3906
  832MPD2    N112242   3.858   3.776  17.002 -0.5351 -0.1269  1.1683
  832MPD2    H712243   3.923   3.716  17.053  1.5316  1.6096  0.5877
  833MPD2     C12244   0.746   4.052  12.567  0.4897 -1.1015  0.8072
  833MPD2    C112245   0.739   4.160  12.481 -0.5335 -0.3124  0.2615
  833MPD2    C212246   0.836   4.186  12.394 -0.1613  0.2995 -0.5104
  833MPD2    C312247   0.937   4.094  12.375 -0.1423 -0.3080 -0.3364
  833MPD2    C412248   0.944   3.977  12.459 -0.0344 -0.1665 -0.0099
  833MPD2    C512249   0.848   3.967  12.556 -0.1502 -0.0346 -0.1098
  833MPD2     H12250   0.836   4.276  12.333 -1.7426  0.8851  0.3588
  833MPD2    H112251   1.025   3.905  12.451 -0.0654 -0.1258 -0.6902
  833MPD2    H212252   0.665   4.029  12.634  0.9098 -1.9640  1.0140
  833MPD2    H312253   0.847   3.875  12.613  2.2043  1.2451  1.9906
  833MPD2     N12254   1.036   4.098  12.275  0.8228  0.4642  0.8425
  833MPD2    H512255   1.104   4.023  12.271  0.0894 -0.1134 -1.1341
  833MPD2    N112256   0.629   4.246  12.485  0.1448 -0.1226  0.4086
  833MPD2    H712257   0.640   4.333  12.433 -1.4287 -0.0269  0.2472
  834MPD2     C12258   0.960   3.387  11.708  0.2424 -0.0419  0.2897
  834MPD2    C112259   0.893   3.472  11.632  0.0196  0.4329 -0.7568
  834MPD2    C212260   0.884   3.605  11.676  0.0814  0.3557  0.4283
  834MPD2    C312261   0.940   3.641  11.799 -0.6062  0.3409  0.2076
  834MPD2    C412262   1.014   3.550  11.870 -0.0385  0.4389  0.2623
  834MPD2    C512263   1.015   3.421  11.830  0.5476 -0.4616 -0.1685
  834MPD2     H12264   0.840   3.678  11.609 -0.2195  0.3646  0.6328
  834MPD2    H112265   1.080   3.562  11.954 -3.3742  0.5170  2.8606
  834MPD2    H212266   0.981   3.289  11.667 -0.8906 -0.4732  0.7297
  834MPD2    H312267   1.077   3.347  11.880 -1.4115 -2.1488 -0.2634
  834MPD2     N12268   0.948   3.776  11.831 -0.1089 -0.6027  0.0253
  834MPD2    H512269   0.928   3.840  11.755 -1.1737 -0.3837  0.4863
  834MPD2    N112270   0.852   3.426  11.509  0.9568  0.4042  0.0978
  834MPD2    H712271   0.881   3.331  11.489  2.4775  1.0501 -0.7734
  835MPD2     C12272   1.042   2.287  11.187 -0.0935  0.5359 -1.1877
  835MPD2    C112273   0.958   2.343  11.284 -0.1191 -0.9257 -0.1970
  835MPD2    C212274   1.009   2.367  11.411  0.5480  0.1685  0.0465
  835MPD2    C312275   1.145   2.344  11.439  0.3542  0.6234  0.4024
  835MPD2    C412276   1.229   2.279  11.342  0.3108 -0.2520  0.6337
  835MPD2    C512277   1.167   2.245  11.220  0.1339 -0.2848  0.0905
  835MPD2     H12278   0.952   2.424  11.483  0.9588 -0.9479  1.2390
  835MPD2    H112279   1.337   2.274  11.354  0.5692  1.6779 -0.8973
  835MPD2    H212280   1.021   2.283  11.081 -0.1740 -0.5127 -1.1270
  835MPD2    H312281   1.232   2.205  11.143  2.1041  1.3053  0.9348
  835MPD2     N12282   1.212   2.372  11.561  0.2730  0.4354  0.1920
  835MPD2    H512283   1.311   2.351  11.563  0.4133  0.7510 -2.7422
  835MPD2    N112284   0.821   2.381  11.251 -0.5550  0.2104  0.2351
  835MPD2    H712285   0.778   2.442  11.320 -2.6376 -0.7470 -0.2169
  836MPD2     C12286   0.980   2.506  12.383  0.1227  0.3055 -0.1259
  836MPD2    C112287   0.988   2.515  12.247  0.4265  0.4958  0.2666
  836MPD2    C212288   0.871   2.483  12.171  0.1283  0.8690  0.2947
  836MPD2    C312289   0.747   2.454  12.231  0.8734 -0.4430  0.3022
  836MPD2    C412290   0.737   2.474  12.368  0.1130 -0.6119  0.3954
  836MPD2    C512291   0.853   2.498  12.444  0.2548 -0.0238  0.3826
  836MPD2     H12292   0.890   2.461  12.067  0.8917 -1.2270  0.8837
  836MPD2    H112293   0.644   2.455  12.420 -0.7975 -0.1711 -1.0808
  836MPD2    H212294   1.066   2.512  12.449 -0.9105 -0.6645  1.3083
  836MPD2    H312295   0.837   2.504  12.551  4.0855 -1.6210  1.0278
  836MPD2     N12296   0.629   2.431  12.149  0.3326 -0.8486  0.0361
  836MPD2    H512297   0.535   2.445  12.184  0.2516 -2.7691  0.5937
  836MPD2    N112298   1.112   2.535  12.189 -0.2802 -0.1867 -1.0009
  836MPD2    H712299   1.195   2.537  12.247 -2.0469 -2.4906  1.6269
  837MPD2     C12300   3.539   2.304  10.241 -0.7117  0.7461  0.2414
  837MPD2    C112301   3.497   2.366  10.122 -0.1069 -0.6489  0.7904
  837MPD2    C212302   3.593   2.420  10.043  0.1775  0.7231  0.3834
  837MPD2    C312303   3.730   2.414  10.071 -0.1164  0.5047 -0.2262
  837MPD2    C412304   3.773   2.343  10.182  0.4232 -0.2333 -0.4288
  837MPD2    C512305   3.677   2.291  10.267 -0.5180 -0.4097 -0.5312
  837MPD2     H12306   3.563   2.437   9.941 -0.8454 -0.5851  0.4605
  837MPD2    H112307   3.876   2.341  10.217  0.0503 -1.7250  0.5931
  837MPD2    H212308   3.468   2.267  10.314 -0.7943  1.3781  0.4820
  837MPD2    H312309   3.719   2.240  10.352 -3.4053 -2.5926 -0.4402
  837MPD2     N12310   3.814   2.469   9.970  0.8426 -0.3870 -0.6486
  837MPD2    H512311   3.767   2.538   9.913  0.1632  0.2664  0.7008
  837MPD2    N112312   3.371   2.361  10.069 -0.6071  0.2130  0.0384
  837MPD2    H712313   3.357   2.414   9.984 -0.1824  2.9585  1.7010
  838MPD2     C12314   2.330   0.007  11.946 -0.3226  0.2077 -0.3505
  838MPD2    C112315   2.271   4.672  11.835 -0.3315 -0.7369 -0.1892
  838MPD2    C212316   2.174   4.577  11.841  0.1174 -0.4751  0.1655
  838MPD2    C312317   2.128   4.531  11.963  0.4288  0.0476  0.3811
  838MPD2    C412318   2.183   4.592  12.076  0.1897 -0.3345  0.0021
  838MPD2    C512319   2.282   4.683  12.071 -0.0152  0.8197 -0.2661
  838MPD2     H12320   2.146   4.531  11.747 -0.7406  3.6416 -1.5523
  838MPD2    H112321   2.150   4.550  12.170 -1.8535  0.2253 -0.4702
  838MPD2    H212322   2.396   0.093  11.939  2.1001 -1.5249  1.1463
  838MPD2    H312323   2.333   4.718  12.160  1.8040  0.4239 -1.1511
  838MPD2     N12324   2.037   4.426  11.971 -0.1359 -0.2283 -0.2705
  838MPD2    H512325   2.022   4.398  12.068 -0.3934 -0.5177 -0.3930
  838MPD2    N112326   2.304   4.712  11.708 -0.3358  0.4735  0.6600
  838MPD2    H712327   2.252   4.675  11.628  1.0918 -1.9416  0.8602
  839MPD2     C12328   1.839   4.533  11.019 -0.0455  0.3664 -0.3033
  839MPD2    C112329   1.956   4.568  10.953  0.7456  0.9993  0.6072
  839MPD2    C212330   2.056   4.635  11.022  0.0271 -0.2173 -0.1763
  839MPD2    C312331   2.047   4.639  11.167  0.5312 -0.1606  0.0619
  839MPD2    C412332   1.944   4.580  11.232 -0.1838 -0.6349  0.8022
  839MPD2    C512333   1.836   4.535  11.157 -0.4302  0.0759 -0.0009
  839MPD2     H12334   2.151   4.666  10.978  0.6260 -0.9808  0.5826
  839MPD2    H112335   1.938   4.583  11.340 -0.7706  1.4804  0.7252
  839MPD2    H212336   1.747   4.501  10.971 -0.0924  0.9429 -0.6009
  839MPD2    H312337   1.749   4.512  11.217 -0.7213 -1.1627 -0.9124
  839MPD2     N12338   2.138   4.712  11.251 -0.1437 -0.1640 -0.4827
  839MPD2    H512339   2.116   4.717  11.350 -1.0708  0.2780 -0.7150
  839MPD2    N112340   1.965   4.549  10.810 -0.0290  0.5051  0.0011
  839MPD2    H712341   2.056   4.565  10.768 -0.5270  0.2843 -1.1803
  840MPD2     C12342   2.506   2.528  10.292 -0.5080 -0.0583  0.2204
  840MPD2    C112343   2.411   2.513  10.386  0.6366  0.2369 -0.2265
  840MPD2    C212344   2.403   2.597  10.497 -0.3529 -0.2252  0.4156
  840MPD2    C312345   2.484   2.706  10.487  0.2165 -0.3550  0.7611
  840MPD2    C412346   2.580   2.716  10.390  0.6284 -0.4435 -0.3053
  840MPD2    C512347   2.591   2.631  10.292 -0.1950  0.7528 -0.5809
  840MPD2     H12348   2.324   2.577  10.568  0.3471 -0.8044  1.0229
  840MPD2    H112349   2.655   2.794  10.398  0.9069 -0.6921 -0.5069
  840MPD2    H212350   2.525   2.462  10.208  0.4673 -1.4654  1.5384
  840MPD2    H312351   2.665   2.650  10.215  2.0033  1.4249  1.7227
  840MPD2     N12352   2.493   2.801  10.584 -0.2491  0.0041 -0.1406
  840MPD2    H512353   2.570   2.867  10.580 -0.3099 -0.0016 -1.3969
  840MPD2    N112354   2.317   2.409  10.378 -0.4065  0.4329  0.2950
  840MPD2    H712355   2.313   2.362  10.288  1.1290 -0.3851  0.6476
  841MPD2     C12356   2.072   1.760  14.132 -0.5964 -0.0395 -0.2852
  841MPD2    C112357   2.001   1.680  14.219 -0.3757  0.2756  0.9073
  841MPD2    C212358   1.970   1.725  14.340 -0.1148  0.2968 -0.2136
  841MPD2    C312359   2.033   1.838  14.394 -0.7675 -0.4955 -0.0809
  841MPD2    C412360   2.111   1.908  14.309  0.0993  1.0030 -0.0569
  841MPD2    C512361   2.119   1.878  14.178  0.4206 -0.1705 -0.0604
  841MPD2     H12362   1.900   1.667  14.398 -0.3655  0.8810  0.0677
  841MPD2    H112363   2.158   2.003  14.333  2.3299 -0.0699 -0.0918
  841MPD2    H212364   2.080   1.753  14.024 -0.4824 -2.0518 -0.1480
  841MPD2    H312365   2.173   1.945  14.112  1.8971 -0.1338  1.2139
  841MPD2     N12366   2.003   1.880  14.530 -0.6752  0.5198 -0.2382
  841MPD2    H512367   1.946   1.816  14.584 -0.3435  0.3315 -0.1093
  841MPD2    N112368   1.942   1.554  14.175 -0.5608  0.6774  0.1820
  841MPD2    H712369   1.872   1.512  14.236  0.9532 -0.3366  1.2434
  842MPD2     C12370   2.858   4.019  16.354  0.2947  0.2316  0.3027
  842MPD2    C112371   2.773   3.914  16.313  0.6007 -0.1893  0.7729
  842MPD2    C212372   2.725   3.826  16.407 -0.0836 -0.0903 -0.1722
  842MPD2    C312373   2.744   3.852  16.540 -0.9520 -0.4977  0.9743
  842MPD2    C412374   2.830   3.952  16.579 -0.1262 -0.1302 -0.4553
  842MPD2    C512375   2.884   4.036  16.486  0.2860 -0.3972  0.6472
  842MPD2     H12376   2.649   3.755  16.376 -0.1767 -0.0414 -0.0537
  842MPD2    H112377   2.840   3.975  16.685 -3.4492 -2.7242  0.4333
  842MPD2    H212378   2.892   4.092  16.282  2.8135 -0.3820  0.8669
  842MPD2    H312379   2.944   4.118  16.524 -0.5649  0.7600 -0.4704
  842MPD2     N12380   2.686   3.779  16.651  0.5384 -0.1490 -0.6213
  842MPD2    H512381   2.711   3.811  16.743  0.3235  0.4509 -0.7735
  842MPD2    N112382   2.745   3.919  16.181  0.3021  0.1544 -0.3233
  842MPD2    H712383   2.777   4.000  16.129  0.9001  0.9112  1.2019
  843MPD2     C12384   4.256   4.051   0.291 -0.4101 -0.4243 -0.2932
  843MPD2    C112385   4.356   3.972   0.342  0.0305 -0.2451  0.3873
  843MPD2    C212386   4.491   4.003   0.340  0.6916 -0.3517  0.0208
  843MPD2    C312387   4.527   4.126   0.280  0.7400  0.7385 -0.0159
  843MPD2    C412388   4.427   4.214   0.227 -0.0380 -0.4248  0.2450
  843MPD2    C512389   4.298   4.167   0.225  0.1992  0.8773 -0.2323
  843MPD2     H12390   4.568   3.936   0.376  1.5323  1.6061  1.8429
  843MPD2    H112391   4.456   4.302   0.172  3.4465 -1.3802  0.5437
  843MPD2    H212392   4.159   4.007   0.272 -0.6379  0.0120 -0.1354
  843MPD2    H312393   4.233   4.221   0.157 -2.8303 -0.8481  1.2400
  843MPD2     N12394   4.660   4.172   0.273 -0.1732 -0.3763  0.1808
  843MPD2    H512395   4.672   4.267   0.239 -4.0875  0.3356  0.7756
  843MPD2    N112396   4.307   3.849   0.401  0.3306 -0.5925  0.1393
  843MPD2    H712397   4.206   3.838   0.397 -0.0115  2.9884 -1.0934
  844MPD2     C12398   3.244   3.214  16.456 -0.7165 -0.0703  0.1149
  844MPD2    C112399   3.372   3.176  16.468 -0.2482  0.9560 -0.2439
  844MPD2    C212400   3.470   3.275  16.482  0.1770 -0.2516 -0.4735
  844MPD2    C312401   3.437   3.409  16.481  0.0540 -0.5329  0.0875
  844MPD2    C412402   3.303   3.437  16.485 -0.3545  0.3350  0.0371
  844MPD2    C512403   3.211   3.342  16.464 -0.1613  0.5046 -0.8449
  844MPD2     H12404   3.576   3.251  16.486 -0.5138 -3.5683 -1.8026
  844MPD2    H112405   3.250   3.531  16.492  0.7873  0.8947  1.2813
  844MPD2    H212406   3.167   3.138  16.459 -0.6167 -0.2677 -2.3466
  844MPD2    H312407   3.106   3.371  16.460  0.4327  2.6758 -0.9933
  844MPD2     N12408   3.532   3.512  16.482 -0.6408 -0.6529  0.2721
  844MPD2    H512409   3.629   3.483  16.493 -0.2645  0.7251  0.5556
  844MPD2    N112410   3.409   3.045  16.449  0.1068 -0.3210 -0.2796
  844MPD2    H712411   3.509   3.036  16.462 -0.1995 -1.5975  1.2440
  845MPD2     C12412   3.478   4.554  16.497  0.4003 -0.3913 -1.0323
  845MPD2    C112413   3.583   4.504  16.575 -0.5668  0.1274 -0.7876
  845MPD2    C212414   3.644   4.377  16.540 -0.3831 -0.0754 -0.3548
  845MPD2    C312415   3.584   4.292  16.447  0.5114  0.9072 -0.7266
  845MPD2    C412416   3.486   4.349  16.368 -0.0856  0.2456 -0.1788
  845MPD2    C512417   3.432   4.479  16.392  0.1786 -0.2301  0.2401
  845MPD2     H12418   3.716   4.330  16.606 -0.4773 -0.4572 -0.5252
  845MPD2    H112419   3.431   4.297  16.290 -0.2618 -0.6472  0.5392
  845MPD2    H212420   3.435   4.653  16.510  1.4361  0.0135 -0.6208
  845MPD2    H312421   3.357   4.523  16.328  0.1090 -0.4152  0.1943
  845MPD2     N12422   3.625   4.159  16.444 -0.3889 -0.3011  0.3839
  845MPD2    H512423   3.677   4.129  16.526  0.1740 -0.6342 -0.1014
  845MPD2    N112424   3.624   4.578  16.685  0.5764  0.0812  0.6428
  845MPD2    H712425   3.570   4.662  16.700 -1.3569 -1.0529  0.1303
  846MPD2     C12426   0.113   3.918  13.627 -0.6203  0.2254  0.1521
  846MPD2    C112427   4.712   3.988  13.619 -0.0306 -0.3324  0.3215
  846MPD2    C212428   4.672   4.042  13.742 -0.3315  0.4906 -0.3360
  846MPD2    C312429   0.010   4.024  13.866 -0.6749 -0.5276  0.0739
  846MPD2    C412430   0.129   3.959  13.869  0.2973 -0.0240 -0.4023
  846MPD2    C512431   0.174   3.911  13.749 -0.3034  0.5320 -0.6885
  846MPD2     H12432   4.587   4.108  13.749 -1.8229 -1.1994 -2.4679
  846MPD2    H112433   0.175   3.946  13.967 -3.9432  1.9471  1.8613
  846MPD2    H212434   0.150   3.874  13.535  1.0772  0.4437  0.7459
  846MPD2    H312435   0.276   3.875  13.742  0.3278  1.8570  1.5407
  846MPD2     N12436   4.658   4.079  13.982  0.0504 -0.3476  0.1943
  846MPD2    H512437   4.576   4.132  13.952  0.1514 -0.4814 -0.3150
  846MPD2    N112438   4.654   4.045  13.511  0.3367 -0.4594  0.0524
  846MPD2    H712439   4.586   4.118  13.529 -1.2186 -1.9043  0.0459
  847MPD2     C12440   0.152   0.224  14.372  0.1456  0.0434  0.3710
  847MPD2    C112441   0.240   0.316  14.320  0.2052  0.5133 -0.5537
  847MPD2    C212442   0.362   0.273  14.272  0.7408  0.1559 -0.3316
  847MPD2    C312443   0.413   0.142  14.286 -0.0405 -0.0243 -0.4437
  847MPD2    C412444   0.327   0.055  14.342  0.9286  0.1580  0.3131
  847MPD2    C512445   0.204   0.097  14.395  0.0784  0.3636  0.2438
  847MPD2     H12446   0.438   0.341  14.234  1.4314  0.7830  2.2133
  847MPD2    H112447   0.358   4.674  14.364  1.5506  0.5388  1.1750
  847MPD2    H212448   0.061   0.259  14.420 -0.7178 -0.0266 -1.2399
  847MPD2    H312449   0.152   0.015  14.444 -0.6140  0.5407 -0.1897
  847MPD2     N12450   0.552   0.109  14.286 -0.4451 -0.5645 -0.0928
  847MPD2    H512451   0.566   0.012  14.313  1.1941 -1.1724 -3.1639
  847MPD2    N112452   0.215   0.459  14.308  0.0498  0.2959 -0.3655
  847MPD2    H712453   0.280   0.504  14.244  0.2338  2.0211  1.0762
  848MPD2     C12454   3.169   4.239  16.116  1.1330 -0.2656  0.1745
  848MPD2    C112455   3.153   4.257  16.256 -0.2323  0.2687  0.5925
  848MPD2    C212456   3.108   4.379  16.309 -0.0660 -0.4016 -0.1184
  848MPD2    C312457   3.059   4.474  16.225 -0.4136 -0.7580  0.2626
  848MPD2    C412458   3.061   4.444  16.090  0.4886  0.1748  0.0836
  848MPD2    C512459   3.108   4.331  16.039 -0.8798 -0.7524 -0.7341
  848MPD2     H12460   3.102   4.402  16.415  1.6527 -2.0622  0.3374
  848MPD2    H112461   3.019   4.522  16.027 -0.5452 -0.0960  0.4295
  848MPD2    H212462   3.209   4.147  16.075  0.3684  0.7880 -2.9006
  848MPD2    H312463   3.111   4.322  15.931 -2.4871 -0.4411 -0.7969
  848MPD2     N12464   3.010   4.600  16.263 -0.0076  0.0236 -0.6826
  848MPD2    H512465   2.967   4.656  16.191  1.3360  1.0672 -0.6773
  848MPD2    N112466   3.190   4.158  16.348  0.4287  0.2314 -0.0492
  848MPD2    H712467   3.190   4.194  16.443 -0.7602  1.2397 -0.4364
  849MPD2     C12468   1.910   3.048  13.965 -0.5955 -0.3534 -0.5148
  849MPD2    C112469   1.997   2.957  13.916  0.1865 -0.1493  0.1606
  849MPD2    C212470   1.961   2.828  13.948  0.6503 -0.2782  0.5729
  849MPD2    C312471   1.843   2.793  14.022 -0.1277  0.2046 -0.4995
  849MPD2    C412472   1.762   2.891  14.058  1.1485 -0.7396 -0.3818
  849MPD2    C512473   1.796   3.018  14.032  0.5987 -0.2450 -0.3670
  849MPD2     H12474   2.021   2.744  13.915 -0.3889 -1.2157  1.0608
  849MPD2    H112475   1.674   2.864  14.114  0.3423  1.7888 -0.4250
  849MPD2    H212476   1.937   3.153  13.958 -0.4536 -0.3914 -0.5206
  849MPD2    H312477   1.727   3.096  14.061 -1.3637 -0.9050 -3.2100
  849MPD2     N12478   1.809   2.662  14.063  0.3032  0.1046 -0.0254
  849MPD2    H512479   1.736   2.654  14.133 -0.0657  0.9818 -0.3213
  849MPD2    N112480   2.111   3.003  13.841 -0.1646  0.0537 -0.1760
  849MPD2    H712481   2.122   3.103  13.826 -2.9381  0.4012  0.0810
  850MPD2     C12482   0.072   0.768  14.733  0.7892 -0.4276 -0.3274
  850MPD2    C112483   0.051   0.899  14.773 -0.0655 -0.6077 -0.1498
  850MPD2    C212484   0.157   0.983  14.804 -0.1261 -0.1954 -1.2278
  850MPD2    C312485   0.282   0.933  14.786  0.7836  0.0115  0.4271
  850MPD2    C412486   0.298   0.805  14.753 -0.7210 -0.1975  0.7255
  850MPD2    C512487   0.196   0.718  14.722  0.4813  0.5338 -0.1073
  850MPD2     H12488   0.139   1.083  14.841  1.1466 -0.4362  0.0418
  850MPD2    H112489   0.398   0.768  14.737 -0.8792 -0.4356  0.2887
  850MPD2    H212490   4.704   0.707  14.714  0.7033  0.0707 -1.4923
  850MPD2    H312491   0.214   0.614  14.699 -0.3430  0.2983  0.3095
  850MPD2     N12492   0.399   1.008  14.798 -0.3936 -0.4496 -0.1057
  850MPD2    H512493   0.485   0.955  14.782 -0.4379  0.3811 -3.1319
  850MPD2    N112494   4.635   0.938  14.784 -0.2291 -0.1890 -0.3161
  850MPD2    H712495   4.569   0.877  14.736  0.3259 -0.0602 -1.2471
  851MPD2     C12496   0.542   1.051  15.271  0.0203 -0.5209  0.0313
  851MPD2    C112497   0.455   0.965  15.221 -0.1912 -0.5483  0.0349
  851MPD2    C212498   0.482   0.833  15.187  0.0864  0.0414 -0.6822
  851MPD2    C312499   0.613   0.799  15.192  0.6997  0.0545  0.2457
  851MPD2    C412500   0.709   0.888  15.241  0.6651 -0.4302 -0.0179
  851MPD2    C512501   0.669   1.009  15.288 -0.1992 -0.0721  0.4715
  851MPD2     H12502   0.405   0.777  15.135 -0.2280 -0.9727  0.8777
  851MPD2    H112503   0.813   0.858  15.254  0.4304 -1.9759 -1.6971
  851MPD2    H212504   0.505   1.146  15.308 -0.8376 -0.0354 -2.1058
  851MPD2    H312505   0.739   1.084  15.324 -0.3956 -0.2892  1.3251
  851MPD2     N12506   0.643   0.678  15.135 -0.2078  0.2203  0.6524
  851MPD2    H512507   0.567   0.631  15.086 -0.5117 -1.2336  2.4886
  851MPD2    N112508   0.324   1.021  15.206 -0.5476  0.1283  0.0424
  851MPD2    H712509   0.308   1.120  15.222  1.3646  0.1032  2.0284
  852MPD2     C12510   3.751   4.620   9.712  0.7117  0.1023 -0.4976
  852MPD2    C112511   3.819   4.505   9.744 -0.3475  0.2387  0.0984
  852MPD2    C212512   3.952   4.484   9.720  0.1441 -0.0698 -0.3305
  852MPD2    C312513   4.027   4.586   9.656  0.8113 -0.2623 -0.4734
  852MPD2    C412514   3.965   4.714   9.634  0.0747  0.0055 -0.3891
  852MPD2    C512515   3.828   4.720   9.666  0.0112  0.6842 -0.4694
  852MPD2     H12516   4.007   4.394   9.746  0.6096 -0.3081 -2.1336
  852MPD2    H112517   4.010   0.079   9.584 -1.2721  0.0155 -1.5899
  852MPD2    H212518   3.647   4.635   9.741  1.7428  1.4363  2.5619
  852MPD2    H312519   3.774   0.091   9.643  1.4807  2.3770  2.8139
  852MPD2     N12520   4.160   4.559   9.641 -0.2496  0.2961  0.2202
  852MPD2    H512521   4.200   4.469   9.667 -0.7116 -0.4078 -1.4988
  852MPD2    N112522   3.742   4.395   9.794  0.2343 -0.4724 -0.2437
  852MPD2    H712523   3.794   4.308   9.803 -1.7024 -1.5801  0.0430
  853MPD2     C12524   1.401   3.488  12.255 -0.2295  0.0649 -0.3102
  853MPD2    C112525   1.373   3.618  12.253 -0.2527 -0.0210 -0.0697
  853MPD2    C212526   1.353   3.676  12.127 -0.9021 -0.2364  0.1185
  853MPD2    C312527   1.364   3.598  12.007 -0.0843  0.8571 -0.0541
  853MPD2    C412528   1.385   3.464  12.017  0.3689 -0.2176 -0.0156
  853MPD2    C512529   1.410   3.420  12.138  0.3583  0.1230 -0.3997
  853MPD2     H12530   1.324   3.780  12.113  1.7627  0.3378 -1.1790
  853MPD2    H112531   1.384   3.401  11.928  1.8417  0.8712 -0.8158
  853MPD2    H212532   1.405   3.431  12.347  1.8516  0.4406 -0.1605
  853MPD2    H312533   1.416   3.312  12.147  0.2562  0.0677 -1.0009
  853MPD2     N12534   1.360   3.646  11.871 -0.4626 -0.0453  0.5177
  853MPD2    H512535   1.359   3.573  11.800  1.5201 -0.2732  0.7204
  853MPD2    N112536   1.362   3.690  12.375  0.1697 -0.3384 -0.0766
  853MPD2    H712537   1.374   3.635  12.460 -0.6797 -0.3478  0.0342
  854MPD2     C12538   3.039   3.166  12.304 -0.3834  0.5694 -0.3271
  854MPD2    C112539   3.076   3.190  12.442  0.0086 -0.0835  0.0479
  854MPD2    C212540   3.147   3.095  12.513  0.0067  0.2641  0.0806
  854MPD2    C312541   3.185   2.979  12.453 -0.3738 -0.2069  0.4697
  854MPD2    C412542   3.150   2.958  12.321  0.3981  0.2836 -0.0149
  854MPD2    C512543   3.079   3.044  12.246  0.2155 -0.6979  0.4059
  854MPD2     H12544   3.166   3.119  12.617  1.3500  2.9841 -0.7798
  854MPD2    H112545   3.184   2.866  12.277 -0.5264  1.0781 -2.3865
  854MPD2    H212546   2.991   3.245  12.248 -0.1829 -0.7119 -2.3155
  854MPD2    H312547   3.058   3.017  12.143  1.3202  1.2415 -0.3132
  854MPD2     N12548   3.264   2.885  12.508 -0.1786  0.0433 -0.6814
  854MPD2    H512549   3.284   2.801  12.454  0.1700 -0.7759  0.7227
  854MPD2    N112550   3.047   3.312  12.489 -0.0825  0.2577 -0.3701
  854MPD2    H712551   2.990   3.369  12.427 -0.7239 -0.8886 -0.8289
  855MPD2     C12552   3.756   3.252  13.178  0.5916 -0.5954  0.1238
  855MPD2    C112553   3.705   3.135  13.229 -0.7118 -0.5772 -0.5967
  855MPD2    C212554   3.686   3.026  13.142 -0.5358 -0.6070  0.2262
  855MPD2    C312555   3.711   3.036  13.006  0.2104  0.6824  0.2984
  855MPD2    C412556   3.779   3.149  12.966  0.2032 -0.3169  0.5587
  855MPD2    C512557   3.805   3.253  13.052 -0.6739  0.4845 -0.3427
  855MPD2     H12558   3.643   2.934  13.182 -1.1820 -0.7556 -0.8177
  855MPD2    H112559   3.816   3.166  12.866 -1.0939  0.8986  0.2862
  855MPD2    H212560   3.785   3.332  13.246 -3.2964  1.6145 -0.8450
  855MPD2    H312561   3.856   3.342  13.017  2.9535 -1.7479 -0.8126
  855MPD2     N12562   3.686   2.940  12.906 -0.5660 -0.7526  0.1150
  855MPD2    H512563   3.705   2.965  12.809 -1.5142  0.3365  0.2148
  855MPD2    N112564   3.661   3.117  13.360  0.0116 -0.3240 -0.0278
  855MPD2    H712565   3.617   3.026  13.374  2.4332 -1.4828  0.0568
  856MPD2     C12566   0.935   4.164  13.907  0.4268 -0.1540  0.1535
  856MPD2    C112567   1.013   4.272  13.929  0.6598 -0.0873  1.1371
  856MPD2    C212568   0.955   4.400  13.914 -0.3187  0.2567 -0.1780
  856MPD2    C312569   0.824   4.414  13.883 -0.1511 -0.4445 -0.0738
  856MPD2    C412570   0.748   4.305  13.860  0.0683 -0.0712  0.2025
  856MPD2    C512571   0.804   4.180  13.868 -0.3204 -0.5905  0.7075
  856MPD2     H12572   1.013   4.489  13.937 -0.8308  0.8149 -1.0518
  856MPD2    H112573   0.643   4.302  13.833  0.2015 -1.8126 -0.1618
  856MPD2    H212574   0.982   4.067  13.922 -1.8067 -1.0044  1.8106
  856MPD2    H312575   0.747   4.090  13.849 -1.7072  0.1386  1.3620
  856MPD2     N12576   0.760   4.539  13.872 -0.4848 -0.7374 -0.4438
  856MPD2    H512577   0.671   4.529  13.825 -1.3097 -2.8381  1.5365
  856MPD2    N112578   1.143   4.255  13.993 -0.0401 -0.3999 -0.3726
  856MPD2    H712579   1.167   4.159  14.014 -2.8354 -0.9897  0.0527
  857MPD2     C12580   2.371   1.543  12.367 -0.3461 -0.4536 -0.6872
  857MPD2    C112581   2.440   1.526  12.486 -0.0193 -0.2687 -0.2945
  857MPD2    C212582   2.433   1.635  12.579  0.8174  0.9973 -0.2029
  857MPD2    C312583   2.345   1.744  12.561 -0.2065  0.1805  0.2058
  857MPD2    C412584   2.275   1.748  12.441 -0.3664  0.7911 -0.1552
  857MPD2    C512585   2.281   1.644  12.354 -0.0039 -0.4418 -0.1160
  857MPD2     H12586   2.490   1.623  12.670 -0.8296  2.3985  1.0103
  857MPD2    H112587   2.202   1.827  12.426 -0.6774  0.1021 -2.2947
  857MPD2    H212588   2.378   1.463  12.295 -0.4640 -0.5501 -0.5913
  857MPD2    H312589   2.213   1.656  12.270  3.7677  1.8538 -2.8649
  857MPD2     N12590   2.348   1.851  12.654  0.1545  0.3213 -0.0380
  857MPD2    H512591   2.423   1.849  12.722  0.9460  0.9823 -0.8820
  857MPD2    N112592   2.533   1.421  12.502 -0.8756 -0.2202 -0.6648
  857MPD2    H712593   2.539   1.353  12.426 -0.0270 -0.9403  0.0537
  858MPD2     C12594   3.042   0.927  16.537 -0.3697 -0.0088  0.3442
  858MPD2    C112595   3.180   0.915  16.547 -0.4123 -0.0028  1.0053
  858MPD2    C212596   3.249   0.973  16.654 -1.1122 -0.5954  0.0338
  858MPD2    C312597   3.179   1.047  16.751  0.0655 -0.3572  0.0835
  858MPD2    C412598   3.041   1.056  16.735 -0.6240  0.1019  0.2035
  858MPD2    C512599   2.973   0.993  16.639 -0.3765 -0.2697 -0.8514
  858MPD2     H12600   3.357   0.967  16.661 -0.8667  1.0949 -1.9804
  858MPD2    H112601   2.981   1.113  16.804 -0.8449 -1.1069  1.0093
  858MPD2    H212602   2.986   0.865  16.468  0.5789 -0.4616 -0.0083
  858MPD2    H312603   2.864   0.996  16.631 -0.5741 -0.1079  1.9702
  858MPD2     N12604   3.231   1.100  16.873  0.5953 -0.4618  0.2520
  858MPD2    H512605   3.178   1.164  16.930 -2.3533 -2.0258 -0.7575
  858MPD2    N112606   3.237   0.832  16.447 -0.2812 -0.2685 -0.1173
  858MPD2    H712607   3.182   0.783  16.378 -1.6086 -0.0444  0.7784
  859MPD2     C12608   2.423   2.651  15.913 -0.5290  0.6060 -0.0977
  859MPD2    C112609   2.343   2.622  15.808 -0.2649 -0.2909 -0.8773
  859MPD2    C212610   2.262   2.508  15.806  0.2164 -0.4255  0.3898
  859MPD2    C312611   2.268   2.429  15.921  1.5001  0.0100 -0.0113
  859MPD2    C412612   2.344   2.463  16.029  0.4933 -0.4423 -0.1504
  859MPD2    C512613   2.417   2.575  16.028 -0.4699  0.1233 -0.2354
  859MPD2     H12614   2.195   2.488  15.723  0.9227 -0.8317 -0.0857
  859MPD2    H112615   2.352   2.401  16.118  0.2218 -1.6497 -0.9760
  859MPD2    H212616   2.490   2.736  15.913  1.4410 -0.9838  0.3340
  859MPD2    H312617   2.478   2.606  16.112  1.0578 -0.4541 -1.1201
  859MPD2     N12618   2.195   2.314  15.933 -0.4659  0.4136  0.0167
  859MPD2    H512619   2.224   2.256  16.012  1.9436  1.1708 -0.3214
  859MPD2    N112620   2.358   2.704  15.692 -0.6816 -0.1799  0.0120
  859MPD2    H712621   2.388   2.799  15.711  0.6528 -1.1014  2.5345
  860MPD2     C12622   4.494   3.137  11.237 -0.0454 -0.2294  0.0429
  860MPD2    C112623   4.485   3.218  11.347  0.0951  0.0331  0.4901
  860MPD2    C212624   4.370   3.240  11.412 -0.2017 -0.1360 -0.1871
  860MPD2    C312625   4.260   3.162  11.385 -0.5911 -0.7573 -0.4956
  860MPD2    C412626   4.262   3.077  11.278 -0.0087  0.0171  0.7437
  860MPD2    C512627   4.380   3.069  11.206  0.5058 -1.1141  0.2171
  860MPD2     H12628   4.372   3.305  11.498 -1.2444  1.7026 -1.5425
  860MPD2    H112629   4.179   3.013  11.251 -0.7505  0.3226  2.3061
  860MPD2    H212630   4.585   3.113  11.183 -0.1931  1.5372 -1.0121
  860MPD2    H312631   4.393   2.999  11.124  1.0139 -0.2591 -0.4222
  860MPD2     N12632   4.146   3.164  11.476 -0.2676  0.6786  0.6410
  860MPD2    H512633   4.072   3.098  11.453  0.9307  0.1053 -1.6112
  860MPD2    N112634   4.595   3.276  11.410 -0.6410 -0.1015  0.3736
  860MPD2    H712635   4.579   3.354  11.473 -0.5078  0.3240 -0.1189
  861MPD2     C12636   3.266   1.981  11.147 -0.3762  0.3432  0.3325
  861MPD2    C112637   3.137   1.998  11.188  0.6504  0.1337 -0.2487
  861MPD2    C212638   3.041   2.044  11.095 -0.2650 -0.7015 -0.1938
  861MPD2    C312639   3.072   2.090  10.968 -0.0839 -0.7468  0.2710
  861MPD2    C412640   3.202   2.071  10.933  0.2749  0.0898  0.3486
  861MPD2    C512641   3.297   2.026  11.019  0.2336  0.4775  0.1961
  861MPD2     H12642   2.938   2.064  11.120  0.3684  0.5287  1.4311
  861MPD2    H112643   3.242   2.103  10.838 -0.2876  1.2117  0.4832
  861MPD2    H212644   3.351   1.942  11.202 -0.1299  2.3369  1.3529
  861MPD2    H312645   3.400   2.009  10.990 -0.1998 -2.9693  0.5679
  861MPD2     N12646   2.982   2.150  10.879  0.7048 -0.7355 -0.1245
  861MPD2    H512647   3.017   2.188  10.791 -1.9112  1.3173 -0.2891
  861MPD2    N112648   3.101   1.976  11.324 -0.0104 -0.0338  0.5076
  861MPD2    H712649   3.013   2.015  11.355 -0.6192  0.2049 -1.5658
  862MPD2     C12650   2.694   2.168  10.235 -0.0443  0.9000  0.3958
  862MPD2    C112651   2.769   2.207  10.346 -0.7083 -0.2712  0.5829
  862MPD2    C212652   2.811   2.105  10.427 -0.2713  0.7738  0.5049
  862MPD2    C312653   2.769   1.971  10.414  0.0984 -0.1645 -0.0356
  862MPD2    C412654   2.678   1.941  10.318  0.9253 -0.6825 -0.6917
  862MPD2    C512655   2.641   2.040  10.226  0.1496 -0.4343  0.2095
  862MPD2     H12656   2.890   2.116  10.500  0.9919 -2.9347 -0.3011
  862MPD2    H112657   2.632   1.843  10.313  1.7229 -1.0801 -0.0896
  862MPD2    H212658   2.664   2.238  10.158 -1.7973  0.6121  0.8186
  862MPD2    H312659   2.563   2.026  10.151  0.6465 -1.3950 -0.1179
  862MPD2     N12660   2.812   1.866  10.504  0.5513 -0.6811 -0.4375
  862MPD2    H512661   2.779   1.770  10.496  0.7663 -0.8832  1.0174
  862MPD2    N112662   2.812   2.344  10.353  0.1050  0.1785 -0.3410
  862MPD2    H712663   2.787   2.396  10.270  0.7920 -1.3522 -1.5081
  863MPD2     C12664   1.721   4.426  16.882 -0.4233 -0.0575  0.4485
  863MPD2    C112665   1.760   4.553  16.855  0.5046 -0.4988 -0.5752
  863MPD2    C212666   1.834   4.621  16.947 -0.3509 -0.1507  0.0627
  863MPD2    C312667   1.901   4.544  17.044 -0.5242 -0.8026 -0.1664
  863MPD2    C412668   1.886   4.408  17.055 -0.4171  0.7137 -0.3234
  863MPD2    C512669   1.782   4.356  16.985  0.2931 -0.0008 -0.3488
  863MPD2     H12670   1.867   0.001  16.922 -0.9862  0.6607  2.4852
  863MPD2    H112671   1.949   4.343  17.114  0.3943  1.8495  0.0830
  863MPD2    H212672   1.643   4.376  16.827 -0.7676  0.7775  0.1847
  863MPD2    H312673   1.759   4.250  16.992  1.3504 -0.1108  1.3390
  863MPD2     N12674   2.010   4.594  17.119  0.2403 -0.5014 -0.7969
  863MPD2    H512675   2.059   4.524  17.175  0.1279  0.6553  0.7413
  863MPD2    N112676   1.722   4.612  16.733 -0.3245  0.2169  0.4697
  863MPD2    H712677   1.685   4.559  16.654  0.6684  0.7096 -0.3360
  864MPD2     C12678   2.297   1.855  17.292  0.3395 -0.1458 -0.8172
  864MPD2    C112679   2.344   1.757  17.208 -0.4718  0.3200 -0.2218
  864MPD2    C212680   2.451   1.795  17.131  0.3358  0.2202 -0.2179
  864MPD2    C312681   2.502   1.920  17.116  0.5035 -0.2183 -0.1708
  864MPD2    C412682   2.430   2.022  17.186  0.2613 -0.7059  0.2918
  864MPD2    C512683   2.337   1.983  17.275 -0.7899  0.3114  0.4336
  864MPD2     H12684   2.500   1.718  17.073 -0.2827 -0.7449  0.5466
  864MPD2    H112685   2.475   2.121  17.187 -1.9653  0.2820  1.1491
  864MPD2    H212686   2.210   1.837  17.353  0.0854 -1.5377 -1.5799
  864MPD2    H312687   2.275   2.051  17.332  0.9213  1.1651  1.2678
  864MPD2     N12688   2.606   1.942  17.024 -0.3342  0.5141  0.0081
  864MPD2    H512689   2.659   1.861  16.992 -0.2424  0.9777 -1.0069
  864MPD2    N112690   2.290   1.623  17.209 -0.4214  0.7753 -0.2371
  864MPD2    H712691   2.211   1.611  17.272  0.0626 -0.7188  0.0894
  865MPD2     C12692   2.767   1.867  16.024 -0.0094 -0.4600  0.5696
  865MPD2    C112693   2.698   1.806  16.125  1.1703  0.6110  0.3084
  865MPD2    C212694   2.717   1.856  16.254 -0.5068 -0.2882  0.3380
  865MPD2    C312695   2.800   1.962  16.282  0.3824 -0.3816 -0.3259
  865MPD2    C412696   2.857   2.026  16.180  0.3374 -0.0821  0.0733
  865MPD2    C512697   2.840   1.979  16.049 -0.3154  0.1030 -0.5688
  865MPD2     H12698   2.674   1.808  16.342 -1.7890  1.1870  0.5231
  865MPD2    H112699   2.930   2.104  16.200  0.6833 -0.3521 -0.1437
  865MPD2    H212700   2.760   1.831  15.922  0.4913  1.0602 -0.0042
  865MPD2    H312701   2.903   2.026  15.974  0.6021  0.7222  0.5926
  865MPD2     N12702   2.828   2.009  16.410  0.2564  0.2723  0.5579
  865MPD2    H512703   2.898   2.081  16.422 -0.6151  1.1948  0.0677
  865MPD2    N112704   2.627   1.695  16.093 -0.3815  0.4211  0.4231
  865MPD2    H712705   2.637   1.668  15.995  0.7831 -0.0256  0.6655
  866MPD2     C12706   3.613   2.020  11.562  0.3978 -0.1857 -0.2890
  866MPD2    C112707   3.633   2.059  11.437 -0.3192  0.6682 -0.2630
  866MPD2    C212708   3.539   2.143  11.384  0.0928 -0.4537 -0.1922
  866MPD2    C312709   3.428   2.194  11.457  0.5000  0.4763  0.1489
  866MPD2    C412710   3.414   2.148  11.586  0.0701 -0.3949 -0.0248
  866MPD2    C512711   3.510   2.068  11.631  0.1934 -0.1246 -0.1576
  866MPD2     H12712   3.554   2.182  11.284  1.6877 -0.8604 -0.1156
  866MPD2    H112713   3.338   2.191  11.651  0.5749 -1.6839  1.4120
  866MPD2    H212714   3.683   1.966  11.626 -2.2167 -1.6050  1.3414
  866MPD2    H312715   3.509   2.049  11.738  1.3262 -1.7706 -0.4310
  866MPD2     N12716   3.336   2.286  11.407 -0.5099  0.8423  0.0175
  866MPD2    H512717   3.262   2.316  11.470  0.0500 -0.0322  1.0968
  866MPD2    N112718   3.747   2.008  11.366  0.9295 -0.4334  0.1544
  866MPD2    H712719   3.803   1.941  11.417 -2.0840 -2.4965  0.7805
  867MPD2     C12720   0.970   1.185  16.497 -0.6093 -0.1226 -0.5379
  867MPD2    C112721   1.072   1.145  16.579  0.0397 -0.8510  0.1719
  867MPD2    C212722   1.181   1.235  16.596 -0.6503  0.1535  0.9434
  867MPD2    C312723   1.170   1.366  16.552 -0.6320  0.5217  0.2464
  867MPD2    C412724   1.069   1.393  16.469  0.1165  0.1784  0.6976
  867MPD2    C512725   0.977   1.307  16.435  0.2612  0.2066 -0.4529
  867MPD2     H12726   1.259   1.192  16.658 -1.0074 -1.6509  0.1527
  867MPD2    H112727   1.073   1.492  16.424 -1.1086  0.3288  0.9342
  867MPD2    H212728   0.882   1.127  16.470 -1.0068  0.4281 -0.4239
  867MPD2    H312729   0.898   1.341  16.369 -1.5865  0.4206  1.8685
  867MPD2     N12730   1.270   1.462  16.557 -0.6990 -0.9344  0.1892
  867MPD2    H512731   1.256   1.544  16.498 -3.2433 -1.2489  0.3404
  867MPD2    N112732   1.075   1.011  16.625  0.0777 -0.1877 -0.4189
  867MPD2    H712733   1.000   0.947  16.599 -0.7479  1.1119 -1.2231
  868MPD2     C12734   3.032   0.070  13.137  0.6555 -0.1735  0.1687
  868MPD2    C112735   3.075   0.052  13.267  0.4064 -0.5842 -0.0864
  868MPD2    C212736   3.002   0.112  13.366  0.0756  0.1192  0.1728
  868MPD2    C312737   2.889   0.189  13.342  0.9245 -0.4981  0.6644
  868MPD2    C412738   2.854   0.207  13.214 -0.1773  0.4949  0.5024
  868MPD2    C512739   2.924   0.149  13.110  0.6177 -0.1740 -0.0613
  868MPD2     H12740   3.024   0.100  13.472 -0.1091  2.1151  0.4283
  868MPD2    H112741   2.762   0.258  13.189 -0.2071 -0.1089 -0.6070
  868MPD2    H212742   3.083   0.028  13.051 -0.6244 -0.0218 -0.6575
  868MPD2    H312743   2.888   0.144  13.008  0.1110 -0.0860  0.1112
  868MPD2     N12744   2.816   0.242  13.455 -0.2653 -0.6611  0.5112
  868MPD2    H512745   2.836   0.197  13.544 -0.9429 -1.9129  0.0310
  868MPD2    N112746   3.185   4.677  13.281 -0.1488 -0.1727  0.0219
  868MPD2    H712747   3.240   4.651  13.201  1.5833  0.8034  0.8980
  869MPD2     C12748   0.157   2.778   1.815 -0.3488 -0.1443 -0.3468
  869MPD2    C112749   0.042   2.732   1.868  0.2744  0.5795 -0.0626
  869MPD2    C212750   4.640   2.780   1.820  0.2765  0.8979  0.0940
  869MPD2    C312751   4.642   2.874   1.718  0.4684 -0.1263  0.8827
  869MPD2    C412752   0.043   2.917   1.668  0.5013 -0.6538 -0.0899
  869MPD2    C512753   0.157   2.871   1.719  0.6255 -0.1240  0.1476
  869MPD2     H12754   4.550   2.721   1.826  2.0606 -2.0242 -2.3747
  869MPD2    H112755   0.041   2.992   1.589 -0.9917  0.4412  0.9754
  869MPD2    H212756   0.252   2.734   1.842 -1.3010 -1.4650  0.8307
  869MPD2    H312757   0.251   2.906   1.678  0.7275  0.3633  0.8054
  869MPD2     N12758   4.528   2.924   1.643 -0.1157 -0.3716 -0.2163
  869MPD2    H512759   4.542   3.000   1.577 -0.1658 -1.4153 -1.4216
  869MPD2    N112760   0.050   2.627   1.958 -0.5272  0.3060  1.2428
  869MPD2    H712761   0.143   2.591   1.977 -0.3174 -0.0479 -0.4136
  870MPD2     C12762   3.632   2.085   1.700 -0.3574  0.5562  0.2269
  870MPD2    C112763   3.768   2.083   1.664  0.6498  0.0153  0.5973
  870MPD2    C212764   3.810   2.139   1.548 -0.2539  0.3094 -0.9365
  870MPD2    C312765   3.716   2.197   1.470  0.0755  0.4934 -0.6276
  870MPD2    C412766   3.581   2.202   1.500  0.6781 -0.5721  0.2153
  870MPD2    C512767   3.543   2.144   1.622  0.2432  0.0016 -0.1578
  870MPD2     H12768   3.905   2.122   1.499  0.7002  1.0664  0.6723
  870MPD2    H112769   3.505   2.244   1.434  1.9818 -0.6202 -1.3214
  870MPD2    H212770   3.594   2.041   1.791  2.0575 -0.2698  0.8321
  870MPD2    H312771   3.440   2.156   1.652  0.5875  1.3468  0.5079
  870MPD2     N12772   3.759   2.235   1.339 -0.1226  0.1172 -0.0581
  870MPD2    H512773   3.856   2.215   1.315  0.4125  2.6078 -0.0702
  870MPD2    N112774   3.860   2.025   1.757  0.1211 -0.7024  0.2090
  870MPD2    H712775   3.822   1.976   1.837  0.3578  0.4871  1.0485
  871MPD2     C12776   0.222   1.393  16.114  0.9024  0.4098  0.1472
  871MPD2    C112777   0.182   1.371  16.248  0.8143  0.3011 -1.0928
  871MPD2    C212778   0.192   1.243  16.297  0.2340 -0.1839  0.3105
  871MPD2    C312779   0.270   1.149  16.231  0.2555  0.1897  0.3367
  871MPD2    C412780   0.315   1.173  16.105 -0.1267  0.4276  0.0261
  871MPD2    C512781   0.279   1.290  16.051  0.4591 -0.2635 -0.1597
  871MPD2     H12782   0.137   1.213  16.385 -0.0557 -0.1226  0.1487
  871MPD2    H112783   0.361   1.097  16.043  0.4840  0.3654  0.5594
  871MPD2    H212784   0.202   1.486  16.061  0.7735  0.6904  0.6908
  871MPD2    H312785   0.304   1.300  15.946 -2.1187 -0.5445 -0.7900
  871MPD2     N12786   0.287   1.023  16.294  0.1142 -0.0365  0.1753
  871MPD2    H512787   0.251   1.015  16.388 -1.1679 -3.0263 -0.5836
  871MPD2    N112788   0.123   1.475  16.326  0.9531 -0.7853  0.1140
  871MPD2    H712789   0.123   1.569  16.287 -2.2253 -0.7519  0.2232
  872MPD2     C12790   0.919   3.952  13.592  0.3162  0.0564 -0.1810
  872MPD2    C112791   1.023   3.915  13.683  0.9720  0.0285 -0.0683
  872MPD2    C212792   0.993   3.843  13.797 -0.4265  0.2952 -0.1851
  872MPD2    C312793   0.864   3.800  13.817  0.5262 -0.5957 -0.7093
  872MPD2    C412794   0.757   3.847  13.731  0.7959 -0.0624 -0.5251
  872MPD2    C512795   0.790   3.919  13.620 -1.1323  0.1794 -0.3309
  872MPD2     H12796   1.075   3.808  13.857  0.8861  0.4496 -1.8839
  872MPD2    H112797   0.652   3.839  13.754  1.2987 -0.7034  1.5679
  872MPD2    H212798   0.928   4.014  13.503 -2.1293 -0.9447 -1.1299
  872MPD2    H312799   0.705   3.956  13.564 -1.4266 -0.3325 -0.2223
  872MPD2     N12800   0.821   3.714  13.916 -0.2828 -0.2700  0.2141
  872MPD2    H512801   0.725   3.682  13.902 -0.4166  1.4531 -2.9742
  872MPD2    N112802   1.161   3.946  13.657 -0.7043  0.1295 -0.1382
  872MPD2    H712803   1.234   3.921  13.723 -0.2216  1.7445 -0.0802
  873MPD2     C12804   2.852   3.677   0.896 -0.4369  0.2541 -0.3769
  873MPD2    C112805   2.719   3.645   0.900 -0.3431  0.1665  0.3651
  873MPD2    C212806   2.667   3.550   0.816  0.1677  0.5749  0.4793
  873MPD2    C312807   2.743   3.480   0.722  0.6792  0.6242 -0.1452
  873MPD2    C412808   2.879   3.514   0.710  0.1414  0.4082 -0.2759
  873MPD2    C512809   2.935   3.601   0.810  0.0413 -0.1084  0.0008
  873MPD2     H12810   2.559   3.537   0.820  0.3907 -1.1925  0.4835
  873MPD2    H112811   2.953   3.459   0.653 -0.7404 -1.0122 -0.0415
  873MPD2    H212812   2.897   3.759   0.952  0.2183 -0.5378  0.2640
  873MPD2    H312813   3.038   3.631   0.820  0.5367 -1.3299 -1.5224
  873MPD2     N12814   2.688   3.379   0.640  0.4718 -0.7954 -0.7598
  873MPD2    H512815   2.737   3.355   0.555 -0.9448 -2.3806 -1.1202
  873MPD2    N112816   2.637   3.709   0.994 -0.1105  0.2200  1.1250
  873MPD2    H712817   2.679   3.752   1.075 -0.8641  0.9484  1.1355
  874MPD2     C12818   2.287   4.251  16.369  0.6048  0.3784 -0.2669
  874MPD2    C112819   2.357   4.289  16.260  0.3905  0.7273 -0.2297
  874MPD2    C212820   2.426   4.408  16.252 -1.1007 -0.8255  0.2759
  874MPD2    C312821   2.445   4.489  16.358  0.3002 -0.3919 -0.1008
  874MPD2    C412822   2.379   4.450  16.476  0.6575 -0.3916  0.3603
  874MPD2    C512823   2.301   4.336  16.476 -0.0782  0.4373  0.1836
  874MPD2     H12824   2.460   4.441  16.155 -2.1268 -0.5465  0.0126
  874MPD2    H112825   2.392   4.502  16.571 -1.1226  0.4413  0.1550
  874MPD2    H212826   2.237   4.155  16.377 -0.6321  1.1396  1.1831
  874MPD2    H312827   2.269   4.303  16.574 -1.8561  0.1193 -0.5078
  874MPD2     N12828   2.531   4.605  16.355  0.3976  0.0431 -0.3950
  874MPD2    H512829   2.591   4.614  16.273  0.9881 -0.0121  0.0332
  874MPD2    N112830   2.361   4.200  16.153 -0.1355  0.9253 -0.1962
  874MPD2    H712831   2.311   4.112  16.158 -0.8999  1.3524 -0.3197
  875MPD2     C12832   3.315   2.449  14.448 -0.3301  0.3935 -0.4050
  875MPD2    C112833   3.269   2.357  14.545 -0.3804  0.6753  0.8585
  875MPD2    C212834   3.321   2.357  14.677  0.4479  0.4385  0.2054
  875MPD2    C312835   3.404   2.463  14.712  0.4701 -0.6368 -0.1727
  875MPD2    C412836   3.424   2.570  14.625  0.8965  0.4355 -0.2706
  875MPD2    C512837   3.394   2.554  14.491  0.9275  0.2544  0.0974
  875MPD2     H12838   3.295   2.278  14.747  1.7606 -0.2214 -0.0468
  875MPD2    H112839   3.497   2.647  14.649  0.4825  0.8498 -0.3307
  875MPD2    H212840   3.300   2.447  14.341  0.9659 -0.9607 -0.5611
  875MPD2    H312841   3.421   2.631  14.420 -1.8977  0.7935 -0.4265
  875MPD2     N12842   3.464   2.474  14.842 -0.0505 -0.2843  0.1393
  875MPD2    H512843   3.529   2.551  14.852  0.8898 -1.1289  0.5384
  875MPD2    N112844   3.188   2.250  14.506 -0.3146  0.1812 -0.0403
  875MPD2    H712845   3.134   2.207  14.580 -1.5781  1.4981 -0.1989
  876MPD2     C12846   2.319   3.328  16.177  0.3037  0.1531  0.2805
  876MPD2    C112847   2.392   3.292  16.071 -0.5635  0.8192  0.3547
  876MPD2    C212848   2.483   3.184  16.080  0.6478 -0.3979 -0.1194
  876MPD2    C312849   2.497   3.111  16.197  0.2956  0.5227 -1.0232
  876MPD2    C412850   2.411   3.146  16.300  0.3662 -0.7406  1.2027
  876MPD2    C512851   2.329   3.256  16.292  0.1672 -0.7327  0.3321
  876MPD2     H12852   2.543   3.146  15.998 -2.1822 -0.0023 -2.3598
  876MPD2    H112853   2.399   3.098  16.396  0.1132 -0.8788  1.1017
  876MPD2    H212854   2.249   3.410  16.180  2.2118  1.6888  2.6624
  876MPD2    H312855   2.269   3.288  16.377 -0.4232 -3.4115  0.9060
  876MPD2     N12856   2.594   3.008  16.201 -0.1370 -0.0962 -0.0668
  876MPD2    H512857   2.648   2.987  16.118  1.0707  0.5249  0.5775
  876MPD2    N112858   2.385   3.364  15.947  0.6337  0.3382 -0.1227
  876MPD2    H712859   2.340   3.455  15.946  0.5567  0.3441  3.1417
  877MPD2     C12860   2.103   3.739  15.367  0.3972  0.1626  0.2452
  877MPD2    C112861   2.202   3.634  15.350  0.3715 -0.2064 -0.3867
  877MPD2    C212862   2.192   3.559  15.236 -0.0687 -0.1084  0.1976
  877MPD2    C312863   2.079   3.560  15.155 -0.3534  0.5581  0.2872
  877MPD2    C412864   1.988   3.659  15.179 -0.2764  0.1231 -1.0540
  877MPD2    C512865   1.998   3.747  15.286  0.2579 -0.0048  0.0775
  877MPD2     H12866   2.276   3.494  15.211 -0.1423  0.7282 -2.2118
  877MPD2    H112867   1.899   3.664  15.117 -0.3828 -2.4992 -1.1083
  877MPD2    H212868   2.109   3.797  15.458  0.1149 -2.4988  1.9841
  877MPD2    H312869   1.916   3.818  15.293 -1.0179 -1.7589  2.6492
  877MPD2     N12870   2.049   3.464  15.050  0.2083  0.1166  0.1199
  877MPD2    H512871   1.986   3.503  14.980 -1.9145 -0.0743  1.9473
  877MPD2    N112872   2.305   3.613  15.445 -0.0110  0.2978  0.3561
  877MPD2    H712873   2.362   3.530  15.429  0.2722  0.8585 -1.5951
  878MPD2     C12874   2.216   2.839  12.865  0.5732 -0.0918  0.1491
  878MPD2    C112875   2.201   2.956  12.934  0.0520  0.3639  0.0519
  878MPD2    C212876   2.225   2.966  13.069 -0.4348 -0.1732 -0.1318
  878MPD2    C312877   2.279   2.860  13.133  0.5560  0.0380  0.4266
  878MPD2    C412878   2.285   2.732  13.069  0.0486  0.8860 -0.4086
  878MPD2    C512879   2.253   2.726  12.938 -0.3289  0.4763  0.2759
  878MPD2     H12880   2.202   3.057  13.123 -0.2521 -0.4554  0.4188
  878MPD2    H112881   2.321   2.639  13.111 -0.6806  0.2984 -1.0957
  878MPD2    H212882   2.194   2.834  12.759 -0.4074  1.2232  0.2765
  878MPD2    H312883   2.264   2.633  12.883 -2.3235 -0.2567  1.1177
  878MPD2     N12884   2.320   2.869  13.271 -0.3582  0.1823  0.0194
  878MPD2    H512885   2.345   2.784  13.320  0.6118  1.2003  1.3021
  878MPD2    N112886   2.161   3.063  12.856 -0.1676  1.1184 -0.4809
  878MPD2    H712887   2.135   3.046  12.759  0.6433  0.3698 -0.5664
  879MPD2     C12888   2.455   0.429  16.886 -0.7227  0.4565 -0.0879
  879MPD2    C112889   2.441   0.305  16.953  0.1785  0.3745 -0.8836
  879MPD2    C212890   2.362   0.210  16.897 -0.6825 -0.0163 -0.3302
  879MPD2    C312891   2.300   0.229  16.780 -0.3611  0.0104 -0.5093
  879MPD2    C412892   2.308   0.346  16.723  0.3065 -0.2505 -0.7234
  879MPD2    C512893   2.390   0.445  16.771 -0.2041 -0.3065  0.0175
  879MPD2     H12894   2.333   0.123  16.955  0.6215  1.0776  1.9612
  879MPD2    H112895   2.254   0.363  16.630  1.2805 -1.2725 -1.4667
  879MPD2    H212896   2.498   0.520  16.927  2.1972  1.1287 -4.5580
  879MPD2    H312897   2.389   0.541  16.720  0.6448 -0.4488 -0.2761
  879MPD2     N12898   2.213   0.136  16.713 -0.2944  0.7026  0.3968
  879MPD2    H512899   2.161   0.168  16.632  0.8596 -0.3601 -0.7555
  879MPD2    N112900   2.512   0.290  17.076  0.2431 -0.2234 -0.1337
  879MPD2    H712901   2.557   0.375  17.108 -1.9663  0.6817  0.5145
  880MPD2     C12902   3.871   1.747   0.706 -0.1429 -0.6570  0.0348
  880MPD2    C112903   3.956   1.637   0.688 -0.1529  0.6054  0.0354
  880MPD2    C212904   3.948   1.526   0.773 -0.5889 -0.0368 -0.2197
  880MPD2    C312905   3.854   1.522   0.875 -0.0196 -0.6354  0.2509
  880MPD2    C412906   3.759   1.623   0.889 -0.4424  0.7086  0.0060
  880MPD2    C512907   3.773   1.730   0.801  0.2000  0.1335  0.3662
  880MPD2     H12908   4.010   1.439   0.755 -1.1084 -0.6035  0.7289
  880MPD2    H112909   3.671   1.622   0.953 -1.0908 -0.9369 -0.9161
  880MPD2    H212910   3.879   1.840   0.651  0.8234 -0.5395  0.3743
  880MPD2    H312911   3.699   1.809   0.803  0.2844  0.2519 -2.6186
  880MPD2     N12912   3.859   1.405   0.958  0.4955 -0.3155  0.3601
  880MPD2    H512913   3.915   1.324   0.933  0.0978 -1.2815  2.5746
  880MPD2    N112914   4.053   1.648   0.582  0.6162  0.1046  0.0976
  880MPD2    H712915   4.046   1.742   0.543 -0.0038 -1.0951 -2.7032
  881MPD2     C12916   4.259   2.170  17.501  0.2272  0.1503 -0.2735
  881MPD2    C112917   4.255   2.033  17.493  0.0285  0.6001 -0.3232
  881MPD2    C212918   4.276   1.958  17.609  0.5538 -0.0718  0.0121
  881MPD2    C312919   4.274   2.030   0.045  0.0959  0.4745 -0.6345
  881MPD2    C412920   4.259   2.166   0.058 -0.2924  0.6311  0.1704
  881MPD2    C512921   4.250   2.231  17.620  0.5046 -0.3957 -0.8622
  881MPD2     H12922   4.292   1.851  17.606  0.7189  0.0111 -2.0560
  881MPD2    H112923   4.246   2.228   0.146  0.1083  1.6060 -0.4563
  881MPD2    H212924   4.241   2.238  17.419  0.5030  0.7163  0.1319
  881MPD2    H312925   4.233   2.339  17.622  0.1517 -0.4644 -0.2765
  881MPD2     N12926   4.273   1.968   0.168 -0.7020  0.1071 -0.6344
  881MPD2    H512927   4.284   2.032   0.246 -3.2663 -3.2279  2.4190
  881MPD2    N112928   4.289   1.975  17.364  0.4719  0.3983  0.2389
  881MPD2    H712929   4.306   2.039  17.286  0.9080  1.7812  1.4677
  882MPD2     C12930   2.146   3.332  14.277  0.7710 -0.0076  0.1163
  882MPD2    C112931   2.024   3.322  14.345 -0.6144 -0.2604  0.3059
  882MPD2    C212932   1.906   3.327  14.272 -0.3295 -0.2857 -0.9129
  882MPD2    C312933   1.912   3.349  14.132  0.2262  0.1757  0.6429
  882MPD2    C412934   2.032   3.373  14.075 -0.2703 -0.1525 -0.3431
  882MPD2    C512935   2.154   3.361  14.147 -0.0070 -0.1916  0.5182
  882MPD2     H12936   1.809   3.328  14.320  0.8348  1.7668  1.3637
  882MPD2    H112937   2.032   3.410  13.973 -0.0592 -0.1875 -0.3541
  882MPD2    H212938   2.239   3.330  14.333 -0.4262 -3.3967  2.0062
  882MPD2    H312939   2.251   3.379  14.104  0.0101 -1.9031 -0.1682
  882MPD2     N12940   1.797   3.392  14.061  0.5213 -0.6178  0.1935
  882MPD2    H512941   1.805   3.444  13.974  1.0892  1.7818  1.6873
  882MPD2    N112942   2.028   3.309  14.486 -0.1066  0.4330  0.6936
  882MPD2    H712943   2.120   3.301  14.528  0.6107  1.1746 -0.7713
  883MPD2     C12944   4.380   4.158  16.404  0.0445  1.2269 -0.5211
  883MPD2    C112945   4.464   4.081  16.324 -0.3753  0.4401  0.0919
  883MPD2    C212946   4.552   3.991  16.378 -0.4329  0.0664 -0.0030
  883MPD2    C312947   4.556   3.977  16.516 -0.2071 -0.5895  0.5142
  883MPD2    C412948   4.466   4.040  16.598 -0.2504 -0.3299 -0.0031
  883MPD2    C512949   4.383   4.128  16.542  0.8306 -0.5265  0.4159
  883MPD2     H12950   4.617   3.929  16.317 -1.3928 -0.4066 -0.5487
  883MPD2    H112951   4.467   4.048  16.706 -0.2360 -0.1922 -0.0129
  883MPD2    H212952   4.304   4.221  16.358  0.3736  1.3506 -0.8905
  883MPD2    H312953   4.327   4.194  16.607  0.5438  0.2280 -0.5981
  883MPD2     N12954   4.661   3.903  16.567  0.0251 -0.3390  0.1948
  883MPD2    H512955   0.015   3.887  16.500  0.6713  2.1637  0.3388
  883MPD2    N112956   4.456   4.072  16.184  0.2419  0.5170 -0.3392
  883MPD2    H712957   4.510   3.996  16.144 -2.5500 -1.3992 -0.4044
  884MPD2     C12958   1.479   4.152  15.220  0.0005 -0.0274  0.3628
  884MPD2    C112959   1.444   4.227  15.109  0.0388 -0.9114  0.3981
  884MPD2    C212960   1.345   4.320  15.129  0.5649 -0.3811  0.0440
  884MPD2    C312961   1.265   4.332  15.250 -0.4740  0.0308  0.2267
  884MPD2    C412962   1.305   4.248  15.354  0.3540  0.5035  0.4189
  884MPD2    C512963   1.409   4.159  15.335  0.0102 -0.6369 -0.2854
  884MPD2     H12964   1.314   4.377  15.042  1.2571  0.4931  0.3678
  884MPD2    H112965   1.256   4.248  15.450  1.8548  0.3214  1.1840
  884MPD2    H212966   1.567   4.089  15.221  0.1652  0.2254  1.7211
  884MPD2    H312967   1.444   4.098  15.418  1.4319 -0.6241 -0.8803
  884MPD2     N12968   1.164   4.428  15.254 -0.1245  0.4718  0.3622
  884MPD2    H512969   1.150   4.499  15.182 -2.0531  0.1101  0.3857
  884MPD2    N112970   1.498   4.211  14.981  0.4024 -0.2922 -0.0061
  884MPD2    H712971   1.454   4.275  14.916 -0.9230 -0.3854  0.7861
  885MPD2     C12972   4.555   0.208   0.416  0.1284  0.3645  0.0406
  885MPD2    C112973   4.550   0.083   0.362 -0.8620 -0.4062  0.7089
  885MPD2    C212974   4.542   0.078   0.223  0.5206 -0.7580 -0.7464
  885MPD2    C312975   4.520   0.188   0.136  0.1207 -0.9314 -0.0796
  885MPD2    C412976   4.520   0.312   0.199 -0.6649 -0.2683 -0.5378
  885MPD2    C512977   4.539   0.321   0.335  0.0643 -0.3270  0.3612
  885MPD2     H12978   4.537   4.704   0.168  1.1516 -0.6749 -0.9541
  885MPD2    H112979   4.500   0.403   0.144 -2.2695 -0.1139  0.2969
  885MPD2    H212980   4.566   0.221   0.524  4.4192  0.1595 -0.3712
  885MPD2    H312981   4.538   0.419   0.381  1.0267  0.5546 -1.4676
  885MPD2     N12982   4.503   0.182  17.678 -0.2270 -0.1852 -0.4666
  885MPD2    H512983   4.514   0.092  17.632  0.0408 -0.8826  0.9451
  885MPD2    N112984   4.540   4.688   0.446  0.1726  0.5645  0.2927
  885MPD2    H712985   4.529   4.702   0.546 -1.3250 -2.0176  0.4857
  886MPD2     C12986   1.363   2.796  15.113  0.7825  0.7370  0.5174
  886MPD2    C112987   1.412   2.866  15.221  0.0816 -0.3758 -0.2675
  886MPD2    C212988   1.380   3.003  15.225 -0.1021 -0.1557  0.9400
  886MPD2    C312989   1.323   3.066  15.113  0.0350 -0.0860  0.0916
  886MPD2    C412990   1.290   2.995  15.000 -0.2402 -0.0962  0.7357
  886MPD2    C512991   1.287   2.860  15.013 -1.0940 -0.3611 -0.1928
  886MPD2     H12992   1.399   3.054  15.319 -1.0959  2.4663 -0.2800
  886MPD2    H112993   1.250   3.045  14.913 -0.2864  0.4818  1.0910
  886MPD2    H212994   1.358   2.688  15.113 -0.2610  0.8040  3.0456
  886MPD2    H312995   1.237   2.815  14.928 -0.5179 -1.7612  0.2166
  886MPD2     N12996   1.299   3.205  15.115  0.3152 -1.3105  0.1014
  886MPD2    H512997   1.271   3.246  15.027 -1.3117 -0.0696  1.1916
  886MPD2    N112998   1.483   2.803  15.322  0.0385  0.2670  0.0617
  886MPD2    H712999   1.526   2.866  15.389 -1.7058  0.1665  1.2970
  887MPD2     C13000   2.035   2.995  15.782 -0.6473 -0.2578 -0.3788
  887MPD2    C113001   1.926   3.017  15.696 -0.7328 -0.4616 -0.4225
  887MPD2    C213002   1.889   3.154  15.681 -0.4955 -0.3864  0.3487
  887MPD2    C313003   1.968   3.255  15.735 -0.2498 -0.6655 -0.1267
  887MPD2    C413004   2.086   3.231  15.809 -0.8867  0.7229  1.0978
  887MPD2    C513005   2.111   3.095  15.835 -0.0884 -0.3511  1.3915
  887MPD2     H13006   1.802   3.197  15.632  0.7730 -0.3001 -1.8175
  887MPD2    H113007   2.147   3.314  15.842  2.2855 -0.8462 -0.8027
  887MPD2    H213008   2.073   2.898  15.811  0.2634  0.6752  1.5134
  887MPD2    H313009   2.185   3.069  15.911  0.2632 -0.0263  1.1607
  887MPD2     N13010   1.925   3.382  15.696  0.3540 -0.1996 -0.5311
  887MPD2    H513011   1.835   3.386  15.651 -0.4676  2.2646  1.3458
  887MPD2    N113012   1.847   2.917  15.642  0.5375  0.9597  0.3026
  887MPD2    H713013   1.773   2.947  15.578  0.3251  1.1422  0.6330
  888MPD2     C13014   3.067   3.495  14.555  0.1874  0.0896  0.1386
  888MPD2    C113015   3.136   3.482  14.676 -0.4193 -0.0134 -0.2296
  888MPD2    C213016   3.210   3.589  14.722 -0.2309  0.0107  0.6710
  888MPD2    C313017   3.209   3.708  14.653 -0.5360  0.6865  0.3099
  888MPD2    C413018   3.132   3.718  14.540 -0.4265 -0.6809  0.1628
  888MPD2    C513019   3.053   3.615  14.497 -0.0638  0.6986 -1.0072
  888MPD2     H13020   3.264   3.574  14.815 -0.1264  1.7745  0.9021
  888MPD2    H113021   3.129   3.806  14.477  1.7983 -0.6678  0.0806
  888MPD2    H213022   3.005   3.414  14.518 -0.9537  1.1398 -0.2091
  888MPD2    H313023   2.989   3.637  14.412 -0.3083 -1.1758 -1.2923
  888MPD2     N13024   3.298   3.811  14.697  0.2727 -0.4769 -0.1023
  888MPD2    H513025   3.345   3.783  14.784  1.3464  2.1512  0.1510
  888MPD2    N113026   3.133   3.364  14.752 -0.0886  0.3598  0.0310
  888MPD2    H713027   3.218   3.352  14.805 -0.0644  2.7310  0.5413
  889MPD2     C13028   2.461   2.666  12.515  0.4398  0.0013 -0.4695
  889MPD2    C113029   2.512   2.631  12.643  0.1390 -0.1797 -0.2202
  889MPD2    C213030   2.543   2.737  12.729 -0.7089  0.0310 -0.2947
  889MPD2    C313031   2.536   2.869  12.684  0.2351  0.2857 -0.2855
  889MPD2    C413032   2.502   2.896  12.555 -0.2460 -0.2733  1.1864
  889MPD2    C513033   2.475   2.794  12.470  0.2755  0.0487 -0.1247
  889MPD2     H13034   2.569   2.715  12.832  0.7814  0.8243 -0.5002
  889MPD2    H113035   2.492   2.998  12.520  1.1147 -0.5409  0.0073
  889MPD2    H213036   2.430   2.595  12.440  2.3599 -0.9995 -0.3136
  889MPD2    H313037   2.442   2.811  12.369  0.1989 -0.2996 -0.1597
  889MPD2     N13038   2.547   2.959  12.794 -0.4950  0.0170  0.5138
  889MPD2    H513039   2.560   2.919  12.886 -0.4356  0.0489  0.5196
  889MPD2    N113040   2.480   2.514  12.705  0.3218 -0.7723 -0.1198
  889MPD2    H713041   2.509   2.506  12.802 -1.6248 -0.9450  0.4348
  890MPD2     C13042   2.332   4.637  14.584  0.3556  0.0838  0.1725
  890MPD2    C113043   2.451   4.686  14.632  0.4515  0.3655  0.5895
  890MPD2    C213044   2.507   4.643  14.748 -0.3360  0.4761 -0.0286
  890MPD2    C313045   2.437   4.545  14.820 -0.3095 -0.3502  0.1230
  890MPD2    C413046   2.326   4.483  14.771  0.3131  0.4848 -0.3002
  890MPD2    C513047   2.275   4.527  14.651 -0.4335  1.0232  0.2966
  890MPD2     H13048   2.599   4.687  14.784 -1.3610  0.8883  2.0900
  890MPD2    H113049   2.274   4.411  14.833  2.3664 -2.7594 -2.3267
  890MPD2    H213050   2.285   4.675  14.495 -0.1995 -0.7594  0.1025
  890MPD2    H313051   2.179   4.490  14.617  1.2370 -2.9512 -0.0547
  890MPD2     N13052   2.491   4.521  14.953 -0.4350  0.1059 -0.6389
  890MPD2    H513053   2.563   4.589  14.975  0.0097 -1.5650  2.9991
  890MPD2    N113054   2.506   0.070  14.546  0.0570  0.2961 -0.0171
  890MPD2    H713055   2.459   0.094  14.460 -1.0825 -0.2882  0.4450
  891MPD2     C13056   0.810   2.721  16.464  0.2663  0.0037  0.0950
  891MPD2    C113057   0.782   2.844  16.531  0.5493  0.5550  0.0623
  891MPD2    C213058   0.865   2.889  16.633 -0.1220  0.3784  0.2793
  891MPD2    C313059   0.971   2.804  16.671 -0.3524  0.5074  0.0238
  891MPD2    C413060   0.985   2.682  16.611 -0.1699 -0.7170  0.1964
  891MPD2    C513061   0.898   2.634  16.516 -0.5682  0.0957  0.0522
  891MPD2     H13062   0.862   2.989  16.676 -0.6907  0.7454 -0.6048
  891MPD2    H113063   1.057   2.609  16.646  0.6666 -0.9996 -2.1108
  891MPD2    H213064   0.753   2.682  16.380  1.8957 -0.7215 -0.6803
  891MPD2    H313065   0.894   2.531  16.483 -0.2792  0.3229 -0.6859
  891MPD2     N13066   1.055   2.841  16.784 -0.0629  0.4302 -0.5224
  891MPD2    H513067   1.030   2.931  16.824  0.5987  0.7879 -0.9164
  891MPD2    N113068   0.678   2.912  16.470 -0.6988 -0.1614  0.5205
  891MPD2    H713069   0.640   2.874  16.384 -0.6666  1.7718 -0.3677
  892MPD2     C13070   1.630   3.744  14.606  0.1239  0.0271  0.3645
  892MPD2    C113071   1.536   3.827  14.546  0.3427 -0.2970  0.2771
  892MPD2    C213072   1.536   3.831  14.410 -0.1971  0.0106  0.0252
  892MPD2    C313073   1.630   3.763  14.329 -0.5581  0.2514  0.0659
  892MPD2    C413074   1.701   3.669  14.395  0.2041  0.3116 -0.0872
  892MPD2    C513075   1.713   3.665  14.531 -0.3707 -0.2255  0.2713
  892MPD2     H13076   1.459   3.890  14.362 -2.2185 -2.2149  0.5408
  892MPD2    H113077   1.776   3.605  14.350 -2.5105 -1.8819 -1.4073
  892MPD2    H213078   1.635   3.735  14.714  0.0743 -4.2312  0.0251
  892MPD2    H313079   1.783   3.596  14.577  1.6380 -0.1101 -2.6154
  892MPD2     N13080   1.626   3.743  14.185  0.3484  0.7798 -0.7212
  892MPD2    H513081   1.688   3.676  14.141 -1.0214 -0.9622 -0.0266
  892MPD2    N113082   1.454   3.919  14.612 -0.6003  0.2197  0.4559
  892MPD2    H713083   1.405   3.986  14.553  1.6018 -0.8633 -2.6200
  893MPD2     C13084   3.160   2.276   1.797 -0.3279  0.0511 -0.3791
  893MPD2    C113085   3.248   2.271   1.902  0.2733 -0.4690  0.0721
  893MPD2    C213086   3.207   2.226   2.027 -0.2528  0.8956  0.5805
  893MPD2    C313087   3.074   2.193   2.045 -0.6773  0.7549 -0.2417
  893MPD2    C413088   2.979   2.214   1.945  0.0479  0.7741 -0.3902
  893MPD2    C513089   3.028   2.256   1.824  0.7907 -0.1850  0.3761
  893MPD2     H13090   3.280   2.213   2.106  1.0776  0.4799 -0.7247
  893MPD2    H113091   2.874   2.192   1.959 -0.0342  0.0673 -2.2148
  893MPD2    H213092   3.187   2.310   1.697 -0.7663 -1.3573 -0.9805
  893MPD2    H313093   2.961   2.257   1.739  1.5375  0.6358 -0.2119
  893MPD2     N13094   3.022   2.137   2.168  0.2984  0.1246 -0.0234
  893MPD2    H513095   2.923   2.114   2.165  0.4003 -0.3072 -0.0747
  893MPD2    N113096   3.384   2.299   1.873 -0.2030 -0.3755  0.0931
  893MPD2    H713097   3.390   2.351   1.786  1.7472 -4.2063 -2.0400
  894MPD2     C13098   1.146   4.437   1.145  0.3400 -0.8361 -0.1488
  894MPD2    C113099   1.165   4.573   1.163  0.5244 -0.1264 -1.0362
  894MPD2    C213100   1.246   4.637   1.073 -0.5188 -0.2018 -0.0253
  894MPD2    C313101   1.290   4.570   0.965  0.2693 -0.1288 -0.5467
  894MPD2    C413102   1.257   4.435   0.939 -0.3445  0.1349  0.6385
  894MPD2    C513103   1.187   4.366   1.031 -0.2732 -0.5343  0.1712
  894MPD2     H13104   1.268   0.021   1.090  0.5933 -0.1965 -1.5176
  894MPD2    H113105   1.293   4.379   0.853 -0.7849  1.7400 -0.5894
  894MPD2    H213106   1.089   4.375   1.215  0.1248 -1.0138 -0.4817
  894MPD2    H313107   1.160   4.262   1.018 -2.9192  0.2618 -0.6730
  894MPD2     N13108   1.352   4.650   0.869  0.0513  0.0984 -0.8998
  894MPD2    H513109   1.374   0.023   0.902  0.7854 -1.4642  2.9719
  894MPD2    N113110   1.114   4.640   1.278 -0.2338 -0.0120  0.5475
  894MPD2    H713111   1.136   0.019   1.281  1.1799 -0.3115  0.2967
  895MPD2     C13112   0.153   2.982  13.701  0.2802  0.2671 -0.3798
  895MPD2    C113113   0.124   2.939  13.574 -0.0390  0.6707  0.9125
  895MPD2    C213114   0.217   2.851  13.517  0.0004  0.0363  0.2863
  895MPD2    C313115   0.329   2.803  13.581  0.0837  0.9149  0.0504
  895MPD2    C413116   0.361   2.852  13.708 -0.1140  0.1499 -0.1039
  895MPD2    C513117   0.266   2.939  13.771 -0.9707 -0.0315  0.0359
  895MPD2     H13118   0.184   2.822  13.418  2.2216 -0.2713 -0.3733
  895MPD2    H113119   0.438   2.805  13.768 -0.7098  0.4917  0.9248
  895MPD2    H213120   0.094   3.060  13.748  0.5496  0.5417 -0.4978
  895MPD2    H313121   0.276   2.972  13.874  0.4350 -0.7129  0.1189
  895MPD2     N13122   0.391   2.695  13.517  0.1713  0.7753 -0.0319
  895MPD2    H513123   0.342   2.657  13.436 -0.0742 -1.5476  1.1889
  895MPD2    N113124   0.013   2.985  13.492 -0.7006  0.0485  0.3081
  895MPD2    H713125   0.015   2.955  13.395 -0.4733  1.6398 -0.1751
  896MPD2     C13126   2.885   1.165   1.902 -0.4315  0.0687  0.8274
  896MPD2    C113127   2.857   1.232   1.791  0.3271  0.3715 -0.1293
  896MPD2    C213128   2.748   1.191   1.718 -0.0352 -0.2549  0.2108
  896MPD2    C313129   2.673   1.073   1.749  0.0180  0.3802 -0.0081
  896MPD2    C413130   2.714   1.003   1.861  0.1198  0.3402  0.4224
  896MPD2    C513131   2.820   1.054   1.939  0.2613  0.1530  0.6108
  896MPD2     H13132   2.714   1.252   1.635 -1.4713 -1.6362 -0.2167
  896MPD2    H113133   2.658   0.915   1.889 -0.5646  0.5903 -0.1517
  896MPD2    H213134   2.966   1.197   1.967 -0.4524  0.7076  0.5423
  896MPD2    H313135   2.842   1.007   2.034  0.0428  1.1102  1.1277
  896MPD2     N13136   2.561   1.046   1.670  0.7580  0.5909  0.2671
  896MPD2    H513137   2.555   1.093   1.580 -1.1011  2.5075  1.3909
  896MPD2    N113138   2.935   1.342   1.759 -0.0068 -0.2504  0.0987
  896MPD2    H713139   2.998   1.377   1.830  0.2148  0.2507 -0.3460
  897MPD2     C13140   3.932   2.721  10.179  0.1763  0.0098 -0.8250
  897MPD2    C113141   3.921   2.646  10.290 -0.3626 -0.0158  0.2191
  897MPD2    C213142   3.813   2.662  10.378 -0.1336  0.2767  0.2406
  897MPD2    C313143   3.717   2.763  10.352 -0.3432 -0.9707 -0.2395
  897MPD2    C413144   3.728   2.828  10.237  0.2239 -0.5110  0.0361
  897MPD2    C513145   3.832   2.810  10.146 -0.8381 -0.3271  0.2219
  897MPD2     H13146   3.819   2.602  10.468 -0.3695 -0.8216 -0.4648
  897MPD2    H113147   3.658   2.900  10.196 -1.3760 -2.0801  0.0035
  897MPD2    H213148   4.010   2.696  10.108  1.7285  1.3603  0.3871
  897MPD2    H313149   3.836   2.864  10.052  1.6908  1.3619  1.3089
  897MPD2     N13150   3.616   2.792  10.442 -0.1964 -0.3056 -0.1464
  897MPD2    H513151   3.618   2.730  10.523  0.3538 -0.4854 -0.2991
  897MPD2    N113152   4.024   2.550  10.312 -0.1808 -0.1794  0.3843
  897MPD2    H713153   4.105   2.547  10.250  0.3032 -0.3841  1.0191
  898MPD2     C13154   1.781   3.263  17.198 -0.2157 -0.1181 -0.5857
  898MPD2    C113155   1.708   3.355  17.272  0.5969  0.2650 -0.2681
  898MPD2    C213156   1.578   3.375  17.240  0.0020 -0.1326  0.0310
  898MPD2    C313157   1.520   3.323  17.124 -0.0467  0.0669 -0.1320
  898MPD2    C413158   1.601   3.247  17.041  0.5228  0.0227 -0.4877
  898MPD2    C513159   1.731   3.216  17.082  0.3891 -0.0307  0.1339
  898MPD2     H13160   1.522   3.445  17.301 -2.6083 -2.8863  0.7781
  898MPD2    H113161   1.567   3.218  16.942  0.4675 -1.1680 -0.1191
  898MPD2    H213162   1.886   3.247  17.218 -0.5429 -1.8406 -0.2359
  898MPD2    H313163   1.800   3.165  17.016 -1.1093  0.0929 -1.5294
  898MPD2     N13164   1.389   3.350  17.081 -0.5411 -0.1142 -0.0610
  898MPD2    H513165   1.328   3.397  17.148 -2.1465 -2.1030 -0.1122
  898MPD2    N113166   1.756   3.413  17.392 -0.2065  0.3681  0.1509
  898MPD2    H713167   1.688   3.469  17.443 -0.3888  0.8964 -0.6825
  899MPD2     C13168   2.443   4.186  17.274  0.5068  0.4177  0.1978
  899MPD2    C113169   2.399   4.277  17.373 -0.1018 -0.7685 -0.2146
  899MPD2    C213170   2.369   4.224  17.495  0.5024  1.0374  0.5286
  899MPD2    C313171   2.390   4.091  17.527 -0.0387 -0.0571  0.4064
  899MPD2    C413172   2.434   3.999  17.432  0.4067  0.8822  0.0610
  899MPD2    C513173   2.454   4.054  17.305  0.2615 -0.6327 -0.1291
  899MPD2     H13174   2.335   4.295  17.569  1.2028 -0.6366  2.4678
  899MPD2    H113175   2.442   3.892  17.444 -0.7475  0.6760 -1.0736
  899MPD2    H213176   2.470   4.220  17.175  1.0610  1.5472  0.7329
  899MPD2    H313177   2.484   3.982  17.230 -0.3300 -1.9641  0.9043
  899MPD2     N13178   2.349   4.043  17.657 -0.3126  0.4197 -0.4142
  899MPD2    H513179   2.339   3.942  17.666  0.8079  0.2700 -0.8923
  899MPD2    N113180   2.374   4.413  17.343  0.0262 -0.0861 -0.0766
  899MPD2    H713181   2.411   4.455  17.258  0.1511 -0.4420 -0.1989
  900MPD2     C13182   1.764   1.134  12.309  0.3540 -0.0133  0.1085
  900MPD2    C113183   1.718   1.012  12.267  0.1858  0.2440  0.0709
  900MPD2    C213184   1.592   1.005  12.206  0.4607 -0.6181  0.4043
  900MPD2    C313185   1.509   1.114  12.189  0.2321 -0.0258  0.2756
  900MPD2    C413186   1.549   1.232  12.242 -0.9177 -0.0646 -0.5153
  900MPD2    C513187   1.678   1.241  12.302  0.5714  0.3729 -0.1874
  900MPD2     H13188   1.559   0.909  12.168  0.5416 -0.6053  0.3017
  900MPD2    H113189   1.487   1.320  12.230  1.7980  1.7778 -1.0483
  900MPD2    H213190   1.863   1.147  12.351  0.8144 -1.8169 -0.4180
  900MPD2    H313191   1.712   1.335  12.345  0.5723 -0.1838  1.0379
  900MPD2     N13192   1.376   1.092  12.142 -0.7429 -0.1513  0.2191
  900MPD2    H513193   1.352   0.994  12.131  0.6028 -0.4822  0.2351
  900MPD2    N113194   1.797   0.895  12.286  0.7735 -0.3107 -0.2446
  900MPD2    H713195   1.751   0.810  12.255 -0.7530  0.6747 -0.6665
  901MPD2     C13196   1.467   0.047  12.611  1.0810  0.4349  0.2315
  901MPD2    C113197   1.602   0.027  12.641  1.0252  0.2316 -0.0773
  901MPD2    C213198   1.690   0.127  12.598  0.6236  0.1681  0.2053
  901MPD2    C313199   1.645   0.251  12.542  0.6018  0.3273  0.6209
  901MPD2    C413200   1.511   0.276  12.539  0.0417  0.2128 -0.5363
  901MPD2    C513201   1.423   0.171  12.560  0.5936 -0.0752  0.7075
  901MPD2     H13202   1.796   0.115  12.618  0.0392 -1.0256  2.5685
  901MPD2    H113203   1.472   0.373  12.510 -1.1477 -0.0128  0.3195
  901MPD2    H213204   1.389   4.694  12.631  0.5428  0.8363 -0.3879
  901MPD2    H313205   1.317   0.189  12.551  0.4607 -0.6105  1.1832
  901MPD2     N13206   1.751   0.334  12.503  0.7264 -0.3542  0.5533
  901MPD2    H513207   1.844   0.308  12.534  0.0675 -1.6413  1.4333
  901MPD2    N113208   1.639   4.624  12.695 -0.2354 -0.1394  0.3507
  901MPD2    H713209   1.562   4.564  12.723 -0.0257 -0.2982  0.5854
  902MPD2     C13210   0.563   3.372  12.968  0.2078  0.2885  0.1356
  902MPD2    C113211   0.600   3.476  12.881 -0.3853 -0.5223  0.4024
  902MPD2    C213212   0.686   3.459  12.775 -0.3662  0.6164 -0.2883
  902MPD2    C313213   0.719   3.329  12.741 -0.0022  0.1542  0.2005
  902MPD2    C413214   0.686   3.227  12.831  0.2391 -0.1576 -0.7420
  902MPD2    C513215   0.617   3.251  12.946 -0.1887 -1.2547  0.0651
  902MPD2     H13216   0.720   3.541  12.713  2.2984  1.0162  1.6833
  902MPD2    H113217   0.719   3.125  12.817 -0.4756 -0.3700 -0.8712
  902MPD2    H213218   0.494   3.386  13.051  2.6348 -1.2995  2.4129
  902MPD2    H313219   0.592   3.167  13.010  1.4732  0.2528  2.6765
  902MPD2     N13220   0.799   3.300  12.627  1.1799  0.5614 -0.5116
  902MPD2    H513221   0.825   3.204  12.610 -1.3934 -0.3479  0.7359
  902MPD2    N113222   0.556   3.605  12.919 -0.1450  0.1371  0.4698
  902MPD2    H713223   0.478   3.601  12.984 -1.2613 -0.1480 -0.8717
  903MPD2     C13224   0.851   3.021  11.786 -0.0851 -0.8056  0.0444
  903MPD2    C113225   0.811   3.130  11.861  1.0337  0.2353 -0.1994
  903MPD2    C213226   0.695   3.199  11.815  0.2199  0.3277  1.4641
  903MPD2    C313227   0.636   3.165  11.699  0.4614  0.4060 -0.3682
  903MPD2    C413228   0.675   3.052  11.629  0.5186 -0.2044 -0.6155
  903MPD2    C513229   0.784   2.985  11.675 -0.3704 -0.3914 -0.1591
  903MPD2     H13230   0.651   3.277  11.876 -0.8751 -1.2287  2.6566
  903MPD2    H113231   0.610   3.017  11.550 -0.7134  1.2032 -0.2223
  903MPD2    H213232   0.925   2.958  11.834 -0.5265 -2.1396 -1.0424
  903MPD2    H313233   0.813   2.896  11.620 -2.8959 -1.4986  0.2832
  903MPD2     N13234   0.520   3.243  11.667 -0.2494 -0.9411 -0.5927
  903MPD2    H513235   0.497   3.319  11.731  3.0130 -1.2245  0.9344
  903MPD2    N113236   0.873   3.153  11.993  0.5706  0.1668  0.3129
  903MPD2    H713237   0.951   3.095  12.022 -0.5666 -1.6640 -0.3105
  904MPD2     C13238   0.087   2.452  13.801  0.6094  0.2685 -0.1115
  904MPD2    C113239   0.075   2.406  13.938 -0.4701 -0.3407  0.4854
  904MPD2    C213240   0.189   2.414  14.016  0.2299  0.1083 -0.5477
  904MPD2    C313241   0.304   2.469  13.969  0.3421 -0.1830  0.7045
  904MPD2    C413242   0.307   2.522  13.843  0.1124 -0.5469  0.3305
  904MPD2    C513243   0.202   2.499  13.756  0.2372  0.4904  0.6766
  904MPD2     H13244   0.181   2.392  14.122 -0.3542  2.3993 -0.1231
  904MPD2    H113245   0.393   2.566  13.794 -0.8088  0.1501 -0.6537
  904MPD2    H213246   0.000   2.440  13.737  0.5688 -1.4637  0.2568
  904MPD2    H313247   0.201   2.537  13.655  1.0691  1.4560  1.0202
  904MPD2     N13248   0.410   2.487  14.061  0.4611 -0.4072 -0.7365
  904MPD2    H513249   0.420   2.418  14.135  0.8556  0.9611  0.5015
  904MPD2    N113250   4.675   2.356  13.993  0.5552 -0.1555 -0.0838
  904MPD2    H713251   4.683   2.293  14.072  2.5684  1.5240  1.0714
  905MPD2     C13252   4.454   2.321  13.372  0.3517  0.6909  0.2271
  905MPD2    C113253   4.522   2.425  13.431  0.0092  0.7452 -0.2115
  905MPD2    C213254   4.662   2.437  13.404 -0.9230 -0.6346 -0.0472
  905MPD2    C313255   0.000   2.349  13.326 -0.4601 -0.8362  0.2138
  905MPD2    C413256   4.649   2.244  13.270 -0.6209 -0.0873  0.2345
  905MPD2    C513257   4.514   2.238  13.286  0.0839  0.3311  0.1522
  905MPD2     H13258   0.000   2.522  13.437  1.8983 -3.5793  2.5540
  905MPD2    H113259   4.689   2.159  13.217  2.9124  2.2113 -0.7929
  905MPD2    H213260   4.346   2.314  13.384  0.3960  1.6155  1.1332
  905MPD2    H313261   4.457   2.157  13.241  3.0299 -1.6853  0.0896
  905MPD2     N13262   0.142   2.340  13.308  0.5259  0.9052  0.3739
  905MPD2    H513263   0.175   2.264  13.249 -1.8431  0.1671  0.0153
  905MPD2    N113264   4.453   2.514  13.515  1.0519  0.6309 -0.6701
  905MPD2    H713265   4.360   2.489  13.547  1.8386 -2.6698 -0.9359
  906MPD2     C13266   2.220   3.106  11.326 -0.5102  0.5145  0.3363
  906MPD2    C113267   2.225   3.005  11.226  0.2901 -0.3831  0.1396
  906MPD2    C213268   2.199   2.877  11.259 -0.9045  0.3192 -0.1369
  906MPD2    C313269   2.179   2.837  11.390 -0.0348 -0.3218 -0.2235
  906MPD2    C413270   2.185   2.939  11.488 -0.0771  0.6755 -0.1271
  906MPD2    C513271   2.205   3.071  11.453 -0.5605 -0.1574 -0.3018
  906MPD2     H13272   2.217   2.805  11.181  0.6756  0.7384 -0.1523
  906MPD2    H113273   2.171   2.906  11.590 -1.1776  1.9427  0.1286
  906MPD2    H213274   2.245   3.209  11.300  3.1060 -0.5155 -0.2173
  906MPD2    H313275   2.211   3.150  11.527 -0.0182  1.6498 -2.2794
  906MPD2     N13276   2.152   2.699  11.415  0.9029  0.0875 -0.7809
  906MPD2    H513277   2.152   2.639  11.333 -3.9094  0.9652 -1.3694
  906MPD2    N113278   2.244   3.028  11.089 -0.8108 -0.0407 -0.6053
  906MPD2    H713279   2.232   2.947  11.029  1.5100 -0.2259 -0.8119
  907MPD2     C13280   1.204   1.765  15.418 -0.0664  0.3151  0.1898
  907MPD2    C113281   1.291   1.662  15.376  0.6255 -0.4517  0.2305
  907MPD2    C213282   1.373   1.597  15.464  0.3804 -0.3068  0.4264
  907MPD2    C313283   1.397   1.647  15.590 -0.6855  1.1639  0.1996
  907MPD2    C413284   1.318   1.751  15.630 -0.1018 -0.9427 -0.3856
  907MPD2    C513285   1.223   1.801  15.547 -0.2959 -0.3735 -0.6772
  907MPD2     H13286   1.420   1.504  15.435  1.3661 -0.0124  1.0970
  907MPD2    H113287   1.319   1.803  15.725 -1.2000  1.2944 -1.6164
  907MPD2    H213288   1.137   1.814  15.349 -1.1618 -1.9584 -0.3753
  907MPD2    H313289   1.156   1.877  15.586 -1.3507 -1.4966 -0.3177
  907MPD2     N13290   1.493   1.583  15.680 -0.2112  0.2217  0.8881
  907MPD2    H513291   1.548   1.506  15.643  0.2564 -0.5940  3.2712
  907MPD2    N113292   1.270   1.593  15.255  0.5604 -0.0160 -0.2461
  907MPD2    H713293   1.313   1.502  15.257  1.0011  0.2304  1.1714
  908MPD2     C13294   4.220   1.999   9.698  0.2854  0.0628  0.0484
  908MPD2    C113295   4.114   2.063   9.744 -0.1145  0.3430 -0.0609
  908MPD2    C213296   4.132   2.139   9.865 -0.2978 -0.0386 -0.2275
  908MPD2    C313297   4.248   2.146   9.943  0.0537  0.5058 -0.2579
  908MPD2    C413298   4.348   2.064   9.894  0.0183 -0.0248  0.2887
  908MPD2    C513299   4.338   1.997   9.770 -0.3093 -0.4696  0.0295
  908MPD2     H13300   4.046   2.192   9.905  0.2623  0.9282 -0.3072
  908MPD2    H113301   4.444   2.056   9.945  0.0105  0.3899  0.3676
  908MPD2    H213302   4.209   1.938   9.609 -0.7799  1.4055 -0.7296
  908MPD2    H313303   4.418   1.935   9.730 -1.0826 -1.1014 -0.5514
  908MPD2     N13304   4.247   2.227  10.057  0.4559 -0.4122  0.5401
  908MPD2    H513305   4.165   2.282  10.079  0.1276 -0.7955  0.2786
  908MPD2    N113306   3.983   2.048   9.676  0.6619 -0.3382 -0.7370
  908MPD2    H713307   3.900   2.075   9.727 -0.5053 -0.3889 -2.6163
  909MPD2     C13308   3.942   0.683  11.850 -0.0433 -0.6708 -0.9773
  909MPD2    C113309   3.918   0.807  11.803  0.7019  0.3578 -0.6602
  909MPD2    C213310   3.878   0.901  11.896  0.6418  0.3163  0.1707
  909MPD2    C313311   3.848   0.877  12.028  0.0414 -0.0466  0.4154
  909MPD2    C413312   3.852   0.742  12.063 -0.9893  0.3347 -0.0405
  909MPD2    C513313   3.902   0.646  11.975  0.0660  0.7056  0.1314
  909MPD2     H13314   3.862   1.005  11.868 -2.2569  0.1967  1.4248
  909MPD2    H113315   3.824   0.700  12.160 -1.9209  0.9169 -0.0497
  909MPD2    H213316   3.980   0.608  11.781  0.8054 -1.2485  0.1248
  909MPD2    H313317   3.915   0.544  12.009  1.2486  1.0834  0.8170
  909MPD2     N13318   3.816   0.980  12.113  0.3721  0.2619 -0.5430
  909MPD2    H513319   3.817   1.073  12.073  1.6258 -0.1777 -1.5425
  909MPD2    N113320   3.934   0.853  11.668  0.1884 -0.2923 -0.3835
  909MPD2    H713321   3.908   0.950  11.657 -0.0048 -0.1470  1.2791
  910MPD2     C13322   1.204   2.529  15.954  0.6810 -0.3206 -0.5499
  910MPD2    C113323   1.195   2.408  15.887 -0.0956 -0.0059 -0.3835
  910MPD2    C213324   1.117   2.400  15.779  0.6563  0.2086  0.1851
  910MPD2    C313325   1.040   2.504  15.742 -0.7067  0.4022  0.6382
  910MPD2    C413326   1.035   2.626  15.810 -0.2743  0.1953  0.4308
  910MPD2    C513327   1.132   2.637  15.915 -0.3023  0.6223  0.1853
  910MPD2     H13328   1.100   2.309  15.723 -0.7011  1.0030 -0.6908
  910MPD2    H113329   0.973   2.711  15.788  5.1572  3.4156 -2.4793
  910MPD2    H213330   1.265   2.540  16.043 -0.0176 -2.5287  0.1954
  910MPD2    H313331   1.139   2.731  15.968  1.1785  1.0994 -0.8445
  910MPD2     N13332   0.939   2.492  15.640 -0.2200 -0.2306  0.2383
  910MPD2    H513333   0.868   2.565  15.640  0.9041  0.8679 -1.1338
  910MPD2    N113334   1.255   2.282  15.928 -0.0830 -0.3473  0.4369
  910MPD2    H713335   1.250   2.200  15.868  1.0561 -1.2630  1.6095
  911MPD2     C13336   3.765   3.076  16.207  1.0434  0.3963 -0.6149
  911MPD2    C113337   3.820   3.209  16.211 -0.5420  0.4974  0.0037
  911MPD2    C213338   3.740   3.324  16.199  0.5576 -0.8099 -0.2740
  911MPD2    C313339   3.607   3.311  16.170 -0.9825  0.8244  0.2518
  911MPD2    C413340   3.556   3.185  16.150  0.8397 -0.1600  0.7769
  911MPD2    C513341   3.629   3.072  16.174 -0.2246  0.2825  0.7803
  911MPD2     H13342   3.781   3.419  16.229 -1.4155 -0.0884  0.1545
  911MPD2    H113343   3.453   3.167  16.119  0.6723  1.1932  0.5428
  911MPD2    H213344   3.828   2.988  16.211  0.8697  0.4106  1.9664
  911MPD2    H313345   3.584   2.974  16.169 -0.3869  0.3410  1.1309
  911MPD2     N13346   3.512   3.414  16.150 -0.2786 -0.4549  0.3735
  911MPD2    H513347   3.417   3.387  16.125 -1.2225  2.0875  1.1614
  911MPD2    N113348   3.954   3.219  16.238 -0.4034 -0.6514  0.1004
  911MPD2    H713349   4.010   3.135  16.242  0.0374 -0.3841 -0.4337
  912MPD2     C13350   3.365   3.091  15.671 -0.0021 -0.5451 -0.1167
  912MPD2    C113351   3.333   3.139  15.792 -0.5709 -0.7735  0.2259
  912MPD2    C213352   3.339   3.062  15.903 -0.0764 -0.0641  0.6846
  912MPD2    C313353   3.375   2.928  15.889  0.0947  0.6260  1.0570
  912MPD2    C413354   3.414   2.879  15.764 -0.7897 -0.3109  0.0577
  912MPD2    C513355   3.409   2.962  15.658 -0.4749  0.3462 -0.1528
  912MPD2     H13356   3.310   3.100  16.000 -0.6928 -0.1903  0.5533
  912MPD2    H113357   3.467   2.785  15.758 -0.4420  0.0364 -2.1439
  912MPD2    H213358   3.373   3.149  15.579 -0.1854  1.3396  1.0500
  912MPD2    H313359   3.443   2.928  15.561  1.7462  0.3854  0.6056
  912MPD2     N13360   3.393   2.855  16.010  0.6849  0.1892 -0.3397
  912MPD2    H513361   3.339   2.900  16.084  1.1499 -0.6960  0.5513
  912MPD2    N113362   3.314   3.275  15.798 -0.0814 -0.4307 -0.0073
  912MPD2    H713363   3.325   3.318  15.707  1.1371 -1.7646 -0.4978
  913MPD2     C13364   3.159   0.309  10.260 -0.2162 -0.0814 -0.3564
  913MPD2    C113365   3.223   0.307  10.143  0.6419  0.3783 -0.3473
  913MPD2    C213366   3.225   0.417  10.060  0.5076 -0.5239  0.0334
  913MPD2    C313367   3.157   0.532  10.105 -0.3836  1.0456  0.0878
  913MPD2    C413368   3.081   0.533  10.218 -0.2485 -0.1578 -0.8640
  913MPD2    C513369   3.083   0.424  10.294  0.4837 -0.1793  0.1362
  913MPD2     H13370   3.282   0.423   9.969 -0.6018 -1.3050 -0.7139
  913MPD2    H113371   3.041   0.625  10.258 -2.8983 -1.2654 -0.9817
  913MPD2    H213372   3.147   0.223  10.324  0.3705  0.2343  0.1761
  913MPD2    H313373   3.025   0.420  10.386 -1.7020 -0.8532 -1.2829
  913MPD2     N13374   3.166   0.656  10.044 -0.2485 -0.1244  0.2450
  913MPD2    H513375   3.098   0.724  10.076 -0.2457 -0.0579  0.1080
  913MPD2    N113376   3.309   0.195  10.121 -0.2300  0.6071  0.3261
  913MPD2    H713377   3.316   0.130  10.199 -0.5513 -0.2018 -0.3070
  914MPD2     C13378   1.702   3.817  12.423 -0.7827 -0.4743 -0.8228
  914MPD2    C113379   1.732   3.942  12.381  0.4467  0.3681 -0.6719
  914MPD2    C213380   1.708   4.041  12.475 -0.0669 -0.1336  0.3421
  914MPD2    C313381   1.666   4.011  12.600 -0.1620  0.6253 -0.2478
  914MPD2    C413382   1.637   3.883  12.640  0.0492 -0.3171 -0.1360
  914MPD2    C513383   1.664   3.786  12.545 -0.1145  0.6090  0.1213
  914MPD2     H13384   1.727   4.146  12.458  1.7992 -0.6483 -0.7290
  914MPD2    H113385   1.609   3.850  12.740  1.0169  0.2696  0.3300
  914MPD2    H213386   1.718   3.732  12.357  0.5640  0.8924 -2.2423
  914MPD2    H313387   1.638   3.685  12.574 -2.2070  1.4183  0.9917
  914MPD2     N13388   1.658   4.125  12.680 -0.1588  0.7225  0.1047
  914MPD2    H513389   1.677   4.212  12.631 -1.2953 -0.3693 -2.2869
  914MPD2    N113390   1.781   3.968  12.250  1.1575 -0.0807  0.2237
  914MPD2    H713391   1.775   3.883  12.194 -1.7069  0.1709  0.1294
  915MPD2     C13392   0.088   0.184  15.784 -0.5646 -0.4710 -0.6440
  915MPD2    C113393   4.668   0.158  15.777  0.1303 -0.3777 -0.2322
  915MPD2    C213394   4.591   0.166  15.892 -1.3117  0.1765  0.5395
  915MPD2    C313395   4.646   0.203  16.015  0.1905 -0.2299 -0.5461
  915MPD2    C413396   0.064   0.229  16.019  0.5487 -0.3432 -0.5027
  915MPD2    C513397   0.143   0.210  15.907 -0.0198 -0.5379 -0.5424
  915MPD2     H13398   4.488   0.133  15.896 -1.2805  0.0758  0.5022
  915MPD2    H113399   0.115   0.251  16.112 -1.8569  0.4382  0.6257
  915MPD2    H213400   0.158   0.162  15.705 -0.3828  0.0700 -0.6302
  915MPD2    H313401   0.249   0.231  15.905  0.0374 -0.6578  1.4457
  915MPD2     N13402   4.564   0.222  16.127 -0.1193  0.3312 -0.1583
  915MPD2    H513403   4.467   0.196  16.121 -0.1750  0.1881  1.3007
  915MPD2    N113404   4.606   0.121  15.651  0.4559  0.2522  0.6516
  915MPD2    H713405   4.671   0.097  15.577  0.8875  0.7847  0.8580
  916MPD2     C13406   3.038   2.959  15.777 -0.3559  0.5639 -0.0244
  916MPD2    C113407   3.060   2.852  15.860 -0.3928 -0.1263 -0.4779
  916MPD2    C213408   3.103   2.731  15.800 -0.2589 -0.1343 -0.0891
  916MPD2    C313409   3.110   2.715  15.665 -0.6394 -0.0487 -0.6296
  916MPD2    C413410   3.085   2.825  15.583 -0.3926  0.1048  0.2727
  916MPD2    C513411   3.050   2.946  15.637 -0.0090  0.7477 -0.4534
  916MPD2     H13412   3.109   2.644  15.863  2.6608 -0.8466 -1.3593
  916MPD2    H113413   3.090   2.818  15.475  0.6937  0.7395  0.2842
  916MPD2    H213414   3.006   3.051  15.824 -3.5831 -0.1548 -0.8112
  916MPD2    H313415   3.035   3.038  15.582 -2.7348  0.3726 -0.3462
  916MPD2     N13416   3.130   2.584  15.615  0.2188  0.0211  0.2462
  916MPD2    H513417   3.176   2.515  15.674 -0.0103 -0.1387  0.2394
  916MPD2    N113418   3.017   2.862  15.995 -0.9757  0.4424 -0.3993
  916MPD2    H713419   2.976   2.943  16.040 -2.1799 -1.2929  1.5900
  917MPD2     C13420   3.513   0.361  11.640 -0.0433 -0.4549  0.1891
  917MPD2    C113421   3.400   0.426  11.598 -0.2910  0.6442  0.2710
  917MPD2    C213422   3.397   0.561  11.572 -0.0952 -0.2058  1.1218
  917MPD2    C313423   3.515   0.636  11.586  0.3568 -0.7437  0.6804
  917MPD2    C413424   3.631   0.564  11.633  0.4268  0.2814  1.2528
  917MPD2    C513425   3.622   0.432  11.661 -0.0379 -0.2121  0.3008
  917MPD2     H13426   3.300   0.602  11.550  0.1840  0.0506  0.3980
  917MPD2    H113427   3.720   0.615  11.669  0.7458  0.4931  0.1662
  917MPD2    H213428   3.518   0.253  11.645 -1.6192 -0.5209  0.3661
  917MPD2    H313429   3.715   0.383  11.688  0.8697 -0.3050 -3.0424
  917MPD2     N13430   3.538   0.774  11.556  0.5625 -0.1873  0.2663
  917MPD2    H513431   3.626   0.811  11.588 -0.3580  2.0940  0.1780
  917MPD2    N113432   3.293   0.335  11.581  0.0815  0.0582 -0.2369
  917MPD2    H713433   3.310   0.242  11.619 -1.1423 -0.1494 -0.1914
  918MPD2     C13434   3.188   4.484  12.194  0.1578  0.1205 -0.0136
  918MPD2    C113435   3.292   4.550  12.130 -0.5045  0.0624 -0.9428
  918MPD2    C213436   3.275   4.615  12.010 -0.1406 -0.3309  0.3285
  918MPD2    C313437   3.143   4.636  11.969 -0.2001 -0.5188 -0.2323
  918MPD2    C413438   3.042   4.571  12.037 -0.4339  0.2621 -0.1351
  918MPD2    C513439   3.066   4.490  12.144  0.9162 -0.0386 -0.2128
  918MPD2     H13440   3.357   4.667  11.961  0.9259  0.2657  2.7638
  918MPD2    H113441   2.936   4.586  12.017 -1.1053 -2.3342  1.4059
  918MPD2    H213442   3.201   4.424  12.284  0.8945 -0.4433 -0.4939
  918MPD2    H313443   2.985   4.440  12.196  1.3155  2.3586  2.6891
  918MPD2     N13444   3.123   4.699  11.850 -0.1581 -0.3492 -0.4321
  918MPD2    H513445   3.206   0.030  11.823 -2.0826  1.8235 -2.3211
  918MPD2    N113446   3.419   4.540  12.175  0.0967  0.4633 -0.2911
  918MPD2    H713447   3.493   4.585  12.123  1.4665  0.4583  1.6346
  919MPD2     C13448   3.410   4.164  11.142 -0.1048  0.3563  0.5405
  919MPD2    C113449   3.488   4.046  11.153 -0.3352 -0.1255 -0.2288
  919MPD2    C213450   3.519   3.974  11.037  0.4649 -0.5783  0.3362
  919MPD2    C313451   3.463   4.010  10.914  0.5360  0.3489  0.7343
  919MPD2    C413452   3.381   4.124  10.907  0.3334 -0.5412 -0.2909
  919MPD2    C513453   3.382   4.213  11.016 -0.0093 -0.0120 -0.4045
  919MPD2     H13454   3.577   3.882  11.041  1.5631  0.1750  1.3554
  919MPD2    H113455   3.331   4.149  10.814  1.5340  0.5863 -0.6341
  919MPD2    H213456   3.376   4.223  11.227 -2.6080 -0.4052  0.0884
  919MPD2    H313457   3.332   4.305  10.992 -0.4721 -0.4411 -1.0921
  919MPD2     N13458   3.470   3.934  10.791 -0.3763 -0.3034 -0.1527
  919MPD2    H513459   3.417   3.961  10.709  1.6314  0.1105 -1.2990
  919MPD2    N113460   3.532   3.987  11.276  0.1214  0.3228  0.1358
  919MPD2    H713461   3.579   3.898  11.261 -0.9275 -0.2439  0.2092
  920MPD2     C13462   2.882   3.795  10.172  0.3859  0.3865  0.0174
  920MPD2    C113463   2.898   3.894  10.271 -0.6321  0.4635  0.2040
  920MPD2    C213464   3.025   3.909  10.323  0.2969  0.0235 -0.1262
  920MPD2    C313465   3.125   3.815  10.299 -0.2406  0.0691  0.4369
  920MPD2    C413466   3.100   3.715  10.207  0.2951 -0.5416 -0.4315
  920MPD2    C513467   2.977   3.709  10.142  0.2987 -0.1270 -0.1028
  920MPD2     H13468   3.036   3.986  10.398  0.8112 -0.9978  0.8482
  920MPD2    H113469   3.171   3.637  10.183  0.1475 -0.3278 -1.5465
  920MPD2    H213470   2.792   3.783  10.114  0.9549  0.2182 -0.8219
  920MPD2    H313471   2.958   3.636  10.065 -1.2459 -1.9441  1.9943
  920MPD2     N13472   3.248   3.827  10.367 -0.1443  0.4806 -0.8933
  920MPD2    H513473   3.261   3.899  10.438 -0.9318  2.0205 -2.3265
  920MPD2    N113474   2.799   3.991  10.310 -0.9293  0.1102  0.7442
  920MPD2    H713475   2.825   4.045  10.391 -0.9369  0.9337  0.1963
  921MPD2     C13476   0.117   3.415  16.766 -0.2656 -0.5868 -0.1842
  921MPD2    C113477   0.129   3.375  16.636  0.8806  0.2086  0.3383
  921MPD2    C213478   0.014   3.385  16.564  0.2849  0.1297  0.1750
  921MPD2    C313479   4.613   3.427  16.607  0.3773  0.3770  0.2306
  921MPD2    C413480   4.606   3.477  16.738  0.2340  0.4275 -0.5453
  921MPD2    C513481   4.715   3.467  16.815 -0.4654  0.1349 -0.6236
  921MPD2     H13482   0.017   3.340  16.466  0.1407 -1.5381  0.9430
  921MPD2    H113483   4.513   3.488  16.791  0.7325  0.6714  0.2802
  921MPD2    H213484   0.193   3.420  16.843 -1.1771  1.0817  0.6141
  921MPD2    H313485   4.707   3.495  16.919  2.7153  1.9897 -0.8953
  921MPD2     N13486   4.503   3.398  16.528 -0.2073 -0.7618  0.1548
  921MPD2    H513487   4.412   3.383  16.572 -0.0713 -0.5808  0.4985
  921MPD2    N113488   0.256   3.343  16.581  0.1899  0.4772  0.0441
  921MPD2    H713489   0.338   3.346  16.640  0.4215 -0.7466 -0.2135
  922MPD2     C13490   0.297   0.690  16.935  0.1778  0.0956 -0.0875
  922MPD2    C113491   0.260   0.820  16.922  0.0375 -0.0056  0.0383
  922MPD2    C213492   0.129   0.854  16.957  0.2898  0.2465  0.1873
  922MPD2    C313493   0.041   0.766  17.021  0.1029 -1.2382 -0.4065
  922MPD2    C413494   0.089   0.639  17.043 -0.3604 -0.2043  0.2548
  922MPD2    C513495   0.214   0.600  16.990  0.1499  0.0992  0.1676
  922MPD2     H13496   0.104   0.958  16.939  1.6759 -0.0523 -3.5807
  922MPD2    H113497   0.031   0.558  17.087 -0.6207 -0.5341 -0.6917
  922MPD2    H213498   0.386   0.642  16.897  1.3343  2.5017 -0.3566
  922MPD2    H313499   0.238   0.495  16.999  1.3333  0.4585  1.2889
  922MPD2     N13500   4.627   0.810  17.045 -0.5045 -0.3577 -0.4213
  922MPD2    H513501   4.603   0.904  17.017  2.6610 -0.0135 -1.9005
  922MPD2    N113502   0.342   0.916  16.868 -0.0410  0.1314 -0.7449
  922MPD2    H713503   0.304   0.990  16.810  2.5679  1.2738 -0.9692
  923MPD2     C13504   1.404   3.314   8.982 -0.3983  0.2508 -0.3253
  923MPD2    C113505   1.349   3.370   9.097 -0.2046 -0.2699  0.0227
  923MPD2    C213506   1.434   3.392   9.202  0.2046  0.0026  0.4132
  923MPD2    C313507   1.576   3.378   9.187  0.3008  0.1999 -0.3736
  923MPD2    C413508   1.624   3.338   9.067 -0.3309  0.8261  0.7729
  923MPD2    C513509   1.537   3.305   8.965 -0.1112 -0.1263 -0.1119
  923MPD2     H13510   1.400   3.408   9.304  0.7714  1.0779  0.4375
  923MPD2    H113511   1.729   3.345   9.039 -1.5602  1.4747 -3.7327
  923MPD2    H213512   1.340   3.278   8.902 -0.0264  0.6631 -0.8066
  923MPD2    H313513   1.586   3.277   8.873 -0.9556  1.2559 -0.9925
  923MPD2     N13514   1.662   3.416   9.286 -0.1116  0.1082 -0.3760
  923MPD2    H513515   1.757   3.385   9.269  0.5138  1.5501  0.5170
  923MPD2    N113516   1.210   3.381   9.113  0.8512 -0.6605 -0.1705
  923MPD2    H713517   1.164   3.363   9.024  0.3281  0.2188 -0.0781
  924MPD2     C13518   1.469   0.838  15.677 -0.9380  0.0323  0.0699
  924MPD2    C113519   1.512   0.877  15.800  0.3160 -0.2505  0.2923
  924MPD2    C213520   1.581   0.996  15.819 -0.3654 -0.1247  0.6748
  924MPD2    C313521   1.626   1.072  15.716 -0.3884  0.3780 -0.3060
  924MPD2    C413522   1.593   1.034  15.592 -0.4236 -0.2549  0.1356
  924MPD2    C513523   1.513   0.921  15.578  0.1827 -0.0440 -0.1888
  924MPD2     H13524   1.593   1.033  15.920 -0.2408  2.1825 -0.1947
  924MPD2    H113525   1.634   1.079  15.502  2.2135  1.0306  1.9960
  924MPD2    H213526   1.422   0.745  15.650  0.2573 -0.6941  0.5004
  924MPD2    H313527   1.485   0.887  15.478  1.6956 -1.1475 -0.2403
  924MPD2     N13528   1.700   1.193  15.733  0.0175 -0.1518 -0.5067
  924MPD2    H513529   1.719   1.259  15.658 -1.5063 -0.3014 -1.0203
  924MPD2    N113530   1.452   0.813  15.908 -0.5277 -0.1906 -0.3601
  924MPD2    H713531   1.372   0.755  15.880 -0.4526 -0.5044  0.0768
  925MPD2     C13532   0.647   3.624  14.698  0.0458 -0.2265  0.8121
  925MPD2    C113533   0.572   3.540  14.615 -0.1207  0.1130 -0.5269
  925MPD2    C213534   0.459   3.475  14.667 -0.3202 -0.4186 -0.2213
  925MPD2    C313535   0.411   3.513  14.794 -0.4091 -0.7834 -0.0637
  925MPD2    C413536   0.480   3.603  14.875  0.5540  0.0862 -0.1229
  925MPD2    C513537   0.600   3.647  14.828  0.5682 -0.2657 -0.1904
  925MPD2     H13538   0.405   3.398  14.613  0.6905  0.6280 -2.7395
  925MPD2    H113539   0.454   3.629  14.977 -0.0006  1.5340 -0.6473
  925MPD2    H213540   0.739   3.674  14.670 -0.8998  0.4219 -1.1482
  925MPD2    H313541   0.655   3.716  14.891 -0.3876  0.3229 -0.0066
  925MPD2     N13542   0.293   3.452  14.845 -0.0026  0.8449  0.4551
  925MPD2    H513543   0.271   3.363  14.801 -2.1454  1.1892  0.8798
  925MPD2    N113544   0.621   3.500  14.487 -0.3813  0.3864 -0.1965
  925MPD2    H713545   0.563   3.455  14.417 -0.9549  1.0043 -0.1111
  926MPD2     C13546   3.498   2.040  13.595  0.9509 -0.0053 -0.2745
  926MPD2    C113547   3.400   2.079  13.500 -0.5700 -1.0750  0.4686
  926MPD2    C213548   3.437   2.088  13.362 -0.5874  0.2044 -0.3696
  926MPD2    C313549   3.567   2.054  13.321 -0.2398 -0.7620  0.3159
  926MPD2    C413550   3.652   2.017  13.412 -0.6280  0.1082 -0.1389
  926MPD2    C513551   3.624   2.013  13.550  0.6935  0.6531 -0.6969
  926MPD2     H13552   3.357   2.125  13.299 -1.3147 -1.4361 -0.4285
  926MPD2    H113553   3.756   2.006  13.384 -1.1092 -3.9136 -0.4174
  926MPD2    H213554   3.496   2.054  13.703  0.6356 -1.4818 -0.0924
  926MPD2    H313555   3.702   1.981  13.618 -2.0291 -1.7751  1.2782
  926MPD2     N13556   3.603   2.056  13.184  0.2504 -0.0727  0.4224
  926MPD2    H513557   3.702   2.042  13.164  0.6289 -0.8735  2.7953
  926MPD2    N113558   3.274   2.125  13.541 -1.0667 -0.6743  0.0753
  926MPD2    H713559   3.223   2.184  13.477  0.7193 -0.1641 -0.8727
  927MPD2     C13560   3.893   4.242   0.490 -0.1851  0.9780  0.4502
  927MPD2    C113561   3.804   4.344   0.501 -0.0804  0.1676 -1.1218
  927MPD2    C213562   3.838   4.471   0.452  0.0976 -0.4202  0.3457
  927MPD2    C313563   3.973   4.500   0.415 -0.2274  0.1280  0.6157
  927MPD2    C413564   4.062   4.393   0.411 -0.0157  0.7469  0.1695
  927MPD2    C513565   4.016   4.263   0.445 -0.4368 -0.1250  0.3961
  927MPD2     H13566   3.758   4.545   0.453  1.2824  0.8567  1.5438
  927MPD2    H113567   4.164   4.400   0.374 -0.4220 -2.6246 -1.6475
  927MPD2    H213568   3.877   4.148   0.542  1.3300 -0.5072 -1.7360
  927MPD2    H313569   4.087   4.181   0.438 -2.6505 -1.9887  0.0607
  927MPD2     N13570   4.009   4.630   0.371 -0.3045  0.3565  0.0624
  927MPD2    H513571   3.928   4.690   0.361  0.9113  2.0548  0.4188
  927MPD2    N113572   3.675   4.319   0.552  0.0416  0.2098  0.8067
  927MPD2    H713573   3.659   4.219   0.564 -1.3128  0.3088 -0.2468
  928MPD2     C13574   1.244   3.073   0.038  1.0725 -0.4516  0.1343
  928MPD2    C113575   1.314   3.144   0.141  0.1947 -0.0760 -0.0110
  928MPD2    C213576   1.451   3.166   0.133 -0.2260 -0.0524 -0.6363
  928MPD2    C313577   1.517   3.107   0.032 -0.6935  0.0177 -0.3404
  928MPD2    C413578   1.450   3.039  17.616  0.9577 -0.2730 -0.3423
  928MPD2    C513579   1.317   3.031  17.616  0.2849 -0.1010  0.1693
  928MPD2     H13580   1.496   3.204   0.225  0.3908 -0.1452 -0.8954
  928MPD2    H113581   1.508   3.013  17.528 -0.1328  0.3475 -1.2403
  928MPD2    H213582   1.141   3.044   0.053  0.5654  1.2134 -0.1511
  928MPD2    H313583   1.263   2.990  17.531  1.5452 -1.9679  0.2922
  928MPD2     N13584   1.654   3.102   0.013 -0.5282  0.3746 -0.4433
  928MPD2    H513585   1.683   3.076  17.603  0.0746 -1.6140  0.2996
  928MPD2    N113586   1.255   3.211   0.251 -0.5146  0.1220 -0.7205
  928MPD2    H713587   1.317   3.265   0.310 -0.1782 -0.8375 -0.1892
  929MPD2     C13588   2.117   2.856  10.384 -0.4218 -0.3605 -0.0705
  929MPD2    C113589   2.018   2.771  10.405  0.4554 -0.4947  0.6188
  929MPD2    C213590   1.898   2.777  10.341  0.4820  0.6114  0.6738
  929MPD2    C313591   1.888   2.878  10.247 -0.1852 -0.2052 -0.1852
  929MPD2    C413592   1.983   2.973  10.228  0.5935  0.0407 -0.2117
  929MPD2    C513593   2.102   2.958  10.290  1.3422 -0.3595  0.2744
  929MPD2     H13594   1.818   2.704  10.350 -0.3826  1.4353 -0.3500
  929MPD2    H113595   1.964   3.050  10.154 -1.1992 -0.2794 -0.1050
  929MPD2    H213596   2.213   2.844  10.434 -0.9970 -1.2850  0.8024
  929MPD2    H313597   2.180   3.029  10.265 -1.4367  2.9362  0.9658
  929MPD2     N13598   1.770   2.899  10.172  0.5325  0.0854 -0.0960
  929MPD2    H513599   1.747   2.988  10.128  2.4300  1.8961  2.5768
  929MPD2    N113600   2.037   2.668  10.510  0.1060 -0.3970 -0.3343
  929MPD2    H713601   2.121   2.682  10.566 -0.0293 -0.5985 -0.0777
  930MPD2     C13602   3.716   4.655  14.569 -0.5655 -0.4208 -1.0642
  930MPD2    C113603   3.752   0.043  14.479 -0.9502  0.6200  0.1501
  930MPD2    C213604   3.717   0.033  14.346 -0.3824 -0.5391  0.2598
  930MPD2    C313605   3.635   4.653  14.298  0.5294  0.2094 -0.1982
  930MPD2    C413606   3.607   4.548  14.379  0.1552 -0.8350 -0.9937
  930MPD2    C513607   3.640   4.553  14.508 -0.2229  0.1648 -0.2127
  930MPD2     H13608   3.755   0.107  14.277 -3.0577  0.1032 -0.5237
  930MPD2    H113609   3.554   4.458  14.350 -0.6055 -1.7447  3.2153
  930MPD2    H213610   3.730   4.664  14.676  2.1166 -1.0124 -1.3559
  930MPD2    H313611   3.619   4.463  14.566  0.2352  0.3135  0.1871
  930MPD2     N13612   3.589   4.658  14.162  0.6819 -0.4960 -0.2180
  930MPD2    H513613   3.552   4.575  14.116 -0.3916 -0.4280  0.5244
  930MPD2    N113614   3.827   0.153  14.517 -0.2616  0.2037  0.3306
  930MPD2    H713615   3.846   0.226  14.449 -1.2606 -2.1960 -2.4818
  931MPD2     C13616   3.651   3.770   0.721  0.6837 -0.3306  0.1393
  931MPD2    C113617   3.540   3.822   0.787  0.3183  1.1578 -0.0942
  931MPD2    C213618   3.507   3.771   0.907  0.0624  0.1484  0.3964
  931MPD2    C313619   3.578   3.663   0.960  0.6038  0.1006  0.4997
  931MPD2    C413620   3.689   3.614   0.889  0.5176  0.0651  0.6068
  931MPD2    C513621   3.727   3.665   0.769 -0.4029 -0.4490 -0.5349
  931MPD2     H13622   3.430   3.827   0.959 -1.6373 -3.7342  2.0500
  931MPD2    H113623   3.755   3.537   0.929  1.1338  0.8121  1.0343
  931MPD2    H213624   3.682   3.815   0.628 -1.0967 -0.0815 -0.3193
  931MPD2    H313625   3.815   3.626   0.719 -1.6630 -1.3130 -2.0682
  931MPD2     N13626   3.550   3.606   1.089 -0.2444  0.4141  0.3878
  931MPD2    H513627   3.592   3.519   1.120  0.4854  0.5501 -0.2058
  931MPD2    N113628   3.486   3.938   0.735  0.3107 -0.3469  0.4124
  931MPD2    H713629   3.531   3.967   0.648  0.5291 -0.4104  0.5050
  932MPD2     C13630   0.851   2.813  11.172 -0.2300  0.1321  0.2832
  932MPD2    C113631   0.901   2.915  11.249  0.1911  0.2783 -0.0362
  932MPD2    C213632   1.032   2.892  11.290 -0.2093  0.8018 -0.1894
  932MPD2    C313633   1.099   2.777  11.268  0.1273 -0.5154  0.5369
  932MPD2    C413634   1.038   2.675  11.200  1.2119 -0.7005 -1.2870
  932MPD2    C513635   0.918   2.693  11.143  0.9443 -0.6112 -0.3982
  932MPD2     H13636   1.076   2.976  11.342 -1.0303  0.4756  1.0308
  932MPD2    H113637   1.083   2.580  11.174  1.9113 -0.3909 -1.2035
  932MPD2    H213638   0.753   2.825  11.127 -0.3242 -1.1020  0.1556
  932MPD2    H313639   0.874   2.619  11.077  0.3702  0.8122 -1.6455
  932MPD2     N13640   1.236   2.760  11.306 -0.3264 -0.3618 -0.1975
  932MPD2    H513641   1.277   2.668  11.292 -0.4048 -0.7438  2.0539
  932MPD2    N113642   0.836   3.039  11.266  0.0387 -0.1244 -1.0654
  932MPD2    H713643   0.887   3.115  11.310  0.3876 -1.1518  0.2968
  933MPD2     C13644   0.488   3.413   0.656 -0.2585 -0.4178 -0.4919
  933MPD2    C113645   0.611   3.475   0.684  0.0155 -0.1864 -0.1095
  933MPD2    C213646   0.613   3.583   0.770 -0.5015  0.6211 -0.2174
  933MPD2    C313647   0.494   3.633   0.819 -0.4783 -0.3181  0.3906
  933MPD2    C413648   0.375   3.579   0.774  0.8166 -0.1899 -0.2366
  933MPD2    C513649   0.369   3.475   0.694 -0.0957  0.2874  0.8417
  933MPD2     H13650   0.708   3.634   0.781 -0.4534  0.2560  1.0658
  933MPD2    H113651   0.277   3.621   0.795  1.1773  0.7749 -0.4559
  933MPD2    H213652   0.492   3.325   0.593  3.8519 -0.4635 -0.1302
  933MPD2    H313653   0.271   3.439   0.664  0.7568 -0.5765 -0.9029
  933MPD2     N13654   0.503   3.741   0.909 -0.0929  0.3687  0.1129
  933MPD2    H513655   0.601   3.766   0.909  0.1977 -0.8317  1.6861
  933MPD2    N113656   0.735   3.421   0.646 -0.2895  0.4470 -0.0344
  933MPD2    H713657   0.817   3.463   0.689  1.0803 -2.5210  0.2621
  934MPD2     C13658   2.059   1.010   1.784  0.4668 -0.0308 -1.2262
  934MPD2    C113659   2.122   0.892   1.823 -0.7019 -0.5582  0.0036
  934MPD2    C213660   2.091   0.772   1.764 -0.4877 -0.5567 -0.6512
  934MPD2    C313661   1.993   0.761   1.665 -0.3855  0.2068  1.1217
  934MPD2    C413662   1.929   0.880   1.629  0.0377  0.1829 -0.3289
  934MPD2    C513663   1.975   1.003   1.680  0.0732 -0.0018  0.6942
  934MPD2     H13664   2.155   0.687   1.782 -0.4947 -0.0910  1.5273
  934MPD2    H113665   1.857   0.887   1.547  0.1775  1.2252 -0.3630
  934MPD2    H213666   2.075   1.102   1.839  1.4619 -0.1217 -1.3694
  934MPD2    H313667   1.943   1.098   1.639 -0.8157 -0.2037  0.9197
  934MPD2     N13668   1.969   0.646   1.590 -0.1788 -0.1644  0.1849
  934MPD2    H513669   1.924   0.647   1.499 -0.2903 -1.1292  0.2346
  934MPD2    N113670   2.211   0.888   1.931 -0.3640  0.1035  0.2242
  934MPD2    H713671   2.226   0.792   1.962 -2.7474 -1.5315 -3.6688
  935MPD2     C13672   2.320   4.414   1.665  0.4403  0.6203  0.0657
  935MPD2    C113673   2.322   4.448   1.526  0.0783  0.0612  0.2349
  935MPD2    C213674   2.270   4.567   1.488  0.3926  0.0394  0.1685
  935MPD2    C313675   2.199   4.648   1.573 -0.7659 -0.2995  0.1270
  935MPD2    C413676   2.177   4.604   1.702  0.2019 -0.9690 -0.3514
  935MPD2    C513677   2.242   4.489   1.749  0.0084  0.3717 -0.1157
  935MPD2     H13678   2.284   4.590   1.383 -1.5734  1.2987  0.1812
  935MPD2    H113679   2.108   4.660   1.764  1.1093 -0.5084  0.2617
  935MPD2    H213680   2.368   4.330   1.714  0.3200  0.4202 -0.1573
  935MPD2    H313681   2.224   4.446   1.847 -0.1256  1.0789  0.1712
  935MPD2     N13682   2.137   0.046   1.539  0.5160  0.1314  0.2339
  935MPD2    H513683   2.088   0.092   1.615  0.5849 -0.7422  0.8016
  935MPD2    N113684   2.402   4.373   1.436 -0.1161 -0.0395 -0.1835
  935MPD2    H713685   2.412   4.412   1.343  4.3481 -0.8055 -0.0176
  936MPD2     C13686   0.781   2.026  12.288  0.4278 -0.2286  0.0323
  936MPD2    C113687   0.841   1.940  12.381 -0.0610  0.2290  0.7152
  936MPD2    C213688   0.974   1.960  12.422 -0.7280  0.3955 -0.4723
  936MPD2    C313689   1.057   2.041  12.345 -0.6123  0.1812 -0.0601
  936MPD2    C413690   0.999   2.121  12.250  0.6357 -0.4903  0.2342
  936MPD2    C513691   0.864   2.119  12.228  0.0712  0.1638 -0.4244
  936MPD2     H13692   1.011   1.907  12.509 -0.9610  2.7230  1.0339
  936MPD2    H113693   1.049   2.189  12.183  0.5446  0.7069  1.3691
  936MPD2    H213694   0.674   2.032  12.280  0.3880 -2.0083 -0.7940
  936MPD2    H313695   0.816   2.189  12.160  0.6278 -1.7351 -2.7718
  936MPD2     N13696   1.193   2.066  12.376 -0.2605  0.3973  0.0666
  936MPD2    H513697   1.236   2.132  12.312 -1.5089  1.4598  0.3180
  936MPD2    N113698   0.767   1.852  12.466 -0.1604 -0.0584  0.2384
  936MPD2    H713699   0.815   1.804  12.542 -3.4232 -2.8506  0.5542
  937MPD2     C13700   3.767   3.343  11.435 -0.0430  0.5500 -0.2459
  937MPD2    C113701   3.811   3.476  11.418  0.5524  0.2530 -0.5518
  937MPD2    C213702   3.896   3.493  11.313 -0.1705  0.3443  0.1540
  937MPD2    C313703   3.947   3.392  11.239  0.4031 -0.1526 -0.8971
  937MPD2    C413704   3.906   3.264  11.266 -0.1064  0.2482 -0.9366
  937MPD2    C513705   3.815   3.233  11.363 -0.1657 -0.7956 -0.1248
  937MPD2     H13706   3.934   3.594  11.301  1.1072 -0.4127 -2.1542
  937MPD2    H113707   3.958   3.182  11.218 -0.8524  0.1104 -1.5125
  937MPD2    H213708   3.698   3.328  11.517  0.8938  2.9294  0.9810
  937MPD2    H313709   3.782   3.133  11.386 -1.8008 -0.3143 -0.3478
  937MPD2     N13710   4.038   3.423  11.138  0.4069 -0.2123 -0.0728
  937MPD2    H513711   4.073   3.518  11.138  0.0465 -0.0777 -0.2204
  937MPD2    N113712   3.737   3.593  11.462  0.5092 -0.0279 -0.1112
  937MPD2    H713713   3.771   3.682  11.425  2.0471  0.5547  2.6713
  938MPD2     C13714   1.731   4.499   0.604 -0.7255  0.2659 -0.0291
  938MPD2    C113715   1.751   4.598   0.703  0.3337 -0.1561  0.2933
  938MPD2    C213716   1.722   4.570   0.836  0.1737 -0.0232  0.4032
  938MPD2    C313717   1.670   4.450   0.873  0.0333  0.2384  0.0480
  938MPD2    C413718   1.642   4.351   0.776  0.0753  0.3833  0.7443
  938MPD2    C513719   1.681   4.373   0.648  0.0226  0.1666  0.2442
  938MPD2     H13720   1.749   4.645   0.909  0.5716 -0.5091  0.7604
  938MPD2    H113721   1.608   4.253   0.807  0.9411 -0.1487 -0.0044
  938MPD2    H213722   1.758   4.507   0.500  2.8505 -2.0375  0.7279
  938MPD2    H313723   1.672   4.297   0.571  2.6976  1.8877 -1.7322
  938MPD2     N13724   1.627   4.422   1.005  0.4798  0.3518  0.3769
  938MPD2    H513725   1.603   4.326   1.031 -3.4777  1.0816 -0.5128
  938MPD2    N113726   1.796   0.008   0.672  0.0702  0.6941  0.0857
  938MPD2    H713727   1.802   0.069   0.753  0.6881  1.2092 -0.3511
  939MPD2     C13728   2.557   1.270   1.081  0.1119  0.6220  0.3148
  939MPD2    C113729   2.657   1.363   1.065  0.0425  0.0732 -0.4082
  939MPD2    C213730   2.716   1.373   0.945  0.3732  0.5027 -0.0904
  939MPD2    C313731   2.687   1.295   0.836  0.3833  0.4015 -0.2284
  939MPD2    C413732   2.586   1.206   0.857 -0.1264  0.6630 -0.2616
  939MPD2    C513733   2.517   1.193   0.976  0.1240  0.6790  0.1766
  939MPD2     H13734   2.792   1.450   0.933 -0.4312  1.2174 -0.6856
  939MPD2    H113735   2.544   1.159   0.768 -0.4008  2.7647 -1.2417
  939MPD2    H213736   2.512   1.263   1.179  0.8484  1.4635  0.7142
  939MPD2    H313737   2.436   1.121   0.975 -0.0859  0.9010  1.2328
  939MPD2     N13738   2.767   1.302   0.722 -0.5087  0.5839 -0.2128
  939MPD2    H513739   2.842   1.370   0.717 -0.9305  1.1869  1.5819
  939MPD2    N113740   2.683   1.446   1.176 -0.3594 -0.6068  0.4219
  939MPD2    H713741   2.633   1.439   1.264  2.1796  0.5278  1.9918
  940MPD2     C13742   1.916   1.737  12.991 -0.2613  0.4917  0.7959
  940MPD2    C113743   1.830   1.674  12.900  0.0297  0.0663  0.2251
  940MPD2    C213744   1.880   1.627  12.780 -0.7639  0.1118  0.2842
  940MPD2    C313745   2.014   1.624  12.754  0.4451  0.5151  0.5097
  940MPD2    C413746   2.101   1.678  12.842 -0.1644 -0.2520  0.3940
  940MPD2    C513747   2.047   1.743  12.954  0.2417 -0.3077  0.2784
  940MPD2     H13748   1.810   1.568  12.720 -1.4424  0.1928  0.9967
  940MPD2    H113749   2.208   1.682  12.827  0.1594 -0.0445  2.6813
  940MPD2    H213750   1.899   1.782  13.088  2.7958 -0.3079  1.7078
  940MPD2    H313751   2.115   1.802  13.014  0.0256 -0.6281  0.8375
  940MPD2     N13752   2.064   1.563  12.636  0.5413  0.0012 -0.2209
  940MPD2    H513753   2.165   1.568  12.629  0.3803  1.7435 -1.4957
  940MPD2    N113754   1.694   1.656  12.921  0.1746  0.7510 -0.2419
  940MPD2    H713755   1.646   1.592  12.858  1.1930  0.9662 -1.2179
  941MPD2     C13756   1.065   1.358   9.410 -0.7324 -0.6298  0.2129
  941MPD2    C113757   1.144   1.284   9.497  0.2043 -0.0019 -0.4247
  941MPD2    C213758   1.120   1.150   9.505  0.3756 -0.7829 -0.8316
  941MPD2    C313759   1.018   1.089   9.432 -0.7431 -0.4123  0.2925
  941MPD2    C413760   0.942   1.161   9.345  0.3350  0.3933 -0.2834
  941MPD2    C513761   0.970   1.295   9.338 -0.5281  0.6292 -0.2743
  941MPD2     H13762   1.174   1.097   9.583 -1.2715  0.7846  1.3691
  941MPD2    H113763   0.861   1.122   9.285 -1.6201  2.5135  1.0005
  941MPD2    H213764   1.070   1.465   9.396 -1.2341 -0.9907 -2.8332
  941MPD2    H313765   0.905   1.348   9.269 -1.0153 -2.5265 -2.2802
  941MPD2     N13766   0.985   0.950   9.454  0.2714  0.6934 -0.8388
  941MPD2    H513767   0.911   0.912   9.397  0.6082 -0.7104 -0.3339
  941MPD2    N113768   1.221   1.352   9.597 -0.6969 -0.3043 -0.2746
  941MPD2    H713769   1.269   1.291   9.662 -1.1577  0.4592  0.7639
  942MPD2     C13770   0.790   2.786   9.194  0.0895 -0.1192  0.5345
  942MPD2    C113771   0.839   2.871   9.294  0.2419 -0.4008  0.5821
  942MPD2    C213772   0.969   2.922   9.289 -0.0329 -0.7180  0.3237
  942MPD2    C313773   1.041   2.904   9.176  0.2948  0.8443 -1.0648
  942MPD2    C413774   0.983   2.838   9.075 -0.0523 -0.3871  0.3512
  942MPD2    C513775   0.860   2.772   9.080  0.4962  0.1876 -0.1792
  942MPD2     H13776   1.015   2.970   9.374 -1.3794 -0.1917  0.7663
  942MPD2    H113777   1.031   2.835   8.979  0.8556  1.3273  0.7548
  942MPD2    H213778   0.687   2.752   9.204  0.5196 -1.4276  0.5452
  942MPD2    H313779   0.833   2.717   8.990  1.3102  1.0209 -0.9271
  942MPD2     N13780   1.178   2.943   9.164  0.2810  0.3756 -0.0754
  942MPD2    H513781   1.228   2.896   9.090  0.8508 -0.7368  1.0297
  942MPD2    N113782   0.771   2.902   9.414 -0.6449 -0.0467 -0.3861
  942MPD2    H713783   0.801   2.974   9.479 -2.2332  1.7660 -1.6637
  943MPD2     C13784   4.537   1.339   9.340  0.1033  0.5028 -0.1670
  943MPD2    C113785   4.438   1.280   9.413  0.4451  0.0258  0.1635
  943MPD2    C213786   4.459   1.226   9.538  0.2120  0.1424  0.5320
  943MPD2    C313787   4.587   1.227   9.588  0.8419  0.2004  0.4735
  943MPD2    C413788   4.691   1.283   9.511  0.5791 -0.1252 -0.7816
  943MPD2    C513789   4.660   1.330   9.387 -0.0305  0.0730  0.4653
  943MPD2     H13790   4.375   1.177   9.585  0.8157  0.1370  1.5978
  943MPD2    H113791   0.074   1.295   9.541 -0.1635  0.6909  1.3620
  943MPD2    H213792   4.517   1.389   9.246  1.2892  0.7130 -0.2989
  943MPD2    H313793   0.020   1.373   9.328 -0.7772  0.6194 -0.1566
  943MPD2     N13794   4.620   1.178   9.715 -0.2107  0.3866 -0.1476
  943MPD2    H513795   4.714   1.192   9.752 -0.2298 -0.8955  0.3834
  943MPD2    N113796   4.313   1.287   9.348 -0.9671 -0.4466  0.2935
  943MPD2    H713797   4.297   1.332   9.258  0.3780  0.3587  0.4688
  944MPD2     C13798   0.131   4.309  11.445  0.5529 -0.5013  0.8569
  944MPD2    C113799   0.155   4.428  11.392 -0.3315 -0.0077  0.0495
  944MPD2    C213800   0.079   4.537  11.441  0.2773 -0.6049  0.2109
  944MPD2    C313801   4.693   4.530  11.525 -0.1374  0.2246 -0.2057
  944MPD2    C413802   4.675   4.407  11.585 -0.1927  0.1874  0.1182
  944MPD2    C513803   0.034   4.301  11.546 -0.7326 -0.3682 -0.3449
  944MPD2     H13804   0.097   4.634  11.398  0.9163  0.1602  2.1865
  944MPD2    H113805   4.602   4.385  11.662 -0.2672  2.2001  0.6237
  944MPD2    H213806   0.176   4.216  11.410  1.0190  0.0592 -0.0306
  944MPD2    H313807   0.028   4.200  11.584 -0.1500 -0.1495  0.3280
  944MPD2     N13808   4.632   4.647  11.566  0.5257  0.1640  0.1290
  944MPD2    H513809   4.665   0.006  11.513 -0.8012  0.2262 -0.6191
  944MPD2    N113810   0.252   4.452  11.289  0.1417  0.1109  0.0096
  944MPD2    H713811   0.263   4.550  11.264  1.7552 -0.6901 -2.4789
    1TCq1    O113812   1.618   0.421  14.731  0.3965 -0.0996 -0.5527
    1TCq1    C113813   1.732   0.474  14.776  0.7518 -0.0560 -0.1771
    1TCq1    O213814   1.747   0.524  14.888  0.1655  0.5269  0.2801
    1TCq1    C213815   1.812   0.522  14.667 -0.4496  0.2739 -0.2029
    1TCq1    C313816   1.771   0.541  14.539  0.3113 -0.0597 -0.8155
    1TCq1    C413817   1.865   0.600  14.450  0.1578  0.7074  0.3472
    1TCq1    C513818   1.987   0.656  14.487 -0.4110 -0.0424  0.1714
    1TCq1    C613819   2.021   0.633  14.619 -0.0584  0.2092 -0.1269
    1TCq1    C713820   1.942   0.561  14.701 -0.6002  0.3171  0.2660
    1TCq1    C813821   2.124   0.710  14.685  0.4919 -0.3761 -0.2980
    1TCq1    O413822   2.143   0.693  14.808  1.0009  0.5434 -0.1346
    1TCq1    C913823   1.813   0.649  14.334  0.3998  0.2770  0.2488
    1TCq1    O513824   1.700   0.606  14.292 -0.2455 -0.0736 -0.5536
    1TCq1    O613825   1.865   0.748  14.279 -0.1035  0.2962  0.8088
    1TCq1    H113826   1.643   0.366  14.654 -2.1263 -1.1597 -0.5828
    1TCq1    H213827   1.667   0.519  14.520  0.4100 -1.4427  0.2996
    1TCq1    H313828   2.061   0.706  14.425  0.1485  0.5031  1.2744
    1TCq1    H413829   1.976   0.530  14.799  0.2582 -1.1468 -0.4777
    2MPD2     C13830   2.341   1.168  14.748  0.8919  0.1763  0.2423
    2MPD2    C113831   2.276   1.161  14.625 -0.2434 -0.5952  0.2867
    2MPD2    C213832   2.219   1.043  14.581  0.2065 -0.4490  0.0907
    2MPD2    C313833   2.227   0.929  14.652  0.0851 -0.2694 -0.3319
    2MPD2    C413834   2.303   0.932  14.765  0.1302  0.6492  0.4828
    2MPD2    C513835   2.364   1.048  14.808  0.5444 -0.2979  0.4969
    2MPD2     H13836   2.173   1.040  14.483 -2.8996  0.1569  1.5523
    2MPD2    H113837   2.323   0.843  14.825  0.3699  0.1680 -0.3209
    2MPD2    H213838   2.399   1.253  14.780 -0.8184  1.3043  0.3475
    2MPD2    H313839   2.415   1.056  14.904  0.7545  0.5739  0.3171
    2MPD2     N13840   2.152   0.817  14.613  0.1899  0.4519  0.3046
    2MPD2    H513841   2.095   0.832  14.530  0.7193 -1.4687 -0.4115
    2MPD2    N113842   2.274   1.279  14.553  0.3144 -0.5441 -1.1285
    2MPD2    H713843   2.336   1.350  14.590  0.3039 -0.4456 -1.2962
    3TMC2    C113844   2.240   1.443  14.385  0.5901 -0.6158  0.8298
    3TMC2    C213845   2.256   1.543  14.478 -0.0764  0.3720 -0.3304
    3TMC2    C313846   2.337   1.650  14.436 -0.3398 -0.5405 -0.6111
    3TMC2    C413847   2.286   1.453  14.259 -0.1738  0.5374  0.1670
    3TMC2    C513848   2.357   1.565  14.219  0.0387  0.1776  0.5055
    3TMC2    C613849   2.376   1.663  14.308  0.1528  0.6233 -0.3190
    3TMC2     C13850   2.218   1.305  14.426 -0.2047  0.0983 -0.4739
    3TMC2     O13851   2.169   1.229  14.340  0.6503  0.2193  0.0903
    3TMC2     H13852   2.220   1.528  14.579  1.2748 -0.1829  0.0722
    3TMC2    H113853   2.262   1.382  14.181 -1.1946  0.4793  0.5344
    3TMC2    H213854   2.441   1.746  14.283 -1.3365  1.6276 -0.8742
    3TMC2    C713855   2.413   1.569  14.080 -0.9014 -0.0067  0.1125
    3TMC2    C813856   2.350   1.760  14.526  0.3672  0.4141 -0.6877
    3TMC2    O113857   2.462   1.471  14.032 -1.2248 -0.0371  0.6534
    3TMC2    O213858   2.387   1.874  14.490  0.4289 -0.0204 -0.5069
    3TMC2    O513859   2.372   1.705  14.648  0.4470 -0.0765  0.6430
    3TMC2    H513860   2.382   1.607  14.650  0.1023 -0.2145 -4.2047
    4MPD2     C13861   1.279   2.562  13.685  0.0586 -0.0741  0.2088
    4MPD2    C113862   1.304   2.527  13.554 -0.0882 -0.0272  0.0987
    4MPD2    C213863   1.439   2.488  13.532  0.0457 -0.2848  0.2293
    4MPD2    C313864   1.534   2.464  13.630  0.0405  0.3483  0.1038
    4MPD2    C413865   1.490   2.481  13.759  0.5005 -0.6030  0.8959
    4MPD2    C513866   1.362   2.518  13.783 -0.4317 -0.2662  0.5314
    4MPD2     H13867   1.469   2.456  13.433  0.4438  1.4979 -0.2242
    4MPD2    H113868   1.539   2.462  13.853  0.0608 -2.9966  0.6536
    4MPD2    H213869   1.178   2.586  13.715 -0.7985 -0.9488 -1.9811
    4MPD2    H313870   1.328   2.540  13.884  1.2315 -0.9563  1.2496
    4MPD2     N13871   1.662   2.416  13.594  0.3926 -0.2654 -0.8199
    4MPD2    H513872   1.670   2.401  13.494  1.1118 -0.8400 -0.6761
    4MPD2    N113873   1.201   2.551  13.454  0.1813  0.3354 -0.7216
    4MPD2    H713874   1.117   2.600  13.483  0.3229 -0.3549  0.8774
    5TCq2    C113875   1.759   2.373  13.689 -0.0967 -0.0318 -0.0664
    5TCq2    O213876   1.743   2.354  13.809  0.3880 -0.1005 -0.1480
    5TCq2    C213877   1.873   2.304  13.634 -1.0331  0.8707  0.1981
    5TCq2    C313878   1.922   2.356  13.523  0.2650 -0.3010  0.3076
    5TCq2    C413879   2.038   2.309  13.479  0.0998 -0.5865  0.4106
    5TCq2    C513880   2.116   2.218  13.545  0.5520 -0.5439  0.2988
    5TCq2    C613881   2.063   2.159  13.663 -0.7734  0.2931  0.3301
    5TCq2    C713882   1.941   2.209  13.712 -0.5165 -0.2449  0.1447
    5TCq2    C813883   2.140   2.060  13.736 -0.8974 -0.0250 -0.3004
    5TCq2    O413884   2.083   2.032  13.840 -0.2413  0.9350 -0.1621
    5TCq2    C913885   2.096   2.365  13.359  0.1061 -0.0369 -0.1213
    5TCq2    O513886   2.218   2.352  13.330  0.6318  0.0787  0.2542
    5TCq2    O613887   2.020   2.448  13.298  0.2156 -0.2110  0.4468
    5TCq2    H213888   1.867   2.432  13.468 -0.7341  1.0081  3.1303
    5TCq2    H313889   2.210   2.189  13.499  1.2766 -0.0177  1.4466
    5TCq2    H413890   1.891   2.169  13.800 -1.2244  1.2246  0.4223
    6MPD1     C13891   0.421   4.200  13.366 -0.1717 -0.4372  0.3934
    6MPD1    C113892   0.543   4.194  13.309  0.1685  0.1360 -0.0367
    6MPD1    C213893   0.604   4.070  13.295 -0.0558 -0.1792 -0.0601
    6MPD1    C313894   0.538   3.954  13.346  0.6805 -0.5674  0.4898
    6MPD1    C413895   0.408   3.968  13.395  0.1670 -0.7503  0.5127
    6MPD1    C513896   0.343   4.087  13.399  0.4527  0.2216  0.3559
    6MPD1     H13897   0.707   4.062  13.262  0.1990  0.6190  0.5354
    6MPD1    H113898   0.345   3.882  13.413 -2.0574  0.7717 -0.0399
    6MPD1    H213899   0.379   4.298  13.387  0.3752 -0.2670  0.7018
    6MPD1    H313900   0.249   4.090  13.454 -0.1144 -1.7642 -0.5072
    6MPD1     N13901   0.591   3.822  13.334  0.2550  0.0426 -0.0338
    6MPD1    H513902   0.536   3.749  13.378  0.7731  0.6980  1.7380
    6MPD1    N113903   0.621   4.310  13.293  0.0619 -0.4629 -0.5012
    6MPD1    H613904   0.581   4.397  13.257 -2.4559 -1.2024  0.4825
    6MPD1    H713905   0.699   4.294  13.229 -1.2476  0.7574 -2.4278
    7MPD2     C13906   0.410   3.064  13.227 -0.5769  0.0682 -0.1031
    7MPD2    C113907   0.532   3.068  13.291  0.4588 -0.5909  0.3418
    7MPD2    C213908   0.607   2.955  13.291 -0.6984  0.7137 -0.5963
    7MPD2    C313909   0.569   2.846  13.213  0.2932  0.3375 -0.5374
    7MPD2    C413910   0.452   2.848  13.142  0.3601 -0.3873 -0.3018
    7MPD2    C513911   0.360   2.946  13.163  0.2011  1.0548  0.2359
    7MPD2     H13912   0.690   2.953  13.361 -0.5592 -0.9200 -0.8012
    7MPD2    H113913   0.427   2.764  13.079  3.2214 -1.4205 -0.0610
    7MPD2    H213914   0.348   3.151  13.207 -0.1494  0.2380 -0.6792
    7MPD2    H313915   0.265   2.957  13.111  0.7108 -0.5367 -1.0309
    7MPD2     N13916   0.650   2.730  13.205 -0.3571  0.4319 -0.1915
    7MPD2    H513917   0.631   2.658  13.136  0.2455  2.7770 -2.8234
    7MPD2    N113918   0.598   3.189  13.336  0.3203  0.5783 -0.1899
    7MPD2    H713919   0.694   3.187  13.369 -0.1260  0.0957  1.0796
    8TMC3    C113920   0.863   2.617  13.219 -0.2065  0.2563  0.9061
    8TMC3    C213921   0.965   2.579  13.305  0.0235 -0.2459  0.1522
    8TMC3    C313922   1.088   2.549  13.244  0.4024  0.1806 -0.2340
    8TMC3    C413923   0.884   2.634  13.080 -0.8304 -0.3123  0.4514
    8TMC3    C513924   1.008   2.607  13.028  0.3189 -0.4665 -0.1909
    8TMC3    C613925   1.108   2.564  13.111 -0.0613  0.0591 -0.3413
    8TMC3     C13926   0.763   2.706  13.280  0.1177 -0.2832  0.3959
    8TMC3     O13927   0.800   2.755  13.384  0.0460  0.1065 -0.5025
    8TMC3     H13928   0.956   2.592  13.412  0.7134 -1.9324  0.4019
    8TMC3    H113929   0.813   2.672  13.008  2.7663  0.7793 -2.4688
    8TMC3    H213930   1.207   2.559  13.067 -0.8508  0.4090 -2.1782
    8TMC3    C713931   1.048   2.711  12.940 -0.0238 -0.5238 -0.3735
    8TMC3    C813932   1.210   2.513  13.324  0.4107 -0.3215 -0.2152
    8TMC3    O113933   1.137   2.689  12.858 -0.1915 -0.8248  0.1151
    8TMC3    O213934   1.307   2.468  13.267 -0.1053  0.3782  0.7295
    9TMC3    C113935   0.714   3.638  13.238  0.4423 -0.2224 -0.3412
    9TMC3    C213936   0.830   3.599  13.172  0.3077 -0.8216 -0.4856
    9TMC3    C313937   0.848   3.461  13.164 -0.5725  0.7450  0.2518
    9TMC3    C413938   0.631   3.549  13.309  0.9415  0.4370  0.1906
    9TMC3    C513939   0.656   3.417  13.297 -0.1944  0.0146 -0.8166
    9TMC3    C613940   0.764   3.378  13.223  0.3084 -0.7277  0.1513
    9TMC3     C13941   0.695   3.781  13.253 -0.0041  0.6038 -0.5666
    9TMC3     O13942   0.772   3.854  13.187 -0.3142 -0.5750 -0.4687
    9TMC3     H13943   0.891   3.673  13.122 -1.3458  1.1255  0.3828
    9TMC3    H113944   0.543   3.584  13.363 -0.3221 -1.0104 -0.9161
    9TMC3    H213945   0.758   3.275  13.189  2.7672 -0.8585  0.1073
    9TMC3    C713946   0.546   3.317  13.320 -0.2727 -0.0550 -0.4665
    9TMC3    C813947   0.938   3.411  13.062  0.1685 -0.7457 -0.3401
    9TMC3    O113948   0.435   3.359  13.302  0.3265  0.2265  0.2693
    9TMC3    O213949   0.968   3.491  12.973  0.7709 -0.3484  0.2570
   10MPD2     C13950   1.088   2.992  12.822 -0.4376  0.0117 -0.5347
   10MPD2    C113951   1.038   2.958  12.945 -0.8038 -0.3038 -0.2965
   10MPD2    C213952   1.008   3.061  13.030 -0.0741 -0.4465 -0.2360
   10MPD2    C313953   1.026   3.192  13.001  0.3188 -0.5283  0.0819
   10MPD2    C413954   1.099   3.224  12.888 -0.2130  0.3937  0.0552
   10MPD2    C513955   1.128   3.126  12.798 -0.1041  0.2421 -0.2226
   10MPD2     H13956   0.954   3.047  13.123  0.6623 -0.5399  0.1731
   10MPD2    H113957   1.142   3.323  12.875 -1.3806  0.9456  0.3938
   10MPD2    H213958   1.117   2.917  12.750  2.0265  0.0004  0.4580
   10MPD2    H313959   1.194   3.149  12.715  0.8715 -0.8143  0.2572
   10MPD2     N13960   0.965   3.282  13.087 -1.3728  0.4770  0.2546
   10MPD2    H513961   0.922   3.234  13.166  0.8705  0.8527  1.7119
   10MPD2    N113962   1.006   2.830  12.989 -0.1850  0.2817 -0.7502
   10MPD2    H713963   0.947   2.827  13.072  1.0482  1.4337  0.1736
   11MPD2     C13964   2.448   1.660  13.778 -0.1485  0.3788  0.6196
   11MPD2    C113965   2.391   1.734  13.884 -1.0661 -0.3312 -0.1484
   11MPD2    C213966   2.323   1.852  13.851 -0.5919  0.5239 -0.2162
   11MPD2    C313967   2.306   1.890  13.718 -0.2102 -0.2444 -0.5712
   11MPD2    C413968   2.358   1.816  13.609 -0.0527 -0.2056 -0.1967
   11MPD2    C513969   2.433   1.706  13.647 -0.0973 -0.0117 -0.2118
   11MPD2     H13970   2.276   1.907  13.931 -0.8916  2.4281 -1.6984
   11MPD2    H113971   2.345   1.849  13.507 -1.5185  0.6787  0.2738
   11MPD2    H213972   2.513   1.575  13.798  0.9987  1.3251  0.9032
   11MPD2    H313973   2.491   1.653  13.573  1.9487  1.8218  0.1061
   11MPD2     N13974   2.245   2.007  13.675 -0.0160 -0.1161  0.2053
   11MPD2    H513975   2.272   2.047  13.586 -0.0362  0.1302  0.3090
   11MPD2    N113976   2.380   1.691  14.020  0.2315  0.0898  0.4980
   11MPD2    H713977   2.329   1.754  14.081  0.1680  1.6452 -1.1715
    1MPD1     C13978   1.871   4.070  17.231  0.4170  0.0152 -0.2784
    1MPD1    C113979   1.953   3.977  17.172  0.3326  0.3040  0.4229
    1MPD1    C213980   1.903   3.863  17.118  0.9044  0.2956 -0.1369
    1MPD1    C313981   1.771   3.854  17.089 -0.1268 -0.6389 -0.0035
    1MPD1    C413982   1.690   3.950  17.141  0.7494 -0.3350  0.4493
    1MPD1    C513983   1.734   4.061  17.214 -0.5574  0.2615 -0.4393
    1MPD1     H13984   1.977   3.798  17.074 -0.4089 -1.4574  0.2245
    1MPD1    H113985   1.582   3.945  17.125  0.5818 -2.7636  2.4019
    1MPD1    H213986   1.914   4.156  17.282 -1.9941  0.2422  1.3934
    1MPD1    H313987   1.673   4.142  17.252 -1.2730 -1.1372  1.4092
    1MPD1     N13988   1.713   3.752  17.013 -0.5608 -0.8349  0.7000
    1MPD1    H513989   1.616   3.768  16.989  0.3067 -0.5040 -2.6215
    1MPD1    N113990   2.097   3.974  17.194 -0.2922  0.3980  0.3091
    1MPD1    H613991   2.146   3.948  17.109 -1.2520  0.2587 -0.1979
    1MPD1    H713992   2.130   4.066  17.224  3.2369  0.2130 -2.9322
    2MPD1     C13993   1.691   2.842  16.368 -0.2950  0.1477 -1.0864
    2MPD1    C113994   1.579   2.918  16.334  1.2135  0.2072  0.3781
    2MPD1    C213995   1.576   3.045  16.399  0.6403 -0.3073 -0.4268
    2MPD1    C313996   1.668   3.095  16.490 -0.3721 -0.3844  0.2130
    2MPD1    C413997   1.784   3.018  16.502  0.0063 -0.5791  0.8876
    2MPD1    C513998   1.790   2.895  16.441 -0.1792 -0.5954  0.0936
    2MPD1     H13999   1.490   3.109  16.379  0.9035 -0.1331 -1.0050
    2MPD1    H114000   1.865   3.039  16.571 -0.3101 -1.5614  1.5543
    2MPD1    H214001   1.715   2.746  16.324  0.6694  0.5566 -1.4382
    2MPD1    H314002   1.880   2.837  16.452  0.8860  0.7834 -1.3410
    2MPD1     N14003   1.645   3.220  16.562  0.1916 -0.9031 -0.1949
    2MPD1    H514004   1.553   3.262  16.567 -0.0897 -1.7157  1.2200
    2MPD1    N114005   1.475   2.873  16.246 -0.4307 -0.6027 -0.1370
    2MPD1    H614006   1.427   2.948  16.198  0.8114 -0.4272 -1.0966
    2MPD1    H714007   1.512   2.811  16.175 -0.9551 -0.8513 -0.1961
    3TMC3    C114008   1.677   3.406  16.694  0.7296  0.2280 -0.5027
    3TMC3    C214009   1.554   3.445  16.663  0.7858  0.3969  0.1424
    3TMC3    C314010   1.494   3.537  16.746 -0.6084  0.0315 -0.3077
    3TMC3    C414011   1.755   3.458  16.800  0.6040  0.8869 -0.3251
    3TMC3    C514012   1.693   3.562  16.873 -0.0715  0.0813 -0.3397
    3TMC3    C614013   1.562   3.596  16.848  0.2687 -0.7208  0.0173
    3TMC3     C14014   1.737   3.286  16.638  0.1963 -0.2726  0.8093
    3TMC3     O14015   1.857   3.283  16.644  0.0213 -0.0416  0.0727
    3TMC3     H14016   1.498   3.405  16.579  1.1901 -0.5680  0.3382
    3TMC3    H114017   1.853   3.418  16.823  0.7953  0.2714 -2.2101
    3TMC3    H214018   1.515   3.647  16.931  1.6594 -0.4945  0.6509
    3TMC3    C714019   1.772   3.633  16.974  0.7966 -0.7165  0.3247
    3TMC3    C814020   1.345   3.559  16.750 -0.4569 -0.0662  0.7861
    3TMC3    O114021   1.882   3.585  16.984  0.0321  0.1912  0.1755
    3TMC3    O214022   1.306   3.657  16.813  0.6955  0.6052 -0.2180
    4MPD1     C14023   0.873   3.437  16.615  0.4779  0.2178  0.5036
    4MPD1    C114024   0.956   3.336  16.576  0.3394  0.2889 -0.0385
    4MPD1    C214025   1.088   3.362  16.579 -0.0350 -0.0860 -0.0049
    4MPD1    C314026   1.140   3.467  16.650  0.0337  0.4941 -0.2813
    4MPD1    C414027   1.057   3.563  16.708  0.3747 -0.3426 -0.3129
    4MPD1    C514028   0.927   3.548  16.690 -0.2603  0.0500  0.5492
    4MPD1     H14029   1.156   3.301  16.522 -0.7493 -2.3747  1.6017
    4MPD1    H114030   1.089   3.641  16.775 -1.6556  0.6616 -0.4931
    4MPD1    H214031   0.766   3.420  16.612  0.4785  0.1672  0.7420
    4MPD1    H314032   0.854   3.621  16.726 -0.4251  1.0507 -1.8055
    4MPD1     N14033   1.278   3.470  16.673 -0.0714 -0.1236 -0.0415
    4MPD1    H514034   1.328   3.388  16.641 -0.7906 -0.9939  1.0567
    4MPD1    N114035   0.922   3.218  16.507 -0.6973  0.0715 -0.0622
    4MPD1    H614036   0.829   3.187  16.536 -0.8239  1.1034  0.6220
    4MPD1    H714037   0.980   3.136  16.521  1.5426  1.7844  0.6344
    1TCq1    O114038   0.921   3.119  10.939  0.1080 -0.0283 -0.1252
    1TCq1    C114039   0.987   3.225  10.894  0.0121  0.2851  0.5364
    1TCq1    O214040   0.949   3.296  10.803  0.6680 -0.2515 -0.1095
    1TCq1    C214041   1.082   3.268  10.994 -0.1065 -0.2553  0.6675
    1TCq1    C314042   1.071   3.233  11.124 -0.2331  0.2953 -0.2119
    1TCq1    C414043   1.155   3.286  11.222  1.0168 -0.4448  0.2703
    1TCq1    C514044   1.232   3.400  11.186  0.2393 -0.1755 -0.8941
    1TCq1    C614045   1.222   3.455  11.058 -0.5739 -1.6718  0.2545
    1TCq1    C714046   1.148   3.383  10.963 -0.0655  0.1891 -0.0141
    1TCq1    C814047   1.297   3.582  11.040  0.6456  0.3742 -0.1657
    1TCq1    O414048   1.371   3.613  11.129 -0.3141  0.5419 -0.6260
    1TCq1    C914049   1.124   3.260  11.361 -0.1643  0.8302  0.0039
    1TCq1    O514050   1.198   3.312  11.445 -0.1847 -0.5410  0.8271
    1TCq1    O614051   1.012   3.214  11.393 -0.2727 -0.4069 -0.5341
    1TCq1    H114052   0.974   3.057  10.993  2.3071 -0.1289 -2.3838
    1TCq1    H214053   1.003   3.154  11.155  0.2574  0.7162  1.9604
    1TCq1    H314054   1.286   3.446  11.268 -2.3219 -0.6893  1.0886
    1TCq1    H414055   1.158   3.410  10.858 -1.4783 -3.7601 -1.1783
    2MPD1     C14056   1.411   3.984  10.738 -0.2209  0.7184 -0.1522
    2MPD1    C114057   1.286   3.933  10.709 -0.8638  0.3224  0.5493
    2MPD1    C214058   1.242   3.818  10.769  0.1980  0.3732 -0.4961
    2MPD1    C314059   1.303   3.767  10.882 -0.7562 -0.5109  0.5224
    2MPD1    C414060   1.415   3.830  10.930  0.1055 -0.5742  0.0905
    2MPD1    C514061   1.472   3.928  10.847 -0.0428 -0.7344  0.6820
    2MPD1     H14062   1.148   3.772  10.742 -0.0090  0.4328  0.1105
    2MPD1    H114063   1.460   3.792  11.021 -0.0963  0.4219  0.6098
    2MPD1    H214064   1.461   4.063  10.684 -0.1519 -0.0796 -1.2592
    2MPD1    H314065   1.562   3.978  10.882 -0.0403 -0.1312 -0.1914
    2MPD1     N14066   1.251   3.648  10.929  0.0847  0.5864  0.3018
    2MPD1    H514067   1.175   3.611  10.874  1.5783 -2.8272  0.5170
    2MPD1    N114068   1.231   3.963  10.587  0.4968  0.0985 -0.0789
    2MPD1    H614069   1.134   3.940  10.568  0.8142 -0.1742 -1.3247
    2MPD1    H714070   1.234   4.061  10.559 -2.0827  0.1521 -0.1726
    1TCq1    O114071   3.689   1.997   2.191  0.0500  0.2839 -0.6109
    1TCq1    C114072   3.655   1.907   2.094 -0.2743  0.2167  0.2051
    1TCq1    O214073   3.697   1.917   1.981 -0.0162  0.5026 -0.7291
    1TCq1    C214074   3.524   1.862   2.128 -0.0728  0.1343 -0.3501
    1TCq1    C314075   3.496   1.828   2.264  0.1020  0.1077  0.3649
    1TCq1    C414076   3.366   1.791   2.282 -0.1782 -0.0958  0.3087
    1TCq1    C514077   3.276   1.785   2.181  0.7114 -0.0062  0.0813
    1TCq1    C614078   3.309   1.828   2.054  0.1377  0.0095 -0.0534
    1TCq1    C714079   3.432   1.874   2.028  0.4163 -0.2488  0.6492
    1TCq1    C814080   3.220   1.833   1.943 -0.4028 -0.7184  0.0086
    1TCq1    O414081   3.251   1.897   1.848  0.8217 -0.4919  0.0183
    1TCq1    C914082   3.323   1.724   2.406 -0.1479  0.1371  0.2295
    1TCq1    O514083   3.385   1.750   2.513 -0.9159  0.1382  0.2318
    1TCq1    O614084   3.231   1.635   2.392 -0.1681 -0.0860 -0.0491
    1TCq1    H114085   3.618   2.008   2.257  1.5011 -1.3267  1.2171
    1TCq1    H214086   3.564   1.813   2.347  0.2989  0.7147  0.3108
    1TCq1    H314087   3.175   1.770   2.216  1.1356 -0.1946  1.2100
    1TCq1    H414088   3.458   1.927   1.937  2.8998 -0.3484  1.2856
    2MPD1     C14089   2.781   1.750   1.733  0.2319 -0.3888  0.1422
    2MPD1    C114090   2.790   1.658   1.834 -0.0322  0.4087 -1.0746
    2MPD1    C214091   2.896   1.671   1.919 -0.0840 -0.0836  0.2901
    2MPD1    C314092   2.993   1.767   1.898 -0.2303 -0.1057 -0.7348
    2MPD1    C414093   2.979   1.862   1.799 -0.2768 -0.4473  0.3310
    2MPD1    C514094   2.877   1.854   1.717 -0.0427 -0.2290 -0.4150
    2MPD1     H14095   2.894   1.606   2.006  0.2374 -2.5982 -1.5752
    2MPD1    H114096   3.054   1.936   1.776 -1.0690 -0.4035 -2.1345
    2MPD1    H214097   2.691   1.749   1.673  0.4049  0.9538 -0.1355
    2MPD1    H314098   2.864   1.923   1.635  1.4981  0.8794  0.2798
    2MPD1     N14099   3.105   1.766   1.978  0.4215  0.4819 -0.5965
    2MPD1    H514100   3.097   1.711   2.062  2.1897 -0.6354 -1.1388
    2MPD1    N114101   2.686   1.570   1.856  0.0678  0.1630  0.4249
    2MPD1    H614102   2.647   1.544   1.766 -1.0173  1.5845  0.4897
    2MPD1    H714103   2.714   1.480   1.894 -1.0482 -0.3822 -0.0325
    1MPD1     C14104   2.098   3.641  11.270  0.8009  0.1020  0.8519
    1MPD1    C114105   2.204   3.714  11.230  0.4335 -0.2831 -0.0573
    1MPD1    C214106   2.331   3.686  11.287 -0.2258 -0.4747  0.2132
    1MPD1    C314107   2.345   3.571  11.358  0.9174  0.7453  1.0689
    1MPD1    C414108   2.238   3.491  11.392  0.2224 -0.3370  1.1835
    1MPD1    C514109   2.115   3.532  11.353  0.0271 -0.6741 -0.1164
    1MPD1     H14110   2.420   3.744  11.266  1.7764 -2.8035  2.3619
    1MPD1    H114111   2.239   3.420  11.475  1.3777  0.5205  1.9173
    1MPD1    H214112   1.996   3.670  11.243  1.2943  0.0475 -1.1068
    1MPD1    H314113   2.031   3.474  11.389 -0.4842  0.3964  0.4081
    1MPD1     N14114   2.472   3.555  11.417  0.2142 -0.1808 -0.2296
    1MPD1    H514115   2.542   3.623  11.389 -0.1951 -0.3740 -1.7181
    1MPD1    N114116   2.178   3.841  11.174 -0.6822  1.0490 -0.6067
    1MPD1    H614117   2.255   3.862  11.111 -1.7792  0.2628 -2.2402
    1MPD1    H714118   2.097   3.824  11.114  1.0678 -0.9051 -2.4084
    2MPD1     C14119   2.221   3.501  10.864  0.6681  0.0706  0.0043
    2MPD1    C114120   2.217   3.415  10.754 -0.2386 -0.0058 -1.1147
    2MPD1    C214121   2.310   3.430  10.654  0.2600 -0.5685 -0.2250
    2MPD1    C314122   2.412   3.523  10.659  0.1592 -0.4646  0.1330
    2MPD1    C414123   2.401   3.616  10.764 -0.6925  0.3440 -0.2299
    2MPD1    C514124   2.314   3.595  10.865 -0.6248  0.1743 -0.2933
    2MPD1     H14125   2.296   3.366  10.567  1.7576 -1.4038  0.1427
    2MPD1    H114126   2.466   3.703  10.759 -0.2979  0.0802  0.3203
    2MPD1    H214127   2.144   3.495  10.940 -0.4131  1.5336 -0.9573
    2MPD1    H314128   2.330   3.657  10.952  1.1602 -3.0495  1.6955
    2MPD1     N14129   2.514   3.531  10.565 -0.1965  0.6307 -0.8434
    2MPD1    H514130   2.583   3.604  10.576  0.3996 -0.0398 -0.1016
    2MPD1    N114131   2.105   3.329  10.749  0.1068  0.1365  0.0683
    2MPD1    H614132   2.071   3.284  10.833 -0.3679 -0.6593 -0.5522
    2MPD1    H714133   2.123   3.254  10.683  2.2056  1.7215 -1.1868
    3MPD1     C14134   2.502   2.830   9.938  0.1554 -0.1273  0.0509
    3MPD1    C114135   2.438   2.948   9.927 -0.8293 -0.1433  0.3811
    3MPD1    C214136   2.496   3.063   9.966 -0.4214  0.3986 -0.6868
    3MPD1    C314137   2.617   3.063  10.028 -0.2718  0.2345 -0.0795
    3MPD1    C414138   2.682   2.949  10.051 -0.4049 -0.2599 -0.3546
    3MPD1    C514139   2.625   2.838   9.997  0.3374 -0.3008  0.3005
    3MPD1     H14140   2.438   3.154   9.972  0.0908  0.8117 -2.0085
    3MPD1    H114141   2.778   2.939  10.100 -1.1531 -0.3918  1.0610
    3MPD1    H214142   2.467   2.730   9.913  1.9377 -0.2299 -2.0695
    3MPD1    H314143   2.671   2.742  10.016 -2.1436 -1.5921 -0.1834
    3MPD1     N14144   2.662   3.186  10.087  0.4784 -0.3099 -0.0107
    3MPD1    H514145   2.610   3.272  10.076  0.1440 -0.2718  1.8629
    3MPD1    N114146   2.314   2.942   9.862 -0.7413  0.4300 -0.7499
    3MPD1    H614147   2.261   2.857   9.884 -1.1917  0.9814  0.2929
    3MPD1    H714148   2.259   3.026   9.874  0.4828  1.0922  0.2209
    4MPD2     C14149   3.091   3.810  11.368  0.4748  0.1479  0.3096
    4MPD2    C114150   3.117   3.682  11.423  0.0500 -1.1662 -0.1978
    4MPD2    C214151   3.219   3.603  11.371 -0.0514  0.9827 -0.3483
    4MPD2    C314152   3.309   3.657  11.279  0.0197 -0.0242 -0.5268
    4MPD2    C414153   3.285   3.784  11.225 -0.2892 -0.4346  0.0580
    4MPD2    C514154   3.172   3.850  11.265 -0.5490 -0.1729  0.2969
    4MPD2     H14155   3.232   3.500  11.402 -0.1567  0.7922 -0.9417
    4MPD2    H114156   3.352   3.821  11.148  0.1771  2.2605  1.7615
    4MPD2    H214157   3.015   3.883  11.391 -0.0162 -0.2269 -0.1166
    4MPD2    H314158   3.154   3.946  11.218  1.9499 -0.0554 -0.4350
    4MPD2     N14159   3.413   3.583  11.217 -0.1213  0.0095 -0.0731
    4MPD2    H514160   3.475   3.625  11.149 -1.8983 -0.3055 -1.8872
    4MPD2    N114161   3.027   3.627  11.517  0.0080 -0.4869  0.4188
    4MPD2    H714162   3.047   3.530  11.538  1.9872  0.3216  2.2138
    5TMC3    C114163   2.823   3.572  11.618  0.2068 -0.1786  0.2845
    5TMC3    C214164   2.692   3.572  11.570 -0.3727 -0.3058  0.1057
    5TMC3    C314165   2.644   3.450  11.530  0.5953  0.4627  0.1541
    5TMC3    C414166   2.892   3.453  11.649 -0.1362 -0.2968  0.3357
    5TMC3    C514167   2.840   3.332  11.601 -0.0182  0.3384 -0.7841
    5TMC3    C614168   2.711   3.325  11.544 -0.0184  0.4963  0.2970
    5TMC3     C14169   2.910   3.679  11.565  0.1132  0.7355 -0.4712
    5TMC3     O14170   2.857   3.780  11.525  0.6931 -0.3777  0.0658
    5TMC3     H14171   2.643   3.666  11.547 -2.3400 -2.0052 -2.7453
    5TMC3    H114172   2.986   3.466  11.703  0.2724 -1.0256 -0.2015
    5TMC3    H214173   2.678   3.234  11.496  3.1962 -0.1360 -0.7390
    5TMC3    C714174   2.948   3.267  11.527  0.3505 -0.1257  0.1020
    5TMC3    C814175   2.508   3.440  11.477 -0.2840 -0.2693 -0.6034
    5TMC3    O114176   3.060   3.320  11.539 -0.0939 -0.3567 -0.0247
    5TMC3    O214177   2.455   3.336  11.511 -0.6225 -0.1379 -0.3885
    6TMC3    C114178   2.650   3.470  10.372 -0.5416  0.6416  0.2974
    6TMC3    C214179   2.651   3.403  10.244  0.8328  0.1418 -0.7174
    6TMC3    C314180   2.769   3.343  10.213 -0.0154  0.3348 -0.1520
    6TMC3    C414181   2.760   3.509  10.441  0.1469 -0.4346  0.3988
    6TMC3    C514182   2.881   3.459  10.390 -0.4624  0.2153 -0.8596
    6TMC3    C614183   2.879   3.375  10.284 -0.0211  0.0593  0.1145
    6TMC3     C14184   2.531   3.444  10.453  0.8224  0.4333  0.1066
    6TMC3     O14185   2.457   3.357  10.410  0.0391  0.4662  0.5088
    6TMC3     H14186   2.561   3.374  10.190 -0.3559  3.2396 -0.4313
    6TMC3    H114187   2.744   3.555  10.538 -0.4786 -1.0744  0.6037
    6TMC3    H214188   2.973   3.330  10.254 -0.7585  0.1298 -2.3146
    6TMC3    C714189   3.010   3.480  10.457 -0.1332 -0.1118  0.5105
    6TMC3    C814190   2.774   3.206  10.161  0.6665  0.1365  0.2170
    6TMC3    O114191   3.110   3.428  10.410 -0.0824  0.6226 -0.1558
    6TMC3    O214192   2.868   3.128  10.186  0.4224 -0.2983 -0.2252
    7MPD2     C14193   3.117   2.959  11.147 -0.1859  0.7542  0.2123
    7MPD2    C114194   3.185   3.067  11.210 -0.2750  0.1075 -0.6264
    7MPD2    C214195   3.115   3.129  11.317 -0.0158  0.1827 -0.0803
    7MPD2    C314196   2.993   3.087  11.358 -0.9775 -0.6028  0.4218
    7MPD2    C414197   2.930   2.984  11.290 -0.0806 -0.2542 -0.7629
    7MPD2    C514198   2.993   2.918  11.187 -0.1284 -0.3911  0.3828
    7MPD2     H14199   3.162   3.217  11.358 -1.4089  0.2430  1.3657
    7MPD2    H114200   2.826   2.958  11.307 -0.4484 -0.5827 -3.4550
    7MPD2    H214201   3.164   2.913  11.061  2.2648  1.2935  1.2753
    7MPD2    H314202   2.946   2.843  11.124 -2.0403 -1.6756  3.3151
    7MPD2     N14203   2.908   3.159  11.449  0.7086  1.3791 -0.4685
    7MPD2    H514204   2.815   3.123  11.466  0.6506  0.7110 -2.2174
    7MPD2    N114205   3.317   3.110  11.184  0.5025  0.6582 -0.5298
    7MPD2    H714206   3.356   3.180  11.246 -2.0227  0.2257  1.5521
    8TMC3    C114207   3.497   3.179  11.048 -0.3777  0.5790 -0.8823
    8TMC3    C214208   3.494   3.228  10.924 -0.0940 -0.2191  0.0097
    8TMC3    C314209   3.519   3.358  10.908 -0.5532 -0.1650 -0.2621
    8TMC3    C414210   3.515   3.250  11.158  0.1064 -1.0127 -0.5429
    8TMC3    C514211   3.531   3.389  11.144 -0.4625 -0.4593  0.1242
    8TMC3    C614212   3.528   3.438  11.018  0.0165  0.0739 -0.0070
    8TMC3     C14213   3.384   3.083  11.064  0.4601 -0.2959 -0.6762
    8TMC3     O14214   3.326   3.044  10.965  0.1487  0.3600 -0.2323
    8TMC3     H14215   3.473   3.156  10.846 -2.2927 -0.1584  0.5190
    8TMC3    H114216   3.522   3.198  11.252 -0.5964  1.8133  1.0727
    8TMC3    H214217   3.560   3.542  11.010 -0.9240  0.3118 -0.6452
    8TMC3    C714218   3.442   3.450  11.238 -0.0724  0.1179  0.3303
    8TMC3    C814219   3.442   3.411  10.799 -0.4591  0.3509  0.1222
    8TMC3    O114220   3.405   3.379  11.332 -0.1273  0.6316  0.0158
    8TMC3    O214221   3.408   3.332  10.711  0.3959 -0.3876  0.1434
    9MPD2     C14222   3.225   3.706  10.867  0.0075 -0.0145  0.4116
    9MPD2    C114223   3.265   3.592  10.793 -0.0406 -0.1776 -0.0883
    9MPD2    C214224   3.202   3.557  10.675 -1.3347 -0.5102 -0.3723
    9MPD2    C314225   3.083   3.625  10.641 -0.5633 -0.0899  0.2031
    9MPD2    C414226   3.033   3.721  10.730  0.0004 -0.0809  0.5048
    9MPD2    C514227   3.114   3.775  10.823 -0.5039 -0.3038 -0.0695
    9MPD2     H14228   3.228   3.468  10.619 -1.0225 -1.3980  1.1790
    9MPD2    H114229   2.945   3.784  10.717 -0.3641 -0.2581  2.0670
    9MPD2    H214230   3.271   3.734  10.961  2.3787  2.3615 -1.4382
    9MPD2    H314231   3.071   3.853  10.885 -0.7197 -0.4880  0.0158
    9MPD2     N14232   2.992   3.576  10.554  0.0393 -0.8739 -0.1256
    9MPD2    H514233   2.906   3.629  10.545  1.6714  1.4990 -1.7259
    9MPD2    N114234   3.383   3.526  10.843 -0.2323  0.3664  0.4967
    9MPD2    H714235   3.414   3.560  10.933 -0.5829  0.6106  0.5246
    1MPD1     C14236   3.244   3.300  16.890 -0.1148 -0.5978 -0.2639
    1MPD1    C114237   3.288   3.184  16.940  0.1252 -0.3664  0.2135
    1MPD1    C214238   3.248   3.066  16.878 -0.6581 -0.3833  0.1941
    1MPD1    C314239   3.140   3.059  16.793  0.2260  0.0889 -0.0159
    1MPD1    C414240   3.088   3.182  16.750 -0.4345 -0.3449 -0.2115
    1MPD1    C514241   3.150   3.299  16.794  1.1276  0.6490  0.0646
    1MPD1     H14242   3.286   2.971  16.915 -0.7306  0.5523  2.6944
    1MPD1    H114243   3.007   3.191  16.679 -1.0204 -2.3413  0.2243
    1MPD1    H214244   3.279   3.397  16.924 -2.2939  0.5369 -1.2786
    1MPD1    H314245   3.137   3.395  16.746  2.3273  0.1218 -1.2993
    1MPD1     N14246   3.082   2.936  16.742 -0.8393 -0.3693 -0.5946
    1MPD1    H514247   3.006   2.952  16.677 -3.5786 -0.4058  2.6014
    1MPD1    N114248   3.402   3.184  17.024  0.3189 -0.4259  0.0363
    1MPD1    H614249   3.386   3.267  17.082 -0.5384 -1.3461  1.1264
    1MPD1    H714250   3.406   3.102  17.084 -1.9855 -0.8504 -0.3953
    2MPD1     C14251   3.476   2.005  16.680 -0.4075 -0.5170 -0.7071
    2MPD1    C114252   3.517   2.128  16.733 -0.0092  0.5772  0.7266
    2MPD1    C214253   3.420   2.229  16.742  0.3324 -0.0649  0.0999
    2MPD1    C314254   3.293   2.217  16.684 -0.3496  0.2896 -0.0162
    2MPD1    C414255   3.267   2.106  16.606  0.2039  0.6662  0.4915
    2MPD1    C514256   3.352   2.002  16.611 -0.2750 -0.3663  0.6712
    2MPD1     H14257   3.443   2.315  16.804  0.6785 -0.0733 -0.0227
    2MPD1    H114258   3.179   2.104  16.543  0.0325  0.9953  0.7199
    2MPD1    H214259   3.544   1.920  16.680 -1.4785 -1.3683 -1.1506
    2MPD1    H314260   3.325   1.917  16.549 -0.4707  0.9772 -1.0732
    2MPD1     N14261   3.212   2.335  16.671  0.0970 -0.0147 -0.6108
    2MPD1    H514262   3.249   2.424  16.701  1.9874 -0.6948 -0.8922
    2MPD1    N114263   3.643   2.133  16.795 -0.0567  0.0383  0.2548
    2MPD1    H614264   3.716   2.073  16.758 -2.1332 -3.0496  1.1702
    2MPD1    H714265   3.683   2.226  16.793 -2.1068  0.8833 -2.7862
    3TCq2    C114266   3.081   2.343  16.626  0.4137  0.2410  0.7014
    3TCq2    O214267   3.008   2.258  16.583  0.0908  0.0812  0.5150
    3TCq2    C214268   3.028   2.478  16.627  0.3724 -0.5983 -0.3006
    3TCq2    C314269   2.890   2.489  16.634  0.1678 -0.5500  0.2373
    3TCq2    C414270   2.837   2.615  16.657  0.1637  0.2890 -0.0812
    3TCq2    C514271   2.919   2.724  16.674  0.1461 -0.4774  0.2221
    3TCq2    C614272   3.053   2.701  16.697 -0.4201 -0.4960 -0.8746
    3TCq2    C714273   3.107   2.579  16.671  0.0266  0.0387 -0.2946
    3TCq2    C814274   3.129   2.808  16.764 -0.5573  0.4855 -0.4188
    3TCq2    O414275   3.240   2.775  16.803 -0.4767  0.1888 -0.2150
    3TCq2    C914276   2.694   2.627  16.651  0.5103 -0.1096 -0.1114
    3TCq2    O514277   2.632   2.529  16.600  0.3320  0.5282 -0.5814
    3TCq2    O614278   2.637   2.732  16.684 -0.0006  0.4205  0.3527
    3TCq2    H214279   2.825   2.402  16.627  1.4302 -1.5365  0.6221
    3TCq2    H314280   2.872   2.821  16.667  2.5696  0.6514 -0.3705
    3TCq2    H414281   3.215   2.571  16.678 -0.1845 -0.2987  2.5884
    1TCq1    O114282   0.038   1.322  12.184  0.4888 -0.1376 -0.2420
    1TCq1    C114283   4.674   1.305  12.289 -0.3016 -1.0530 -0.4253
    1TCq1    O214284   4.556   1.281  12.280 -0.1855  0.4196  0.0749
    1TCq1    C214285   0.022   1.308  12.411  0.5858 -0.1020 -0.3606
    1TCq1    C314286   4.677   1.255  12.519 -0.3368 -0.0786 -0.1074
    1TCq1    C414287   0.019   1.248  12.645 -0.4442 -0.2133  1.0017
    1TCq1    C514288   0.141   1.304  12.670 -0.6212  0.2730  0.0041
    1TCq1    C614289   0.200   1.356  12.553  0.1021 -0.3135 -0.2689
    1TCq1    C714290   0.143   1.356  12.430 -0.4122 -0.6175  0.5845
    1TCq1    C814291   0.335   1.407  12.560 -0.1546  0.3162 -0.4435
    1TCq1    O414292   0.391   1.426  12.455  0.1317  0.1513  0.1525
    1TCq1    C914293   4.681   1.169  12.745 -0.7988  0.2296 -0.4461
    1TCq1    O514294   0.030   1.152  12.848 -0.1992 -0.0055  0.1398
    1TCq1    O614295   4.579   1.103  12.717  0.6019  0.3352  0.5587
    1TCq1    H114296   0.135   1.310  12.196  0.5217 -0.0125 -0.3816
    1TCq1    H214297   4.580   1.205  12.513 -0.1368 -0.5066  0.2781
    1TCq1    H314298   0.190   1.292  12.765  2.1938  1.4442 -1.3084
    1TCq1    H414299   0.197   1.404  12.349 -1.3255 -1.1730 -0.3568
    2MPD2     C14300   0.637   1.391  12.613  0.5536 -0.4623  1.0348
    2MPD2    C114301   0.539   1.395  12.706 -0.5128 -0.0826 -0.3465
    2MPD2    C214302   0.570   1.412  12.841 -0.5482 -0.0895 -0.4218
    2MPD2    C314303   0.700   1.438  12.885  1.0434  0.7032 -0.0301
    2MPD2    C414304   0.791   1.444  12.781  0.2631 -0.1146 -0.3429
    2MPD2    C514305   0.763   1.402  12.653  0.1121 -0.5229 -0.3638
    2MPD2     H14306   0.493   1.431  12.914 -0.6420  0.0417 -0.5537
    2MPD2    H114307   0.895   1.459  12.806  0.3248  0.7363 -1.1206
    2MPD2    H214308   0.611   1.366  12.510 -1.2971  2.0113  0.8848
    2MPD2    H314309   0.842   1.395  12.579  1.1931  0.5722  0.6848
    2MPD2     N14310   0.734   1.462  13.019 -0.2132 -0.5554 -0.2632
    2MPD2    H514311   0.662   1.469  13.091 -3.1003 -0.4139 -3.1631
    2MPD2    N114312   0.395   1.409  12.687  0.8776  1.2168  0.2189
    2MPD2    H714313   0.324   1.407  12.759 -0.1578  0.9683 -0.8071
    3TCq1    O114314   0.629   1.662  13.573  0.2716 -0.1490 -0.6932
    3TCq1    C114315   0.623   1.698  13.443 -0.5545 -0.7791 -0.1352
    3TCq1    O214316   0.531   1.745  13.381 -0.4905 -0.3218  0.6918
    3TCq1    C214317   0.745   1.632  13.385  0.0841 -0.8631 -0.1740
    3TCq1    C314318   0.857   1.644  13.461 -0.0374 -0.3310  0.2730
    3TCq1    C414319   0.968   1.597  13.398 -0.3674 -0.3062  0.1437
    3TCq1    C514320   0.971   1.531  13.281 -0.0632 -0.8852  0.5271
    3TCq1    C614321   0.857   1.526  13.204  1.0517  0.2649  0.8569
    3TCq1    C714322   0.747   1.589  13.256  0.8543  0.1902 -0.6007
    3TCq1    C814323   0.858   1.468  13.068  0.6711 -0.2919  0.5451
    3TCq1    O414324   0.968   1.459  13.011  0.0159  0.0727 -0.3647
    3TCq1    C914325   1.096   1.597  13.465 -0.2107  0.4147  0.2019
    3TCq1    O514326   1.160   1.486  13.467  0.1168 -0.1709 -0.1773
    3TCq1    O614327   1.124   1.694  13.538  0.3754 -0.1993  0.8856
    3TCq1    H114328   0.706   1.608  13.598  0.3975  1.2772  1.9709
    3TCq1    H214329   0.866   1.692  13.557 -1.1230 -1.9027  1.1586
    3TCq1    H314330   1.066   1.498  13.241  0.2150 -0.2828  0.7005
    3TCq1    H414331   0.656   1.604  13.200 -0.0795  0.5447  1.0297
    1MPD2     C14332   0.220   2.137  14.606 -0.1061 -0.0805 -0.0023
    1MPD2    C114333   0.170   2.008  14.614 -0.1091 -0.1988 -0.3748
    1MPD2    C214334   0.254   1.911  14.655  0.6739 -0.0790  0.4287
    1MPD2    C314335   0.390   1.931  14.673 -0.3029  0.8601  0.0718
    1MPD2    C414336   0.443   2.059  14.668 -0.0389  0.4826  0.3661
    1MPD2    C514337   0.353   2.158  14.634 -0.0589  0.4279  0.1817
    1MPD2     H14338   0.211   1.812  14.669 -1.7007  0.7735 -0.7436
    1MPD2    H114339   0.547   2.088  14.682 -0.3996  1.0660  1.8494
    1MPD2    H214340   0.165   2.223  14.569  2.2209  1.2601 -0.2955
    1MPD2    H314341   0.394   2.258  14.619  0.8491 -0.3167 -2.3716
    1MPD2     N14342   0.477   1.832  14.723 -0.2330 -0.1896 -0.1625
    1MPD2    H514343   0.560   1.859  14.773  0.6255  1.3076 -2.4132
    1MPD2    N114344   0.035   1.980  14.594 -0.2237 -0.4453 -0.3869
    1MPD2    H714345   0.008   1.884  14.612 -0.8562 -0.5178 -1.7149
    2TMC3    C114346   4.539   1.984  14.508 -0.0542  0.2068  0.0898
    2TMC3    C214347   4.535   1.847  14.540  0.1473 -0.0204 -0.1423
    2TMC3    C314348   4.411   1.783  14.534 -0.9924  0.9716 -0.3639
    2TMC3    C414349   4.423   2.053  14.473  0.6022  0.3683  0.5809
    2TMC3    C514350   4.302   1.982  14.468 -0.2388 -0.2812 -0.4451
    2TMC3    C614351   4.298   1.846  14.499 -0.3460 -0.1812 -0.4439
    2TMC3     C14352   4.662   2.056  14.523  0.6297  0.1033 -0.5125
    2TMC3     O14353   4.682   2.168  14.476  0.2362 -0.1653  0.0690
    2TMC3     H14354   4.628   1.793  14.558 -0.2981 -0.4633  0.8475
    2TMC3    H114355   4.426   2.161  14.465  0.6992  0.2633 -0.8793
    2TMC3    H214356   4.200   1.800  14.495  0.8215 -2.6410 -0.4639
    2TMC3    C714357   4.177   2.043  14.422  0.3114 -0.1638  0.6083
    2TMC3    C814358   4.400   1.660  14.598 -0.4846 -0.8758 -0.3216
    2TMC3    O114359   4.075   1.970  14.427 -0.0894 -0.3238  0.2095
    2TMC3    O214360   4.307   1.596  14.558 -0.7511 -0.4771  0.0013
    3TCq1    O114361   4.525   3.085  14.442 -0.0479 -0.1349 -0.1285
    3TCq1    C114362   4.490   2.955  14.419  0.1517 -0.3217 -0.8368
    3TCq1    O214363   4.515   2.862  14.496 -0.0718 -0.1533 -0.1317
    3TCq1    C214364   4.381   2.953  14.325  0.3093 -0.3782  0.4336
    3TCq1    C314365   4.365   3.052  14.232  0.6080 -0.2025 -0.3550
    3TCq1    C414366   4.242   3.060  14.172  0.4734 -0.2883  0.1727
    3TCq1    C514367   4.150   2.960  14.194 -0.0900 -0.1403  0.5592
    3TCq1    C614368   4.179   2.855  14.278 -0.5458 -0.2521  0.1266
    3TCq1    C714369   4.286   2.859  14.357 -0.6065 -0.1879  0.3039
    3TCq1    C814370   4.076   2.748  14.297 -0.2333 -0.6055  0.4721
    3TCq1    O414371   3.955   2.769  14.320 -0.0378  0.1094 -0.5073
    3TCq1    C914372   4.228   3.155  14.061 -0.1185 -0.7026 -0.1677
    3TCq1    O514373   4.323   3.236  14.043  0.3396 -0.6138  0.1504
    3TCq1    O614374   4.125   3.140  13.988  0.0219  0.1024  0.2536
    3TCq1    H114375   4.482   3.148  14.380  0.9341  0.5770 -0.0971
    3TCq1    H214376   4.444   3.121  14.207  0.6513 -1.0962 -2.6644
    3TCq1    H314377   4.058   2.955  14.138 -1.3761  2.8849  2.3941
    3TCq1    H414378   4.303   2.788  14.437  1.6611  1.2316  1.0729
    4MPD2     C14379   3.940   2.480  14.297  0.2921  0.4188 -1.2552
    4MPD2    C114380   4.077   2.505  14.318 -0.6760 -0.2750 -0.1478
    4MPD2    C214381   4.150   2.395  14.343  0.1904  1.2314  0.0356
    4MPD2    C314382   4.101   2.270  14.366  0.7502  0.1743 -0.1421
    4MPD2    C414383   3.964   2.248  14.346  0.1096  0.1881 -0.0624
    4MPD2    C514384   3.882   2.355  14.307  0.5004 -0.0596 -0.3383
    4MPD2     H14385   4.254   2.414  14.367  0.5877  1.2262 -1.7088
    4MPD2    H114386   3.922   2.150  14.365  0.7406 -0.2657 -1.0009
    4MPD2    H214387   3.868   2.559  14.277 -0.5535 -0.2401 -0.8317
    4MPD2    H314388   3.775   2.347  14.293  0.4280  1.3060 -0.5178
    4MPD2     N14389   4.195   2.172  14.392 -0.8926  0.6773  0.3038
    4MPD2    H514390   4.291   2.205  14.387 -0.9010  0.8683  1.3740
    4MPD2    N114391   4.139   2.628  14.300  1.2637  0.4442  0.5434
    4MPD2    H714392   4.240   2.637  14.310  1.4457 -1.7852  0.8006
    5TMC2    C114393   0.350   1.536  14.999 -0.1805  0.6300  0.4122
    5TMC2    C214394   0.381   1.628  15.094  0.0366  0.3525  0.8774
    5TMC2    C314395   0.480   1.719  15.077 -0.2527  0.1510  0.6470
    5TMC2    C414396   0.421   1.532  14.887 -0.0734  0.2067  0.1765
    5TMC2    C514397   0.499   1.639  14.856 -0.0910  0.0445  0.2166
    5TMC2    C614398   0.538   1.728  14.952  0.2157  0.5146  0.0815
    5TMC2     C14399   0.216   1.538  14.965 -0.4317 -0.2790 -0.4408
    5TMC2     O14400   0.155   1.629  15.021 -0.2936  0.1391 -0.2251
    5TMC2     H14401   0.325   1.628  15.187 -0.8102  0.8756  0.3706
    5TMC2    H114402   0.398   1.467  14.803 -0.0164  1.4220 -0.7856
    5TMC2    H214403   0.612   1.805  14.933 -0.6453  1.3523  0.1371
    5TMC2    C714404   0.443   1.700  14.732 -0.0897 -0.0764  0.4097
    5TMC2    C814405   0.547   1.786  15.185 -0.1513 -0.2042 -0.0606
    5TMC2    O114406   0.362   1.635  14.664 -0.2338 -0.2062 -0.1212
    5TMC2    O214407   0.631   1.872  15.158 -0.0813  0.1099 -0.2540
    5TMC2    O514408   0.551   1.704  15.290 -0.3199 -0.3288 -0.6110
    5TMC2    H514409   0.493   1.626  15.276  0.6349 -0.8179 -1.8714
    6MPD2     C14410   4.532   1.418  14.658 -0.3957  0.4955 -0.0682
    6MPD2    C114411   4.565   1.530  14.721  0.3600  0.3235  0.2803
    6MPD2    C214412   4.675   1.536  14.804  0.5567 -0.7314  0.1650
    6MPD2    C314413   0.051   1.433  14.810 -0.4943  0.7595  0.1942
    6MPD2    C414414   0.012   1.323  14.730  0.1233  0.1689 -0.7268
    6MPD2    C514415   4.618   1.315  14.661  0.3811 -0.1944 -0.9426
    6MPD2     H14416   4.683   1.624  14.866  0.6773 -0.8146  0.2682
    6MPD2    H114417   0.073   1.234  14.725  0.6084  0.4351  0.3901
    6MPD2    H214418   4.437   1.402  14.609 -0.4688 -0.8609  0.5103
    6MPD2    H314419   4.597   1.220  14.611  0.6213 -0.7557  0.0268
    6MPD2     N14420   0.170   1.432  14.890  0.2059 -0.3210  0.5673
    6MPD2    H514421   0.238   1.357  14.888  0.5389  0.0202 -1.0484
    6MPD2    N114422   4.491   1.643  14.697 -0.3595  0.0902 -0.0892
    6MPD2    H714423   4.521   1.728  14.742  1.7452 -0.4530 -0.4391
  945NH3     N114424   0.044   2.374   2.640 -0.4022  0.3864 -0.4071
  945NH3     H214425   0.128   2.416   2.678 -0.8961  1.8848 -0.9451
  945NH3     H314426   4.697   2.441   2.677  1.4214  1.3356  1.1718
  945NH3     H414427   0.045   2.406   2.543  1.5751 -1.2476 -0.9295
  946SOD     NA14428   4.400   3.577  15.264  0.1531 -0.0453 -0.4529
  947SOD     NA14429   3.128   3.042  14.058  0.1048  0.1299  0.7091
  948SOD     NA14430   1.792   2.826   3.573  0.5582 -0.0208  0.2494
  949SOD     NA14431   0.546   3.280  10.688 -0.1092  0.3661  0.0553
  950SOD     NA14432   1.381   2.674  16.364  0.2968 -0.0527  0.2648
  951SOD     NA14433   2.508   2.884  16.619  0.1437 -0.7048  0.3317
  952SOD     NA14434   0.568   1.162  11.842  0.1423 -0.0272 -0.1848
  953SOD     NA14435   1.690   0.653   0.187 -0.0419  0.0930 -0.1857
  954SOD     NA14436   4.716   0.616  13.237  0.1443  0.1668  0.4268
  955SOD     NA14437   1.491   2.147  13.141  0.2654 -0.0571 -0.0540
  956SOD     NA14438   3.352   0.731   2.037 -0.8658  0.6146 -0.4035
  957SOD     NA14439   1.418   0.524  10.819  0.0397 -0.3075 -0.2960
  958SOD     NA14440   3.371   2.837  17.269 -0.1063  0.2180  0.1022
  959SOD     NA14441   2.643   1.752  13.010 -0.4725  0.2486 -0.3706
  960SOD     NA14442   2.454   3.148   2.360  0.2747 -0.0241  0.3537
  961SOD     NA14443   4.054   0.833   9.761 -0.6769  0.2333  0.2812
  962SOD     NA14444   2.033   2.327  15.241  0.1564 -0.1182  0.5222
  963SOD     NA14445   2.624   0.813   7.468 -0.1500  0.8980 -0.3265
  964SOD     NA14446   3.227   4.458  12.881 -0.2163 -0.1218  0.4400
  965SOD     NA14447   0.351   0.632  11.598  0.2263  0.1135  0.3011
  966SOD     NA14448   2.257   0.443   9.141 -0.3418 -0.4629 -0.0205
  967SOD     NA14449   3.827   2.096   0.142 -0.3893 -0.8527  0.3405
  968SOD     NA14450   0.547   0.733  11.307 -0.1262  0.1059 -0.4574
  969SOD     NA14451   1.906   1.383   8.462  0.3170 -0.4336 -0.2577
  970SOD     NA14452   4.331   0.531   9.949  0.0208 -0.1624  0.0136
  971SOD     NA14453   1.219   1.675  13.734 -0.8398 -0.1555 -0.0234
  972SOD     NA14454   1.581   3.317  11.582  0.0361  0.2490  0.1312
  973SOD     NA14455   0.573   3.480  12.102 -0.2308  0.1622  0.1022
  974SOD     NA14456   3.022   4.650  13.689  0.1847 -0.0081 -0.2526
  975SOD     NA14457   4.408   2.709   2.122 -0.0964 -0.4423 -0.1122
  976SOD     NA14458   0.778   1.210  11.581 -0.1199 -0.2169  0.1855
  977SOD     NA14459   1.518   1.586  13.698  0.0402  0.2543 -0.5735
  978SOD     NA14460   0.204   1.587   9.899  0.1908 -0.2103  0.1197
  979SOD     NA14461   0.451   0.868  10.093  0.4301 -0.0774 -0.0279
  980SOD     NA14462   1.675   0.812  14.188 -0.4755 -0.3394 -0.0484
  981SOD     NA14463   0.623   3.045  10.461 -0.0031  0.9406 -0.2935
  982SOD     NA14464   2.181   1.844  16.422  0.0404 -0.1087 -0.1615
  983SOD     NA14465   2.383   1.278  13.870 -0.0805  0.3155  0.0140
  984SOD     NA14466   4.663   0.420   9.982 -0.2348 -0.2731  0.3473
  985SOD     NA14467   0.385   0.959   9.790  0.0554 -0.4034 -0.5063
  986SOD     NA14468   2.228   0.118  12.620 -0.1234  0.2552 -0.1270
  987SOD     NA14469   2.114   1.469   5.842  0.2815  0.2993  0.0833
  988SOD     NA14470   1.953   4.049   3.308 -0.1957  0.0940 -0.0376
  989SOD     NA14471   1.814   0.798   0.474 -0.3093 -0.8084 -0.2101
  990SOD     NA14472   1.854   0.940  15.124 -0.1373  0.3002 -0.0353
  991SOD     NA14473   1.400   1.027  14.173  0.5971 -0.1254  0.1534
  992SOD     NA14474   4.572   0.082   2.416 -0.4750  0.1609 -0.1936
  993SOD     NA14475   0.539   4.103  12.051 -0.0538  0.6082  0.2189
  994SOD     NA14476   0.906   1.514  12.028 -0.2681  0.2001 -0.3338
  995SOD     NA14477   0.750   2.060  15.122  0.1788 -0.0271  0.1164
  996SOD     NA14478   3.199   4.073   2.184  0.2250  0.3813  0.2924
  997SOD     NA14479   3.357   2.441   0.231 -0.0200 -0.0803 -0.1557
  998SOD     NA14480   2.970   4.585   1.655  0.0772  0.8015  0.5051
  999SOD     NA14481   0.665   1.639  11.547 -0.2105 -0.1190 -0.3550
 1000SOD     NA14482   4.595   1.948   2.504 -0.4946 -0.0338 -0.0137
 1001SOD     NA14483   1.949   0.786   8.819  0.1312  0.3973  0.1368
 1002SOD     NA14484   1.919   2.641  13.312  0.0165  0.3504 -0.1019
 1003SOD     NA14485   1.597   2.240   0.793  0.2636  0.0066  0.8054
 1004SOD     NA14486   0.188   1.176  12.999 -0.6624  0.0033 -0.1378
 1005SOD     NA14487   3.971   0.570  15.419  0.1732  0.5069 -0.3210
 1006SOD     NA14488   3.767   2.418  15.686 -0.1669 -0.3632  0.0165
 1007SOD     NA14489   0.946   1.247  11.256  0.6837  0.5719 -0.5355
 1008SOD     NA14490   1.118   2.856   1.554 -0.1609 -0.0206 -0.0082
 1009SOD     NA14491   2.536   1.036   2.680  0.4506  0.0275  0.2398
 1010SOD     NA14492   3.047   0.212   0.260  0.0157  0.1046 -0.0895
 1011SOD     NA14493   0.053   1.717  10.479  0.1768  0.1013  0.3626
 1012SOL     OW14494   1.943   2.661   2.416  0.3614  0.7683 -0.0364
 1012SOL    HW114495   1.936   2.566   2.405  2.4547  0.6499 -0.2670
 1012SOL    HW214496   1.878   2.693   2.354 -1.1090 -2.1999 -0.0475
 1013SOL     OW14497   0.962   1.624  10.953  0.1009  0.4665 -0.3438
 1013SOL    HW114498   0.992   1.641  10.864  0.4529  1.3328 -0.0586
 1013SOL    HW214499   0.968   1.708  10.999 -1.4581  0.9854 -1.0806
 1014SOL     OW14500   4.061   3.983  13.959 -0.2907 -0.1737  0.1633
 1014SOL    HW114501   4.107   4.059  13.995 -1.4597  0.6178  0.0051
 1014SOL    HW214502   4.020   3.944  14.036  1.3846  0.3155  1.2731
 1015SOL     OW14503   1.321   2.732   4.860 -0.0645  0.3169 -0.0770
 1015SOL    HW114504   1.249   2.751   4.800 -1.3537 -1.3560  0.9180
 1015SOL    HW214505   1.312   2.806   4.920  1.0765  1.3659 -1.2127
 1016SOL     OW14506   4.556   0.906  12.933 -0.1872 -0.3339 -0.3477
 1016SOL    HW114507   4.478   0.884  12.882  0.6880  1.4134 -2.3936
 1016SOL    HW214508   4.575   0.993  12.898 -1.5588  0.4993  0.9363
 1017SOL     OW14509   0.307   2.871   0.258 -0.1428  0.0196 -0.6085
 1017SOL    HW114510   0.348   2.956   0.238  2.7291 -1.5221 -1.2374
 1017SOL    HW214511   0.219   2.910   0.251  0.2467  0.7587 -1.3620
 1018SOL     OW14512   0.488   0.511   4.730 -0.1713 -0.1681 -0.3712
 1018SOL    HW114513   0.543   0.547   4.661  0.6550  2.3784  1.6313
 1018SOL    HW214514   0.415   0.572   4.733 -0.7223 -0.8461  0.0960
 1019SOL     OW14515   3.083   0.438   2.665 -0.9819 -0.6686 -1.2252
 1019SOL    HW114516   3.111   0.364   2.719 -1.2825 -0.5348 -0.8858
 1019SOL    HW214517   3.002   0.464   2.709 -0.0201 -1.8668  1.2412
 1020SOL     OW14518   1.575   1.938   1.056  0.2193  0.5719 -0.0089
 1020SOL    HW114519   1.604   1.934   0.965 -1.0547  1.0650 -0.4477
 1020SOL    HW214520   1.660   1.929   1.099  0.9586  1.4106 -1.2906
 1021SOL     OW14521   1.301   2.214   7.334  0.3667  0.0461 -0.3883
 1021SOL    HW114522   1.257   2.264   7.403  1.1117  2.0423 -1.3687
 1021SOL    HW214523   1.285   2.269   7.257 -1.0742  0.3952  0.1598
 1022SOL     OW14524   4.080   3.039   9.007 -1.0154 -0.0266 -0.3591
 1022SOL    HW114525   4.023   3.045   9.083 -0.8705  1.9131 -0.4159
 1022SOL    HW214526   4.135   3.116   9.019 -0.6283 -0.5989  1.4660
 1023SOL     OW14527   0.410   0.293   8.377  0.6816 -0.2722 -0.9499
 1023SOL    HW114528   0.402   0.279   8.472 -0.0374 -0.2593 -1.0111
 1023SOL    HW214529   0.474   0.226   8.351 -1.0519 -1.3908 -2.2853
 1024SOL     OW14530   2.441   2.983  15.793 -0.5632  0.3829 -1.0518
 1024SOL    HW114531   2.426   3.076  15.781 -2.3149  0.0280 -1.5775
 1024SOL    HW214532   2.472   2.981  15.884  0.5967 -1.3543 -1.4841
 1025SOL     OW14533   1.636   2.239   8.411 -0.2247 -0.4646  0.4348
 1025SOL    HW114534   1.688   2.260   8.334  0.5071 -0.9993  0.7774
 1025SOL    HW214535   1.598   2.151   8.402 -0.7107  0.0801 -2.8602
 1026SOL     OW14536   0.801   0.380  10.607 -0.1656  0.2834  0.4840
 1026SOL    HW114537   0.728   0.424  10.652  0.5214  1.2706  0.6401
 1026SOL    HW214538   0.866   0.451  10.606  0.6299 -0.4764 -1.3391
 1027SOL     OW14539   1.811   4.514   5.453 -0.6454 -0.6546  0.3652
 1027SOL    HW114540   1.825   4.565   5.533  0.2588 -0.5977  0.1765
 1027SOL    HW214541   1.748   4.561   5.399 -2.2825 -1.3048  1.7216
 1028SOL     OW14542   0.451   1.654   5.298  0.0442  0.6005 -0.1633
 1028SOL    HW114543   0.393   1.704   5.241 -0.2385 -0.0173 -0.4232
 1028SOL    HW214544   0.520   1.635   5.234  0.5839 -1.1323  0.9158
 1029SOL     OW14545   2.403   1.017   4.260 -0.1813 -0.0410  0.3141
 1029SOL    HW114546   2.371   0.957   4.328  1.9090 -1.1194  0.3494
 1029SOL    HW214547   2.460   1.073   4.313  0.1087 -1.6144  1.6910
 1030SOL     OW14548   0.493   3.671  12.530 -0.3403  0.4033  0.4614
 1030SOL    HW114549   0.523   3.641  12.616  0.0573 -0.4641  0.0187
 1030SOL    HW214550   0.425   3.604  12.519  0.4589 -0.1682 -0.8926
 1031SOL     OW14551   1.951   3.310   5.528 -0.3716 -0.5942  0.1037
 1031SOL    HW114552   1.957   3.233   5.472 -0.0487 -0.8735  0.5268
 1031SOL    HW214553   1.881   3.286   5.589 -1.3863 -0.0021 -0.8285
 1032SOL     OW14554   1.763   3.463   8.778 -0.4920 -0.3228 -0.3799
 1032SOL    HW114555   1.739   3.414   8.699  2.2025  1.2868 -2.2158
 1032SOL    HW214556   1.742   3.551   8.747  1.1926 -0.4912 -2.0387
 1033SOL     OW14557   0.237   2.401   3.702 -1.1596 -0.9793  0.6108
 1033SOL    HW114558   0.145   2.428   3.697 -1.2829 -1.7083 -1.2106
 1033SOL    HW214559   0.280   2.479   3.736 -0.5387 -0.6271 -0.9574
 1034SOL     OW14560   0.609   2.342  14.887 -0.1684 -0.3972  0.1120
 1034SOL    HW114561   0.646   2.416  14.935 -1.9394  0.1698  0.6372
 1034SOL    HW214562   0.545   2.376  14.823  1.7381  1.4433 -0.8050
 1035SOL     OW14563   1.777   3.258   4.863 -0.5026 -0.2668 -0.1857
 1035SOL    HW114564   1.798   3.177   4.817  1.0081  0.1825 -0.2944
 1035SOL    HW214565   1.685   3.273   4.842 -1.1512 -2.8853  0.8873
 1036SOL     OW14566   4.638   2.632   4.668 -0.0653 -0.3545  0.3495
 1036SOL    HW114567   4.679   2.708   4.708  0.4859  0.5331 -1.9290
 1036SOL    HW214568   4.692   2.561   4.705 -0.0492 -0.0712  0.8666
 1037SOL     OW14569   4.426   1.358   2.384  0.4993  0.3542  0.2187
 1037SOL    HW114570   4.360   1.335   2.450 -0.1287  3.2855  0.6143
 1037SOL    HW214571   4.413   1.296   2.313  0.7729  0.2674  0.2470
 1038SOL     OW14572   2.268   2.279   7.810 -0.5856 -0.3628 -0.3201
 1038SOL    HW114573   2.308   2.284   7.723 -0.9583  2.4329 -0.3427
 1038SOL    HW214574   2.175   2.279   7.789 -0.8446  1.2067  0.8163
 1039SOL     OW14575   3.822   4.693   0.136  0.1883 -0.0529 -0.7661
 1039SOL    HW114576   3.753   4.701   0.070 -1.1127 -0.2072  0.5781
 1039SOL    HW214577   3.848   4.601   0.133 -0.6441 -0.4650  4.0307
 1040SOL     OW14578   0.559   4.581   8.367 -0.4528  0.3224  0.7953
 1040SOL    HW114579   0.568   4.668   8.406 -3.9683  0.8759  0.3555
 1040SOL    HW214580   0.559   4.607   8.274  1.0082 -0.4776  0.5673
 1041SOL     OW14581   2.099   0.968   3.645 -0.2263  0.2010 -0.0788
 1041SOL    HW114582   2.048   0.904   3.695  0.5954 -0.2595  0.1703
 1041SOL    HW214583   2.084   0.936   3.555 -1.0713 -0.6991  0.3846
 1042SOL     OW14584   2.548   0.378  16.023  0.3070 -0.0488  0.2506
 1042SOL    HW114585   2.605   0.321  15.970 -0.0330 -0.0339 -0.1343
 1042SOL    HW214586   2.521   0.446  15.961 -1.6798  1.9637  3.3240
 1043SOL     OW14587   0.537   3.745   7.537  0.1601 -0.5061  0.6372
 1043SOL    HW114588   0.596   3.764   7.609  0.2892 -0.8268  0.6149
 1043SOL    HW214589   0.544   3.650   7.535 -3.2549 -0.7896  2.6021
 1044SOL     OW14590   0.003   1.340   6.550 -0.1084  0.3153 -0.4881
 1044SOL    HW114591   4.635   1.305   6.543 -0.4092  1.4966 -2.6489
 1044SOL    HW214592   0.037   1.294   6.626 -1.0954 -0.4712 -0.5274
 1045SOL     OW14593   0.375   2.596   3.821  0.7203 -0.1959  0.7454
 1045SOL    HW114594   0.445   2.606   3.756 -1.1160  0.4422 -1.1415
 1045SOL    HW214595   0.358   2.689   3.838 -0.2658  0.0974 -1.7704
 1046SOL     OW14596   3.745   2.394  10.984 -0.7099 -0.2009  0.3609
 1046SOL    HW114597   3.807   2.357  11.046 -0.8770  1.0214  1.2419
 1046SOL    HW214598   3.714   2.472  11.029  1.1181  0.6760  0.0876
 1047SOL     OW14599   1.610   2.929   4.621 -0.2126  0.3045 -0.1309
 1047SOL    HW114600   1.692   2.944   4.574  0.7612 -0.4085  1.3420
 1047SOL    HW214601   1.554   2.905   4.547  1.0676  2.3698 -1.7777
 1048SOL     OW14602   1.505   3.287  13.124 -0.1717  0.0216  0.0211
 1048SOL    HW114603   1.516   3.356  13.059  0.7571  1.9062  2.2158
 1048SOL    HW214604   1.539   3.326  13.203 -0.3606  0.3231 -0.0482
 1049SOL     OW14605   0.724   1.593  10.655  0.3295 -0.0234  0.2767
 1049SOL    HW114606   0.693   1.627  10.739  0.6932  0.2038  0.3172
 1049SOL    HW214607   0.818   1.594  10.669  0.0268 -1.7906  2.4031
 1050SOL     OW14608   2.655   4.265   7.474 -0.7171  0.8944  0.3901
 1050SOL    HW114609   2.568   4.279   7.436 -1.7674 -1.7607  1.8403
 1050SOL    HW214610   2.646   4.198   7.542  1.6837 -2.1502 -2.3245
 1051SOL     OW14611   0.097   4.626  15.119 -0.2440  0.6340 -0.4581
 1051SOL    HW114612   0.005   4.605  15.102  0.0341 -1.6630  0.8736
 1051SOL    HW214613   0.096   0.001  15.104  1.2607  0.5059 -1.3735
 1052SOL     OW14614   3.089   1.049   7.159 -0.0349 -0.5764 -0.1357
 1052SOL    HW114615   3.112   1.056   7.066  1.2631 -0.5145  0.1939
 1052SOL    HW214616   3.026   1.120   7.166 -0.7602 -1.1434 -0.8380
 1053SOL     OW14617   1.378   3.951   5.466  0.1852 -0.1200 -0.8474
 1053SOL    HW114618   1.418   3.971   5.382  0.7475 -2.0749 -1.0481
 1053SOL    HW214619   1.455   3.945   5.523 -0.2979 -0.1383 -0.2013
 1054SOL     OW14620   4.378   3.854   2.851 -0.0074  0.0359 -0.1808
 1054SOL    HW114621   4.367   3.940   2.812  2.8003  0.1266 -0.7786
 1054SOL    HW214622   4.470   3.852   2.877  0.2678 -1.9150 -1.3304
 1055SOL     OW14623   1.814   1.980   2.570 -0.3733  0.6483  0.3686
 1055SOL    HW114624   1.760   1.900   2.566  1.3147 -0.4973  0.5507
 1055SOL    HW214625   1.748   2.033   2.615 -2.0913 -0.7113 -0.5490
 1056SOL     OW14626   2.555   0.596  15.584  0.2860 -0.3687 -0.0609
 1056SOL    HW114627   2.486   0.656  15.612  2.1781  2.0404 -0.5093
 1056SOL    HW214628   2.524   0.586  15.494 -2.3318 -2.6867  1.1178
 1057SOL     OW14629   3.442   4.216   4.824 -0.3025 -0.4455  0.3724
 1057SOL    HW114630   3.382   4.179   4.759  1.5274 -0.1068 -1.5189
 1057SOL    HW214631   3.399   4.181   4.902 -2.5892  2.6866  0.5277
 1058SOL     OW14632   2.719   2.975  15.938 -0.1895  0.1688 -0.1253
 1058SOL    HW114633   2.774   3.053  15.936 -2.1475  1.5023 -1.2255
 1058SOL    HW214634   2.735   2.929  15.856  1.3288 -0.7035  0.6550
 1059SOL     OW14635   0.958   3.369  13.483  0.0592 -0.1636 -0.0579
 1059SOL    HW114636   1.053   3.384  13.489  0.3887 -1.1254 -2.4793
 1059SOL    HW214637   0.921   3.454  13.506  0.7707  0.7300 -2.1565
 1060SOL     OW14638   1.847   2.435   6.514  0.3158 -0.2641 -0.0831
 1060SOL    HW114639   1.855   2.393   6.599 -0.8464  1.6929  0.9766
 1060SOL    HW214640   1.897   2.516   6.522 -0.4268  0.0486  1.3617
 1061SOL     OW14641   1.473   0.373   4.806  0.2303 -0.1173 -0.5659
 1061SOL    HW114642   1.474   0.358   4.900  0.0915  1.2781 -0.3410
 1061SOL    HW214643   1.553   0.425   4.797  1.0922 -1.1700  1.0495
 1062SOL     OW14644   2.307   2.164  16.873 -0.5957  0.6983  0.0228
 1062SOL    HW114645   2.400   2.176  16.889 -0.1342 -1.6680 -0.8219
 1062SOL    HW214646   2.303   2.222  16.797  4.1254  1.1882  0.1667
 1063SOL     OW14647   0.107   3.567   8.359 -0.3862 -0.2184 -0.1954
 1063SOL    HW114648   0.184   3.607   8.399  0.0071 -2.1449  1.0138
 1063SOL    HW214649   0.121   3.578   8.264 -0.4399 -0.7501 -0.2663
 1064SOL     OW14650   4.442   2.669   3.672  0.1081  0.0758 -0.7157
 1064SOL    HW114651   4.377   2.737   3.688  0.4844  0.7390 -1.9692
 1064SOL    HW214652   4.475   2.650   3.760  1.9144 -1.9249 -1.8426
 1065SOL     OW14653   4.119   4.087   2.036  0.3353 -0.2771  0.1888
 1065SOL    HW114654   4.103   4.138   1.957  2.5789 -0.1117 -0.1385
 1065SOL    HW214655   4.053   4.017   2.038  1.0255 -1.0153 -1.8900
 1066SOL     OW14656   0.145   3.052   4.151 -0.6896 -0.1107 -0.0831
 1066SOL    HW114657   0.176   2.986   4.089  0.6853 -1.8512  2.4425
 1066SOL    HW214658   0.061   3.060   4.106 -1.5734  0.4646  1.6427
 1067SOL     OW14659   0.443   1.242   5.288 -0.1656  0.4749 -0.1032
 1067SOL    HW114660   0.418   1.275   5.202 -0.2513 -0.7504 -0.5477
 1067SOL    HW214661   0.361   1.257   5.334 -1.4835  1.5886 -2.7891
 1068SOL     OW14662   0.373   2.647   0.828  0.1310  0.0841  0.0331
 1068SOL    HW114663   0.282   2.674   0.840 -0.3657 -0.9408 -1.3216
 1068SOL    HW214664   0.369   2.619   0.736  0.6307 -0.8106  0.2835
 1069SOL     OW14665   3.190   3.811  13.679 -0.0586  0.0516 -1.0449
 1069SOL    HW114666   3.115   3.842  13.629  0.3641  0.6173 -1.3331
 1069SOL    HW214667   3.146   3.729  13.703 -1.8072  0.9563 -1.2384
 1070SOL     OW14668   1.016   0.209   2.708  0.2710 -0.3779 -0.4102
 1070SOL    HW114669   1.081   0.188   2.641  2.7680  1.7554  1.3843
 1070SOL    HW214670   0.985   0.297   2.686  1.9842  0.3117 -0.0529
 1071SOL     OW14671   1.693   3.935   0.876  0.1176 -0.1838 -0.5674
 1071SOL    HW114672   1.775   3.980   0.857  0.4594 -0.5223  0.0986
 1071SOL    HW214673   1.723   3.892   0.956 -2.6016 -2.3102 -0.6714
 1072SOL     OW14674   3.205   4.243   3.921  0.3340 -0.1453 -0.2337
 1072SOL    HW114675   3.145   4.307   3.882 -0.9692 -0.5473  1.1224
 1072SOL    HW214676   3.291   4.284   3.917  0.0126  0.6742  1.0565
 1073SOL     OW14677   1.934   1.785  12.031 -0.2114  0.2306  0.4257
 1073SOL    HW114678   1.881   1.862  12.010  0.0955  0.5944  0.9824
 1073SOL    HW214679   2.015   1.823  12.066 -1.6539  1.0885  2.8538
 1074SOL     OW14680   2.297   0.009   7.489  0.0908  0.4489  0.2691
 1074SOL    HW114681   2.358   4.697   7.423 -0.0300  0.4803  0.1424
 1074SOL    HW214682   2.320   4.680   7.568 -2.1307  1.0684  1.3011
 1075SOL     OW14683   2.372   1.257   4.630  0.1310 -0.4512  0.0722
 1075SOL    HW114684   2.287   1.280   4.591 -1.5491 -0.0988  4.0128
 1075SOL    HW214685   2.365   1.162   4.621 -0.5661 -0.2575 -1.6012
 1076SOL     OW14686   1.174   1.129   2.563 -0.2306 -0.2482 -0.2205
 1076SOL    HW114687   1.125   1.183   2.625  1.1280  2.1319 -1.1873
 1076SOL    HW214688   1.119   1.132   2.485 -1.5046 -2.0115  0.6444
 1077SOL     OW14689   2.115   2.736   8.583  0.0289 -0.1825 -0.2620
 1077SOL    HW114690   2.145   2.827   8.580  2.8058 -1.0921  0.4133
 1077SOL    HW214691   2.123   2.708   8.674 -1.1394 -0.5505 -0.2673
 1078SOL     OW14692   2.171   2.690   5.072 -0.1821 -0.4192 -0.0679
 1078SOL    HW114693   2.195   2.741   5.150  2.0512  1.2185 -1.8252
 1078SOL    HW214694   2.250   2.709   5.022  0.0315 -1.6988 -0.2196
 1079SOL     OW14695   2.140   2.519   1.126 -0.0100 -0.1733 -0.0774
 1079SOL    HW114696   2.155   2.512   1.031 -1.9568 -0.9890 -0.3275
 1079SOL    HW214697   2.156   2.428   1.152 -2.3189 -0.2036  1.1711
 1080SOL     OW14698   0.955   4.208   7.773 -0.2388 -0.8027 -0.9033
 1080SOL    HW114699   0.976   4.286   7.722 -1.1261  0.5224  0.7611
 1080SOL    HW214700   0.860   4.209   7.767 -0.3207 -2.0192  0.1695
 1081SOL     OW14701   1.369   1.613   2.068  0.7015 -0.7375 -0.4920
 1081SOL    HW114702   1.277   1.590   2.079  0.2949  0.4921 -1.3341
 1081SOL    HW214703   1.361   1.703   2.038  1.1571 -0.3573  0.5195
 1082SOL     OW14704   0.172   0.102   4.057 -0.1947  0.0265  0.1367
 1082SOL    HW114705   0.149   0.182   4.008  2.3957  0.9798  0.5035
 1082SOL    HW214706   0.175   0.143   4.144  0.8494 -1.0355  0.5915
 1083SOL     OW14707   4.702   1.818   8.828  1.0843  0.4733  0.0836
 1083SOL    HW114708   4.672   1.793   8.740  3.1153  2.7510 -1.2657
 1083SOL    HW214709   0.076   1.825   8.815  1.2257 -1.9480 -0.1932
 1084SOL     OW14710   3.948   4.172   5.759  0.3804 -0.3742  0.0158
 1084SOL    HW114711   4.001   4.237   5.712  2.2551 -1.5431  0.5625
 1084SOL    HW214712   3.909   4.234   5.821  0.4231 -0.3792  0.0471
 1085SOL     OW14713   4.185   2.369   3.228 -0.1614  0.1682 -0.4768
 1085SOL    HW114714   4.154   2.455   3.258  0.6217 -0.1017  1.1056
 1085SOL    HW214715   4.102   2.322   3.236  0.3378 -0.5407  0.6267
 1086SOL     OW14716   1.011   4.440   6.313 -0.2748  0.2499  0.3183
 1086SOL    HW114717   0.981   4.365   6.364 -1.8999  0.3042 -0.5517
 1086SOL    HW214718   1.102   4.423   6.337  0.2829  2.1807 -0.4570
 1087SOL     OW14719   1.206   2.563  15.363  0.0298  0.2759  0.1800
 1087SOL    HW114720   1.208   2.474  15.398 -2.5824  0.2271  0.2583
 1087SOL    HW214721   1.295   2.569  15.329 -0.1681 -0.5461 -0.4765
 1088SOL     OW14722   4.470   3.250  13.816  0.3185  0.0902 -0.1464
 1088SOL    HW114723   4.440   3.232  13.905 -0.2114  1.5289 -0.0331
 1088SOL    HW214724   4.510   3.170  13.781 -0.0100 -1.0261  2.0514
 1089SOL     OW14725   4.277   2.899   3.372  0.1312 -0.5672 -0.2900
 1089SOL    HW114726   4.185   2.922   3.384 -0.1312 -1.9763  0.3977
 1089SOL    HW214727   4.325   2.942   3.443  0.2467 -1.3508  0.1057
 1090SOL     OW14728   2.011   0.175   4.157 -0.3994  0.4167 -0.0804
 1090SOL    HW114729   2.017   0.161   4.063 -0.8735 -0.4974  0.0255
 1090SOL    HW214730   1.957   0.107   4.198 -1.5726  0.9551 -0.7341
 1091SOL     OW14731   2.082   4.389   7.060 -0.3076  0.3544  0.2498
 1091SOL    HW114732   2.120   4.465   7.015  1.5524 -0.2698  0.7624
 1091SOL    HW214733   2.015   4.432   7.113  0.0455  0.4769  0.5914
 1092SOL     OW14734   2.585   2.133   2.665 -0.1032 -0.4103 -0.3833
 1092SOL    HW114735   2.620   2.067   2.606  1.0638  0.4639 -0.6615
 1092SOL    HW214736   2.524   2.175   2.604  3.0053  0.3279 -2.9529
 1093SOL     OW14737   1.310   2.282  14.035 -0.2190 -0.4872 -0.3509
 1093SOL    HW114738   1.312   2.349  14.104  0.5630 -0.4606 -0.3906
 1093SOL    HW214739   1.404   2.268  14.024 -0.2830  1.1370 -3.0029
 1094SOL     OW14740   1.960   0.894   3.058 -0.1143  0.8091  0.5638
 1094SOL    HW114741   2.056   0.897   3.049 -0.0825  1.9971  1.3483
 1094SOL    HW214742   1.943   0.801   3.043 -0.7250  1.0016  0.0644
 1095SOL     OW14743   0.010   2.207  14.219  0.7309  0.4818 -0.0905
 1095SOL    HW114744   0.005   2.203  14.314 -1.1355 -1.4608 -0.2788
 1095SOL    HW214745   0.103   2.224  14.228  0.6983 -0.9867  2.7681
 1096SOL     OW14746   0.205   0.707   1.211  0.2627 -0.1237  0.5817
 1096SOL    HW114747   0.252   0.765   1.271  1.2395 -0.2335 -0.0819
 1096SOL    HW214748   0.284   0.658   1.190 -0.9650 -1.5496 -0.6171
 1097SOL     OW14749   2.955   1.947   5.759  0.9927  0.2127  0.4346
 1097SOL    HW114750   2.902   2.014   5.803  2.6870  0.9873  1.3221
 1097SOL    HW214751   2.990   2.001   5.687 -0.3337 -0.2177 -0.5338
 1098SOL     OW14752   1.797   1.977  12.758  0.5495  0.0837 -0.7326
 1098SOL    HW114753   1.813   1.885  12.778 -0.4175 -0.1480 -1.0135
 1098SOL    HW214754   1.817   1.980  12.664  0.4691 -1.1894 -0.7952
 1099SOL     OW14755   2.303   3.339  13.305  0.3987 -0.2696 -0.1251
 1099SOL    HW114756   2.289   3.359  13.213 -1.1235  0.6277  0.3024
 1099SOL    HW214757   2.279   3.246  13.304 -0.3816 -0.0842  1.4553
 1100SOL     OW14758   2.756   0.757   4.703 -0.1954 -0.0440  0.3619
 1100SOL    HW114759   2.673   0.760   4.752 -0.6111 -1.2385 -0.2677
 1100SOL    HW214760   2.747   0.670   4.664 -0.6316 -0.6283  1.7732
 1101SOL     OW14761   3.297   2.484   2.522  0.0259 -0.1258 -0.4791
 1101SOL    HW114762   3.342   2.424   2.582  1.7164  1.0620 -0.5437
 1101SOL    HW214763   3.302   2.573   2.558 -0.1949 -0.1120 -0.4856
 1102SOL     OW14764   4.432   4.246   1.635 -0.1170  0.9088 -0.2037
 1102SOL    HW114765   4.470   4.199   1.561 -1.3287  0.3870 -0.4960
 1102SOL    HW214766   4.381   4.311   1.586 -1.4690 -0.0536 -0.0928
 1103SOL     OW14767   2.546   0.813   4.489 -0.2273 -0.6373 -0.8761
 1103SOL    HW114768   2.636   0.834   4.516 -0.2440  0.5489 -1.7301
 1103SOL    HW214769   2.537   0.723   4.521 -0.1566 -1.0203 -1.9060
 1104SOL     OW14770   0.842   0.879   3.638 -0.9228  0.0859 -0.3318
 1104SOL    HW114771   0.932   0.911   3.647 -0.8461  0.0253 -0.8493
 1104SOL    HW214772   0.839   0.812   3.706 -0.9460  0.0496 -0.3683
 1105SOL     OW14773   1.260   4.545   0.301  0.2713  0.2179  0.3125
 1105SOL    HW114774   1.280   4.541   0.207 -0.6267 -1.9421  0.2097
 1105SOL    HW214775   1.277   4.637   0.324  2.3226 -0.5966  2.0091
 1106SOL     OW14776   1.020   1.456   5.127 -0.6509  0.2670  0.6713
 1106SOL    HW114777   1.006   1.362   5.132 -0.1758  0.0412 -1.8719
 1106SOL    HW214778   0.954   1.487   5.064  1.3406  2.3573 -0.4152
 1107SOL     OW14779   2.875   4.477   7.097 -0.1120  0.0905  0.4731
 1107SOL    HW114780   2.922   4.422   7.159 -0.2421 -1.5677 -0.9169
 1107SOL    HW214781   2.935   4.481   7.022 -1.6634  2.1675 -0.6779
 1108SOL     OW14782   0.938   3.218   2.829  0.0091 -0.4519 -0.1319
 1108SOL    HW114783   0.880   3.281   2.786  0.5998 -0.2474 -0.6258
 1108SOL    HW214784   0.902   3.219   2.917 -0.6627  0.5002 -0.4149
 1109SOL     OW14785   3.973   3.269   3.060  0.3425 -0.2033  0.1789
 1109SOL    HW114786   4.018   3.239   3.139 -0.1537 -2.1656 -0.2866
 1109SOL    HW214787   3.905   3.322   3.100  0.1185 -0.3261 -0.0395
 1110SOL     OW14788   0.261   3.947   4.531 -0.0224 -0.0584  0.0403
 1110SOL    HW114789   0.196   4.001   4.485 -0.4323  0.6659  1.4700
 1110SOL    HW214790   0.200   3.875   4.546  0.0842  0.1217  1.3519
 1111SOL     OW14791   2.241   3.016   5.538  0.2345  0.6166 -0.4909
 1111SOL    HW114792   2.190   3.070   5.599 -1.7792  0.0745 -1.6883
 1111SOL    HW214793   2.292   2.952   5.588  1.7027  2.3292  0.2037
 1112SOL     OW14794   0.896   3.273   7.968 -0.3299 -0.6707 -0.3315
 1112SOL    HW114795   0.864   3.319   7.891  0.1902  0.2590  0.0117
 1112SOL    HW214796   0.853   3.321   8.038 -0.4177 -1.5304  0.2085
 1113SOL     OW14797   2.532   2.153   4.153 -0.1329  0.1964 -0.1338
 1113SOL    HW114798   2.539   2.136   4.059  1.3939 -0.1920  0.0460
 1113SOL    HW214799   2.482   2.079   4.189  1.3295 -0.2234  1.0458
 1114SOL     OW14800   1.177   1.123  17.104 -0.4279  0.5209 -0.4747
 1114SOL    HW114801   1.233   1.047  17.088  1.3370  1.4969  1.0925
 1114SOL    HW214802   1.117   1.122  17.029  1.3408  0.5467 -1.9133
 1115SOL     OW14803   4.356   0.583   4.966  0.3190 -0.4362  0.1702
 1115SOL    HW114804   4.370   0.668   5.009 -2.9532 -0.1742  0.7219
 1115SOL    HW214805   4.337   0.619   4.879  0.9657 -0.2691  0.0995
 1116SOL     OW14806   1.168   0.906   7.306 -0.0754 -0.4545 -0.5764
 1116SOL    HW114807   1.176   0.995   7.341  3.3543 -0.9039 -0.2494
 1116SOL    HW214808   1.139   0.865   7.387  1.5324 -1.5877 -0.5620
 1117SOL     OW14809   4.213   0.103   6.098 -0.2888  0.1924 -0.1901
 1117SOL    HW114810   4.203   0.066   6.009  1.2757  1.2730 -0.8092
 1117SOL    HW214811   4.209   0.194   6.070 -1.1811 -0.0954 -1.0024
 1118SOL     OW14812   2.932   0.505   6.866  0.1840 -0.3165 -0.2937
 1118SOL    HW114813   2.966   0.589   6.835  1.7173 -1.5489 -1.9663
 1118SOL    HW214814   2.969   0.510   6.955  0.0978 -0.9705 -0.2194
 1119SOL     OW14815   0.316   3.790   6.484  0.1361  0.2096  0.4998
 1119SOL    HW114816   0.280   3.869   6.444  1.2726  1.6079  2.2458
 1119SOL    HW214817   0.321   3.729   6.411  0.6429 -0.1725  0.8510
 1120SOL     OW14818   1.264   3.851   1.739 -0.6582 -0.1047 -0.0495
 1120SOL    HW114819   1.201   3.923   1.748  0.9439  1.3657 -0.6454
 1120SOL    HW214820   1.222   3.795   1.804 -0.7174 -0.6175 -0.5278
 1121SOL     OW14821   3.095   4.515   8.725  0.1471  0.0101 -0.2779
 1121SOL    HW114822   3.005   4.532   8.751  0.5026 -1.9920  2.2598
 1121SOL    HW214823   3.119   4.431   8.765 -1.0290 -1.3242 -2.4082
 1122SOL     OW14824   2.975   0.936   9.428 -0.1330 -0.2874  0.3932
 1122SOL    HW114825   2.937   0.897   9.350  0.1444  2.8967 -1.3157
 1122SOL    HW214826   2.945   1.026   9.417  1.8833  0.6805  2.7396
 1123SOL     OW14827   3.362   2.215   0.196  0.7526 -0.1940  0.4292
 1123SOL    HW114828   3.382   2.175   0.111  1.1775 -0.8577  0.8408
 1123SOL    HW214829   3.281   2.169   0.214 -0.2624  1.0974 -0.7734
 1124SOL     OW14830   3.425   3.305  13.246 -0.0773  0.4614  0.4213
 1124SOL    HW114831   3.370   3.281  13.172 -0.3204  1.1214  0.3893
 1124SOL    HW214832   3.503   3.347  13.207 -0.0087  0.6257  0.7311
 1125SOL     OW14833   1.560   1.101   1.147  0.0560 -0.0161  0.0404
 1125SOL    HW114834   1.631   1.063   1.095 -0.0143  0.7333 -0.6060
 1125SOL    HW214835   1.584   1.193   1.159 -1.0897 -0.0007  2.2640
 1126SOL     OW14836   0.138   3.361   9.285  0.0253  0.0551 -0.0188
 1126SOL    HW114837   0.203   3.337   9.350 -1.1901 -1.4573  0.6412
 1126SOL    HW214838   0.130   3.453   9.310 -1.0829 -0.5045  1.6923
 1127SOL     OW14839   2.895   2.448   8.078  0.1435  0.2667 -0.0623
 1127SOL    HW114840   2.932   2.378   8.132  1.6607 -0.3294 -1.8471
 1127SOL    HW214841   2.833   2.494   8.134 -1.8584 -3.3884  0.7031
 1128SOL     OW14842   4.577   1.343   6.221 -0.2272  0.6280  0.2159
 1128SOL    HW114843   4.508   1.381   6.274 -0.6912 -0.6176  0.5072
 1128SOL    HW214844   4.647   1.405   6.243 -0.4489  1.1004 -0.3961
 1129SOL     OW14845   1.460   1.835  14.290  0.1174  0.0571  0.2625
 1129SOL    HW114846   1.426   1.764  14.236 -2.1049  0.5400  1.0281
 1129SOL    HW214847   1.525   1.867  14.228  2.0456  1.3267  2.9506
 1130SOL     OW14848   0.740   2.017   1.999 -0.6133  0.3014  0.2414
 1130SOL    HW114849   0.781   1.937   2.031 -1.4668 -0.5127 -0.7118
 1130SOL    HW214850   0.699   2.050   2.079 -0.9455  1.2873 -0.3317
 1131SOL     OW14851   1.374   2.855   2.395 -0.2058 -0.8027 -0.5843
 1131SOL    HW114852   1.399   2.830   2.306  0.0846  0.9783 -1.0023
 1131SOL    HW214853   1.417   2.785   2.444 -0.3321 -0.9267 -0.6497
 1132SOL     OW14854   2.694   0.644   9.586  0.2185 -0.2941  0.3336
 1132SOL    HW114855   2.687   0.621   9.679 -2.3508 -2.0059 -0.2920
 1132SOL    HW214856   2.751   0.721   9.586 -1.1943  0.7566  0.3603
 1133SOL     OW14857   3.053   2.219   2.774 -0.6684 -0.0130  0.0470
 1133SOL    HW114858   2.981   2.237   2.713 -0.0590  1.6700 -0.1811
 1133SOL    HW214859   3.070   2.126   2.757 -1.0091 -0.1806  0.6323
 1134SOL     OW14860   0.682   4.393   1.718 -0.4040 -0.1576 -0.1891
 1134SOL    HW114861   0.660   4.480   1.684 -1.2170  0.1941  1.2077
 1134SOL    HW214862   0.610   4.386   1.781 -0.8100  0.4280 -0.5945
 1135SOL     OW14863   4.590   4.317   9.102  0.0314  0.2818 -0.3241
 1135SOL    HW114864   4.638   4.301   9.183  1.1420  1.4231 -0.7615
 1135SOL    HW214865   4.625   4.397   9.064 -1.5093  0.6141 -1.0662
 1136SOL     OW14866   2.130   4.488   2.463  0.3253 -0.1143 -0.2100
 1136SOL    HW114867   2.197   4.515   2.527  0.6048  0.7128 -0.8425
 1136SOL    HW214868   2.097   4.576   2.445 -1.8904 -1.0311 -0.5472
 1137SOL     OW14869   3.263   0.787   3.949  0.1074  0.0101 -0.3989
 1137SOL    HW114870   3.302   0.709   3.989  1.1978  1.1440  0.7022
 1137SOL    HW214871   3.324   0.818   3.883  0.7075 -1.7303 -0.6794
 1138SOL     OW14872   1.424   1.820  14.747  0.4207  0.1774  0.1277
 1138SOL    HW114873   1.380   1.745  14.706 -0.2386  0.5563  0.1478
 1138SOL    HW214874   1.354   1.883  14.734 -2.5511 -3.3134 -0.9559
 1139SOL     OW14875   3.830   0.017   4.233  0.6784 -0.3183 -0.1456
 1139SOL    HW114876   3.891   4.666   4.250  1.0576 -0.0313 -0.3055
 1139SOL    HW214877   3.870   0.088   4.283 -0.1675 -1.2807  1.9240
 1140SOL     OW14878   4.366   0.677   8.858 -0.3498 -0.0744  0.2000
 1140SOL    HW114879   4.360   0.607   8.793  0.5328 -0.7264  0.8159
 1140SOL    HW214880   4.367   0.760   8.810 -0.7415 -0.8052 -1.0976
 1141SOL     OW14881   1.595   1.597   4.222  0.8788 -0.5263 -0.0663
 1141SOL    HW114882   1.506   1.564   4.209  1.1513 -0.6076 -1.7269
 1141SOL    HW214883   1.631   1.522   4.269  1.2488  1.4796  2.8919
 1142SOL     OW14884   2.801   1.653   2.876 -0.1909 -0.4064  0.6105
 1142SOL    HW114885   2.878   1.690   2.833 -0.3343 -0.8153  0.0102
 1142SOL    HW214886   2.840   1.650   2.964  0.1076 -0.5462  0.4750
 1143SOL     OW14887   2.295   1.309  15.177 -0.1391 -0.5460 -0.3290
 1143SOL    HW114888   2.370   1.337  15.125  0.2464 -1.2890 -0.1805
 1143SOL    HW214889   2.316   1.216  15.177 -1.9262 -0.9447 -1.0443
 1144SOL     OW14890   4.466   4.161   3.037 -0.5056 -0.0962  0.5332
 1144SOL    HW114891   4.476   4.071   3.067  3.3451  0.7981  1.8750
 1144SOL    HW214892   4.484   4.149   2.943 -0.6224 -0.7733  0.5976
 1145SOL     OW14893   4.250   2.849   7.831  0.4549  0.0324  0.5082
 1145SOL    HW114894   4.166   2.872   7.870  0.5595  0.6611  0.3765
 1145SOL    HW214895   4.308   2.817   7.900  1.1634 -1.3017 -0.6944
 1146SOL     OW14896   3.667   3.884   8.930  0.2619 -0.2290  0.5835
 1146SOL    HW114897   3.745   3.838   8.962  1.8354  1.0962 -1.3596
 1146SOL    HW214898   3.669   3.859   8.838 -0.2219  0.5784  0.3599
 1147SOL     OW14899   2.350   3.197   6.284  0.5255  0.0048 -0.0415
 1147SOL    HW114900   2.423   3.196   6.221 -1.9397 -1.6416 -2.8206
 1147SOL    HW214901   2.313   3.284   6.266  1.3763  0.4011  0.0912
 1148SOL     OW14902   0.206   4.439   3.437  0.5588 -0.5272  0.1497
 1148SOL    HW114903   0.147   4.511   3.459  0.7787  0.1551 -1.5255
 1148SOL    HW214904   0.224   4.400   3.523  0.2302  2.1864  1.4322
 1149SOL     OW14905   1.390   1.068   2.723  0.3890 -0.0282  0.6063
 1149SOL    HW114906   1.325   1.105   2.664  1.8058  0.6648 -0.4947
 1149SOL    HW214907   1.478   1.080   2.689  0.3165 -0.3245  0.3120
 1150SOL     OW14908   2.357   2.779   4.212  0.0268 -0.0838 -0.4988
 1150SOL    HW114909   2.357   2.872   4.190  2.6373  0.2479  0.9273
 1150SOL    HW214910   2.271   2.760   4.172 -0.9315  0.2863  1.4162
 1151SOL     OW14911   2.248   3.692   5.904  0.7934  0.8913  0.4614
 1151SOL    HW114912   2.262   3.787   5.906 -1.8423  1.3061 -0.6488
 1151SOL    HW214913   2.327   3.658   5.946 -0.4014  0.5284  2.4559
 1152SOL     OW14914   2.724   2.192   2.186 -0.4286 -0.0122 -0.2577
 1152SOL    HW114915   2.663   2.126   2.219  0.6085 -0.6899  0.3008
 1152SOL    HW214916   2.694   2.195   2.096 -0.6005 -2.0204 -0.2514
 1153SOL     OW14917   1.027   1.170   4.467  0.1568 -0.4819 -0.4882
 1153SOL    HW114918   0.972   1.246   4.447  1.0614  0.4402  0.5179
 1153SOL    HW214919   1.110   1.207   4.436  1.0837  0.5825  3.2622
 1154SOL     OW14920   0.130   4.375   2.350  0.2236  0.6174  0.4387
 1154SOL    HW114921   0.148   4.321   2.273 -0.9004  0.2681  0.4238
 1154SOL    HW214922   0.129   4.304   2.414 -0.2339  0.5635  0.3712
 1155SOL     OW14923   1.552   0.136  15.084  0.1317  0.0530 -0.0165
 1155SOL    HW114924   1.505   0.184  15.153  0.3723  0.2520  0.0083
 1155SOL    HW214925   1.619   0.082  15.127 -2.1443 -3.1598 -0.4982
 1156SOL     OW14926   0.083   0.614   9.378 -0.3038 -0.0739  0.0402
 1156SOL    HW114927   0.065   0.573   9.294  2.2519  0.4242 -0.7597
 1156SOL    HW214928   0.064   0.706   9.359 -0.0181 -0.2733 -1.1565
 1157SOL     OW14929   1.078   1.137   8.068  0.4560  0.1591 -0.2512
 1157SOL    HW114930   1.038   1.051   8.053  0.5340  0.0477  0.1705
 1157SOL    HW214931   1.112   1.126   8.157 -1.1402 -0.5113  0.2852
 1158SOL     OW14932   3.330   2.228   3.348  0.2795 -0.3872 -0.3007
 1158SOL    HW114933   3.363   2.252   3.435 -0.2026  1.3012 -0.5834
 1158SOL    HW214934   3.393   2.166   3.313 -0.0891 -0.0245 -1.6005
 1159SOL     OW14935   2.892   2.511   7.639 -0.2247 -0.0167  0.2793
 1159SOL    HW114936   2.846   2.480   7.718  0.9731 -2.8489 -0.1127
 1159SOL    HW214937   2.956   2.564   7.686  0.6601 -0.6439 -0.2294
 1160SOL     OW14938   2.163   3.288   2.724  0.1083 -0.4817  0.4296
 1160SOL    HW114939   2.153   3.371   2.772  2.0299  0.7427 -1.2472
 1160SOL    HW214940   2.237   3.246   2.768 -0.9002 -0.3943  2.2182
 1161SOL     OW14941   4.491   3.457   6.539  0.0214 -0.3025  0.0569
 1161SOL    HW114942   4.580   3.435   6.568  0.4791 -0.7032 -1.6655
 1161SOL    HW214943   4.477   3.540   6.586 -1.1188  0.0112 -0.8499
 1162SOL     OW14944   3.538   4.040   7.782 -0.5695  0.1674  0.1322
 1162SOL    HW114945   3.595   4.034   7.705 -1.0161  0.3696 -0.2157
 1162SOL    HW214946   3.569   4.121   7.823 -1.2406  0.3364  0.2970
 1163SOL     OW14947   3.125   3.869   0.638  0.6468 -0.2741  0.0137
 1163SOL    HW114948   3.126   3.783   0.596 -0.9362 -0.9213  1.3022
 1163SOL    HW214949   3.182   3.844   0.711  1.9570 -0.6786 -1.1450
 1164SOL     OW14950   4.510   0.539  11.077  0.4750 -0.1765 -0.1397
 1164SOL    HW114951   4.505   0.629  11.045 -1.6319 -0.1503  0.2938
 1164SOL    HW214952   4.417   0.518  11.080  0.9125 -2.2861 -1.5770
 1165SOL     OW14953   2.426   3.966   5.585  0.3822  0.6519 -0.3992
 1165SOL    HW114954   2.480   3.893   5.614 -0.9810 -0.9904 -1.9845
 1165SOL    HW214955   2.365   3.915   5.532  0.4633  1.3499 -1.1745
 1166SOL     OW14956   4.621   0.261  12.924  0.1923 -0.0499  0.3012
 1166SOL    HW114957   4.651   0.188  12.979  2.1307  0.7576  0.3240
 1166SOL    HW214958   4.693   0.290  12.868  1.5165 -0.4220  1.8087
 1167SOL     OW14959   1.308   4.604   4.104 -0.0136 -0.1580  0.0183
 1167SOL    HW114960   1.372   4.576   4.038 -1.4399  3.0059 -2.7072
 1167SOL    HW214961   1.253   4.656   4.046  0.0629 -1.8156 -1.5637
 1168SOL     OW14962   2.094   1.618  15.434  0.2715  0.2409  0.0630
 1168SOL    HW114963   2.022   1.664  15.392 -0.8037 -1.9686 -0.5140
 1168SOL    HW214964   2.145   1.693  15.464  1.2413 -0.4404  0.1574
 1169SOL     OW14965   3.596   3.988   5.125 -0.5708  0.1042  0.1105
 1169SOL    HW114966   3.550   3.945   5.197 -1.2274  0.2523 -0.2320
 1169SOL    HW214967   3.625   3.907   5.084 -0.0027 -0.3264  1.3398
 1170SOL     OW14968   3.844   3.327   5.485 -0.2526 -0.3844  0.7843
 1170SOL    HW114969   3.869   3.300   5.397  0.5208 -1.4141  1.3192
 1170SOL    HW214970   3.850   3.242   5.530  0.4642  0.0482  1.5086
 1171SOL     OW14971   2.439   2.797   9.030  0.2673  0.2078  0.2587
 1171SOL    HW114972   2.386   2.833   9.100  0.1821  0.2418  0.1771
 1171SOL    HW214973   2.469   2.717   9.074  0.6832 -0.1436 -0.6524
 1172SOL     OW14974   1.383   3.235  15.609  0.0615 -0.0681  0.0241
 1172SOL    HW114975   1.327   3.295  15.560 -0.5653  0.1120  0.9575
 1172SOL    HW214976   1.325   3.159  15.619 -1.3844  0.9903 -0.2887
 1173SOL     OW14977   1.603   1.953   4.517  0.4450  0.1087  0.2231
 1173SOL    HW114978   1.572   2.028   4.567  2.1137  1.5560 -0.9429
 1173SOL    HW214979   1.562   1.884   4.571 -0.3575  0.6626  0.3255
 1174SOL     OW14980   3.159   2.593   1.902 -0.0309  0.0178 -0.0463
 1174SOL    HW114981   3.107   2.604   1.822 -1.4090  0.6858  0.9609
 1174SOL    HW214982   3.110   2.523   1.945 -0.0693 -1.4168 -2.4263
 1175SOL     OW14983   2.031   4.630  11.569  0.3508  0.7549 -0.3151
 1175SOL    HW114984   2.022   4.560  11.634  0.2641  1.8485  0.8256
 1175SOL    HW214985   2.002   4.709  11.614  1.3034  1.8187 -1.5533
 1176SOL     OW14986   4.100   0.805  15.520  0.4136  0.3775 -0.0601
 1176SOL    HW114987   4.115   0.843  15.434 -0.9528 -2.5176 -1.5741
 1176SOL    HW214988   4.180   0.818  15.570  0.3112  2.6912 -0.5091
 1177SOL     OW14989   3.064   4.147  10.768 -0.3236  0.0941 -0.0813
 1177SOL    HW114990   3.052   4.128  10.861 -0.6187  0.4346 -0.0494
 1177SOL    HW214991   3.089   4.239  10.765 -1.0721  0.2639 -1.0566
 1178SOL     OW14992   0.185   0.133  11.590  0.0221 -0.2831 -0.0270
 1178SOL    HW114993   0.200   0.215  11.542 -2.2504 -0.7678 -1.5743
 1178SOL    HW214994   0.266   0.091  11.560 -1.3498 -1.2129 -2.5099
 1179SOL     OW14995   2.691   1.817  12.788 -0.1485 -0.6760 -0.3069
 1179SOL    HW114996   2.765   1.878  12.791 -1.9715  1.4927  0.6566
 1179SOL    HW214997   2.711   1.780  12.702  0.2061 -0.2507 -0.4084
 1180SOL     OW14998   2.085   2.677   1.349  0.0093 -0.1978  0.4996
 1180SOL    HW114999   2.174   2.703   1.374 -0.2356  3.0289 -1.9267
 1180SOL    HW215000   2.095   2.609   1.283  0.1851 -0.2962  0.6288
 1181SOL     OW15001   1.219   2.114   3.491  0.3470  0.1354 -0.2811
 1181SOL    HW115002   1.189   2.057   3.562 -0.6242  2.9207  1.5777
 1181SOL    HW215003   1.259   2.186   3.540 -0.5394  0.5354 -0.1481
 1182SOL     OW15004   4.496   1.240   5.970  0.3572  0.7796 -0.0461
 1182SOL    HW115005   4.536   1.237   6.056  1.3559  2.4872 -0.4610
 1182SOL    HW215006   4.521   1.158   5.927  0.4555  0.1602  1.2151
 1183SOL     OW15007   3.095   0.347   7.721  0.3764 -0.2763  0.2417
 1183SOL    HW115008   3.172   0.349   7.664 -0.2634 -0.1257 -0.6148
 1183SOL    HW215009   3.103   0.433   7.763  1.6741 -0.1548 -0.2654
 1184SOL     OW15010   2.587   1.285   7.556 -0.1571  0.4364  0.3556
 1184SOL    HW115011   2.597   1.355   7.621  3.2878  1.4369 -1.2139
 1184SOL    HW215012   2.517   1.320   7.501 -1.6072 -0.3760  1.7200
 1185SOL     OW15013   3.800   3.573   1.340 -0.1737  0.4620  0.0296
 1185SOL    HW115014   3.833   3.484   1.339 -0.3187  0.4214 -1.2961
 1185SOL    HW215015   3.842   3.610   1.418  0.8310 -1.2544  0.2856
 1186SOL     OW15016   0.916   3.717   5.035  0.2775 -0.2232  0.2394
 1186SOL    HW115017   0.893   3.809   5.019  1.2878  0.0809  0.5475
 1186SOL    HW215018   0.972   3.718   5.112  3.3252 -0.5432 -2.0044
 1187SOL     OW15019   0.146   4.468  14.444  0.6706 -0.1597 -0.0447
 1187SOL    HW115020   0.197   4.452  14.365 -0.3334 -1.7815 -0.3662
 1187SOL    HW215021   0.205   4.425  14.507  0.0495 -0.9662 -0.0121
 1188SOL     OW15022   0.638   2.182   7.951  0.5358 -0.8221 -0.0667
 1188SOL    HW115023   0.668   2.172   7.860 -3.2559  1.2200 -1.5917
 1188SOL    HW215024   0.592   2.099   7.956  1.2950 -1.2055  0.4788
 1189SOL     OW15025   1.077   2.104   6.084  0.2236  0.7818 -0.1720
 1189SOL    HW115026   1.054   2.044   6.013  1.0892 -1.2848  1.3134
 1189SOL    HW215027   1.124   2.033   6.129  1.8690  3.0068  1.6320
 1190SOL     OW15028   1.040   3.282   4.505  0.2081  0.5159  0.2830
 1190SOL    HW115029   0.972   3.310   4.444 -1.2072 -0.5072  1.3912
 1190SOL    HW215030   1.028   3.350   4.572 -1.2143  0.2943  0.2579
 1191SOL     OW15031   3.463   3.672  12.559 -0.2933 -0.1745 -0.0323
 1191SOL    HW115032   3.478   3.757  12.600 -0.7474 -1.1131  2.0324
 1191SOL    HW215033   3.476   3.613  12.633 -1.5613  0.4629  0.6961
 1192SOL     OW15034   2.550   1.298  12.228  0.5979  0.6456 -0.0203
 1192SOL    HW115035   2.610   1.341  12.166 -1.7572  2.1501 -1.2602
 1192SOL    HW215036   2.602   1.221  12.251 -2.2678 -1.4739 -0.5804
 1193SOL     OW15037   4.371   1.297   4.604 -0.2868 -0.3498 -0.6355
 1193SOL    HW115038   4.424   1.219   4.590 -0.5889 -0.6679  0.0034
 1193SOL    HW215039   4.376   1.348   4.523 -0.3302  0.0984 -0.3586
 1194SOL     OW15040   4.267   0.421   7.868  0.1074  0.7245  0.1722
 1194SOL    HW115041   4.184   0.450   7.831  1.5502 -0.9930 -4.4480
 1194SOL    HW215042   4.247   0.335   7.906 -1.2424  1.5930  1.4208
 1195SOL     OW15043   1.872   3.717   9.030 -0.4443 -0.1928 -0.0950
 1195SOL    HW115044   1.918   3.634   9.015  0.1168 -0.0144  0.6560
 1195SOL    HW215045   1.860   3.745   8.939  0.7493  0.1814 -0.1413
 1196SOL     OW15046   1.598   4.166   8.631 -0.2685 -0.0302 -0.7354
 1196SOL    HW115047   1.693   4.176   8.646 -0.4783  1.9840 -0.6599
 1196SOL    HW215048   1.574   4.078   8.658 -2.3598 -0.1643 -3.0796
 1197SOL     OW15049   3.645   2.762   2.069  0.2818  0.1164 -0.1217
 1197SOL    HW115050   3.640   2.684   2.124 -0.7650 -0.0820 -0.5003
 1197SOL    HW215051   3.553   2.788   2.068  0.5849  1.2454  0.4252
 1198SOL     OW15052   2.110   3.992   3.902  0.5998  0.3370  0.4756
 1198SOL    HW115053   2.140   4.077   3.870 -0.8600  0.6701 -0.0254
 1198SOL    HW215054   2.068   4.002   3.987  0.8444 -3.5078  1.0215
 1199SOL     OW15055   1.092   1.892   7.593 -0.1879 -0.6186 -0.2789
 1199SOL    HW115056   1.030   1.870   7.523 -0.0461  0.3280 -0.7048
 1199SOL    HW215057   1.160   1.937   7.542 -0.8079  1.4360  0.6961
 1200SOL     OW15058   3.436   1.563   3.254 -0.4682  0.2328  0.7453
 1200SOL    HW115059   3.398   1.636   3.205 -0.9949  1.1946  2.5815
 1200SOL    HW215060   3.415   1.482   3.209 -0.8184  0.9285 -0.3525
 1201SOL     OW15061   3.366   3.956   2.339 -0.0903 -0.0601  0.4485
 1201SOL    HW115062   3.377   3.865   2.364  0.7846 -0.2714 -0.6862
 1201SOL    HW215063   3.449   3.991   2.371 -0.0547 -1.4561  1.8375
 1202SOL     OW15064   0.962   0.958   0.988  0.2448  0.2990 -0.1907
 1202SOL    HW115065   0.940   1.008   0.909 -0.9071 -1.3714 -0.9367
 1202SOL    HW215066   0.997   1.025   1.047 -0.1028  1.7077 -1.5575
 1203SOL     OW15067   3.350   2.996   2.520 -0.1270 -0.1375  0.0662
 1203SOL    HW115068   3.273   2.940   2.512  0.7191 -1.5883  1.8817
 1203SOL    HW215069   3.314   3.081   2.543 -0.3003  0.4782 -2.5447
 1204SOL     OW15070   0.457   0.764   6.542  0.1276 -0.4684 -0.0936
 1204SOL    HW115071   0.376   0.814   6.533  0.5742  0.1539 -0.6493
 1204SOL    HW215072   0.419   0.683   6.575  0.7929  0.6163  3.2984
 1205SOL     OW15073   0.559   3.128   5.527 -0.1193  0.5013  0.2471
 1205SOL    HW115074   0.644   3.162   5.558  0.9494 -2.2200  0.3072
 1205SOL    HW215075   0.533   3.062   5.591 -0.2153  0.6314  0.3425
 1206SOL     OW15076   4.125   4.566   5.223 -0.0083  0.5531 -0.0573
 1206SOL    HW115077   4.142   4.651   5.182  2.4951  0.2357  0.3292
 1206SOL    HW215078   4.072   4.521   5.158  0.2089 -2.3382  1.7646
 1207SOL     OW15079   2.863   3.517   3.361 -0.3710 -0.0507 -0.2691
 1207SOL    HW115080   2.900   3.461   3.292 -0.7956  1.3111 -1.6048
 1207SOL    HW215081   2.807   3.567   3.302 -1.0281 -0.8788 -0.3528
 1208SOL     OW15082   4.383   2.903   4.256  0.4772 -0.1601  0.5058
 1208SOL    HW115083   4.362   2.961   4.183 -0.5783 -0.0669  0.8879
 1208SOL    HW215084   4.301   2.854   4.266  0.0469  0.5983  0.6810
 1209SOL     OW15085   0.591   2.932  13.943  0.4210 -0.2242  0.1517
 1209SOL    HW115086   0.503   2.952  13.974  0.1180 -0.5871 -0.4684
 1209SOL    HW215087   0.586   2.844  13.906 -0.8285 -0.3911  0.7389
 1210SOL     OW15088   1.510   3.733   2.853  0.2614 -0.6349  0.5060
 1210SOL    HW115089   1.424   3.765   2.881  0.2340  0.3362 -0.6805
 1210SOL    HW215090   1.505   3.647   2.893  0.3201 -1.7788 -1.9098
 1211SOL     OW15091   0.881   2.109  17.170  0.7357  0.3266  0.0723
 1211SOL    HW115092   0.862   2.195  17.133  2.0568  0.1055 -1.1166
 1211SOL    HW215093   0.960   2.124  17.222 -0.0855 -0.8019  1.6369
 1212SOL     OW15094   2.882   1.278   3.556  0.4920 -0.2226 -0.1523
 1212SOL    HW115095   2.910   1.332   3.630 -1.8710  1.0356 -0.1899
 1212SOL    HW215096   2.850   1.200   3.601  0.3163  0.4512  0.8918
 1213SOL     OW15097   2.530   0.027   8.389  0.5193 -0.2953 -0.1883
 1213SOL    HW115098   2.522   0.113   8.431 -1.7206 -0.8113  0.4295
 1213SOL    HW215099   2.563   4.684   8.453  1.5524  0.8531  0.4375
 1214SOL     OW15100   4.648   3.706   0.727  0.1986  0.0277 -0.3865
 1214SOL    HW115101   4.668   3.782   0.781 -0.8343  1.3054 -1.8235
 1214SOL    HW215102   4.612   3.750   0.650  0.7663  0.1495 -0.5819
 1215SOL     OW15103   3.843   2.060  15.167  0.3404  0.1535  0.3268
 1215SOL    HW115104   3.800   1.983  15.204 -2.0837  1.0437 -0.6323
 1215SOL    HW215105   3.898   2.096  15.237  1.2721  1.6470 -1.1667
 1216SOL     OW15106   4.356   2.624  17.600  0.3339  0.0338  0.5488
 1216SOL    HW115107   4.446   2.651  17.585  1.3438 -3.5566  0.1809
 1216SOL    HW215108   4.342   2.611   0.010 -0.8315 -1.3374  0.1909
 1217SOL     OW15109   3.124   4.479   2.727  0.2048 -0.3926 -0.2089
 1217SOL    HW115110   3.140   4.399   2.678  1.8282 -1.2082  1.6196
 1217SOL    HW215111   3.067   4.525   2.667  0.2801 -2.4350 -1.8451
 1218SOL     OW15112   1.358   3.016   7.824 -0.3169  0.3808  0.0726
 1218SOL    HW115113   1.318   3.087   7.773 -0.8169  0.1112  0.0806
 1218SOL    HW215114   1.296   2.950   7.794  1.0753  0.0384 -2.0256
 1219SOL     OW15115   2.116   3.203  16.581 -0.2724 -0.0121  0.1005
 1219SOL    HW115116   2.031   3.242  16.601  0.7909  0.9291  2.8929
 1219SOL    HW215117   2.085   3.151  16.507 -0.1942 -0.1355  0.1547
 1220SOL     OW15118   4.417   3.883  12.790  0.7824  0.0304  0.0906
 1220SOL    HW115119   4.386   3.965  12.752 -1.6478 -0.4292  1.0543
 1220SOL    HW215120   4.385   3.822  12.724 -1.1948  1.1635 -0.0248
 1221SOL     OW15121   1.422   0.576   8.617  0.3364  0.2625  0.2029
 1221SOL    HW115122   1.465   0.661   8.611 -0.5783  0.8495  1.9155
 1221SOL    HW215123   1.365   0.586   8.693  1.1598  0.4772  0.8053
 1222SOL     OW15124   1.499   4.192   2.170  0.1789 -0.3040  0.5795
 1222SOL    HW115125   1.579   4.239   2.192  1.0243 -0.0781 -2.8924
 1222SOL    HW215126   1.536   4.112   2.132  0.5188  0.6675 -1.1372
 1223SOL     OW15127   3.894   2.849  17.397  0.4068 -0.8388  0.1130
 1223SOL    HW115128   3.985   2.880  17.392 -0.5548  2.6263  3.7781
 1223SOL    HW215129   3.851   2.922  17.352  1.4566 -1.1897 -1.4605
 1224SOL     OW15130   1.821   0.455   6.440  0.0532  0.1300  0.0985
 1224SOL    HW115131   1.757   0.406   6.389  2.4691 -0.6218 -2.2113
 1224SOL    HW215132   1.762   0.513   6.488  0.5294 -1.1876  2.2982
 1225SOL     OW15133   2.563   3.430   6.840 -0.1706  0.5768 -0.0496
 1225SOL    HW115134   2.547   3.444   6.933 -0.5055 -0.5013  0.0482
 1225SOL    HW215135   2.620   3.504   6.819 -0.3301  0.7936  0.2704
 1226SOL     OW15136   3.858   2.442  17.220 -0.3771  0.5166 -0.4451
 1226SOL    HW115137   3.924   2.489  17.271 -0.0739 -0.3896 -0.0098
 1226SOL    HW215138   3.827   2.514  17.165 -0.8318 -0.6241 -1.6854
 1227SOL     OW15139   0.895   0.156  15.472  0.4114  0.6230 -0.1532
 1227SOL    HW115140   0.857   0.243  15.478 -0.4353  0.2365  0.1238
 1227SOL    HW215141   0.932   0.166  15.385  2.7660  1.4746  0.9421
 1228SOL     OW15142   2.751   2.914   2.977  0.2109  0.1578 -0.2593
 1228SOL    HW115143   2.744   2.854   2.903  1.0925 -1.2396  0.7787
 1228SOL    HW215144   2.773   3.000   2.940 -0.4482  0.7077  0.6377
 1229SOL     OW15145   0.983   3.651   6.821 -0.2936 -0.1829 -0.3382
 1229SOL    HW115146   0.985   3.621   6.730  0.5825 -1.8330  0.2305
 1229SOL    HW215147   0.915   3.718   6.814 -1.1588 -1.2790 -2.3004
 1230SOL     OW15148   0.393   0.275   6.229 -0.0312 -0.3349  0.2026
 1230SOL    HW115149   0.425   0.187   6.249 -0.9682 -1.4685 -3.3018
 1230SOL    HW215150   0.343   0.302   6.306  1.2416 -0.9699  1.2602
 1231SOL     OW15151   2.829   0.432  11.112 -0.1549 -0.1604  0.4527
 1231SOL    HW115152   2.753   0.404  11.163 -0.0744  2.4375  1.9944
 1231SOL    HW215153   2.880   0.481  11.176  0.5547  0.3672 -0.5169
 1232SOL     OW15154   1.725   3.413   5.352 -0.0308  0.1754 -0.0072
 1232SOL    HW115155   1.649   3.446   5.400  0.0130  0.1565  0.0750
 1232SOL    HW215156   1.778   3.375   5.422 -2.1405 -0.1969  1.4049
 1233SOL     OW15157   3.142   1.257  17.418 -0.3826 -0.2282 -0.4557
 1233SOL    HW115158   3.098   1.307  17.349  0.2099  1.1108  0.1471
 1233SOL    HW215159   3.096   1.173  17.416 -1.6905  0.4744  0.5889
 1234SOL     OW15160   2.997   3.169   3.318 -0.3081 -0.3941  0.3443
 1234SOL    HW115161   3.051   3.242   3.347  1.6813 -1.2351 -1.1946
 1234SOL    HW215162   3.042   3.105   3.372 -1.0258  1.9653  3.7190
 1235SOL     OW15163   2.638   1.650  15.798  0.0386 -0.3907 -0.3782
 1235SOL    HW115164   2.556   1.699  15.791  0.1473 -0.0636  0.6396
 1235SOL    HW215165   2.681   1.688  15.722 -0.9326  0.8344 -0.3206
 1236SOL     OW15166   2.289   3.049   6.794 -0.4340  1.3962 -0.0026
 1236SOL    HW115167   2.208   3.099   6.806 -1.6771 -0.1485 -1.8627
 1236SOL    HW215168   2.300   3.064   6.700 -3.9958 -0.0289 -0.6560
 1237SOL     OW15169   0.516   4.515  13.696 -0.4167  0.0642  0.0534
 1237SOL    HW115170   0.470   4.566  13.629  2.2706  0.3859 -1.5325
 1237SOL    HW215171   0.573   4.458  13.645 -0.9688 -0.5085  0.0800
 1238SOL     OW15172   2.424   3.209   2.769  0.5733  0.3056  0.6123
 1238SOL    HW115173   2.432   3.115   2.782  0.3974  0.1168 -0.6927
 1238SOL    HW215174   2.486   3.223   2.841 -0.0478  0.4650  1.1173
 1239SOL     OW15175   4.264   3.532   3.115 -0.5090 -0.2077  0.0560
 1239SOL    HW115176   4.330   3.565   3.055 -0.9359 -3.5473 -2.2560
 1239SOL    HW215177   4.226   3.474   3.049  1.0545  0.2898 -1.2875
 1240SOL     OW15178   3.400   2.755   1.429  0.2336  0.2444 -0.5176
 1240SOL    HW115179   3.460   2.797   1.490  0.7397 -0.6770 -0.3822
 1240SOL    HW215180   3.389   2.828   1.368 -1.1197 -0.4138 -1.0741
 1241SOL     OW15181   0.379   0.595   0.503  0.6354 -0.0290  0.7357
 1241SOL    HW115182   0.431   0.515   0.508 -0.6555 -0.9193 -0.0882
 1241SOL    HW215183   0.291   0.565   0.480 -0.1791  1.7701  1.5006
 1242SOL     OW15184   0.984   0.898   4.637  0.4781 -0.0682 -0.6990
 1242SOL    HW115185   1.006   0.961   4.706 -0.4053  0.0102 -0.4852
 1242SOL    HW215186   0.957   0.962   4.572  1.2475  0.8933 -0.0721
 1243SOL     OW15187   1.438   2.288   8.219 -0.0776  0.6044 -0.2836
 1243SOL    HW115188   1.358   2.336   8.197 -0.1913  0.7535  0.4752
 1243SOL    HW215189   1.471   2.341   8.291  0.2423  0.2536 -0.1793
 1244SOL     OW15190   3.943   0.491   4.234 -0.2644  0.1645  0.3309
 1244SOL    HW115191   3.917   0.447   4.314 -1.6624  1.0727  0.3733
 1244SOL    HW215192   3.946   0.414   4.178 -1.4669  0.4989 -0.2110
 1245SOL     OW15193   0.217   0.219   8.742 -0.3404  0.1331 -0.1169
 1245SOL    HW115194   0.141   0.264   8.779  0.3748  0.8517  0.4772
 1245SOL    HW215195   0.186   0.220   8.651 -0.6409 -2.3488 -0.0321
 1246SOL     OW15196   2.991   3.074   8.308  0.0747  0.0600  0.6365
 1246SOL    HW115197   2.931   3.023   8.363  1.5093  0.6883  2.8085
 1246SOL    HW215198   2.940   3.094   8.230  1.3263  0.6609 -0.0115
 1247SOL     OW15199   4.612   2.014   9.020  0.3349 -0.0961 -0.3320
 1247SOL    HW115200   4.654   1.946   8.966 -1.2424 -3.2829  2.4345
 1247SOL    HW215201   4.683   2.053   9.071 -0.1043  0.7861 -0.4057
 1248SOL     OW15202   0.431   0.217   7.306 -0.0384  0.0038 -0.5610
 1248SOL    HW115203   0.479   0.300   7.305 -0.0208  0.0076  1.0251
 1248SOL    HW215204   0.494   0.171   7.252 -0.6624 -0.6783 -0.7060
 1249SOL     OW15205   0.459   0.117   0.793 -0.2536  0.0870  0.0428
 1249SOL    HW115206   0.413   0.162   0.864 -1.6451 -1.7859  0.3199
 1249SOL    HW215207   0.545   0.157   0.779 -0.4550 -0.0026 -1.4189
 1250SOL     OW15208   0.070   3.023  17.626  0.2645  0.5932  0.0654
 1250SOL    HW115209   0.097   2.931  17.624  1.7438  1.0490 -1.4983
 1250SOL    HW215210   0.065   3.029   0.037 -1.7237 -2.1605  0.1513
 1251SOL     OW15211   0.454   2.609   2.410  0.0595 -0.2383  0.1999
 1251SOL    HW115212   0.407   2.546   2.354  1.3714  0.0944 -1.2928
 1251SOL    HW215213   0.540   2.590   2.373  0.0670  2.4079 -1.1586
 1252SOL     OW15214   4.656   1.745   1.224 -0.4155  0.0713  0.2966
 1252SOL    HW115215   4.573   1.718   1.262 -0.2378 -0.0357  0.6040
 1252SOL    HW215216   4.716   1.710   1.289 -1.6023 -2.7532 -0.1421
 1253SOL     OW15217   1.663   1.727  14.724 -0.3696 -0.5862 -0.3082
 1253SOL    HW115218   1.714   1.772  14.791 -0.2774 -2.1754  0.6913
 1253SOL    HW215219   1.574   1.749  14.752 -0.3290  0.0807 -0.7175
 1254SOL     OW15220   0.335   4.434   2.695 -0.0886 -0.2913 -0.0852
 1254SOL    HW115221   0.294   4.514   2.662  1.2462  1.0080  1.4271
 1254SOL    HW215222   0.291   4.428   2.780 -3.0188 -1.3884 -1.6815
 1255SOL     OW15223   1.881   1.641   5.391 -0.1120 -0.1439  0.3414
 1255SOL    HW115224   1.949   1.622   5.327 -0.0854 -0.9498  0.6132
 1255SOL    HW215225   1.934   1.696   5.449  1.4382  0.1424 -1.3451
 1256SOL     OW15226   1.417   2.529   7.727 -0.3084 -0.1672 -0.7141
 1256SOL    HW115227   1.339   2.490   7.689  0.0563  0.3783 -2.0132
 1256SOL    HW215228   1.485   2.466   7.703  0.3743  0.4207 -0.3355
 1257SOL     OW15229   0.500   0.968   1.133 -0.3561  0.6094  0.3439
 1257SOL    HW115230   0.415   1.001   1.105 -0.4223  0.5472  0.4724
 1257SOL    HW215231   0.533   0.942   1.047 -2.8823 -0.6836 -0.2176
 1258SOL     OW15232   3.171   2.914   2.896  0.5297  0.0558 -0.2038
 1258SOL    HW115233   3.242   2.920   2.959  0.2083  1.2265  0.0456
 1258SOL    HW215234   3.172   2.822   2.870  1.9608 -0.7630  2.7612
 1259SOL     OW15235   2.957   3.716  13.306 -0.1682  0.2007 -0.0309
 1259SOL    HW115236   3.036   3.753  13.266 -0.9555  1.1798 -0.6575
 1259SOL    HW215237   2.916   3.794  13.342  0.2628  0.6135 -0.4211
 1260SOL     OW15238   4.614   2.939   2.597 -0.1688  0.0052 -0.0778
 1260SOL    HW115239   4.658   3.016   2.560  0.0954 -0.4993 -0.7921
 1260SOL    HW215240   4.613   2.961   2.690 -1.9249 -0.5541  0.0233
 1261SOL     OW15241   4.347   4.238   2.045 -0.0159 -0.0498  0.1787
 1261SOL    HW115242   4.360   4.187   1.965 -0.6406 -1.2974  0.8678
 1261SOL    HW215243   4.266   4.198   2.077 -1.7401  1.5438 -2.2449
 1262SOL     OW15244   0.444   3.257   0.365  0.1293 -0.3158  0.4373
 1262SOL    HW115245   0.531   3.288   0.391  0.3340 -0.6336  0.1324
 1262SOL    HW215246   0.395   3.338   0.355 -0.6204 -0.6192  1.6758
 1263SOL     OW15247   0.725   2.701   2.681 -0.2218  0.0452  0.0628
 1263SOL    HW115248   0.748   2.618   2.637 -1.4019 -0.2245 -0.0463
 1263SOL    HW215249   0.688   2.663   2.760  0.9694 -2.1935 -0.4249
 1264SOL     OW15250   0.905   3.523   0.893 -0.9879 -0.5318  0.0217
 1264SOL    HW115251   0.896   3.619   0.899  1.4324 -0.3552  0.9405
 1264SOL    HW215252   0.840   3.485   0.952 -1.3962  0.6779  0.3625
 1265SOL     OW15253   2.465   4.697   9.429 -0.5938 -0.0513  0.0390
 1265SOL    HW115254   2.482   0.069   9.444  3.5432 -0.4958 -1.8907
 1265SOL    HW215255   2.438   4.678   9.518  0.0582  1.3315  0.5327
 1266SOL     OW15256   1.345   0.827  11.889  0.1557 -0.3208 -0.0435
 1266SOL    HW115257   1.390   0.895  11.838  0.4588 -0.2969  0.2561
 1266SOL    HW215258   1.403   0.793  11.957 -0.4926 -0.5986  0.3730
 1267SOL     OW15259   1.250   0.545   7.290 -0.4540  0.1860  0.3108
 1267SOL    HW115260   1.187   0.555   7.361  0.3957 -1.7172  1.3209
 1267SOL    HW215261   1.331   0.564   7.338  0.9130 -0.4204 -1.7357
 1268SOL     OW15262   2.445   1.447   3.600  0.2805 -0.3720  0.1504
 1268SOL    HW115263   2.383   1.375   3.609 -0.6131  0.6836  2.3933
 1268SOL    HW215264   2.432   1.462   3.506 -1.7066  1.1677  0.6732
 1269SOL     OW15265   1.006   3.954   2.365  0.6138  0.1810 -0.1839
 1269SOL    HW115266   1.099   3.943   2.343  1.1816  1.3239  1.6559
 1269SOL    HW215267   0.960   3.880   2.325  1.3663  0.2005 -1.0932
 1270SOL     OW15268   0.591   4.525   0.164 -0.3794 -0.0666  0.5516
 1270SOL    HW115269   0.673   4.572   0.176 -0.2532 -0.4451  1.1568
 1270SOL    HW215270   0.619   4.440   0.129 -0.1403  0.9626 -1.7603
 1271SOL     OW15271   2.378   3.067  16.658 -0.0060 -0.5950  0.2566
 1271SOL    HW115272   2.302   3.092  16.605 -0.3633  1.6177  1.8410
 1271SOL    HW215273   2.396   3.148  16.704 -2.1809 -0.4774  0.9018
 1272SOL     OW15274   2.303   1.964   7.241  0.2317 -0.0525  0.0726
 1272SOL    HW115275   2.256   1.887   7.274 -0.5367  0.2020 -0.4336
 1272SOL    HW215276   2.243   2.033   7.270 -0.6270 -0.1526 -1.4330
 1273SOL     OW15277   4.074   3.566  12.619  0.0218  0.4103  0.0932
 1273SOL    HW115278   4.035   3.513  12.688 -0.1558  0.2099 -0.1623
 1273SOL    HW215279   4.038   3.655  12.628  1.1414  1.0001 -1.2912
 1274SOL     OW15280   2.461   1.553   9.267  0.3855  0.5164 -0.4514
 1274SOL    HW115281   2.403   1.490   9.311 -1.0943  1.5183 -0.9553
 1274SOL    HW215282   2.481   1.502   9.188 -0.7200 -0.1656 -0.3042
 1275SOL     OW15283   0.893   0.973  11.599 -0.1705  0.0174  0.2372
 1275SOL    HW115284   0.981   0.959  11.634 -0.1607  3.1182  1.4506
 1275SOL    HW215285   0.870   0.888  11.562  2.7447 -1.2549  1.3711
 1276SOL     OW15286   0.796   2.182   9.893 -0.9385  0.1486 -0.4385
 1276SOL    HW115287   0.846   2.143   9.964 -1.4136 -0.3604 -0.3822
 1276SOL    HW215288   0.780   2.102   9.842 -2.5992  0.4236 -0.3694
 1277SOL     OW15289   2.763   3.948   5.208  0.3653 -0.2486  0.0218
 1277SOL    HW115290   2.724   4.007   5.143  1.8706 -0.1351 -0.7772
 1277SOL    HW215291   2.686   3.897   5.229  0.4651  0.0075  0.9849
 1278SOL     OW15292   4.397   3.537  17.142  0.0549  0.4361 -0.1590
 1278SOL    HW115293   4.348   3.609  17.181 -1.8718 -0.2472 -1.3341
 1278SOL    HW215294   4.461   3.516  17.211 -0.0354 -0.4264 -0.3366
 1279SOL     OW15295   0.980   2.716   4.899 -0.2178  0.5269 -0.0721
 1279SOL    HW115296   0.894   2.697   4.860 -0.1969 -0.8421  0.5716
 1279SOL    HW215297   1.025   2.634   4.880  0.9622  1.3902 -1.0085
 1280SOL     OW15298   1.727   2.357   1.292  0.2240 -0.0407 -0.4023
 1280SOL    HW115299   1.642   2.320   1.271 -0.0190 -0.9261  2.1696
 1280SOL    HW215300   1.755   2.292   1.357  0.2387  0.0187 -0.3497
 1281SOL     OW15301   4.212   4.136   3.312 -0.1296 -0.0935 -0.1643
 1281SOL    HW115302   4.267   4.059   3.297 -0.3097 -0.2057 -0.2472
 1281SOL    HW215303   4.126   4.108   3.279  0.3501 -1.1695 -0.4781
 1282SOL     OW15304   2.032   3.793  12.300 -0.1148 -1.0121  0.0261
 1282SOL    HW115305   2.011   3.842  12.380  1.0925 -1.3504  0.5446
 1282SOL    HW215306   1.988   3.711  12.322 -0.5408 -0.4625  1.2708
 1283SOL     OW15307   4.044   0.043   1.757 -0.2315 -0.4218  0.0316
 1283SOL    HW115308   4.024   0.045   1.663 -1.1610  0.1331  0.2331
 1283SOL    HW215309   4.044   0.138   1.770 -0.7910 -0.5342  0.9251
 1284SOL     OW15310   1.417   1.791  13.710 -0.2118 -0.2652  0.1332
 1284SOL    HW115311   1.406   1.848  13.634  1.4455 -0.3810 -0.2012
 1284SOL    HW215312   1.452   1.849  13.777 -1.4434 -0.0443  0.5724
 1285SOL     OW15313   3.720   4.177   2.641 -0.1890  0.2530  0.0640
 1285SOL    HW115314   3.708   4.270   2.625  1.4569  0.2786 -1.0889
 1285SOL    HW215315   3.675   4.169   2.725  2.3256  2.1146  1.5737
 1286SOL     OW15316   0.850   0.361   3.245 -0.9089 -0.1023 -0.5666
 1286SOL    HW115317   0.779   0.299   3.228 -2.4355  0.9216  2.1550
 1286SOL    HW215318   0.824   0.385   3.334 -0.3562  1.8440 -0.9298
 1287SOL     OW15319   2.695   1.193   2.701  0.2530  0.4542 -0.3246
 1287SOL    HW115320   2.710   1.284   2.675  1.2332  0.3669 -0.0607
 1287SOL    HW215321   2.787   1.180   2.723 -0.0458 -0.0831  0.5901
 1288SOL     OW15322   1.591   1.928  11.399 -0.9795  0.1709  0.8654
 1288SOL    HW115323   1.528   1.988  11.440 -1.5425  0.9012 -1.0683
 1288SOL    HW215324   1.639   2.000  11.359 -0.3142  1.2821  3.6541
 1289SOL     OW15325   1.419   4.169   9.471 -0.1091 -0.6723  0.4323
 1289SOL    HW115326   1.437   4.076   9.459 -0.2496 -0.2485 -2.9493
 1289SOL    HW215327   1.506   4.189   9.506  1.3773 -2.1774 -2.4361
 1290SOL     OW15328   2.067   1.425   3.827 -0.1910 -0.1863 -0.1328
 1290SOL    HW115329   2.062   1.517   3.852  0.1609 -0.2249  0.0891
 1290SOL    HW215330   2.139   1.401   3.886  1.4289 -1.8454 -2.7938
 1291SOL     OW15331   2.716   3.992   2.392 -0.3635  0.7700 -0.2131
 1291SOL    HW115332   2.807   3.971   2.415 -0.8902 -0.0604  1.1178
 1291SOL    HW215333   2.725   4.028   2.304  0.1724 -1.3423 -1.0146
 1292SOL     OW15334   1.014   2.679   0.773  0.2917 -0.1241 -0.2553
 1292SOL    HW115335   1.056   2.720   0.698  2.1265 -1.5049  0.0242
 1292SOL    HW215336   0.957   2.615   0.729 -0.5248 -0.3520  1.1349
 1293SOL     OW15337   1.535   3.208   4.087  0.2895 -0.2004  0.0708
 1293SOL    HW115338   1.615   3.164   4.059 -0.8713 -1.6776 -0.9883
 1293SOL    HW215339   1.562   3.217   4.178 -1.1271 -0.5775  0.5427
 1294SOL     OW15340   4.240   1.533   7.481 -0.0928 -0.2515 -0.1290
 1294SOL    HW115341   4.246   1.608   7.539 -1.2780 -0.8438  0.7716
 1294SOL    HW215342   4.169   1.552   7.419  0.3809 -4.0115 -1.8334
 1295SOL     OW15343   3.981   2.612   0.425 -0.0260  0.2283  0.1992
 1295SOL    HW115344   3.932   2.685   0.462 -2.9435 -0.7633 -1.6258
 1295SOL    HW215345   3.911   2.553   0.396 -1.1688  1.5762  0.1985
 1296SOL     OW15346   0.285   0.296   2.322  0.8255 -0.1860 -0.0197
 1296SOL    HW115347   0.289   0.362   2.391  0.6388 -1.7664  1.4967
 1296SOL    HW215348   0.377   0.283   2.297  1.4471  1.9848  1.1286
 1297SOL     OW15349   1.637   2.277   8.026  0.0142  0.7800 -0.7067
 1297SOL    HW115350   1.553   2.278   8.072 -0.1766 -0.2653 -1.0497
 1297SOL    HW215351   1.681   2.352   8.068 -1.6538  1.6918 -0.5767
 1298SOL     OW15352   0.151   1.646  17.141 -0.2634 -0.3479 -0.9558
 1298SOL    HW115353   0.230   1.699  17.134  0.2653 -0.8947  0.9510
 1298SOL    HW215354   0.097   1.681  17.070  1.3092  1.1231 -1.4265
 1299SOL     OW15355   1.810   3.018   3.693  0.3590 -1.1475 -0.6574
 1299SOL    HW115356   1.877   3.083   3.714 -2.6357  1.6271  0.3743
 1299SOL    HW215357   1.793   2.990   3.783  0.3881 -0.3146 -0.3877
 1300SOL     OW15358   2.872   4.013  17.494  0.2242  0.4295  0.0580
 1300SOL    HW115359   2.787   3.983  17.526  1.3068 -1.8762  0.7897
 1300SOL    HW215360   2.923   4.033  17.573 -1.1973 -1.9474  1.5868
 1301SOL     OW15361   3.372   4.014   8.079  0.1570  0.3013  0.2419
 1301SOL    HW115362   3.292   4.046   8.036  0.0115  0.7832  0.8808
 1301SOL    HW215363   3.350   4.011   8.172 -1.8452 -3.9020 -0.3751
 1302SOL     OW15364   0.361   3.036  12.033 -0.1141 -0.7561 -0.3588
 1302SOL    HW115365   0.324   2.986  12.106 -0.9568 -0.4416 -0.5756
 1302SOL    HW215366   0.284   3.049  11.979 -1.6689  2.0299  2.4735
 1303SOL     OW15367   1.484   3.781   4.379 -0.4228 -0.4029 -0.7479
 1303SOL    HW115368   1.427   3.854   4.404 -1.2446  0.1276 -4.1441
 1303SOL    HW215369   1.497   3.732   4.460 -3.4834 -0.5266 -0.3380
 1304SOL     OW15370   2.364   1.682   5.619 -0.3062 -0.0457 -0.3603
 1304SOL    HW115371   2.404   1.659   5.703  2.1297 -1.8355 -2.0330
 1304SOL    HW215372   2.271   1.665   5.636  0.1070 -0.1578  1.8337
 1305SOL     OW15373   2.113   0.916   2.559  0.5911  0.1527 -0.7983
 1305SOL    HW115374   2.102   0.912   2.464 -0.0554 -1.3048 -0.6679
 1305SOL    HW215375   2.132   1.008   2.575  1.0597 -0.0409 -0.2396
 1306SOL     OW15376   3.943   0.772   2.762  0.1253  0.5498  0.2569
 1306SOL    HW115377   3.863   0.729   2.791  0.1515 -1.8603 -3.1874
 1306SOL    HW215378   3.925   0.789   2.669  1.4245 -1.0313 -0.2817
 1307SOL     OW15379   0.601   0.626   8.030 -0.2093 -0.0280 -0.1456
 1307SOL    HW115380   0.607   0.677   7.949  0.2607 -0.8429 -0.6213
 1307SOL    HW215381   0.530   0.671   8.075 -1.3484 -1.0632 -0.8898
 1308SOL     OW15382   1.795   2.974   3.972 -0.0401 -0.2949 -0.1509
 1308SOL    HW115383   1.804   3.067   3.994 -0.1165 -0.7912  2.0289
 1308SOL    HW215384   1.835   2.936   4.051  0.6291 -0.9719 -0.8142
 1309SOL     OW15385   1.219   4.321   8.126 -0.2701  0.2740 -0.3670
 1309SOL    HW115386   1.191   4.231   8.142 -1.3201  0.7043  0.2377
 1309SOL    HW215387   1.246   4.359   8.209 -0.1956  1.1895 -0.8071
 1310SOL     OW15388   0.048   0.305   9.537 -0.0053  0.3542 -0.5854
 1310SOL    HW115389   0.064   0.210   9.535  1.2068  0.5601 -0.6944
 1310SOL    HW215390   0.099   0.343   9.466 -0.0072  0.8137 -0.3411
 1311SOL     OW15391   3.965   2.600   2.857  1.0170 -0.4414 -0.2621
 1311SOL    HW115392   3.979   2.506   2.850  0.1388 -0.5756 -0.1465
 1311SOL    HW215393   4.029   2.612   2.786  0.2229 -1.2836 -1.1042
 1312SOL     OW15394   1.088   3.242   8.204  0.4231 -0.4074  0.5715
 1312SOL    HW115395   1.001   3.208   8.225  0.8269 -1.6309  0.2793
 1312SOL    HW215396   1.080   3.242   8.108 -0.0745  2.0662  0.6159
 1313SOL     OW15397   3.990   2.513   7.799 -0.4222 -0.3023  0.2026
 1313SOL    HW115398   4.031   2.462   7.729  1.5483  1.4562  0.0986
 1313SOL    HW215399   4.012   2.450   7.868 -0.1514  1.1315  1.4150
 1314SOL     OW15400   2.901   1.438   5.318 -0.6860  0.3080  0.2148
 1314SOL    HW115401   2.867   1.364   5.267  3.4320 -0.0805 -1.9927
 1314SOL    HW215402   2.925   1.494   5.244 -0.3002 -0.3933 -0.1970
 1315SOL     OW15403   3.685   0.634   3.063 -0.4006  0.5716  0.3173
 1315SOL    HW115404   3.770   0.669   3.089  0.2781 -1.0440  0.2660
 1315SOL    HW215405   3.637   0.709   3.027  1.9468  0.8664 -2.1890
 1316SOL     OW15406   0.464   2.866   5.561 -0.2420  0.7245 -0.2336
 1316SOL    HW115407   0.436   2.897   5.647  0.0856 -0.1877  0.2077
 1316SOL    HW215408   0.379   2.850   5.521  0.2369  0.0030 -0.9650
 1317SOL     OW15409   1.917   4.440  12.233  0.3037 -0.1094  0.4530
 1317SOL    HW115410   1.918   4.488  12.316 -0.9388 -0.2431  0.5481
 1317SOL    HW215411   1.887   4.355  12.263 -0.1918 -0.4105 -0.9046
 1318SOL     OW15412   4.690   1.749   7.145  0.8020  0.3592 -0.3350
 1318SOL    HW115413   4.657   1.659   7.136  3.0544 -0.6694  1.5218
 1318SOL    HW215414   4.628   1.786   7.208 -0.4433  0.1839 -1.4670
 1319SOL     OW15415   0.436   2.600  16.282 -0.1063 -0.0770  0.3824
 1319SOL    HW115416   0.397   2.640  16.204  0.6927 -0.3098 -0.1371
 1319SOL    HW215417   0.428   2.673  16.344  0.7148 -0.0267  0.4178
 1320SOL     OW15418   1.121   3.668  10.347 -0.1864 -0.0721 -0.0373
 1320SOL    HW115419   1.122   3.737  10.281 -0.0727 -0.6746 -0.6668
 1320SOL    HW215420   1.076   3.723  10.411  2.4565  0.3062  1.5042
 1321SOL     OW15421   3.946   4.133   6.721 -0.0846 -0.2808  0.3522
 1321SOL    HW115422   3.983   4.087   6.646 -1.9746 -1.8156  0.3703
 1321SOL    HW215423   3.978   4.081   6.795 -1.3601  1.0657  1.8526
 1322SOL     OW15424   1.484   0.850   7.084  0.0340 -0.0942  0.6051
 1322SOL    HW115425   1.508   0.815   6.998  1.5131 -0.0928  1.0147
 1322SOL    HW215426   1.404   0.798   7.091  1.2279 -1.8384  1.1236
 1323SOL     OW15427   1.554   2.828   0.254  0.2901  0.2330 -0.5221
 1323SOL    HW115428   1.497   2.823   0.177 -0.0137  3.0155 -0.4743
 1323SOL    HW215429   1.516   2.889   0.317 -1.2567 -0.0838 -1.1531
 1324SOL     OW15430   1.394   0.425   5.970  0.4788 -0.2064  0.3589
 1324SOL    HW115431   1.479   0.402   5.933  0.6230 -1.7942  1.6704
 1324SOL    HW215432   1.335   0.381   5.909  0.1603  0.4136  0.2184
 1325SOL     OW15433   3.319   1.216   8.032 -0.3988 -0.0400  1.0071
 1325SOL    HW115434   3.293   1.194   8.122  0.0670 -2.9776  0.4329
 1325SOL    HW215435   3.377   1.143   8.010 -2.2610 -1.7118  1.6095
 1326SOL     OW15436   3.846   2.840   0.588  0.0237  0.2887  0.9365
 1326SOL    HW115437   3.903   2.912   0.563 -0.2787 -0.5779 -2.2406
 1326SOL    HW215438   3.867   2.820   0.679  1.2326  1.6362  0.9431
 1327SOL     OW15439   0.973   2.658   7.280 -0.3200 -0.4429  0.0850
 1327SOL    HW115440   1.059   2.684   7.247  0.4087 -1.2963  1.3473
 1327SOL    HW215441   0.923   2.738   7.262  2.0316  1.0669  0.2866
 1328SOL     OW15442   4.073   2.411   9.117  0.2931 -0.0052  0.5599
 1328SOL    HW115443   4.116   2.481   9.166  0.9668  0.0170 -0.0646
 1328SOL    HW215444   4.141   2.376   9.060 -0.1823 -1.6580  1.0140
 1329SOL     OW15445   1.380   3.707   7.810  0.5707  0.4304  0.2741
 1329SOL    HW115446   1.337   3.731   7.728  0.6026 -0.6935 -0.0673
 1329SOL    HW215447   1.436   3.784   7.825  2.6858 -1.0376 -0.1444
 1330SOL     OW15448   4.617   3.837  12.960  0.2974 -0.0845 -0.0263
 1330SOL    HW115449   4.543   3.867  12.908 -0.7889  1.6925  2.5400
 1330SOL    HW215450   4.676   3.908  12.937 -0.8030  1.0157  0.5385
 1331SOL     OW15451   3.776   2.060   7.077 -0.0161  0.0686 -0.1267
 1331SOL    HW115452   3.773   1.971   7.112  1.3299 -0.1125 -0.4822
 1331SOL    HW215453   3.824   2.105   7.146 -0.2556  0.1707 -0.0272
 1332SOL     OW15454   2.011   2.295   5.314 -0.0637 -0.2512 -0.2099
 1332SOL    HW115455   2.001   2.245   5.233 -3.2510  2.1478 -1.2673
 1332SOL    HW215456   1.921   2.282   5.344 -0.8873 -0.5574 -2.8001
 1333SOL     OW15457   0.285   1.428   6.982  0.7617  0.5125  0.3840
 1333SOL    HW115458   0.316   1.425   6.892 -1.3038 -1.4051 -0.2698
 1333SOL    HW215459   0.195   1.396   6.977  1.2490 -0.8733  0.3924
 1334SOL     OW15460   1.719   1.559   3.984  0.6014  0.2641 -0.0327
 1334SOL    HW115461   1.680   1.617   4.050  1.4673  1.0999 -0.2529
 1334SOL    HW215462   1.733   1.478   4.034  0.0534  1.2894  1.7679
 1335SOL     OW15463   1.395   2.391   2.705 -0.4601 -0.5193  0.0934
 1335SOL    HW115464   1.344   2.340   2.768  1.0601  0.9330  2.5041
 1335SOL    HW215465   1.484   2.358   2.709 -0.3122  0.2190  3.3147
 1336SOL     OW15466   2.248   1.534   7.137  0.0489 -0.2425  0.2101
 1336SOL    HW115467   2.340   1.559   7.126 -0.4101  1.7284  0.8709
 1336SOL    HW215468   2.219   1.569   7.053 -1.2465  0.3641  0.9119
 1337SOL     OW15469   2.681   0.830   6.080  0.3469  0.6219 -0.3627
 1337SOL    HW115470   2.776   0.829   6.070  0.4335  0.2245  0.4954
 1337SOL    HW215471   2.666   0.739   6.107  0.1475  0.5906 -0.5728
 1338SOL     OW15472   2.578   0.339   4.389 -0.3285  0.4672  0.2957
 1338SOL    HW115473   2.591   0.407   4.323 -0.1155 -0.6362 -0.8171
 1338SOL    HW215474   2.486   0.314   4.379  0.4593 -2.0050 -0.7237
 1339SOL     OW15475   1.681   2.992   2.507  1.0157 -0.2363 -0.3974
 1339SOL    HW115476   1.600   3.022   2.547  0.9417 -0.5999 -0.2845
 1339SOL    HW215477   1.742   2.984   2.581  0.0473 -2.2642  0.1529
 1340SOL     OW15478   1.801   0.623   7.704 -0.3766 -0.4073  0.0457
 1340SOL    HW115479   1.888   0.626   7.666 -0.9163 -0.8102 -1.2382
 1340SOL    HW215480   1.797   0.713   7.736  0.9202 -0.1109 -0.6747
 1341SOL     OW15481   1.325   0.796   8.418  0.6623  0.5262 -0.6895
 1341SOL    HW115482   1.367   0.829   8.498  1.3228  1.3375 -1.3582
 1341SOL    HW215483   1.234   0.810   8.442  0.2955  1.0860 -2.4243
 1342SOL     OW15484   0.608   3.178   3.692 -0.1305 -0.1630  0.4438
 1342SOL    HW115485   0.532   3.174   3.634  0.4012  2.5285 -0.4144
 1342SOL    HW215486   0.557   3.226   3.757  2.5504  2.3218  0.7292
 1343SOL     OW15487   0.487   0.752  17.183  0.2646  0.0640 -0.2679
 1343SOL    HW115488   0.508   0.794  17.099  0.7084 -3.2054 -1.7800
 1343SOL    HW215489   0.430   0.821  17.218 -0.3085  0.3959 -1.8694
 1344SOL     OW15490   3.106   2.477   7.434  0.0393 -0.2288 -0.2228
 1344SOL    HW115491   3.192   2.435   7.441  1.3449  2.6266  0.8967
 1344SOL    HW215492   3.055   2.396   7.429  0.1194 -0.3267  0.5585
 1345SOL     OW15493   4.034   1.433   4.542  0.2218  0.5263  0.2120
 1345SOL    HW115494   4.024   1.515   4.495 -1.0475  0.1214 -0.2373
 1345SOL    HW215495   4.041   1.474   4.628  0.8216  1.3182 -0.2225
 1346SOL     OW15496   1.749   4.167  11.327 -0.4213 -0.4870  0.6601
 1346SOL    HW115497   1.826   4.134  11.374 -0.5812  0.9383  1.8903
 1346SOL    HW215498   1.714   4.227  11.392 -0.7798 -2.3990  2.2507
 1347SOL     OW15499   3.742   4.106   4.892  0.5553  0.2428  0.3072
 1347SOL    HW115500   3.712   4.065   4.811  0.3893 -1.6271  1.3165
 1347SOL    HW215501   3.664   4.101   4.947  1.6477  0.9622  1.9285
 1348SOL     OW15502   0.801   2.095  17.631  0.4659 -0.1884 -0.1413
 1348SOL    HW115503   0.845   2.017  17.664  2.6305  0.5683 -1.2463
 1348SOL    HW215504   0.803   2.083  17.536 -1.6821  0.6725 -0.3104
 1349SOL     OW15505   1.950   3.699   4.305  0.5103  0.4505 -0.1057
 1349SOL    HW115506   1.889   3.626   4.306  1.5358 -0.4010  0.1242
 1349SOL    HW215507   1.893   3.774   4.287  0.3195  0.4104  0.3320
 1350SOL     OW15508   4.545   0.216   2.885 -0.6406  0.0667 -0.0800
 1350SOL    HW115509   4.534   0.237   2.792 -1.7360  0.2715  0.0868
 1350SOL    HW215510   4.482   0.281   2.916 -0.6654 -1.0974  2.3288
 1351SOL     OW15511   2.011   0.596   8.722  0.5077 -0.3225 -0.6475
 1351SOL    HW115512   1.958   0.517   8.714  1.0177 -0.6254 -0.9618
 1351SOL    HW215513   2.101   0.565   8.721 -0.5373 -3.3406 -1.1563
 1352SOL     OW15514   2.925   3.460   8.068 -0.2555  0.3527 -0.1570
 1352SOL    HW115515   2.991   3.393   8.051 -1.0747 -0.6033  0.4496
 1352SOL    HW215516   2.850   3.438   8.013 -0.1796  0.7434 -0.4144
 1353SOL     OW15517   2.053   4.318   5.107 -0.4581  0.1694 -0.4060
 1353SOL    HW115518   2.145   4.308   5.085 -0.2196 -0.1191  0.7574
 1353SOL    HW215519   2.044   4.229   5.141  1.2830  0.8769  1.8459
 1354SOL     OW15520   0.469   3.609   3.002  0.1292 -0.8414 -0.0241
 1354SOL    HW115521   0.440   3.679   3.060 -1.6492 -1.4310 -0.1945
 1354SOL    HW215522   0.394   3.589   2.946 -0.1446  0.8163 -0.2422
 1355SOL     OW15523   3.575   0.663   9.705  0.2900  0.2158  0.4106
 1355SOL    HW115524   3.506   0.670   9.771 -0.4060 -0.4467 -0.2347
 1355SOL    HW215525   3.646   0.667   9.769  0.3037 -0.0195  0.4094
 1356SOL     OW15526   1.674   0.964   7.298  0.5982  0.0826 -0.0492
 1356SOL    HW115527   1.614   0.935   7.228 -0.1561 -0.5017  0.8429
 1356SOL    HW215528   1.622   0.942   7.375  0.8622  1.3470  0.4845
 1357SOL     OW15529   2.440   2.402   3.142  0.5320 -0.5509 -0.5151
 1357SOL    HW115530   2.446   2.494   3.165 -1.1240 -0.5512 -0.0983
 1357SOL    HW215531   2.529   2.371   3.162 -1.0761 -3.5298  2.2120
 1358SOL     OW15532   3.764   2.093   8.802  0.4814  0.1878 -0.5766
 1358SOL    HW115533   3.843   2.050   8.835  1.0969  0.7595 -1.2979
 1358SOL    HW215534   3.794   2.182   8.820  2.4603 -0.0644 -2.7012
 1359SOL     OW15535   4.252   2.383   0.663 -0.1361 -0.2504  0.6754
 1359SOL    HW115536   4.328   2.341   0.704  0.2461 -1.1140 -0.9109
 1359SOL    HW215537   4.176   2.339   0.700 -1.9327  0.1436 -2.6115
 1360SOL     OW15538   1.329   0.166   9.929  0.6676  0.2419 -0.1458
 1360SOL    HW115539   1.308   0.085   9.976 -2.1967 -0.2233 -2.2422
 1360SOL    HW215540   1.289   0.152   9.843  0.2927  0.2574  0.0285
 1361SOL     OW15541   1.798   2.910   6.691  0.6011  0.0516  0.0198
 1361SOL    HW115542   1.829   2.930   6.780 -2.2062 -0.9102  1.2065
 1361SOL    HW215543   1.848   2.977   6.645  0.0042 -0.6931 -1.6861
 1362SOL     OW15544   0.863   1.932   5.385 -0.7576  0.2875 -0.2047
 1362SOL    HW115545   0.794   1.891   5.436  0.5422 -1.0516  0.4622
 1362SOL    HW215546   0.821   1.947   5.300 -0.2140 -1.3828 -0.7571
 1363SOL     OW15547   2.858   2.964   9.116  0.4889  0.0945  0.1620
 1363SOL    HW115548   2.897   2.890   9.070  1.0562  1.6637 -1.9380
 1363SOL    HW215549   2.911   2.957   9.195 -0.6478  0.0056  0.9191
 1364SOL     OW15550   4.541   1.439   0.600 -0.0741 -0.0887 -0.7186
 1364SOL    HW115551   4.632   1.413   0.615 -1.4588 -2.6139  3.1327
 1364SOL    HW215552   4.500   1.354   0.582  1.0776 -1.2905  2.4148
 1365SOL     OW15553   1.643   0.184   1.953 -0.3605  0.3067 -0.0368
 1365SOL    HW115554   1.628   0.092   1.977 -1.5615  0.8509  1.2595
 1365SOL    HW215555   1.630   0.236   2.031  1.5678  1.5893 -0.5704
 1366SOL     OW15556   0.740   0.168  12.666 -0.3074 -0.5946 -0.4217
 1366SOL    HW115557   0.831   0.139  12.658 -0.7226 -2.4157  1.4850
 1366SOL    HW215558   0.745   0.255  12.707 -1.6846 -0.8730  0.3517
 1367SOL     OW15559   0.942   3.420   5.820  0.0585  0.2944 -0.4196
 1367SOL    HW115560   0.881   3.367   5.769 -0.8620  2.1864 -1.3025
 1367SOL    HW215561   1.021   3.367   5.814 -1.2372 -1.5955 -0.7462
 1368SOL     OW15562   4.536   4.220   7.225  0.1755  0.3967  0.0389
 1368SOL    HW115563   4.535   4.302   7.274  3.0236  0.0140  0.7250
 1368SOL    HW215564   4.481   4.176   7.290 -0.5136  0.1458 -0.7185
 1369SOL     OW15565   4.354   3.399   4.829 -0.3280  0.2005  0.2126
 1369SOL    HW115566   4.348   3.306   4.809 -0.1866  0.4257 -0.9151
 1369SOL    HW215567   4.314   3.442   4.753 -1.3991  2.1532  1.8728
 1370SOL     OW15568   0.837   4.411   1.077 -0.8927  0.4454 -0.2934
 1370SOL    HW115569   0.928   4.422   1.105 -0.7402 -3.7883  0.7554
 1370SOL    HW215570   0.855   4.427   0.984  0.7031  1.4012  0.1648
 1371SOL     OW15571   0.277   1.678   2.250  0.1393  0.3563 -0.1588
 1371SOL    HW115572   0.270   1.773   2.260 -0.0111  0.3372 -0.0825
 1371SOL    HW215573   0.318   1.678   2.164 -0.2837  2.6329 -0.3745
 1372SOL     OW15574   0.590   3.532  17.142  0.6486 -0.6368 -0.1342
 1372SOL    HW115575   0.629   3.595  17.202  0.4084  0.4926 -1.1749
 1372SOL    HW215576   0.527   3.486  17.198  0.6648 -0.2395  0.2031
 1373SOL     OW15577   0.337   3.492   1.543 -0.4028 -0.1109 -0.1270
 1373SOL    HW115578   0.329   3.427   1.474 -0.0517 -1.0848  0.7419
 1373SOL    HW215579   0.265   3.548   1.515 -1.0359 -0.7544  0.1963
 1374SOL     OW15580   2.825   2.170   4.133 -0.0179  0.1454  0.1656
 1374SOL    HW115581   2.736   2.136   4.120  0.6465 -2.0721  1.3500
 1374SOL    HW215582   2.850   2.195   4.044 -1.1094  0.5769 -0.0177
 1375SOL     OW15583   3.965   1.847  17.451  0.4294  0.0947  0.2453
 1375SOL    HW115584   4.054   1.841  17.415  0.9907 -0.6116  1.7746
 1375SOL    HW215585   3.928   1.780  17.393 -1.2779  1.2182  0.0083
 1376SOL     OW15586   1.658   0.673   9.103  0.1027  0.4918  0.2795
 1376SOL    HW115587   1.738   0.679   9.156 -0.1426 -1.1024  0.8308
 1376SOL    HW215588   1.639   0.583   9.129 -0.6983  0.0184 -1.8969
 1377SOL     OW15589   4.624   1.084   4.226 -0.0955  0.6128 -0.1002
 1377SOL    HW115590   4.606   1.006   4.279  1.1803  1.9514  2.2793
 1377SOL    HW215591   4.693   1.132   4.271  0.2124 -1.6854  1.8937
 1378SOL     OW15592   0.349   0.810  11.433 -0.0329  0.1124 -0.1787
 1378SOL    HW115593   0.280   0.796  11.369  0.1653  0.7515 -0.5245
 1378SOL    HW215594   0.328   0.899  11.462 -2.3196 -0.3937 -0.2892
 1379SOL     OW15595   4.647   4.000  17.656  0.2703  0.4076 -0.1176
 1379SOL    HW115596   4.563   4.036  17.625 -0.9333  0.7493  3.5887
 1379SOL    HW215597   4.618   3.947   0.046  0.4576  0.7152  0.1723
 1380SOL     OW15598   1.582   2.786   4.140  0.7364  0.1501  0.6335
 1380SOL    HW115599   1.660   2.786   4.085  1.7589 -2.3026  2.1011
 1380SOL    HW215600   1.508   2.800   4.081  1.0235  1.7699  0.6389
 1381SOL     OW15601   1.136   3.868  10.153  0.6989 -0.1875  0.5473
 1381SOL    HW115602   1.197   3.865  10.080 -0.3257 -1.3087 -0.2653
 1381SOL    HW215603   1.100   3.956  10.141  0.7946 -0.2459 -0.1465
 1382SOL     OW15604   2.651   1.077   6.630  0.5716 -0.4263 -0.2286
 1382SOL    HW115605   2.677   1.095   6.540  1.9267 -0.1109  0.2220
 1382SOL    HW215606   2.738   1.081   6.671  0.5272  0.2110 -0.1965
 1383SOL     OW15607   4.429   2.740   9.348 -0.7901  0.0064  0.1399
 1383SOL    HW115608   4.498   2.724   9.284 -1.2760  2.4655 -1.0253
 1383SOL    HW215609   4.476   2.705   9.423  1.3769  1.1653 -0.6856
 1384SOL     OW15610   2.115   2.657   4.392 -0.5814  0.5681 -0.1540
 1384SOL    HW115611   2.151   2.740   4.360  2.5984 -0.7221  0.0825
 1384SOL    HW215612   2.184   2.617   4.444  0.1965  0.6028 -1.1584
 1385SOL     OW15613   4.495   0.926   2.245 -0.5066 -0.0271 -0.9814
 1385SOL    HW115614   4.542   0.983   2.305 -2.3220 -1.1414  1.5081
 1385SOL    HW215615   4.404   0.952   2.260 -0.7764 -1.4191 -0.1907
 1386SOL     OW15616   1.577   3.683   5.957  0.4768 -0.1558 -0.2938
 1386SOL    HW115617   1.650   3.630   5.990  0.8946  1.4030  1.2785
 1386SOL    HW215618   1.504   3.626   5.983  1.5198 -0.1463  2.6353
 1387SOL     OW15619   2.817   4.458  13.169 -0.6550 -0.3515  0.0003
 1387SOL    HW115620   2.774   4.537  13.137  2.7261  0.3407 -2.8033
 1387SOL    HW215621   2.741   4.413  13.206  0.5131 -1.6225  0.8801
 1388SOL     OW15622   2.024   2.104  17.520 -0.0152 -0.1660 -0.4906
 1388SOL    HW115623   2.012   2.195  17.548  0.3268 -0.2456 -0.0778
 1388SOL    HW215624   2.116   2.092  17.544  0.6520  1.5110 -2.2052
 1389SOL     OW15625   0.189   2.060   3.282 -0.4270  0.4266  0.4619
 1389SOL    HW115626   0.241   2.097   3.210  0.5586 -1.0144  0.4393
 1389SOL    HW215627   0.105   2.106   3.281 -0.5330  0.2228 -2.5717
 1390SOL     OW15628   3.637   0.487   9.527  0.0812 -0.4859  0.2892
 1390SOL    HW115629   3.585   0.546   9.582 -0.1587 -0.9037  0.5141
 1390SOL    HW215630   3.704   0.553   9.510 -2.2112  1.4309 -1.2493
 1391SOL     OW15631   1.971   1.153   0.241  0.1211 -0.1976  0.3941
 1391SOL    HW115632   1.946   1.123   0.154 -0.9176 -1.6820  1.2069
 1391SOL    HW215633   2.050   1.101   0.260 -1.2567 -2.3014  0.3371
 1392SOL     OW15634   2.068   1.638  11.626  0.0816 -0.0645 -0.4579
 1392SOL    HW115635   2.006   1.637  11.698  1.1288 -3.3028  0.3884
 1392SOL    HW215636   2.075   1.544  11.609 -0.1556 -0.2083  0.2733
 1393SOL     OW15637   3.931   3.203   8.739  0.1976 -0.7344 -0.0448
 1393SOL    HW115638   3.951   3.197   8.645  2.0386  1.4847  0.2213
 1393SOL    HW215639   3.903   3.295   8.738  1.0339 -0.4865  0.1070
 1394SOL     OW15640   0.163   3.979  16.430 -0.4322  0.1201  0.5056
 1394SOL    HW115641   0.156   4.070  16.458 -0.0405  0.9485 -2.0188
 1394SOL    HW215642   0.257   3.971  16.442 -0.0669  2.0485 -0.9677
 1395SOL     OW15643   4.337   3.111   8.084  0.3655  0.3531  0.0601
 1395SOL    HW115644   4.395   3.158   8.143  2.7943 -1.3688 -0.9390
 1395SOL    HW215645   4.366   3.021   8.096  1.1224  0.5202 -0.5124
 1396SOL     OW15646   3.861   3.947  11.082 -0.2895 -0.2548 -0.3927
 1396SOL    HW115647   3.901   4.033  11.099 -2.1097  0.3963  0.6557
 1396SOL    HW215648   3.867   3.936  10.987 -1.7364  0.8333 -0.6144
 1397SOL     OW15649   2.673   4.231   3.012  0.1331 -0.6567 -0.7408
 1397SOL    HW115650   2.582   4.220   3.039  0.1295 -0.2883 -0.6071
 1397SOL    HW215651   2.726   4.169   3.062  0.7168 -0.3645 -1.0033
 1398SOL     OW15652   0.611   3.807   6.559 -0.1461  0.0840  0.8587
 1398SOL    HW115653   0.570   3.750   6.495  0.8202 -0.0371  0.3386
 1398SOL    HW215654   0.696   3.822   6.517 -0.0166 -4.3363 -0.5030
 1399SOL     OW15655   0.900   1.861   0.074 -0.4710  0.6595 -0.3986
 1399SOL    HW115656   0.842   1.798   0.031 -0.2340 -0.4822  0.9546
 1399SOL    HW215657   0.979   1.806   0.066  1.0112  2.5780  1.1738
 1400SOL     OW15658   0.260   1.360   5.708  0.0007 -0.0715  0.1052
 1400SOL    HW115659   0.218   1.298   5.647  0.2596 -0.7544  0.6313
 1400SOL    HW215660   0.297   1.414   5.638  1.4233  0.6743  1.4515
 1401SOL     OW15661   4.709   0.901   8.692  0.0879  0.2485  0.5783
 1401SOL    HW115662   4.624   0.910   8.650  0.6850 -0.0087 -0.6713
 1401SOL    HW215663   0.048   0.940   8.628 -2.4989  0.6925 -1.5485
 1402SOL     OW15664   3.393   1.032   0.502 -0.7511  0.4617  0.0303
 1402SOL    HW115665   3.468   1.051   0.559 -0.6181 -0.2436  0.0928
 1402SOL    HW215666   3.427   1.066   0.419  0.3242 -0.1630  0.2217
 1403SOL     OW15667   3.344   1.492   8.426  0.6278  0.7619 -0.0026
 1403SOL    HW115668   3.411   1.436   8.465 -0.6572 -0.6116  0.2444
 1403SOL    HW215669   3.271   1.447   8.469 -0.7630  0.1541 -2.9977
 1404SOL     OW15670   0.911   1.408   4.395  0.5393  0.2034 -0.4112
 1404SOL    HW115671   0.924   1.503   4.403 -1.1319  0.3622  0.6167
 1404SOL    HW215672   0.819   1.414   4.367  0.1612 -3.3376  0.1674
 1405SOL     OW15673   1.736   3.903   3.923  0.0052  0.3126  0.3972
 1405SOL    HW115674   1.795   3.947   3.983 -1.1909  0.3338  1.5524
 1405SOL    HW215675   1.771   3.814   3.920 -0.1929  0.0680  5.3719
 1406SOL     OW15676   1.151   0.512  10.391  0.3914  0.7670  0.4605
 1406SOL    HW115677   1.075   0.537  10.338  1.7591  0.1584 -1.7730
 1406SOL    HW215678   1.121   0.510  10.482  0.8770 -2.6885  0.5534
 1407SOL     OW15679   0.561   2.191   5.782  0.5881  0.4684 -0.4361
 1407SOL    HW115680   0.518   2.274   5.763 -0.6782 -0.3549 -1.1575
 1407SOL    HW215681   0.516   2.149   5.855  0.8548  0.2956 -0.3687
 1408SOL     OW15682   1.031   0.170   3.361  0.1961  0.6453  0.0950
 1408SOL    HW115683   0.964   0.230   3.329 -0.0420 -0.3260 -1.2134
 1408SOL    HW215684   1.057   0.221   3.438  2.1732 -0.5875  0.2410
 1409SOL     OW15685   2.663   0.008   4.567 -0.3427 -0.3478  0.3380
 1409SOL    HW115686   2.679   0.021   4.474 -3.5465  0.7524 -0.0699
 1409SOL    HW215687   2.635   0.094   4.598  0.7612  0.3782 -0.6914
 1410SOL     OW15688   3.021   1.077  14.767  0.1962 -0.6362 -0.7402
 1410SOL    HW115689   3.022   1.095  14.861 -1.1780  0.0054 -0.8484
 1410SOL    HW215690   3.018   0.982  14.768 -1.2712 -0.5521  1.6335
 1411SOL     OW15691   3.676   0.458   2.639  0.3681  0.3034  0.2577
 1411SOL    HW115692   3.663   0.541   2.685 -0.6734  1.1960 -1.6555
 1411SOL    HW215693   3.713   0.403   2.709  0.6771 -0.2492 -0.3352
 1412SOL     OW15694   0.710   3.384   6.470 -0.2304 -0.1683  0.5299
 1412SOL    HW115695   0.618   3.367   6.493 -0.3549  1.6801  1.3481
 1412SOL    HW215696   0.688   3.461   6.417  3.0691 -0.0683 -0.6673
 1413SOL     OW15697   1.670   4.715   9.562 -0.6228 -0.0577  0.3218
 1413SOL    HW115698   1.708   0.063   9.618 -2.2649  0.4930  0.7570
 1413SOL    HW215699   1.626   4.666   9.631 -1.6979 -0.3120 -0.5420
 1414SOL     OW15700   0.668   3.325   1.882  0.0053  0.2374 -0.4372
 1414SOL    HW115701   0.578   3.346   1.859 -0.3853 -1.7744 -0.6850
 1414SOL    HW215702   0.695   3.260   1.818 -0.0439  0.4940 -0.7155
 1415SOL     OW15703   0.947   2.754   1.061  0.3207  0.1473  1.1795
 1415SOL    HW115704   0.982   2.719   0.979  1.5708  0.1806  1.7029
 1415SOL    HW215705   0.883   2.686   1.083 -0.3887  0.0487 -1.1752
 1416SOL     OW15706   0.439   0.483  17.229  0.6978 -0.1652  0.0502
 1416SOL    HW115707   0.512   0.474  17.291 -0.6849 -1.5759  1.4627
 1416SOL    HW215708   0.433   0.578  17.219 -0.4853  0.0240  2.4352
 1417SOL     OW15709   0.543   0.556   3.312  0.1596  1.2940  0.4695
 1417SOL    HW115710   0.620   0.521   3.356 -0.8304 -2.3430 -0.7116
 1417SOL    HW215711   0.570   0.567   3.221 -1.3866  1.5968  0.0387
 1418SOL     OW15712   2.856   0.186   6.294 -0.1548 -0.2895  0.1716
 1418SOL    HW115713   2.876   0.223   6.380  0.3530 -0.8813  0.3084
 1418SOL    HW215714   2.931   0.212   6.241 -1.4953  1.4458 -0.8491
 1419SOL     OW15715   0.336   0.653  14.066  0.4721 -0.2993 -0.2395
 1419SOL    HW115716   0.390   0.714  14.017  2.1518 -0.6699  1.1571
 1419SOL    HW215717   0.265   0.632  14.005 -2.0305  3.5137  1.3996
 1420SOL     OW15718   3.233   1.322   8.844  0.2363 -0.5561 -0.0938
 1420SOL    HW115719   3.157   1.369   8.811  0.2069  0.3023  1.2048
 1420SOL    HW215720   3.309   1.379   8.836 -0.1809  0.0515  0.3417
 1421SOL     OW15721   1.201   0.518   8.204  0.6262 -0.3558  0.5071
 1421SOL    HW115722   1.126   0.462   8.183  1.0402 -0.7041 -0.0462
 1421SOL    HW215723   1.183   0.547   8.293 -1.2050  0.0702 -0.0021
 1422SOL     OW15724   0.091   1.427  15.573  0.5975 -0.3893 -0.0908
 1422SOL    HW115725   0.056   1.435  15.484  0.3116 -0.6663 -0.0030
 1422SOL    HW215726   0.108   1.335  15.590  0.5697 -0.5423 -0.8985
 1423SOL     OW15727   4.202   2.640  16.254 -0.3995  0.5793  0.0958
 1423SOL    HW115728   4.212   2.646  16.349 -0.0629  2.6592 -0.0570
 1423SOL    HW215729   4.279   2.685  16.219  1.5860 -1.8490  1.4046
 1424SOL     OW15730   3.342   2.239   4.047 -0.2201 -0.0690 -0.1369
 1424SOL    HW115731   3.316   2.244   3.955  2.5741  0.3610 -0.8912
 1424SOL    HW215732   3.312   2.326   4.076  0.4458  0.1016  0.0451
 1425SOL     OW15733   1.555   2.121  14.673 -0.8886 -0.1324 -0.2601
 1425SOL    HW115734   1.596   2.039  14.647  0.9939  1.1600 -1.3595
 1425SOL    HW215735   1.466   2.090  14.655 -0.2509 -1.5672 -0.9106
 1426SOL     OW15736   3.606   0.687  17.222 -0.3474  0.3093 -0.3434
 1426SOL    HW115737   3.552   0.662  17.147  0.0049 -0.4658 -0.3439
 1426SOL    HW215738   3.620   0.780  17.201  2.5331 -0.4350 -1.7662
 1427SOL     OW15739   2.275   1.696   8.001 -0.4112  0.3864 -0.2080
 1427SOL    HW115740   2.268   1.780   8.046  0.9264  0.5636 -0.3311
 1427SOL    HW215741   2.335   1.652   8.061  1.6632  0.3468 -2.3147
 1428SOL     OW15742   4.029   3.400  12.409  0.6660  0.0213 -0.1366
 1428SOL    HW115743   4.067   3.454  12.479  1.5963 -2.4368  1.2603
 1428SOL    HW215744   3.940   3.433  12.393  0.9611  0.3412 -1.0882
 1429SOL     OW15745   2.693   3.603   2.528  0.0316  0.2100 -0.6190
 1429SOL    HW115746   2.727   3.524   2.570  1.2242 -0.7411 -3.3599
 1429SOL    HW215747   2.733   3.575   2.445 -0.4730  1.1983 -1.2068
 1430SOL     OW15748   2.658   0.886  17.108  0.0954 -0.6288 -0.0224
 1430SOL    HW115749   2.690   0.798  17.127  0.0762 -0.7969 -0.7465
 1430SOL    HW215750   2.585   0.864  17.049 -0.6473  0.3880  0.5083
 1431SOL     OW15751   4.221   3.747  14.152 -0.3084 -0.6455  1.2481
 1431SOL    HW115752   4.259   3.808  14.088 -0.4640 -1.1624  0.6626
 1431SOL    HW215753   4.218   3.668  14.098  0.7962  0.5168 -0.5331
 1432SOL     OW15754   4.088   4.571   3.131  0.9487  0.0006  0.4740
 1432SOL    HW115755   4.022   4.507   3.103  1.7726 -0.8972  0.5977
 1432SOL    HW215756   4.160   4.511   3.151  0.7001 -0.1877  0.8205
 1433SOL     OW15757   3.758   4.669   3.806 -0.1869  0.1913  0.0930
 1433SOL    HW115758   3.729   0.034   3.774 -0.5109 -0.6720 -1.9354
 1433SOL    HW215759   3.850   4.688   3.824 -1.0104  1.1795  3.3399
 1434SOL     OW15760   3.258   4.176  16.964  0.2395  0.2160  0.1873
 1434SOL    HW115761   3.307   4.233  16.906  0.3589  0.7729  0.8312
 1434SOL    HW215762   3.179   4.164  16.913  0.7832  0.7515 -0.7795
 1435SOL     OW15763   0.787   1.594   1.508  0.3711 -0.5964 -0.0866
 1435SOL    HW115764   0.814   1.662   1.446  1.2535 -1.4377 -0.6324
 1435SOL    HW215765   0.877   1.578   1.537  0.2604 -1.4809 -0.2055
 1436SOL     OW15766   2.297   2.064  15.434  0.0580  0.4158 -0.2198
 1436SOL    HW115767   2.249   2.099  15.359  0.4584  0.3418 -0.5112
 1436SOL    HW215768   2.309   2.145  15.483  0.4805 -0.4219  1.0862
 1437SOL     OW15769   4.154   1.139   6.260  0.3289  0.6774 -0.0892
 1437SOL    HW115770   4.163   1.230   6.290  1.6092  1.8804 -4.2078
 1437SOL    HW215771   4.155   1.162   6.167  2.6290  1.1397  0.0544
 1438SOL     OW15772   2.203   4.025   6.839 -0.1818 -0.2039 -0.0490
 1438SOL    HW115773   2.269   4.052   6.903  0.4713 -0.6058 -0.5459
 1438SOL    HW215774   2.135   4.091   6.825  0.8336  1.0038  0.7743
 1439SOL     OW15775   2.347   0.245   7.610 -0.2692  0.0223 -0.5077
 1439SOL    HW115776   2.305   0.166   7.575 -0.0108 -0.2899 -0.1131
 1439SOL    HW215777   2.430   0.243   7.562 -0.5922  3.8123 -1.1968
 1440SOL     OW15778   3.406   0.683  12.660  0.4137 -0.4994 -0.1857
 1440SOL    HW115779   3.362   0.767  12.679  0.0882 -1.3187  2.6286
 1440SOL    HW215780   3.337   0.628  12.623  0.0156  1.9312 -3.0357
 1441SOL     OW15781   3.603   4.071   3.278  0.1845 -0.2199  0.0715
 1441SOL    HW115782   3.625   4.163   3.266 -0.7202  0.2312  1.8643
 1441SOL    HW215783   3.686   4.024   3.289  2.6458  3.7479 -1.6145
 1442SOL     OW15784   4.521   3.659   5.620  0.4891 -0.0877  0.3830
 1442SOL    HW115785   4.555   3.601   5.689 -0.0948  0.1498  0.8672
 1442SOL    HW215786   4.429   3.655   5.645  0.7194  0.7252  1.3995
 1443SOL     OW15787   1.535   0.791  16.592  0.0390 -0.3915  0.2384
 1443SOL    HW115788   1.630   0.803  16.593  0.1262 -0.9821 -1.2645
 1443SOL    HW215789   1.532   0.696  16.605  1.7022 -0.3866  0.6488
 1444SOL     OW15790   4.139   2.716   7.541 -0.1112 -0.1105 -0.1830
 1444SOL    HW115791   4.074   2.648   7.524 -2.7007  2.2788  0.2090
 1444SOL    HW215792   4.218   2.663   7.532  1.6739  2.5701 -0.2126
 1445SOL     OW15793   1.338   0.466   6.260 -0.0495 -0.0924  0.0381
 1445SOL    HW115794   1.334   0.433   6.170 -1.6626 -0.1511  0.1280
 1445SOL    HW215795   1.256   0.425   6.289 -0.1597 -0.3298 -0.5936
 1446SOL     OW15796   0.158   2.799   7.412 -0.1979  0.0643 -0.3166
 1446SOL    HW115797   0.092   2.746   7.367  0.8822 -0.4989 -1.2267
 1446SOL    HW215798   0.224   2.731   7.423 -1.5214 -0.9105  1.5901
 1447SOL     OW15799   0.818   1.186   4.873 -0.3505 -0.4801  0.4472
 1447SOL    HW115800   0.776   1.109   4.911 -0.2002 -0.3271  0.9249
 1447SOL    HW215801   0.810   1.165   4.780 -2.2513 -3.5013  1.2968
 1448SOL     OW15802   3.962   3.560   5.193 -0.1237  0.2060  0.1328
 1448SOL    HW115803   3.883   3.591   5.237 -0.4106  0.1251 -0.3310
 1448SOL    HW215804   3.964   3.468   5.220 -1.9163  0.8115  2.3264
 1449SOL     OW15805   0.265   3.617   3.646  0.2685  0.5141 -0.2428
 1449SOL    HW115806   0.358   3.621   3.624  0.5156 -0.0202  0.7063
 1449SOL    HW215807   0.250   3.522   3.646  2.2932  0.2051 -0.4080
 1450SOL     OW15808   2.191   2.423   9.051  0.6382  0.0414 -0.1093
 1450SOL    HW115809   2.125   2.469   9.101 -0.9106 -0.3543 -1.7700
 1450SOL    HW215810   2.169   2.339   9.091 -3.7295  0.0870 -2.4790
 1451SOL     OW15811   1.095   0.333   3.567 -0.1377  0.4960 -0.0547
 1451SOL    HW115812   1.057   0.418   3.545  0.0146  0.5863  0.0330
 1451SOL    HW215813   1.066   0.329   3.658 -0.1677 -1.3051 -0.1543
 1452SOL     OW15814   0.820   2.333  10.193  0.6025  0.3796  0.3237
 1452SOL    HW115815   0.786   2.244  10.184  1.3315  0.1742 -0.3768
 1452SOL    HW215816   0.913   2.330  10.168  0.4722 -0.8472  0.0179
 1453SOL     OW15817   1.869   0.153  15.532  0.7675  0.5925 -0.3948
 1453SOL    HW115818   1.783   0.192  15.522  0.8292  1.0748  0.9278
 1453SOL    HW215819   1.903   0.211  15.601 -0.0696 -0.2017  0.6786
 1454SOL     OW15820   2.640   4.694  16.094  0.3815  0.3801  0.2845
 1454SOL    HW115821   2.643   4.712  16.000  1.3736  0.1529  0.2776
 1454SOL    HW215822   2.664   4.601  16.102  2.9193  1.1760  1.7048
 1455SOL     OW15823   2.421   1.212   6.314  0.0152 -0.2485  0.5847
 1455SOL    HW115824   2.429   1.117   6.308  0.0853 -0.2821  1.2296
 1455SOL    HW215825   2.341   1.216   6.367  0.1217  0.6466  0.6895
 1456SOL     OW15826   1.504   3.492   2.973 -0.6259 -0.3633 -0.2444
 1456SOL    HW115827   1.436   3.477   3.038 -1.3127  0.5495 -0.7477
 1456SOL    HW215828   1.496   3.409   2.927  0.9734  0.2622 -1.6789
 1457SOL     OW15829   2.567   1.428   6.879  0.1962 -0.1595  0.4808
 1457SOL    HW115830   2.621   1.348   6.879  0.6764  0.1606 -0.0930
 1457SOL    HW215831   2.498   1.413   6.814  1.4072  1.6588 -1.2159
 1458SOL     OW15832   0.366   3.222   5.195  0.3194  0.0937  0.1580
 1458SOL    HW115833   0.331   3.169   5.123  2.5838  0.6828 -1.3627
 1458SOL    HW215834   0.434   3.167   5.234 -0.6535 -1.5106 -0.3843
 1459SOL     OW15835   4.613   0.997   5.888 -0.0925  0.4373 -0.1453
 1459SOL    HW115836   4.690   1.004   5.944  0.8390 -1.4015 -1.1802
 1459SOL    HW215837   4.644   1.052   5.816  2.0304 -1.4710 -0.6654
 1460SOL     OW15838   0.064   0.406  14.000  0.4124  0.4631  0.4624
 1460SOL    HW115839   0.142   0.351  13.989  0.5475  0.7967 -0.2071
 1460SOL    HW215840   0.091   0.484  13.952 -0.2266  0.9760  0.9316
 1461SOL     OW15841   2.985   2.585   2.818 -0.2496  0.2086 -0.0298
 1461SOL    HW115842   2.963   2.511   2.761  0.6742  1.5889 -2.2031
 1461SOL    HW215843   3.080   2.591   2.822 -0.1732 -0.0743 -1.4273
 1462SOL     OW15844   0.233   2.346   0.951  0.0286  0.0701 -0.3700
 1462SOL    HW115845   0.164   2.310   0.895  0.8320 -1.0121 -0.6614
 1462SOL    HW215846   0.205   2.434   0.974  1.9115  0.6427 -0.2754
 1463SOL     OW15847   0.091   1.574   8.092  0.2125 -0.4456 -0.2228
 1463SOL    HW115848   0.072   1.619   8.174 -0.8512  0.9474 -1.2422
 1463SOL    HW215849   0.020   1.617   8.044  0.9448 -0.0525 -0.9401
 1464SOL     OW15850   4.121   0.795   9.268 -0.1589  0.1261 -0.7287
 1464SOL    HW115851   4.202   0.847   9.264  0.2382 -0.3987  0.4119
 1464SOL    HW215852   4.151   0.754   9.349 -1.1776 -0.5611 -0.7069
 1465SOL     OW15853   3.769   1.640   6.017 -0.0230  0.2106  0.0785
 1465SOL    HW115854   3.678   1.645   5.989  0.2948 -0.1144 -0.9829
 1465SOL    HW215855   3.802   1.589   5.943 -0.5534  0.8962 -0.6326
 1466SOL     OW15856   2.582   3.938   3.306 -0.3193  0.0653  0.9752
 1466SOL    HW115857   2.611   3.976   3.223  0.7599  0.1393  1.3842
 1466SOL    HW215858   2.515   3.878   3.275  2.0325 -0.9261 -2.2408
 1467SOL     OW15859   0.990   2.678   7.536  0.4899 -0.0991  0.1794
 1467SOL    HW115860   0.978   2.667   7.442  0.3671 -1.4600  0.3526
 1467SOL    HW215861   0.956   2.764   7.558  0.9407  0.2823 -0.6364
 1468SOL     OW15862   2.624   1.752   9.296 -1.0352  0.2640  0.2806
 1468SOL    HW115863   2.574   1.675   9.321  1.1001 -1.5649 -1.0941
 1468SOL    HW215864   2.710   1.716   9.275 -2.0602 -0.0197 -3.5951
 1469SOL     OW15865   2.726   0.948  13.703  0.3688 -0.3971 -0.3510
 1469SOL    HW115866   2.811   0.981  13.674 -0.0791  0.2218 -0.9466
 1469SOL    HW215867   2.750   0.855  13.703 -0.3157 -0.5662 -2.6418
 1470SOL     OW15868   1.675   0.719  11.100 -0.5359  0.0012  0.0224
 1470SOL    HW115869   1.690   0.803  11.056 -1.9104 -0.0118 -0.4570
 1470SOL    HW215870   1.590   0.740  11.137 -0.6380  2.8794 -1.8091
 1471SOL     OW15871   2.144   2.851  11.883  0.1009 -0.5950  0.1404
 1471SOL    HW115872   2.099   2.792  11.822  0.8562  1.1505 -2.0921
 1471SOL    HW215873   2.124   2.932  11.836  1.3131  1.1425  2.6669
 1472SOL     OW15874   1.765   3.962   7.293  0.6229  0.0469  0.2145
 1472SOL    HW115875   1.827   4.004   7.233  0.7977  0.8831  0.9901
 1472SOL    HW215876   1.741   4.045   7.335  2.6211  0.4356  0.6023
 1473SOL     OW15877   0.423   4.034  10.400  0.3213 -0.2375 -0.3464
 1473SOL    HW115878   0.388   4.120  10.378  0.0237  0.0935  1.4264
 1473SOL    HW215879   0.468   4.015  10.317 -1.4794 -1.9706 -0.9501
 1474SOL     OW15880   0.818   1.795   2.835  0.0490 -0.5275 -1.0920
 1474SOL    HW115881   0.784   1.782   2.924  0.8372 -2.1307 -1.0261
 1474SOL    HW215882   0.899   1.744   2.843 -0.2319 -0.8417 -0.2588
 1475SOL     OW15883   2.559   1.136  13.879  0.3316  0.3463 -0.5889
 1475SOL    HW115884   2.601   1.122  13.963 -0.9952  0.2701  0.0593
 1475SOL    HW215885   2.613   1.087  13.816  0.3922  0.0465 -0.3028
 1476SOL     OW15886   0.274   4.161  17.326  0.1338 -0.0064 -0.2997
 1476SOL    HW115887   0.368   4.143  17.322  0.1409 -0.3190  1.0881
 1476SOL    HW215888   0.252   4.212  17.404  1.0777  0.5177 -0.3819
 1477SOL     OW15889   1.713   4.700   7.649  0.2754 -0.6083 -0.0832
 1477SOL    HW115890   1.741   4.704   7.740 -0.8171 -4.7525  0.4468
 1477SOL    HW215891   1.742   0.064   7.616 -1.2116 -0.5887 -1.3587
 1478SOL     OW15892   4.171   1.477   5.718  0.6889  0.2332 -0.7993
 1478SOL    HW115893   4.254   1.432   5.725  0.5856  0.0403 -0.8152
 1478SOL    HW215894   4.119   1.401   5.744  2.1399 -0.9867 -1.4719
 1479SOL     OW15895   0.677   1.520   6.857 -0.4687  0.4828  0.2342
 1479SOL    HW115896   0.641   1.582   6.921 -2.2723  0.5459 -0.8549
 1479SOL    HW215897   0.692   1.438   6.904  1.9109 -0.1716 -1.6609
 1480SOL     OW15898   2.549   4.248   1.975  0.2366  0.2736 -0.0975
 1480SOL    HW115899   2.577   4.239   1.884  1.5225 -2.5383  0.5596
 1480SOL    HW215900   2.628   4.217   2.019  0.3830 -0.3729 -0.8081
 1481SOL     OW15901   2.077   4.103   7.619  0.0819  0.3096 -0.2806
 1481SOL    HW115902   2.028   4.155   7.556  0.9687 -0.1230 -1.3384
 1481SOL    HW215903   2.000   4.077   7.669  1.5917  0.3859  2.0848
 1482SOL     OW15904   1.506   0.300   4.445  0.3053 -0.0594  0.3026
 1482SOL    HW115905   1.565   0.337   4.380  0.8367  1.0631  1.4251
 1482SOL    HW215906   1.508   0.376   4.502 -1.4008 -0.0978  0.4267
 1483SOL     OW15907   1.543   2.805   5.516 -0.3455  0.5679  0.1098
 1483SOL    HW115908   1.571   2.755   5.592  1.0909 -0.2091 -0.9265
 1483SOL    HW215909   1.609   2.796   5.448  1.8577  5.0475  1.6407
 1484SOL     OW15910   0.554   1.890   4.539 -0.5984  0.5058 -0.0290
 1484SOL    HW115911   0.611   1.929   4.473 -0.9541  0.3992 -0.4000
 1484SOL    HW215912   0.490   1.848   4.482  0.9452 -1.4721 -0.2772
 1485SOL     OW15913   4.137   1.421   6.289  0.4803  0.1903  0.1536
 1485SOL    HW115914   4.043   1.406   6.283  0.4982  0.0363  0.2746
 1485SOL    HW215915   4.151   1.482   6.216  1.1196  0.9163  0.8930
 1486SOL     OW15916   1.670   3.561   7.582  0.7256 -0.0078 -0.0765
 1486SOL    HW115917   1.751   3.511   7.583  0.5251 -0.3536 -1.1526
 1486SOL    HW215918   1.631   3.525   7.662 -1.1531 -1.4497 -1.6559
 1487SOL     OW15919   0.162   2.754  11.927 -0.7499 -0.1354 -0.0790
 1487SOL    HW115920   0.143   2.711  12.010 -1.2177  0.0829 -0.0742
 1487SOL    HW215921   0.134   2.843  11.948  0.0113  0.6758 -2.4990
 1488SOL     OW15922   1.194   3.293   3.011 -0.2849 -0.5809  0.5470
 1488SOL    HW115923   1.118   3.298   3.069 -0.4487  1.3121  0.1643
 1488SOL    HW215924   1.257   3.297   3.083 -0.7183 -0.9840  0.9583
 1489SOL     OW15925   1.453   2.337   0.405  0.4883  0.2754  0.0144
 1489SOL    HW115926   1.385   2.362   0.468  0.8821  0.2686  0.4414
 1489SOL    HW215927   1.525   2.384   0.448  2.0386  0.6065 -2.9722
 1490SOL     OW15928   1.705   4.527   0.209  0.4612 -0.1617  0.4523
 1490SOL    HW115929   1.695   4.446   0.258  1.7551 -0.9195 -0.5476
 1490SOL    HW215930   1.637   4.572   0.259  2.5818  1.6763  1.6993
 1491SOL     OW15931   3.460   1.172   4.967  0.1262 -0.2976 -0.2470
 1491SOL    HW115932   3.530   1.230   4.937  0.7722 -0.7111  0.4602
 1491SOL    HW215933   3.402   1.235   5.010  3.2809  1.2470  1.6979
 1492SOL     OW15934   3.036   4.084   0.477 -0.2034  0.0575  0.0646
 1492SOL    HW115935   3.037   4.168   0.523  1.2728  0.5628 -0.9259
 1492SOL    HW215936   3.054   4.017   0.543 -1.7308  0.4316  0.8655
 1493SOL     OW15937   3.487   3.745   2.858  0.7423 -0.1691  0.7613
 1493SOL    HW115938   3.507   3.826   2.904  0.6798  1.4792 -2.0830
 1493SOL    HW215939   3.432   3.777   2.787  0.4804 -2.1420  0.0730
 1494SOL     OW15940   1.436   0.010   5.926 -1.1744  0.1786  0.0133
 1494SOL    HW115941   1.453   0.017   6.020  1.7994  1.5345 -0.6026
 1494SOL    HW215942   1.445   4.636   5.922 -1.3165  0.2222 -1.3255
 1495SOL     OW15943   1.802   4.323   4.024 -0.1018 -0.0192  0.2206
 1495SOL    HW115944   1.860   4.394   4.051 -0.2923 -0.1559  0.9940
 1495SOL    HW215945   1.793   4.266   4.101 -2.3182  0.2495  0.1573
 1496SOL     OW15946   1.068   4.307  14.881 -0.0599 -0.1154 -0.0271
 1496SOL    HW115947   1.083   4.280  14.972  0.8771  0.0825 -0.1236
 1496SOL    HW215948   0.973   4.309  14.886 -0.0587 -0.0422 -0.0354
 1497SOL     OW15949   4.625   2.102  17.391 -0.8541 -0.0365  0.1163
 1497SOL    HW115950   4.581   2.026  17.429  0.5835 -1.1870 -0.5582
 1497SOL    HW215951   4.659   2.055  17.316 -1.1383  0.3594 -0.2615
 1498SOL     OW15952   2.553   0.680   3.016 -0.1347  0.2019  0.2016
 1498SOL    HW115953   2.497   0.603   3.004  0.0654  0.4685 -2.4518
 1498SOL    HW215954   2.487   0.749   3.023 -0.2934 -0.1506  2.0943
 1499SOL     OW15955   2.854   2.321   7.428 -0.2370 -0.5647  0.0457
 1499SOL    HW115956   2.873   2.372   7.507 -0.4342 -1.8926  0.9519
 1499SOL    HW215957   2.782   2.263   7.452 -0.9981 -0.1282 -1.1753
 1500SOL     OW15958   4.309   4.479   5.422 -0.3566  0.1094  1.0782
 1500SOL    HW115959   4.380   4.438   5.373 -0.0235  0.5780  1.1686
 1500SOL    HW215960   4.239   4.488   5.358  0.9183 -1.0155 -0.4607
 1501SOL     OW15961   1.922   4.306   6.057  0.0996 -0.3953  0.3956
 1501SOL    HW115962   1.836   4.344   6.040 -0.3990 -0.8676  1.8269
 1501SOL    HW215963   1.908   4.224   6.105 -2.0315  0.1583  0.7407
 1502SOL     OW15964   4.501   1.425   8.372  0.4772 -0.0343  0.3718
 1502SOL    HW115965   4.447   1.353   8.342  3.3023 -0.7875 -2.8943
 1502SOL    HW215966   4.452   1.458   8.447  1.2773 -1.3283  1.4627
 1503SOL     OW15967   3.083   2.027   3.647 -0.2173 -0.4979  0.3924
 1503SOL    HW115968   3.129   1.943   3.650 -0.9696 -0.8170  3.6697
 1503SOL    HW215969   3.155   2.082   3.678 -0.9827  0.7918 -0.1268
 1504SOL     OW15970   3.011   3.844   1.173 -0.4849  0.8403  0.1470
 1504SOL    HW115971   2.920   3.817   1.163 -0.7106  1.6812 -0.0707
 1504SOL    HW215972   3.001   3.899   1.251 -0.6840  0.8504  0.1137
 1505SOL     OW15973   1.449   4.182   6.058 -0.3586  0.6381  0.1661
 1505SOL    HW115974   1.361   4.159   6.026 -0.3342  0.9153 -0.1002
 1505SOL    HW215975   1.501   4.158   5.981 -0.7491  0.6155 -0.0911
 1506SOL     OW15976   2.441   0.798  16.826 -0.4357 -0.7814  0.1119
 1506SOL    HW115977   2.368   0.775  16.884 -2.2445  3.9442 -0.3281
 1506SOL    HW215978   2.424   0.891  16.818 -0.2581 -0.9813 -2.5904
 1507SOL     OW15979   3.832   2.458   6.792  0.3554  0.0971 -0.2654
 1507SOL    HW115980   3.755   2.442   6.847 -0.3860 -1.3449 -1.7476
 1507SOL    HW215981   3.833   2.553   6.784  1.2512  0.4284  3.7241
 1508SOL     OW15982   3.704   1.482   5.363 -0.4371 -0.1705 -0.6746
 1508SOL    HW115983   3.650   1.414   5.323  0.2518 -1.7267  1.0345
 1508SOL    HW215984   3.725   1.533   5.285  0.7665  0.2877 -0.0451
 1509SOL     OW15985   2.927   2.883   6.827  0.3178  0.2561 -0.0650
 1509SOL    HW115986   2.911   2.840   6.911 -2.0267  1.6755  0.1983
 1509SOL    HW215987   2.974   2.816   6.777 -0.2240 -0.0565 -0.1480
 1510SOL     OW15988   1.234   0.030   9.444  0.8969 -0.3477  0.6603
 1510SOL    HW115989   1.259   4.658   9.452  1.9036 -0.2293 -0.9289
 1510SOL    HW215990   1.271   0.059   9.360  2.4857 -1.0876  1.0999
 1511SOL     OW15991   4.387   3.142   2.662 -0.3184  0.6217  0.8788
 1511SOL    HW115992   4.321   3.186   2.608  0.7968 -1.0796 -1.8926
 1511SOL    HW215993   4.426   3.213   2.713  0.2139  0.6049  0.4900
 1512SOL     OW15994   1.487   4.507   2.707  0.3390  0.2844  0.1793
 1512SOL    HW115995   1.533   4.445   2.763  0.9432 -1.2503 -1.9990
 1512SOL    HW215996   1.554   4.558   2.661 -1.6124  1.1146 -1.7399
 1513SOL     OW15997   4.465   3.529   2.037  0.2508  0.1774 -0.2535
 1513SOL    HW115998   4.392   3.527   2.099  1.3446 -1.1913  0.9940
 1513SOL    HW215999   4.540   3.546   2.094  0.2876  1.8791 -0.7954
 1514SOL     OW16000   0.059   1.767   5.470  0.4685  0.5640 -0.2952
 1514SOL    HW116001   0.094   1.712   5.539  3.5037  1.9895 -0.6946
 1514SOL    HW216002   0.022   1.839   5.520 -1.4436  0.2622 -1.2771
 1515SOL     OW16003   0.509   1.394   5.827 -0.1332 -0.4203 -0.2797
 1515SOL    HW116004   0.433   1.385   5.770 -0.2634  1.2989 -0.3847
 1515SOL    HW216005   0.485   1.322   5.885 -0.3262  0.2861  0.5178
 1516SOL     OW16006   0.312   4.196   5.037  0.3521 -0.2249  0.0517
 1516SOL    HW116007   0.394   4.227   4.999  0.9016  0.3927  1.7423
 1516SOL    HW216008   0.284   4.268   5.094  1.2505  0.5169 -0.4586
 1517SOL     OW16009   0.418   0.308   3.892 -0.3214  0.4928  0.3982
 1517SOL    HW116010   0.456   0.221   3.880 -2.3273 -0.2358 -0.7644
 1517SOL    HW216011   0.379   0.318   3.805 -1.7090  0.3930  1.0140
 1518SOL     OW16012   3.020   4.054   8.251 -0.4684 -0.5246  0.0913
 1518SOL    HW116013   3.010   3.960   8.263 -2.3615 -0.5183 -1.4642
 1518SOL    HW216014   2.931   4.069   8.219 -0.3109 -1.5750 -0.8194
 1519SOL     OW16015   0.664   0.648   0.375 -0.5333 -0.5255  0.2053
 1519SOL    HW116016   0.636   0.739   0.371 -1.0605 -0.7081 -0.3935
 1519SOL    HW216017   0.637   0.618   0.288  0.3335 -1.5537  0.2910
 1520SOL     OW16018   3.278   3.298   5.837  0.6132 -0.5082 -0.0833
 1520SOL    HW116019   3.277   3.204   5.822  0.8367 -0.6684  0.8999
 1520SOL    HW216020   3.349   3.301   5.901  0.0154 -0.1519  0.5546
 1521SOL     OW16021   1.401   2.450   9.407 -0.2980 -0.1328  0.5478
 1521SOL    HW116022   1.450   2.417   9.332 -1.4161 -3.1514  1.1752
 1521SOL    HW216023   1.445   2.398   9.474 -2.2856  1.6114  3.1897
 1522SOL     OW16024   1.316   3.913   4.905 -0.1577 -0.5210 -0.6679
 1522SOL    HW116025   1.289   4.000   4.876  0.6416 -0.1308 -0.2469
 1522SOL    HW216026   1.310   3.926   5.000 -1.3414 -0.5681 -0.7292
 1523SOL     OW16027   4.574   3.328   9.286  0.0279 -0.0399 -0.6829
 1523SOL    HW116028   4.661   3.361   9.264 -0.4170  3.3121  2.6120
 1523SOL    HW216029   4.570   3.338   9.381  0.7359 -0.1066 -0.6433
 1524SOL     OW16030   1.578   2.600  14.229 -0.2635 -0.7781  0.6283
 1524SOL    HW116031   1.519   2.528  14.211  0.4897 -1.3700  0.5377
 1524SOL    HW216032   1.520   2.641  14.293 -0.6613 -0.3442 -0.0084
 1525SOL     OW16033   0.377   0.694   6.265 -0.2778  0.5691  0.1296
 1525SOL    HW116034   0.320   0.686   6.341  0.6323 -0.3410  0.7148
 1525SOL    HW216035   0.310   0.704   6.197 -1.5696 -0.1244  1.3137
 1526SOL     OW16036   3.437   4.430  14.027  0.1246  0.0936 -0.1759
 1526SOL    HW116037   3.389   4.399  14.104  0.4212 -2.3027 -0.9541
 1526SOL    HW216038   3.418   4.356  13.970 -3.7200  0.2204  0.9402
 1527SOL     OW16039   3.539   2.150   6.983  0.4878  0.0927 -0.4094
 1527SOL    HW116040   3.518   2.070   6.934 -2.6659  1.4178 -1.2062
 1527SOL    HW216041   3.622   2.125   7.023  1.6308  0.9925 -2.2738
 1528SOL     OW16042   0.006   3.864  15.219 -0.7933  0.0952 -0.0483
 1528SOL    HW116043   0.088   3.820  15.197 -2.2800 -3.0905  0.8066
 1528SOL    HW216044   0.024   3.898  15.307  1.7728 -0.6779 -0.2708
 1529SOL     OW16045   0.449   4.482  13.011 -0.3130  0.2318  0.4293
 1529SOL    HW116046   0.509   4.411  12.991 -1.1321 -1.2161  3.0599
 1529SOL    HW216047   0.364   4.440  12.996  0.1382 -0.9863  1.2508
 1530SOL     OW16048   2.444   0.975  13.629  0.7174 -0.4789  0.2111
 1530SOL    HW116049   2.452   1.032  13.705 -0.4728  1.9399 -1.4426
 1530SOL    HW216050   2.529   0.930  13.630  1.1559  0.3063 -0.8194
 1531SOL     OW16051   4.123   0.402   6.701 -0.1582 -0.0438  0.3352
 1531SOL    HW116052   4.087   0.454   6.773 -1.5202  1.2150 -1.2522
 1531SOL    HW216053   4.048   0.372   6.650 -0.5088  2.5045 -0.6356
 1532SOL     OW16054   2.005   0.248   6.000  0.4088  0.4348 -0.3067
 1532SOL    HW116055   2.085   0.204   5.972  0.0551  0.5949 -1.5896
 1532SOL    HW216056   2.033   0.333   6.034 -2.8914  0.6934  1.8051
 1533SOL     OW16057   0.827   0.665  17.525  0.1719  0.0687 -0.7091
 1533SOL    HW116058   0.886   0.597  17.494 -1.9928 -1.7889 -0.7980
 1533SOL    HW216059   0.879   0.712  17.590 -1.0787  0.8124 -0.2318
 1534SOL     OW16060   3.966   0.355   5.195  0.0244  0.8288 -0.8917
 1534SOL    HW116061   3.921   0.435   5.219  0.0845  0.7453 -0.4938
 1534SOL    HW216062   4.033   0.385   5.133  0.5757  0.2701 -0.5766
 1535SOL     OW16063   1.051   3.316   6.937 -0.1095  0.1260  0.2976
 1535SOL    HW116064   0.989   3.248   6.910  0.5088 -0.4508  0.3299
 1535SOL    HW216065   0.998   3.393   6.917 -0.5127  0.4815  2.7997
 1536SOL     OW16066   1.739   3.366   8.525  0.0939  0.7950  0.3467
 1536SOL    HW116067   1.770   3.404   8.443  0.5640 -0.9005 -0.2766
 1536SOL    HW216068   1.646   3.381   8.509 -0.0784 -1.1560 -0.4787
 1537SOL     OW16069   1.366   3.123   7.058 -0.1773  0.1719  0.6032
 1537SOL    HW116070   1.334   3.039   7.092 -0.0145 -1.3642 -3.0295
 1537SOL    HW216071   1.317   3.186   7.111  1.1597 -0.4189  2.5320
 1538SOL     OW16072   0.065   2.986  14.712  0.3316  1.0405  0.1932
 1538SOL    HW116073   0.100   2.896  14.715 -1.3393  0.3957  0.0238
 1538SOL    HW216074   0.020   2.981  14.796 -0.9290  2.4944 -0.4003
 1539SOL     OW16075   2.729   4.063   4.191  0.0004  0.5663  0.3380
 1539SOL    HW116076   2.764   4.087   4.276  2.4279 -1.0933 -0.2136
 1539SOL    HW216077   2.799   4.089   4.132  0.8948  1.4316  1.7936
 1540SOL     OW16078   3.862   0.380   5.588  0.0510  0.0813  0.2833
 1540SOL    HW116079   3.776   0.400   5.551  0.4214  0.8020 -0.1903
 1540SOL    HW216080   3.917   0.418   5.519  1.3375 -1.0601  0.6818
 1541SOL     OW16081   0.807   1.849   0.515 -0.1708 -0.2476 -0.6813
 1541SOL    HW116082   0.820   1.944   0.516  0.7782 -0.3629 -1.6235
 1541SOL    HW216083   0.774   1.819   0.599  0.5355  1.9588  0.3892
 1542SOL     OW16084   3.282   1.094   3.888 -0.1837 -0.1649  0.2202
 1542SOL    HW116085   3.228   1.015   3.890 -3.0102  1.8398  1.7873
 1542SOL    HW216086   3.358   1.057   3.842 -0.7454 -2.3265  1.0051
 1543SOL     OW16087   3.762   1.570   5.096  0.3578  0.1374 -0.0407
 1543SOL    HW116088   3.831   1.562   5.031  1.6649 -0.9144  1.4651
 1543SOL    HW216089   3.780   1.654   5.139  2.4921 -0.7963  0.9111
 1544SOL     OW16090   2.163   3.708   6.838 -0.6355 -0.0249 -0.4973
 1544SOL    HW116091   2.191   3.712   6.746  0.7806 -2.0920 -0.1632
 1544SOL    HW216092   2.163   3.798   6.870 -0.2112 -0.5331  0.9261
 1545SOL     OW16093   2.137   1.306   7.886  0.0466  0.1942  0.0590
 1545SOL    HW116094   2.144   1.263   7.801 -1.0470 -0.7167  0.4297
 1545SOL    HW216095   2.187   1.386   7.868  0.8483 -0.2176  0.5061
 1546SOL     OW16096   3.637   1.339   3.044  0.3785  0.5935  0.8206
 1546SOL    HW116097   3.653   1.434   3.046  2.7813  0.1837  0.1120
 1546SOL    HW216098   3.696   1.304   2.978 -3.2019 -0.1122 -2.0162
 1547SOL     OW16099   2.458   0.123   5.353  0.0354 -0.0660 -0.0470
 1547SOL    HW116100   2.497   0.043   5.388  0.1120  0.6703  1.5851
 1547SOL    HW216101   2.369   0.120   5.388 -0.8730 -1.2729 -2.5442
 1548SOL     OW16102   2.971   2.961   4.718 -0.0619  0.4463  0.1164
 1548SOL    HW116103   3.033   2.921   4.779 -1.0651  1.0558  1.5381
 1548SOL    HW216104   2.894   2.905   4.727  1.1101 -0.9252  1.6207
 1549SOL     OW16105   3.004   3.526   0.330 -0.2171 -0.0676  0.1653
 1549SOL    HW116106   2.971   3.436   0.321 -0.4068  0.1883 -1.6483
 1549SOL    HW216107   2.926   3.577   0.310  0.4072  0.7016 -0.2789
 1550SOL     OW16108   1.802   1.369   6.921 -0.0848  0.0473  0.2243
 1550SOL    HW116109   1.745   1.321   6.981 -0.0258 -0.7944 -0.3894
 1550SOL    HW216110   1.796   1.455   6.963  1.3624  0.4997 -0.4795
 1551SOL     OW16111   2.136   1.329  15.405  1.0563  0.7971 -0.3432
 1551SOL    HW116112   2.203   1.326  15.336 -0.9813  1.2527 -2.3471
 1551SOL    HW216113   2.131   1.424  15.406 -1.7683  0.6559 -0.4060
 1552SOL     OW16114   1.222   0.691   0.169  0.0921  0.4288 -0.0282
 1552SOL    HW116115   1.297   0.642   0.201 -1.2319 -0.0477  2.3724
 1552SOL    HW216116   1.269   0.766   0.132  0.8302 -0.9241 -1.8271
 1553SOL     OW16117   2.185   2.277   6.421  0.1684  0.1360 -0.1582
 1553SOL    HW116118   2.274   2.306   6.403  0.5448 -0.3608  0.9332
 1553SOL    HW216119   2.210   2.208   6.481 -1.3289  1.7860  2.3732
 1554SOL     OW16120   1.987   4.100   5.269 -0.5639  0.2345  0.2387
 1554SOL    HW116121   2.046   4.026   5.251 -1.0155 -0.1324  0.2762
 1554SOL    HW216122   2.020   4.143   5.349 -1.0014  3.3234 -1.2652
 1555SOL     OW16123   1.130   4.644   7.801  0.2802  0.1768 -0.1163
 1555SOL    HW116124   1.220   4.674   7.813  0.3084  0.4101 -0.9199
 1555SOL    HW216125   1.100   4.617   7.888  0.5862  1.8372  0.5179
 1556SOL     OW16126   4.210   2.800   2.278  0.2999 -0.2424  0.0866
 1556SOL    HW116127   4.169   2.723   2.316  0.6653 -0.1075  0.7444
 1556SOL    HW216128   4.267   2.832   2.348  1.9552 -1.4861 -0.7028
 1557SOL     OW16129   0.662   3.637   9.132  0.0553  0.2318  0.1620
 1557SOL    HW116130   0.717   3.715   9.142 -1.0125  1.0835 -0.5959
 1557SOL    HW216131   0.703   3.596   9.055 -0.7053 -1.4163  0.6201
 1558SOL     OW16132   1.650   0.186   3.614 -0.0652 -0.3246 -0.6292
 1558SOL    HW116133   1.643   0.279   3.591  1.0862 -0.2407 -0.6351
 1558SOL    HW216134   1.566   0.147   3.591  0.0844 -1.2664  0.4282
 1559SOL     OW16135   2.884   2.343   3.123  0.5055  0.2708  0.4895
 1559SOL    HW116136   2.974   2.349   3.154  0.5287  0.0649  0.4597
 1559SOL    HW216137   2.871   2.432   3.091  0.8843  0.4554  0.8461
 1560SOL     OW16138   0.647   3.679   5.263  0.1298  0.0633 -0.1793
 1560SOL    HW116139   0.725   3.680   5.319 -1.3181  2.5848  1.8160
 1560SOL    HW216140   0.610   3.594   5.283  3.6305 -1.6089 -0.7827
 1561SOL     OW16141   1.653   4.174   7.482 -0.5070 -0.1827  0.4953
 1561SOL    HW116142   1.660   4.150   7.574  0.0631 -0.2967  0.4173
 1561SOL    HW216143   1.558   4.189   7.480 -0.2624  1.3258 -0.2104
 1562SOL     OW16144   1.257   0.470   2.950 -0.2587  0.7639 -0.3171
 1562SOL    HW116145   1.245   0.558   2.914 -1.3581  1.0689  0.8018
 1562SOL    HW216146   1.163   0.452   2.959  0.7898 -3.3265  2.5662
 1563SOL     OW16147   1.092   1.073   4.816  0.1509 -0.3700  0.6068
 1563SOL    HW116148   1.156   1.052   4.883  0.7340  0.1146  0.2009
 1563SOL    HW216149   1.099   1.169   4.810  0.3363 -0.4213 -0.0175
 1564SOL     OW16150   3.769   3.139   2.552  0.1128 -0.3118  0.0880
 1564SOL    HW116151   3.801   3.094   2.630 -0.2579 -1.5147 -0.4472
 1564SOL    HW216152   3.844   3.127   2.494 -0.1824 -0.2442 -0.3117
 1565SOL     OW16153   1.595   4.653  14.712 -0.1167  0.1530  0.0938
 1565SOL    HW116154   1.680   4.696  14.717  0.0504 -0.2268  0.5810
 1565SOL    HW216155   1.591   4.617  14.801 -0.2611 -1.8412 -0.7015
 1566SOL     OW16156   1.576   3.406   6.276  0.9815 -0.0510  0.6318
 1566SOL    HW116157   1.509   3.433   6.339 -0.3712 -2.6961  0.3293
 1566SOL    HW216158   1.582   3.466   6.202  0.1288  1.5379  1.8454
 1567SOL     OW16159   4.131   3.722   7.185  0.0329 -0.5535 -0.2853
 1567SOL    HW116160   4.158   3.802   7.231  1.1803 -0.1841 -1.6046
 1567SOL    HW216161   4.132   3.662   7.260  1.2906  1.9516  1.6774
 1568SOL     OW16162   2.527   2.890   6.472 -0.2957 -0.0682 -0.4152
 1568SOL    HW116163   2.583   2.907   6.547  1.8989  0.0901 -2.0897
 1568SOL    HW216164   2.467   2.965   6.481 -0.6916 -0.3528 -0.6589
 1569SOL     OW16165   4.128   0.984   8.324 -0.0427  0.0890  0.1682
 1569SOL    HW116166   4.101   0.950   8.239 -1.8997 -0.3942  0.9459
 1569SOL    HW216167   4.125   0.903   8.375 -0.3843  0.5397  0.8648
 1570SOL     OW16168   3.830   4.511   5.438  0.2882  0.9923  0.4152
 1570SOL    HW116169   3.778   4.585   5.471  0.0929  1.3407 -0.6758
 1570SOL    HW216170   3.810   4.504   5.345 -0.4644  0.8137  0.5878
 1571SOL     OW16171   1.854   0.214   7.540 -0.0241 -0.2983  0.1961
 1571SOL    HW116172   1.920   0.204   7.609  0.1304  1.0198  0.2477
 1571SOL    HW216173   1.872   0.145   7.476  0.2422  1.3311 -1.5127
 1572SOL     OW16174   4.126   0.398   5.449 -0.6057  0.0839  0.1493
 1572SOL    HW116175   4.156   0.334   5.384 -1.5523 -0.3818  0.1730
 1572SOL    HW216176   4.166   0.344   5.517 -0.5898  0.6279  0.5746
 1573SOL     OW16177   0.566   4.600  13.218 -0.0541 -0.2508  0.2671
 1573SOL    HW116178   0.654   4.608  13.182 -0.6096 -0.6052 -1.1666
 1573SOL    HW216179   0.510   4.562  13.150 -1.6176  1.7287  0.4441
 1574SOL     OW16180   0.827   0.001   5.119 -0.7152  0.3852  0.0899
 1574SOL    HW116181   0.867   4.645   5.077  0.5352  0.2784  1.4500
 1574SOL    HW216182   0.737   4.696   5.099 -0.4074  1.1215 -2.2245
 1575SOL     OW16183   3.905   4.370   0.139 -0.4908  0.6509 -0.3262
 1575SOL    HW116184   3.865   4.284   0.151 -1.2646  1.3907  2.2503
 1575SOL    HW216185   3.937   4.388   0.227  2.1769 -2.9226 -0.5491
 1576SOL     OW16186   2.918   0.132  14.159 -0.6799  0.2328  0.6429
 1576SOL    HW116187   2.870   0.049  14.155 -0.5892  0.1273  1.5471
 1576SOL    HW216188   3.005   0.102  14.186  0.0585  0.3712 -1.6532
 1577SOL     OW16189   4.682   1.542   3.095 -0.2137 -0.6458 -0.5551
 1577SOL    HW116190   0.048   1.500   3.100 -0.4432 -0.9087  1.1349
 1577SOL    HW216191   4.693   1.632   3.124 -3.1693 -0.8702  1.2593
 1578SOL     OW16192   3.344   4.378   2.876  0.3043 -0.0179 -0.6889
 1578SOL    HW116193   3.259   4.381   2.832  0.4942  1.6105 -0.9428
 1578SOL    HW216194   3.385   4.463   2.864 -0.4863  0.0162 -3.2542
 1579SOL     OW16195   4.132   0.251   4.750  0.1983  0.1502 -0.3859
 1579SOL    HW116196   4.168   0.269   4.663 -1.2249  1.4170 -0.7120
 1579SOL    HW216197   4.050   0.205   4.730  1.1641 -1.5535 -0.4025
 1580SOL     OW16198   2.235   2.143   6.697 -0.0432  0.4076  0.0165
 1580SOL    HW116199   2.243   2.107   6.786  2.1235 -0.4429 -0.5131
 1580SOL    HW216200   2.190   2.224   6.720 -1.2933  0.0736 -1.2440
 1581SOL     OW16201   3.417   3.523   6.916  0.2575  0.3759  0.3774
 1581SOL    HW116202   3.404   3.458   6.985  0.6243 -1.5837 -1.3983
 1581SOL    HW216203   3.331   3.555   6.891 -0.2367 -0.6240  0.7964
 1582SOL     OW16204   0.766   2.058  14.149 -0.9342 -0.0683  0.0248
 1582SOL    HW116205   0.813   2.117  14.209  0.8064  0.0992 -1.4990
 1582SOL    HW216206   0.726   2.117  14.084 -1.2947 -1.9335 -1.4428
 1583SOL     OW16207   1.187   4.123   9.638 -0.3875  0.0539  0.4494
 1583SOL    HW116208   1.190   4.033   9.606  1.1681  0.8385 -1.5694
 1583SOL    HW216209   1.206   4.165   9.555  2.7330 -2.9932 -0.4126
 1584SOL     OW16210   4.346   0.350   7.424  0.4825  0.0106  0.1472
 1584SOL    HW116211   4.311   0.436   7.405  3.0786  1.0526  0.0963
 1584SOL    HW216212   4.294   0.295   7.365  1.2846 -0.7468  0.1355
 1585SOL     OW16213   3.182   2.144   7.207  0.6118  0.2841 -0.0134
 1585SOL    HW116214   3.218   2.233   7.210 -0.3036  0.5691  2.6586
 1585SOL    HW216215   3.235   2.102   7.275 -0.5089  0.6065  1.0467
 1586SOL     OW16216   1.878   1.292  10.875 -0.3789 -0.1038 -0.2867
 1586SOL    HW116217   1.874   1.359  10.942 -3.7546 -1.0990  0.5230
 1586SOL    HW216218   1.786   1.299  10.849  0.6615  0.8633 -3.8129
 1587SOL     OW16219   3.222   0.185   5.562  0.7592  0.6636  0.1467
 1587SOL    HW116220   3.289   0.138   5.513  0.1334  1.5721 -1.5783
 1587SOL    HW216221   3.148   0.186   5.502  0.9003 -0.0888 -0.0356
 1588SOL     OW16222   0.192   0.132   4.328  0.2141 -0.8056  0.7289
 1588SOL    HW116223   0.275   0.158   4.369  0.2813 -1.1494  0.8114
 1588SOL    HW216224   0.139   0.149   4.406 -0.0861  1.2488  0.0746
 1589SOL     OW16225   2.667   0.256   8.236 -0.1318 -0.0039 -0.1062
 1589SOL    HW116226   2.602   0.222   8.297  1.2116 -1.7195  0.3703
 1589SOL    HW216227   2.678   0.344   8.274 -1.6520  0.4929 -0.8030
 1590SOL     OW16228   0.373   2.235   2.052  0.3754 -0.2825 -0.5631
 1590SOL    HW116229   0.414   2.287   1.984 -2.3327  0.8693 -1.3059
 1590SOL    HW216230   0.391   2.287   2.130  0.0503 -1.7228  0.4735
 1591SOL     OW16231   0.599   1.034   3.210  0.4453 -0.1336 -0.3905
 1591SOL    HW116232   0.624   0.959   3.264  2.6724  1.9125  1.3761
 1591SOL    HW216233   0.603   0.991   3.124 -1.2352 -2.7029  0.8105
 1592SOL     OW16234   1.013   0.583   4.467  0.4664 -0.2499  0.8125
 1592SOL    HW116235   1.032   0.636   4.545  0.1543  1.3779 -0.2218
 1592SOL    HW216236   0.946   0.528   4.508  0.8432 -1.4569 -0.1791
 1593SOL     OW16237   4.238   4.043   1.456  0.0764 -0.5434 -0.3602
 1593SOL    HW116238   4.311   4.104   1.448 -2.7194  2.8202 -0.2411
 1593SOL    HW216239   4.288   3.966   1.484 -0.6089 -1.0931 -0.6439
 1594SOL     OW16240   3.193   1.606   7.664  0.3489  0.5275 -0.2823
 1594SOL    HW116241   3.221   1.666   7.594  0.5122  1.7527  0.8355
 1594SOL    HW216242   3.227   1.528   7.621  2.5761  1.0220  0.5934
 1595SOL     OW16243   0.840   0.975   8.205  0.5003  0.1253 -0.5384
 1595SOL    HW116244   0.813   1.055   8.160  1.2119  0.5237 -0.2619
 1595SOL    HW216245   0.809   0.991   8.294  0.9303 -1.0252 -0.1811
 1596SOL     OW16246   0.696   1.530   2.220 -0.2239 -0.3054  0.0960
 1596SOL    HW116247   0.641   1.508   2.296  2.5257 -0.9196  1.8948
 1596SOL    HW216248   0.684   1.625   2.225 -0.3024 -0.3621  1.1079
 1597SOL     OW16249   2.984   2.981   8.644  0.7194 -0.1378  0.3666
 1597SOL    HW116250   2.955   2.917   8.709 -1.5455 -1.1745 -1.6674
 1597SOL    HW216251   2.918   2.986   8.575  0.5342  1.2321  0.6289
 1598SOL     OW16252   1.710   4.567   2.260 -0.0815  0.6353  0.2327
 1598SOL    HW116253   1.694   4.476   2.233 -3.0663  1.1886  0.0650
 1598SOL    HW216254   1.682   4.606   2.177  1.3861 -1.0858 -1.0745
 1599SOL     OW16255   0.144   0.738  11.221 -0.1324  0.1232  0.3544
 1599SOL    HW116256   0.131   0.821  11.174 -1.1818 -0.8100 -1.0053
 1599SOL    HW216257   0.193   0.692  11.152  0.3534  1.5432 -0.2520
 1600SOL     OW16258   0.465   1.193   4.843  0.3699  0.2725  0.0126
 1600SOL    HW116259   0.399   1.137   4.803 -0.1160 -0.1295  1.3872
 1600SOL    HW216260   0.542   1.137   4.852 -0.0595 -0.5161 -1.2661
 1601SOL     OW16261   1.702   2.250   8.753 -0.5302 -0.4478 -0.3126
 1601SOL    HW116262   1.698   2.330   8.701  0.2684 -0.3248 -0.1789
 1601SOL    HW216263   1.646   2.280   8.824  0.6964  1.8574 -0.2971
 1602SOL     OW16264   1.268   1.707   0.984  0.2228 -0.4325 -0.1853
 1602SOL    HW116265   1.358   1.733   0.998  1.1216 -2.3829 -2.2882
 1602SOL    HW216266   1.221   1.791   0.979  1.9642  0.6566  1.9802
 1603SOL     OW16267   0.205   0.353  11.432  0.0563  0.4608  0.0287
 1603SOL    HW116268   0.289   0.400  11.432  0.4415 -0.2203  1.5800
 1603SOL    HW216269   0.145   0.424  11.453  0.5073 -0.2329  3.5456
 1604SOL     OW16270   0.892   3.027   7.056 -0.4246  0.0211 -0.3667
 1604SOL    HW116271   0.933   2.955   7.008 -0.5738 -0.8973  0.9121
 1604SOL    HW216272   0.902   3.005   7.148  0.5039  0.0451 -0.4573
 1605SOL     OW16273   2.716   2.186   4.845 -0.1071 -0.1523 -0.3337
 1605SOL    HW116274   2.649   2.252   4.829  0.6688  0.1052 -2.5689
 1605SOL    HW216275   2.674   2.124   4.905 -0.3347 -0.5248 -0.8769
 1606SOL     OW16276   1.065   2.363   3.329  0.0494 -0.7692 -0.2231
 1606SOL    HW116277   1.065   2.363   3.233 -1.4465 -0.5422 -0.2239
 1606SOL    HW216278   1.110   2.281   3.351  0.0553 -0.3745  1.2610
 1607SOL     OW16279   1.872   2.628   5.046 -0.1848 -0.6818  0.1458
 1607SOL    HW116280   1.860   2.654   5.137 -2.3443 -1.3677  0.0455
 1607SOL    HW216281   1.967   2.636   5.033 -0.3071  0.2738 -0.1567
 1608SOL     OW16282   3.504   0.352   4.807  0.4839 -0.1551  0.1912
 1608SOL    HW116283   3.528   0.438   4.774  0.0414 -0.9407 -2.1231
 1608SOL    HW216284   3.564   0.365   4.880 -0.3784 -0.0005  0.8847
 1609SOL     OW16285   0.072   3.747  14.255  0.0934  0.4366 -0.1840
 1609SOL    HW116286   4.718   3.769  14.199 -0.4025 -1.1260 -0.1376
 1609SOL    HW216287   0.050   3.807  14.326 -1.8885 -1.0349  0.4283
 1610SOL     OW16288   0.080   2.768  15.127 -0.9986 -0.4770  0.0351
 1610SOL    HW116289   0.038   2.684  15.107 -1.0523 -0.1113 -1.3817
 1610SOL    HW216290   0.165   2.739  15.159 -0.0235  0.9233 -1.2464
 1611SOL     OW16291   3.205   3.884   7.539  0.2024  0.2467  0.1249
 1611SOL    HW116292   3.288   3.890   7.492 -0.1490 -1.1214 -0.6587
 1611SOL    HW216293   3.146   3.887   7.464  1.5088 -1.5088 -0.9609
 1612SOL     OW16294   2.248   0.771  13.048  0.4975  0.1053  0.3404
 1612SOL    HW116295   2.219   0.709  12.982 -0.4165  0.7476  0.1313
 1612SOL    HW216296   2.237   0.714  13.124  0.9955 -1.2392 -0.6004
 1613SOL     OW16297   2.802   1.435   4.943 -0.2560  0.6928  0.0045
 1613SOL    HW116298   2.761   1.399   4.864  1.6141 -1.5825  0.0836
 1613SOL    HW216299   2.864   1.498   4.905  2.0258 -0.2381  2.1588
 1614SOL     OW16300   2.236   3.835   2.336  0.2516 -0.3783 -0.0375
 1614SOL    HW116301   2.244   3.800   2.247 -0.8572  0.5201 -0.5036
 1614SOL    HW216302   2.142   3.855   2.340  0.3929  0.3139 -0.2098
 1615SOL     OW16303   0.625   2.884   0.311 -0.1486 -0.3008 -0.2072
 1615SOL    HW116304   0.605   2.798   0.274  0.5820 -0.2764 -0.6540
 1615SOL    HW216305   0.547   2.927   0.277 -0.9575 -0.5305  1.3403
 1616SOL     OW16306   1.687   1.441   5.418 -0.5981 -0.5305 -0.1732
 1616SOL    HW116307   1.752   1.510   5.407  1.5465 -2.1732  2.1935
 1616SOL    HW216308   1.614   1.500   5.440  0.4791  0.5363  0.5523
 1617SOL     OW16309   3.043   4.158  15.765 -0.7693 -0.1355  0.0090
 1617SOL    HW116310   2.986   4.188  15.694 -0.7615 -1.5888 -0.6115
 1617SOL    HW216311   3.129   4.195  15.746 -1.4200  1.5195  0.2513
 1618SOL     OW16312   2.470   3.540   3.773 -0.2630  0.4856  0.5085
 1618SOL    HW116313   2.457   3.472   3.839  1.0012  0.8290  1.1247
 1618SOL    HW216314   2.514   3.497   3.700  0.3043  0.9848  0.5498
 1619SOL     OW16315   3.457   3.307   4.860  0.0476  0.2203 -0.2576
 1619SOL    HW116316   3.446   3.222   4.817 -3.7749  0.9285 -0.6693
 1619SOL    HW216317   3.474   3.366   4.787 -1.0973 -0.9231 -1.4503
 1620SOL     OW16318   3.972   3.017   4.111 -0.1847 -0.3154  0.4484
 1620SOL    HW116319   3.887   3.000   4.152 -0.9305  1.0621 -0.5311
 1620SOL    HW216320   4.036   2.961   4.156  0.8595  0.8483  0.4172
 1621SOL     OW16321   0.673   3.595   6.939  0.3799 -0.1159 -0.0931
 1621SOL    HW116322   0.732   3.669   6.932  1.3962 -0.9631 -0.4499
 1621SOL    HW216323   0.594   3.647   6.922 -1.8165 -3.2023  0.5788
 1622SOL     OW16324   2.179   2.649   8.101  0.3542 -0.2330 -0.8485
 1622SOL    HW116325   2.116   2.594   8.055 -0.7514  1.0261 -0.8299
 1622SOL    HW216326   2.131   2.658   8.183  0.9897  0.0340 -0.5029
 1623SOL     OW16327   2.002   3.518   8.892 -0.0533 -0.9151  0.0175
 1623SOL    HW116328   1.911   3.517   8.864 -0.1559 -1.1026  0.3559
 1623SOL    HW216329   2.044   3.506   8.807  1.7635  1.6356  0.5225
 1624SOL     OW16330   3.006   2.661   6.685  0.5200  0.0382 -0.0679
 1624SOL    HW116331   2.991   2.673   6.591  0.8988  1.3377  0.0362
 1624SOL    HW216332   3.027   2.568   6.686  0.7377  0.0732 -1.1102
 1625SOL     OW16333   0.039   1.132   7.852 -0.4539 -0.2021 -0.5132
 1625SOL    HW116334   0.036   1.201   7.918  0.8785 -0.4189 -0.2173
 1625SOL    HW216335   4.673   1.104   7.882 -0.8811  1.3144 -0.3627
 1626SOL     OW16336   2.995   1.552  16.999 -0.5599  0.7774 -0.1468
 1626SOL    HW116337   3.074   1.501  17.019 -0.9511 -0.0302 -0.6782
 1626SOL    HW216338   3.034   1.636  16.976 -3.1435  2.2222  0.8032
 1627SOL     OW16339   0.645   4.417  15.924 -0.3790  0.6287  0.4872
 1627SOL    HW116340   0.571   4.464  15.964  1.3202  1.4250  2.6856
 1627SOL    HW216341   0.667   4.345  15.983  0.1578  0.2042 -0.2358
 1628SOL     OW16342   0.399   1.942   2.108 -0.0221  0.2763  0.4401
 1628SOL    HW116343   0.417   1.890   2.029  2.1178  0.3286  0.9072
 1628SOL    HW216344   0.395   2.030   2.070 -0.4696  0.1972  0.3050
 1629SOL     OW16345   1.950   0.118   0.959 -0.3204 -0.4428  0.3309
 1629SOL    HW116346   1.886   0.154   1.021 -0.9141  2.9908 -2.2733
 1629SOL    HW216347   2.005   0.065   1.016 -0.1562  1.2006  1.6808
 1630SOL     OW16348   3.646   2.122  14.937  0.4691 -0.1937  0.1183
 1630SOL    HW116349   3.594   2.044  14.956 -1.0490  0.9799  0.7175
 1630SOL    HW216350   3.702   2.124  15.015 -2.1948 -1.6193  2.0714
 1631SOL     OW16351   3.095   4.493   6.941 -0.2669 -0.3004 -0.4612
 1631SOL    HW116352   3.158   4.537   6.885 -0.3869  0.0838 -0.2943
 1631SOL    HW216353   3.148   4.470   7.017  0.4580 -0.0950 -0.9108
 1632SOL     OW16354   3.963   4.237   7.708 -0.4019 -0.2580 -0.2074
 1632SOL    HW116355   3.931   4.195   7.788  1.5704  1.4703  1.4815
 1632SOL    HW216356   4.041   4.283   7.738  0.0498 -0.3878 -1.1852
 1633SOL     OW16357   0.649   2.541   8.850  0.2714 -0.6838  0.2363
 1633SOL    HW116358   0.588   2.482   8.806  2.2889 -1.5260 -1.3975
 1633SOL    HW216359   0.592   2.592   8.907 -0.9561  0.5729 -2.1079
 1634SOL     OW16360   3.658   4.370   4.827  0.0636  0.4689 -0.2071
 1634SOL    HW116361   3.720   4.304   4.857  0.3824  1.0552  0.4189
 1634SOL    HW216362   3.576   4.324   4.846  0.9185 -0.3729  1.5045
 1635SOL     OW16363   3.458   1.868   6.263 -0.0498 -0.3624 -0.3984
 1635SOL    HW116364   3.481   1.775   6.266  0.0864 -0.2790  1.1384
 1635SOL    HW216365   3.367   1.867   6.236  0.0595 -2.8080 -0.6906
 1636SOL     OW16366   0.793   4.603   6.355 -0.2823 -0.0988 -0.1987
 1636SOL    HW116367   0.871   4.548   6.343  1.0276  1.9623 -1.2668
 1636SOL    HW216368   0.778   4.630   6.264 -2.0918  1.4934  0.5815
 1637SOL     OW16369   1.872   1.015   1.304 -0.3523  0.0839  0.3522
 1637SOL    HW116370   1.851   1.078   1.373 -2.6932 -0.2010 -0.0770
 1637SOL    HW216371   1.832   1.067   1.234 -0.0226 -0.3794 -0.1746
 1638SOL     OW16372   1.163   4.673  16.234 -0.5321 -0.1084  0.4831
 1638SOL    HW116373   1.205   4.716  16.160 -1.9029  0.0806 -0.1760
 1638SOL    HW216374   1.195   0.017  16.297 -0.1230  0.7820 -0.6402
 1639SOL     OW16375   1.767   2.486   9.478  0.0738 -0.5273 -0.1266
 1639SOL    HW116376   1.832   2.426   9.516 -0.3520 -0.0263  1.3919
 1639SOL    HW216377   1.702   2.424   9.444 -1.7241  1.7983 -0.9029
 1640SOL     OW16378   3.951   4.179  11.751 -0.1564 -0.1804 -0.3906
 1640SOL    HW116379   3.917   4.127  11.678  2.0481 -0.4866 -1.2015
 1640SOL    HW216380   3.950   4.112  11.819  0.3961 -0.5747 -0.7824
 1641SOL     OW16381   0.053   0.147   6.546 -0.0580 -0.1496 -0.0957
 1641SOL    HW116382   4.711   0.150   6.473  1.5283  1.5993 -1.3726
 1641SOL    HW216383   0.042   0.057   6.577 -1.7495  0.2298  0.4215
 1642SOL     OW16384   3.606   0.580  11.250  0.1306  0.1835  0.7616
 1642SOL    HW116385   3.617   0.580  11.345  1.8463 -2.0147  0.5582
 1642SOL    HW216386   3.632   0.671  11.230  2.6630 -0.4370  1.1887
 1643SOL     OW16387   4.692   0.393   1.871 -0.2174 -0.1146  0.5512
 1643SOL    HW116388   0.011   0.385   1.958  1.6224 -0.0878 -0.2742
 1643SOL    HW216389   4.711   0.486   1.858 -0.6026 -0.5403 -3.0374
 1644SOL     OW16390   3.102   1.201   6.163  0.2567 -0.1097  1.1363
 1644SOL    HW116391   3.193   1.191   6.190  0.6233  0.6053  0.1821
 1644SOL    HW216392   3.099   1.145   6.085  1.4860  0.5602  0.6163
 1645SOL     OW16393   0.631   0.456   6.383  0.9334 -0.0876 -0.0470
 1645SOL    HW116394   0.544   0.497   6.388  1.3793  0.5801  2.3665
 1645SOL    HW216395   0.659   0.497   6.301  0.8700  1.7388  0.8264
 1646SOL     OW16396   0.892   2.093   2.867 -0.1726  0.0208 -0.0686
 1646SOL    HW116397   0.866   2.115   2.957 -0.7996  0.7630 -0.4308
 1646SOL    HW216398   0.846   2.012   2.845 -1.1582  0.9551 -1.4014
 1647SOL     OW16399   3.854   2.590  13.155  0.3274  0.4428  0.2917
 1647SOL    HW116400   3.761   2.595  13.133  0.4225 -0.0727 -0.2223
 1647SOL    HW216401   3.883   2.530  13.087 -1.7914  1.5464 -1.5653
 1648SOL     OW16402   0.903   1.739   7.465  0.1524 -0.0452  0.2140
 1648SOL    HW116403   0.822   1.788   7.457  0.6441  0.4534 -1.7175
 1648SOL    HW216404   0.874   1.656   7.426 -0.1202 -0.7821  1.9893
 1649SOL     OW16405   0.544   2.167   8.311 -0.2242 -0.0358 -0.5906
 1649SOL    HW116406   0.487   2.240   8.286  0.2510  0.3995 -0.3978
 1649SOL    HW216407   0.627   2.214   8.316 -1.3097  2.0463 -1.9784
 1650SOL     OW16408   1.048   3.554  10.683  0.0121 -0.4057 -0.6318
 1650SOL    HW116409   1.023   3.586  10.596 -0.2004 -1.2816 -0.8943
 1650SOL    HW216410   1.012   3.465  10.692 -1.7753  0.2695 -1.0975
 1651SOL     OW16411   1.194   4.216   2.758 -0.3250  0.2723 -0.0057
 1651SOL    HW116412   1.099   4.216   2.763 -0.3444 -2.1201 -0.5386
 1651SOL    HW216413   1.209   4.190   2.667 -0.3909  1.9480 -0.4931
 1652SOL     OW16414   2.224   3.711  17.305 -0.0891 -0.4989 -0.3267
 1652SOL    HW116415   2.149   3.677  17.256 -0.6575  4.0244 -2.5250
 1652SOL    HW216416   2.172   3.773  17.356  0.8796 -0.5576  0.7534
 1653SOL     OW16417   4.117   3.854   2.903  0.4269  0.0679 -0.6844
 1653SOL    HW116418   4.212   3.856   2.892  0.2855  1.3030 -1.7346
 1653SOL    HW216419   4.110   3.817   2.991  2.3434  2.1027  0.3333
 1654SOL     OW16420   2.937   0.497   3.877 -0.2573  0.2151  0.4252
 1654SOL    HW116421   2.939   0.588   3.847  1.9759  0.3288  0.8883
 1654SOL    HW216422   2.902   0.509   3.965 -2.0401  0.7316 -0.3546
 1655SOL     OW16423   3.457   0.865   7.538  0.1011  1.0037  0.1609
 1655SOL    HW116424   3.450   0.785   7.589 -1.2770  0.3609 -1.0305
 1655SOL    HW216425   3.448   0.837   7.447  0.9366 -0.4156  0.5186
 1656SOL     OW16426   4.171   3.672   1.185 -0.3786  0.1820 -0.3773
 1656SOL    HW116427   4.148   3.712   1.269 -0.2912 -0.8956  0.1615
 1656SOL    HW216428   4.141   3.743   1.128  0.7462  0.5776 -0.4909
 1657SOL     OW16429   1.872   1.148   6.771  0.0192  0.8380  0.1292
 1657SOL    HW116430   1.798   1.122   6.826 -0.0243  0.3144 -0.1784
 1657SOL    HW216431   1.894   1.238   6.797  1.9703 -0.4715  3.0827
 1658SOL     OW16432   3.793   2.277  14.768  0.0670  0.1612  0.1771
 1658SOL    HW116433   3.751   2.329  14.699  0.1420  0.7076  0.5504
 1658SOL    HW216434   3.727   2.247  14.831 -1.5021  1.5371 -0.7894
 1659SOL     OW16435   0.095   0.919  11.006  0.2028 -0.1831  0.1417
 1659SOL    HW116436   0.061   1.008  11.018  0.4011  0.1997 -2.1402
 1659SOL    HW216437   0.168   0.946  10.951 -0.9186  1.3219 -0.6054
 1660SOL     OW16438   3.586   0.321   8.817 -0.9735 -0.4307  0.1463
 1660SOL    HW116439   3.590   0.246   8.876  0.9952 -1.6821 -1.5735
 1660SOL    HW216440   3.680   0.339   8.812 -1.0403 -0.5896 -1.4953
 1661SOL     OW16441   2.662   4.285  13.577  0.2629 -0.5135 -0.3701
 1661SOL    HW116442   2.597   4.219  13.601  0.6938 -0.0689  2.0780
 1661SOL    HW216443   2.698   4.297  13.665  0.5849  3.3734 -1.0198
 1662SOL     OW16444   1.819   3.572  13.089  0.3132 -0.3743  0.3304
 1662SOL    HW116445   1.745   3.622  13.122  1.1358  0.0114  1.5790
 1662SOL    HW216446   1.820   3.605  12.999 -1.0855  1.7045  1.0942
 1663SOL     OW16447   0.742   0.995   8.461  0.1275 -0.5254 -0.0729
 1663SOL    HW116448   0.712   1.084   8.477 -2.5185 -1.0946 -1.8566
 1663SOL    HW216449   0.797   0.979   8.538  1.6923  0.2129 -1.0364
 1664SOL     OW16450   0.388   3.669   8.381  0.0848 -0.1548  0.3043
 1664SOL    HW116451   0.452   3.686   8.311 -0.8661  0.6671 -0.3848
 1664SOL    HW216452   0.367   3.754   8.421  0.1758  0.1528 -0.2913
 1665SOL     OW16453   3.449   2.468   3.093  0.0075  0.3281 -0.1578
 1665SOL    HW116454   3.422   2.378   3.110 -0.0873 -0.2452 -3.4081
 1665SOL    HW216455   3.449   2.500   3.184  0.7273 -1.6637  0.5403
 1666SOL     OW16456   2.714   0.527   9.226 -0.5303  0.1256  0.6124
 1666SOL    HW116457   2.716   0.455   9.288  1.1251  0.0639  0.4761
 1666SOL    HW216458   2.779   0.493   9.164 -0.9172  1.2226 -0.4126
 1667SOL     OW16459   2.903   0.679   2.937 -0.4042  0.3255  0.0518
 1667SOL    HW116460   2.907   0.769   2.904 -3.5295  0.5488  0.2948
 1667SOL    HW216461   2.856   0.690   3.020 -0.8765  0.8119 -0.2785
 1668SOL     OW16462   0.410   2.244   5.512 -0.1602  0.0638 -0.4695
 1668SOL    HW116463   0.495   2.287   5.502 -0.3160 -0.0679 -2.3126
 1668SOL    HW216464   0.355   2.299   5.567  1.9313  0.3798  1.3272
 1669SOL     OW16465   2.647   4.611   5.196 -0.2830 -0.3487  0.0234
 1669SOL    HW116466   2.699   4.531   5.183  0.9445  0.9145 -2.8663
 1669SOL    HW216467   2.720   4.658   5.235  1.0110 -0.7279 -1.9364
 1670SOL     OW16468   0.702   4.536   5.883 -0.3614  0.3304 -0.0040
 1670SOL    HW116469   0.760   4.583   5.943 -1.7471  0.5967  1.1191
 1670SOL    HW216470   0.757   4.463   5.853  1.9614  2.2503 -0.4064
 1671SOL     OW16471   1.091   3.179   5.948  0.4951 -0.3710 -0.1056
 1671SOL    HW116472   1.047   3.096   5.931 -1.1273  0.6396 -0.8028
 1671SOL    HW216473   1.051   3.194   6.034  0.0538  0.8042 -0.5217
 1672SOL     OW16474   0.230   2.147   2.615 -0.0347  0.2545 -0.0479
 1672SOL    HW116475   0.163   2.216   2.617  0.0096  0.2831  0.5411
 1672SOL    HW216476   0.267   2.175   2.531  0.7467 -0.7542 -0.0340
 1673SOL     OW16477   4.335   1.518   0.979  0.3791  0.2208  0.1038
 1673SOL    HW116478   4.267   1.479   0.924 -0.4833  1.3592  0.3857
 1673SOL    HW216479   4.294   1.577   1.042 -2.0752 -1.9221  0.5401
 1674SOL     OW16480   4.102   1.719   2.573  0.0096 -0.0216  0.1621
 1674SOL    HW116481   4.138   1.701   2.660 -0.5549 -1.2846  0.1205
 1674SOL    HW216482   4.161   1.673   2.514 -1.8134  0.5086 -2.0515
 1675SOL     OW16483   0.123   2.153   9.117 -1.0113 -0.3402 -0.6212
 1675SOL    HW116484   0.187   2.084   9.132 -1.8806 -1.2221 -0.9376
 1675SOL    HW216485   0.168   2.233   9.091 -2.0625  0.6195  0.5546
 1676SOL     OW16486   2.516   3.255   7.435 -0.4861 -0.4946 -0.2337
 1676SOL    HW116487   2.543   3.189   7.499 -0.3613  1.0930  1.3332
 1676SOL    HW216488   2.598   3.305   7.437 -1.5215  0.9526  5.2830
 1677SOL     OW16489   0.543   2.394   4.370  0.4889 -0.5907  0.1800
 1677SOL    HW116490   0.543   2.329   4.300  2.9103 -0.4289  0.0244
 1677SOL    HW216491   0.604   2.363   4.437 -0.4688  0.4145  1.5044
 1678SOL     OW16492   3.207   1.667   8.703  0.7827  0.5387 -0.3563
 1678SOL    HW116493   3.232   1.758   8.686 -1.0377  1.4674  1.9621
 1678SOL    HW216494   3.285   1.647   8.754  1.6289  1.5080 -1.2697
 1679SOL     OW16495   0.847   2.693   6.012  0.3280  0.3942  0.1835
 1679SOL    HW116496   0.848   2.625   5.945 -0.5924  1.1356 -0.5882
 1679SOL    HW216497   0.938   2.721   6.009  0.0964  1.2764  1.2739
 1680SOL     OW16498   2.519   4.042   8.101 -0.2332  0.2496  0.2755
 1680SOL    HW116499   2.448   3.985   8.130  0.0264  0.2193  0.8449
 1680SOL    HW216500   2.465   4.107   8.056 -1.8277 -0.6045  0.9603
 1681SOL     OW16501   0.650   4.215   5.242 -0.2756  0.5822  0.1315
 1681SOL    HW116502   0.609   4.130   5.257 -0.6816  0.1854 -3.0851
 1681SOL    HW216503   0.619   4.244   5.156  0.8406  0.4214 -0.3230
 1682SOL     OW16504   1.491   4.698   3.507  0.2874  0.2134 -0.0745
 1682SOL    HW116505   1.523   4.611   3.483 -0.1574  0.1527 -0.4350
 1682SOL    HW216506   1.444   0.002   3.427 -2.9560  0.1132  1.8324
 1683SOL     OW16507   3.339   3.342  10.465 -0.1869  0.1299 -0.2576
 1683SOL    HW116508   3.246   3.364  10.470 -0.8436 -2.5148 -1.0458
 1683SOL    HW216509   3.369   3.342  10.556 -1.6041  0.2028  0.2070
 1684SOL     OW16510   4.111   0.243   9.382  0.1843  0.4286  0.4991
 1684SOL    HW116511   4.180   0.178   9.390 -0.3251 -0.3527 -1.5185
 1684SOL    HW216512   4.033   0.187   9.387 -1.7448  3.3540  3.4840
 1685SOL     OW16513   4.370   1.285   5.440  0.3596 -0.4089 -0.2344
 1685SOL    HW116514   4.414   1.220   5.385  0.2553 -0.9938  0.3881
 1685SOL    HW216515   4.292   1.296   5.386  1.3495  0.5455 -1.4873
 1686SOL     OW16516   4.338   2.318   3.655  0.0462 -0.3688  0.1302
 1686SOL    HW116517   4.416   2.320   3.709 -0.1805 -1.5483  0.5050
 1686SOL    HW216518   4.371   2.350   3.571 -0.8654 -0.7932 -0.3885
 1687SOL     OW16519   3.972   4.648   2.147 -0.2489  0.5826  0.1277
 1687SOL    HW116520   3.956   4.671   2.238  0.8588 -1.4416  0.8359
 1687SOL    HW216521   3.937   4.559   2.144 -0.0448  0.5380 -0.9570
 1688SOL     OW16522   3.837   3.110   1.922 -0.3935  0.0988 -0.0908
 1688SOL    HW116523   3.749   3.137   1.896 -1.7952 -1.8759  2.6628
 1688SOL    HW216524   3.881   3.134   1.840 -1.3048  3.3062  0.3863
 1689SOL     OW16525   4.392   4.207   1.080  0.1498  0.5431  0.1383
 1689SOL    HW116526   4.450   4.172   1.148 -0.7845 -0.8570  0.2138
 1689SOL    HW216527   4.336   4.133   1.058  0.7819  0.4673 -1.1910
 1690SOL     OW16528   3.229   1.537   9.099 -0.3030 -0.4805  0.5583
 1690SOL    HW116529   3.270   1.451   9.110 -1.6000 -1.2232 -0.4912
 1690SOL    HW216530   3.200   1.562   9.187 -3.9696  1.7208 -1.2741
 1691SOL     OW16531   1.405   2.979   5.278  0.0412 -0.2845  0.4011
 1691SOL    HW116532   1.469   2.930   5.227  1.2106  0.4012  1.1894
 1691SOL    HW216533   1.417   3.066   5.239 -0.7182 -0.8279 -1.0022
 1692SOL     OW16534   1.048   1.126  12.854 -0.0788 -0.0354 -0.9346
 1692SOL    HW116535   1.013   1.162  12.936  2.0735 -1.5281  0.6688
 1692SOL    HW216536   1.144   1.126  12.856 -0.1023 -0.9560  0.5929
 1693SOL     OW16537   3.510   1.596   1.234  0.2590  0.1385  0.6357
 1693SOL    HW116538   3.589   1.546   1.218 -0.4436 -0.7882  0.0326
 1693SOL    HW216539   3.539   1.685   1.213  1.0825 -0.9074 -2.6095
 1694SOL     OW16540   3.173   2.172   5.087  0.6615 -0.0664 -0.2791
 1694SOL    HW116541   3.103   2.210   5.139 -0.4926  0.5466 -2.2851
 1694SOL    HW216542   3.178   2.235   5.016  0.5954  0.5710  0.2835
 1695SOL     OW16543   3.025   2.819   8.173 -0.2850 -0.2073  0.1038
 1695SOL    HW116544   3.005   2.900   8.219 -0.6955 -1.0131  1.3376
 1695SOL    HW216545   2.939   2.798   8.136 -0.2628 -1.4293  0.7261
 1696SOL     OW16546   3.667   3.286   2.945 -0.5185 -0.7577  0.2435
 1696SOL    HW116547   3.726   3.355   2.976 -1.9810  0.1306  1.0526
 1696SOL    HW216548   3.642   3.323   2.861 -0.1988  1.2239  1.0058
 1697SOL     OW16549   1.129   3.932   2.617 -0.4869 -0.4322 -0.1602
 1697SOL    HW116550   1.214   3.924   2.574  0.5244 -0.5583  1.8652
 1697SOL    HW216551   1.078   3.941   2.537 -1.1187 -1.6743  0.1021
 1698SOL     OW16552   3.265   4.411   8.957 -0.2974  0.3462  0.1921
 1698SOL    HW116553   3.281   4.321   8.927 -0.6037 -0.2116  1.7191
 1698SOL    HW216554   3.211   4.392   9.034 -0.3112 -2.0383 -0.4170
 1699SOL     OW16555   2.852   4.529   5.828 -0.0273 -0.1383  0.2124
 1699SOL    HW116556   2.849   4.615   5.870  0.5574 -0.9557  1.9376
 1699SOL    HW216557   2.868   4.473   5.904 -0.1408 -0.7167 -0.1878
 1700SOL     OW16558   3.080   4.281   7.673  0.0112 -0.0615 -0.4798
 1700SOL    HW116559   3.124   4.322   7.748 -0.5526  1.2268 -0.8460
 1700SOL    HW216560   3.126   4.198   7.680 -1.4559 -1.0129 -2.1570
 1701SOL     OW16561   3.822   3.439  16.552  0.0443 -0.3917  0.8185
 1701SOL    HW116562   3.860   3.413  16.468  0.9412  1.5382  0.6324
 1701SOL    HW216563   3.841   3.363  16.607 -1.3049 -0.6622  0.9272
 1702SOL     OW16564   2.645   3.361   5.402  0.5665 -0.4367 -0.4842
 1702SOL    HW116565   2.562   3.316   5.417  0.2076  1.0384  1.9081
 1702SOL    HW216566   2.711   3.315   5.455 -1.1715 -1.2517  0.9882
 1703SOL     OW16567   4.027   0.295  15.095  0.2497 -0.3270  0.3744
 1703SOL    HW116568   4.042   0.383  15.132 -1.1001  0.3933 -0.7892
 1703SOL    HW216569   4.025   0.246  15.177 -2.1179 -1.0441 -0.1406
 1704SOL     OW16570   4.383   3.730  13.681  0.0763  0.0786  0.3760
 1704SOL    HW116571   4.301   3.694  13.651  0.6045  0.1333 -1.1265
 1704SOL    HW216572   4.431   3.704  13.602  0.4151  0.6466  0.3871
 1705SOL     OW16573   1.140   2.313  16.409 -0.0736  0.2903  0.7332
 1705SOL    HW116574   1.123   2.349  16.321  1.6444  0.6093  0.5423
 1705SOL    HW216575   1.165   2.225  16.382  0.6800  0.4908  0.7784
 1706SOL     OW16576   2.942   3.333   4.469  0.1491  0.7066  0.1841
 1706SOL    HW116577   3.023   3.336   4.521 -0.3577  0.7051  0.9837
 1706SOL    HW216578   2.885   3.392   4.518 -0.8237  0.1201 -0.2433
 1707SOL     OW16579   1.588   1.679   1.342 -0.3502  0.1186 -0.2889
 1707SOL    HW116580   1.669   1.636   1.369 -1.5344 -1.6151  0.4914
 1707SOL    HW216581   1.578   1.637   1.256  2.2406  0.4321 -0.7519
 1708SOL     OW16582   4.490   3.309   5.080  0.3773  0.8606  0.1276
 1708SOL    HW116583   4.448   3.353   5.005  1.5453 -0.3649 -1.2421
 1708SOL    HW216584   4.409   3.295   5.130  1.0853 -3.0174  0.2008
 1709SOL     OW16585   3.006   2.815   3.360  0.1402  0.0131  0.7000
 1709SOL    HW116586   3.035   2.757   3.289 -0.6837  0.8570 -0.3307
 1709SOL    HW216587   2.946   2.870   3.309  0.2201  0.5802  1.2145
 1710SOL     OW16588   3.921   1.949  10.537  0.3248 -0.6396  0.1265
 1710SOL    HW116589   3.877   1.971  10.455  1.0405  0.4378  0.0325
 1710SOL    HW216590   3.949   2.036  10.565 -0.3784  0.2799 -2.0592
 1711SOL     OW16591   4.655   3.337   6.998 -0.1484 -0.2076 -0.4549
 1711SOL    HW116592   0.005   3.376   6.947  0.7682 -1.4542 -0.1383
 1711SOL    HW216593   4.647   3.400   7.069 -0.2316 -0.0911 -0.5679
 1712SOL     OW16594   3.658   2.628  15.705  0.3439  0.3702  0.2824
 1712SOL    HW116595   3.703   2.712  15.713 -0.4729  0.8443 -0.0321
 1712SOL    HW216596   3.628   2.613  15.795 -2.8392  0.9450 -0.6898
 1713SOL     OW16597   0.269   4.591   4.232  0.0572  0.0221  1.0081
 1713SOL    HW116598   0.231   4.679   4.238 -1.8022 -0.7152  0.1695
 1713SOL    HW216599   0.193   4.534   4.226 -0.4153  0.8810 -1.4890
 1714SOL     OW16600   4.197   0.675   5.545 -0.3213  0.7410  0.1777
 1714SOL    HW116601   4.226   0.584   5.539 -1.3126  0.5761 -2.1260
 1714SOL    HW216602   4.106   0.667   5.516  0.3585 -1.0737 -1.4642
 1715SOL     OW16603   1.439   2.714   9.422  0.5488 -0.3225  1.0406
 1715SOL    HW116604   1.397   2.725   9.507  0.3305 -0.0224  0.8966
 1715SOL    HW216605   1.403   2.629   9.396 -0.9147  0.2769  1.0988
 1716SOL     OW16606   3.866   1.810   4.098 -0.1726  0.6161  0.5923
 1716SOL    HW116607   3.804   1.765   4.041  0.6185  2.5684 -1.7915
 1716SOL    HW216608   3.818   1.792   4.179  1.9478 -0.7700  1.5538
 1717SOL     OW16609   1.229   1.630   5.170 -0.1133  0.0690 -0.5303
 1717SOL    HW116610   1.278   1.634   5.252  0.7449 -0.6282 -1.0131
 1717SOL    HW216611   1.190   1.543   5.163  1.3016 -0.4437 -2.0637
 1718SOL     OW16612   0.886   1.661   3.325  0.1332 -0.5516  0.2893
 1718SOL    HW116613   0.844   1.723   3.385 -1.5828 -1.3436 -0.0933
 1718SOL    HW216614   0.969   1.636   3.366  0.4992  1.8288  0.9853
 1719SOL     OW16615   2.589   2.941   9.243  0.1878  0.1252 -0.1668
 1719SOL    HW116616   2.637   3.021   9.222 -0.1474  0.0444 -1.2583
 1719SOL    HW216617   2.662   2.886   9.271  0.9040  1.4356  0.5322
 1720SOL     OW16618   0.088   3.469   1.777  0.1081 -0.2132  0.0219
 1720SOL    HW116619   0.003   3.512   1.779 -0.7383 -1.7347 -2.4890
 1720SOL    HW216620   0.125   3.490   1.691  0.0329 -1.8213 -0.4134
 1721SOL     OW16621   2.917   2.239   3.867 -0.2870  0.2088  0.5381
 1721SOL    HW116622   2.985   2.194   3.818 -1.4153 -0.4587 -0.4213
 1721SOL    HW216623   2.903   2.314   3.810 -1.1322  0.5045  1.1256
 1722SOL     OW16624   2.090   3.894  14.245  0.0135  0.0159  0.1497
 1722SOL    HW116625   2.108   3.953  14.318  1.5306  1.2695 -1.2249
 1722SOL    HW216626   2.086   3.954  14.170 -1.7635  0.9361  0.9972
 1723SOL     OW16627   4.137   4.621  13.528  0.2876  0.1071  0.0263
 1723SOL    HW116628   4.146   4.683  13.601 -3.5242  0.1612  0.4696
 1723SOL    HW216629   4.227   4.632  13.499  0.2255 -0.8758 -0.5346
 1724SOL     OW16630   4.041   0.428   8.509  0.1026 -0.3994  0.3524
 1724SOL    HW116631   4.098   0.462   8.578  0.1126 -0.6994  0.4923
 1724SOL    HW216632   4.102   0.395   8.443 -1.7383  1.8000 -2.4569
 1725SOL     OW16633   1.050   2.441   5.535  0.2071 -0.3670  0.0225
 1725SOL    HW116634   1.101   2.430   5.455  0.2835  0.0571  0.0130
 1725SOL    HW216635   0.960   2.427   5.504 -0.0662  2.6959 -0.5532
 1726SOL     OW16636   1.581   4.372  12.486  0.0489  0.1044 -0.2011
 1726SOL    HW116637   1.584   4.452  12.433 -1.6384  0.8671  0.8367
 1726SOL    HW216638   1.499   4.329  12.462  0.0637 -1.8750  3.2416
 1727SOL     OW16639   3.905   0.436   9.714  0.3654 -0.1995  0.3891
 1727SOL    HW116640   3.809   0.433   9.708  0.1761  2.9105  1.8420
 1727SOL    HW216641   3.926   0.514   9.766  4.0069 -2.2242  1.9424
 1728SOL     OW16642   0.702   0.951  10.537 -0.1796  0.4306  0.0237
 1728SOL    HW116643   0.775   0.974  10.480  0.1612 -0.3045  0.1654
 1728SOL    HW216644   0.706   1.036  10.581  2.4734  0.8108 -0.9190
 1729SOL     OW16645   0.280   4.649   3.760  0.3379 -0.6423 -0.5900
 1729SOL    HW116646   0.214   4.710   3.727  0.3318  0.6228  1.7429
 1729SOL    HW216647   0.225   4.582   3.800 -0.5822  0.3721 -0.1598
 1730SOL     OW16648   2.265   0.499   8.261 -0.5818  0.4289 -0.2129
 1730SOL    HW116649   2.332   0.557   8.223  1.7241 -1.2828  1.2739
 1730SOL    HW216650   2.212   0.560   8.312 -0.8241 -1.7987  2.1663
 1731SOL     OW16651   4.514   2.680  12.525  0.5620 -0.2019 -0.0337
 1731SOL    HW116652   4.590   2.673  12.583 -0.4791  0.9130  1.4616
 1731SOL    HW216653   4.543   2.630  12.449 -0.0398  0.6571 -0.8224
 1732SOL     OW16654   1.912   2.044   3.900 -0.1309 -0.0686 -0.6138
 1732SOL    HW116655   1.946   2.126   3.937 -0.4047 -1.2411  2.2654
 1732SOL    HW216656   1.890   1.994   3.979  0.7787  0.0645 -0.2777
 1733SOL     OW16657   0.186   2.171   4.094  0.2310 -0.3428  0.0747
 1733SOL    HW116658   0.145   2.104   4.039  0.6490 -0.0373 -0.5992
 1733SOL    HW216659   0.272   2.188   4.057  0.1091 -1.2560 -0.6553
 1734SOL     OW16660   1.297   3.849   6.537 -0.1815 -0.0421  0.7159
 1734SOL    HW116661   1.237   3.775   6.546  0.5689 -0.6690  0.5442
 1734SOL    HW216662   1.300   3.856   6.442 -2.5268  0.9683  0.7273
 1735SOL     OW16663   1.562   2.746   6.431 -0.2972 -0.2645 -0.2487
 1735SOL    HW116664   1.514   2.759   6.349 -2.5479  0.5201  1.2003
 1735SOL    HW216665   1.646   2.784   6.404  0.3235 -0.1592  1.8576
 1736SOL     OW16666   2.617   1.279  11.810  0.2927  0.0872  0.3677
 1736SOL    HW116667   2.608   1.373  11.795  1.7577  0.9261  4.6907
 1736SOL    HW216668   2.678   1.250  11.741 -1.7338 -0.5503 -1.1577
 1737SOL     OW16669   3.721   3.351   6.003  0.4114 -0.1230 -0.1390
 1737SOL    HW116670   3.788   3.347   5.934  0.8618  0.8235  0.2321
 1737SOL    HW216671   3.784   3.337   6.073  1.4361 -0.0341 -1.0437
 1738SOL     OW16672   1.613   3.170   3.604 -0.1426 -0.1363  0.6229
 1738SOL    HW116673   1.538   3.135   3.652 -0.7186  0.9488  0.5293
 1738SOL    HW216674   1.684   3.111   3.630  0.5142  0.8795  1.1422
 1739SOL     OW16675   0.420   4.221  14.362  0.2279  0.0996 -0.8782
 1739SOL    HW116676   0.361   4.148  14.344 -0.2544 -0.1508  1.7788
 1739SOL    HW216677   0.394   4.244  14.450 -0.9773 -2.0832 -0.6616
 1740SOL     OW16678   0.787   0.970   4.093 -0.5055 -0.2133  0.0381
 1740SOL    HW116679   0.828   0.924   4.166 -0.1330  0.1850  0.0817
 1740SOL    HW216680   0.863   1.020   4.063 -0.6317  0.6429  1.1358
 1741SOL     OW16681   3.798   1.243   8.526 -0.0568  0.0740 -0.2301
 1741SOL    HW116682   3.739   1.241   8.602 -0.3907 -0.5270 -0.5098
 1741SOL    HW216683   3.870   1.252   8.588 -2.5704 -0.4199  2.7523
 1742SOL     OW16684   4.436   0.807   3.946 -1.0712 -0.2357  0.2234
 1742SOL    HW116685   4.392   0.842   3.868 -0.8535  2.7889  1.4838
 1742SOL    HW216686   4.374   0.740   3.975 -0.7616 -1.0983 -1.0783
 1743SOL     OW16687   0.354   0.417  12.996  0.3443  0.0238  0.4139
 1743SOL    HW116688   0.419   0.351  12.970 -0.7750 -1.3338  1.0408
 1743SOL    HW216689   0.381   0.487  12.937 -1.4110  0.0094 -0.4094
 1744SOL     OW16690   0.635   1.425   7.582  0.2361  0.2865  0.3005
 1744SOL    HW116691   0.718   1.379   7.572  1.0655  1.8961 -0.0317
 1744SOL    HW216692   0.628   1.420   7.678  0.6983  1.2812  0.3877
 1745SOL     OW16693   1.780   4.615   1.589  0.3328  0.8242 -0.7591
 1745SOL    HW116694   1.793   4.683   1.523  1.1134  1.4593  0.0594
 1745SOL    HW216695   1.792   4.654   1.675  0.4479  0.0870 -0.4425
 1746SOL     OW16696   4.688   3.046   2.851  0.1531 -0.1634  0.4403
 1746SOL    HW116697   4.720   3.117   2.906 -0.1493  0.9408 -0.8238
 1746SOL    HW216698   0.051   3.006   2.823 -0.8889 -0.9589 -1.5371
 1747SOL     OW16699   3.949   2.053  10.268 -0.2433  0.0436  0.5804
 1747SOL    HW116700   3.871   2.069  10.215  0.4198  0.7011 -0.2079
 1747SOL    HW216701   3.976   1.969  10.230  0.0696  0.2994  0.2325
 1748SOL     OW16702   0.437   0.566  11.186  0.2163 -0.1255 -0.6017
 1748SOL    HW116703   0.373   0.569  11.115 -2.0133  0.4299  1.4630
 1748SOL    HW216704   0.401   0.518  11.260 -0.9408  3.1184  0.9555
 1749SOL     OW16705   0.910   3.922   7.830  0.5477  0.3355 -0.2182
 1749SOL    HW116706   0.931   4.005   7.786 -0.5570 -0.4067 -2.1121
 1749SOL    HW216707   0.987   3.901   7.882 -1.5072 -3.0920  1.4104
 1750SOL     OW16708   0.136   0.760   6.135 -0.5568  0.3378 -0.0406
 1750SOL    HW116709   0.137   0.851   6.105  0.7693  0.5681  0.7137
 1750SOL    HW216710   0.083   0.779   6.212  0.8420 -1.2670  1.3258
 1751SOL     OW16711   3.467   3.122   2.310 -0.4748  0.2001  0.0389
 1751SOL    HW116712   3.424   3.097   2.391  1.4169 -1.6141  0.4884
 1751SOL    HW216713   3.539   3.059   2.315 -1.0348 -0.3743  0.8262
 1752SOL     OW16714   0.549   4.484  14.304  0.0119  0.4026 -0.4007
 1752SOL    HW116715   0.480   4.462  14.241  1.4000 -1.7422 -1.1633
 1752SOL    HW216716   0.559   4.393  14.331 -3.2491  0.2098  0.1867
 1753SOL     OW16717   3.447   4.572   5.334  0.0230  0.3552  0.6631
 1753SOL    HW116718   3.365   4.608   5.300 -0.0312  0.3211  0.7583
 1753SOL    HW216719   3.432   4.480   5.309  0.0090  1.7946 -4.7818
 1754SOL     OW16720   1.786   1.595   3.702 -0.0438 -0.5556  0.0868
 1754SOL    HW116721   1.801   1.688   3.685 -1.9382  0.2643  2.7208
 1754SOL    HW216722   1.781   1.590   3.798  3.7671  1.9176  0.3896
 1755SOL     OW16723   0.303   0.272  17.017 -0.1281  0.0616  0.8212
 1755SOL    HW116724   0.230   0.297  16.960  1.9746  0.2507 -1.7992
 1755SOL    HW216725   0.321   0.358  17.055 -3.6607  1.5894 -0.9409
 1756SOL     OW16726   0.638   0.819   6.330  0.5029  0.9816  0.5868
 1756SOL    HW116727   0.568   0.826   6.396  0.1296  3.4957 -0.0592
 1756SOL    HW216728   0.629   0.732   6.292  0.1705  1.9236 -1.4674
 1757SOL     OW16729   4.363   4.536   2.025 -0.7828  0.3157 -0.5185
 1757SOL    HW116730   4.336   4.448   1.998  0.2456 -0.4002  0.8131
 1757SOL    HW216731   4.380   4.580   1.941  1.2679  3.8744  1.7871
 1758SOL     OW16732   3.511   1.447   4.979 -0.2714 -0.7029 -0.1421
 1758SOL    HW116733   3.581   1.434   5.043 -0.5533 -0.1248  0.2808
 1758SOL    HW216734   3.468   1.530   4.999 -0.4520 -0.7738 -0.2363
 1759SOL     OW16735   0.478   2.660   0.278 -0.5151  0.2578 -0.5857
 1759SOL    HW116736   0.483   2.647   0.373 -0.2643  0.2027 -0.6060
 1759SOL    HW216737   0.404   2.720   0.272 -0.3991  0.5949  1.2258
 1760SOL     OW16738   3.199   3.205   5.387  0.2492 -0.5916 -0.5191
 1760SOL    HW116739   3.264   3.270   5.360 -1.7757  2.3872  1.6896
 1760SOL    HW216740   3.162   3.242   5.467 -0.6921  0.7543 -1.5624
 1761SOL     OW16741   3.922   3.690   4.158  0.2327 -0.2422 -0.5767
 1761SOL    HW116742   3.872   3.662   4.235  0.6333 -2.2239 -1.0372
 1761SOL    HW216743   3.861   3.740   4.104  0.9812  1.3305  0.0451
 1762SOL     OW16744   2.462   2.309   9.240 -0.3659  0.4191  0.5829
 1762SOL    HW116745   2.368   2.326   9.250 -0.3318 -0.0717  1.7225
 1762SOL    HW216746   2.460   2.235   9.179 -0.1550  1.2495 -0.4423
 1763SOL     OW16747   2.546   0.564   8.071 -0.4840 -0.6227 -0.1463
 1763SOL    HW116748   2.465   0.560   8.020 -1.1376 -0.6413  0.8954
 1763SOL    HW216749   2.599   0.632   8.029 -0.3919  0.9860  2.5181
 1764SOL     OW16750   2.346   2.442   2.345 -0.6921  0.4100 -0.0667
 1764SOL    HW116751   2.416   2.453   2.280 -0.6661 -3.2409 -0.6598
 1764SOL    HW216752   2.276   2.403   2.292 -0.8294  0.9472 -0.2740
 1765SOL     OW16753   0.958   1.655  12.592  0.2873  0.6707 -0.1297
 1765SOL    HW116754   0.995   1.596  12.657 -2.2281 -0.1950  0.5230
 1765SOL    HW216755   1.024   1.649  12.523 -0.5265 -1.6350 -0.7103
 1766SOL     OW16756   1.387   4.411  15.944  0.5763 -0.2556  0.1264
 1766SOL    HW116757   1.427   4.340  15.895  2.6242 -0.3724  1.9762
 1766SOL    HW216758   1.470   4.454  15.966  0.4963  0.6840 -1.3932
 1767SOL     OW16759   3.924   1.707   1.153  0.3987 -0.1421 -0.1702
 1767SOL    HW116760   3.891   1.752   1.231 -0.2771  0.5572 -0.8590
 1767SOL    HW216761   3.858   1.638   1.147 -0.3297  0.5917 -0.7019
 1768SOL     OW16762   0.062   0.632   2.264 -0.0850 -0.3146  0.0978
 1768SOL    HW116763   0.111   0.669   2.338 -1.5825  3.9183 -1.0358
 1768SOL    HW216764   0.029   0.699   2.205 -1.2781 -2.0492 -1.2240
 1769SOL     OW16765   2.661   0.786   8.558  0.0575 -0.0145 -0.7279
 1769SOL    HW116766   2.743   0.756   8.598 -1.2910 -1.1362  1.2399
 1769SOL    HW216767   2.669   0.881   8.566 -1.2493 -0.0703  1.4594
 1770SOL     OW16768   2.148   1.684   1.268  0.4461 -0.4900 -0.3322
 1770SOL    HW116769   2.145   1.685   1.363  3.3327 -2.0438 -0.2436
 1770SOL    HW216770   2.207   1.612   1.247 -1.0648 -1.3561 -1.6669
 1771SOL     OW16771   1.969   3.917  11.403 -0.0236  0.5026  0.4296
 1771SOL    HW116772   2.037   3.859  11.369 -1.1281  0.7656 -2.2271
 1771SOL    HW216773   1.936   3.939  11.315 -1.2966  0.3584  0.8765
 1772SOL     OW16774   4.679   0.244   7.806  0.1553 -0.6709 -0.3567
 1772SOL    HW116775   4.644   0.158   7.784 -4.3776  0.4292  2.6024
 1772SOL    HW216776   4.604   0.298   7.781  1.5071  0.3792 -2.1989
 1773SOL     OW16777   1.854   2.841   7.658 -0.1095 -0.3250  0.4329
 1773SOL    HW116778   1.949   2.831   7.652  0.2603  2.3289  1.7334
 1773SOL    HW216779   1.829   2.753   7.631  0.4699  0.1963 -1.8146
 1774SOL     OW16780   3.058   3.177   8.970  0.1385 -0.0556  0.3620
 1774SOL    HW116781   3.078   3.219   9.053  0.6290 -1.6967  1.0555
 1774SOL    HW216782   2.962   3.181   8.971  0.1345  0.0958 -0.3450
 1775SOL     OW16783   1.660   3.440   4.426  0.0404 -0.2070 -0.7270
 1775SOL    HW116784   1.621   3.515   4.471  1.7034 -0.3683  0.9632
 1775SOL    HW216785   1.584   3.384   4.441 -0.3494  0.9194  1.4999
 1776SOL     OW16786   3.266   0.298   4.694  0.0687  0.0282 -0.2924
 1776SOL    HW116787   3.346   0.330   4.735  0.2569 -0.7544 -0.0544
 1776SOL    HW216788   3.242   0.229   4.754 -1.7564  0.5506 -0.4363
 1777SOL     OW16789   2.377   0.052   6.470  0.2388  0.2627  0.1705
 1777SOL    HW116790   2.285   0.047   6.442  0.3519  2.0636 -0.5485
 1777SOL    HW216791   2.423   0.062   6.387  1.1174  0.0327  0.6374
 1778SOL     OW16792   3.378   2.503   5.316 -0.2615 -0.1443 -0.4922
 1778SOL    HW116793   3.352   2.548   5.235 -0.9173  2.4565  1.1621
 1778SOL    HW216794   3.307   2.447   5.348  2.0883 -1.5440  2.2981
 1779SOL     OW16795   4.392   0.933   7.552  0.0426  0.3061  0.6922
 1779SOL    HW116796   4.384   1.010   7.496  2.4820 -0.4703 -0.7193
 1779SOL    HW216797   4.485   0.936   7.576  0.1448 -0.9890  0.5018
 1780SOL     OW16798   2.518   3.034   1.420  0.9536  0.5975 -0.0406
 1780SOL    HW116799   2.506   3.126   1.398  0.5609  0.1813 -1.5702
 1780SOL    HW216800   2.606   3.015   1.389  1.2011  0.7604  0.5737
 1781SOL     OW16801   0.993   0.756   0.047  0.7163 -0.4118  0.0207
 1781SOL    HW116802   1.068   0.736   0.103 -0.7065 -0.8323  1.7960
 1781SOL    HW216803   0.992   0.852   0.045  1.1897 -0.4334 -0.8882
 1782SOL     OW16804   2.940   1.710   7.697 -0.1150  0.6508 -0.6757
 1782SOL    HW116805   3.023   1.670   7.671 -0.8046 -2.0485  1.2934
 1782SOL    HW216806   2.972   1.762   7.771  1.1361 -0.1472 -0.6623
 1783SOL     OW16807   1.423   0.337  14.082 -0.0821  0.7907 -0.5725
 1783SOL    HW116808   1.472   0.255  14.079  1.0958  1.4497  0.9676
 1783SOL    HW216809   1.477   0.399  14.033  0.8704 -0.7959 -1.5485
 1784SOL     OW16810   2.647   3.473   7.122  0.2326  0.2774  0.2882
 1784SOL    HW116811   2.714   3.411   7.092  0.5334  0.3540  0.7977
 1784SOL    HW216812   2.700   3.533   7.175 -0.0241  0.3554  0.4516
 1785SOL     OW16813   2.059   3.733  13.924 -0.2332  0.4877 -0.4652
 1785SOL    HW116814   2.100   3.787  13.856 -2.3932  1.2687 -1.1190
 1785SOL    HW216815   1.966   3.749  13.908 -0.4772 -1.2883 -0.7925
 1786SOL     OW16816   0.272   2.056   3.547  0.3307  0.1623  0.4364
 1786SOL    HW116817   0.297   1.964   3.559 -0.4520 -0.2511 -1.0905
 1786SOL    HW216818   0.249   2.051   3.454 -0.8825 -0.9717  0.8071
 1787SOL     OW16819   2.105   2.645   6.306 -0.1573 -0.0005 -0.2094
 1787SOL    HW116820   2.069   2.629   6.393  0.7963  0.9035  0.3345
 1787SOL    HW216821   2.102   2.558   6.265 -2.1898 -0.2059  0.3346
 1788SOL     OW16822   3.966   4.502  11.453 -0.5964  0.2615  0.0715
 1788SOL    HW116823   3.920   4.563  11.511  0.2233  1.3014 -0.3976
 1788SOL    HW216824   4.038   4.462  11.502 -0.3812  0.1420 -0.3419
 1789SOL     OW16825   0.934   3.251   7.413  0.4424  0.3181  0.7752
 1789SOL    HW116826   0.851   3.270   7.369  0.9432  1.1382  0.1705
 1789SOL    HW216827   0.961   3.343   7.418 -1.8557  0.8856  2.7840
 1790SOL     OW16828   2.723   2.766   5.253  0.2602 -0.1840  0.1194
 1790SOL    HW116829   2.683   2.852   5.270 -0.2904 -0.6185  1.0030
 1790SOL    HW216830   2.800   2.796   5.204  0.2696  0.5486  0.5730
 1791SOL     OW16831   1.313   3.703   9.324 -0.0830 -0.0409 -0.2015
 1791SOL    HW116832   1.247   3.635   9.310 -1.3846  1.1826 -0.0508
 1791SOL    HW216833   1.386   3.650   9.355  0.2276 -0.6467 -1.9786
 1792SOL     OW16834   3.230   2.642   2.887  0.4686 -0.0741  0.3135
 1792SOL    HW116835   3.297   2.669   2.950  0.5315 -0.3335  0.3600
 1792SOL    HW216836   3.274   2.564   2.854  1.1918 -0.2303  1.6166
 1793SOL     OW16837   1.915   2.486   2.749 -0.4099  0.1305 -0.7830
 1793SOL    HW116838   1.973   2.410   2.755  1.1293  1.3924  0.3172
 1793SOL    HW216839   1.971   2.555   2.713 -0.5751  0.7394  0.1413
 1794SOL     OW16840   2.007   0.463   9.174 -0.7852 -0.0498  0.2361
 1794SOL    HW116841   1.953   0.418   9.110  0.6674 -2.9592  1.0446
 1794SOL    HW216842   1.959   0.542   9.198  2.5888  2.5950 -1.7100
 1795SOL     OW16843   3.847   3.144   6.562 -0.2468 -0.3348  0.3723
 1795SOL    HW116844   3.876   3.138   6.653 -0.3033 -0.9249  0.3531
 1795SOL    HW216845   3.852   3.050   6.546 -0.7266 -0.4123  0.6689
 1796SOL     OW16846   2.289   0.768  10.815 -0.5767 -0.1685 -0.3037
 1796SOL    HW116847   2.323   0.857  10.811 -0.3128 -0.2093  0.9186
 1796SOL    HW216848   2.306   0.742  10.725  0.0018 -0.1898 -0.1934
 1797SOL     OW16849   0.769   3.706   2.603  0.5531  0.3756  0.0581
 1797SOL    HW116850   0.718   3.734   2.527 -0.2590 -0.7468  0.1817
 1797SOL    HW216851   0.699   3.702   2.667  0.7027 -0.8261  0.1617
 1798SOL     OW16852   4.104   0.793  13.452 -0.3470  0.5203 -0.0560
 1798SOL    HW116853   4.048   0.862  13.488 -1.5915 -0.1473 -0.7149
 1798SOL    HW216854   4.076   0.794  13.361 -0.4285 -4.0813 -0.0709
 1799SOL     OW16855   2.577   2.059   6.625  0.2897 -0.1113  0.1059
 1799SOL    HW116856   2.578   2.074   6.530 -0.3494 -2.0441 -0.1975
 1799SOL    HW216857   2.493   2.101   6.642  1.5252  2.6470 -0.5936
 1800SOL     OW16858   4.037   4.129   1.615  0.4049 -0.0429  0.2106
 1800SOL    HW116859   4.055   4.036   1.630  0.6660  0.2032  1.4274
 1800SOL    HW216860   4.094   4.153   1.542 -0.8035 -2.3406 -1.5118
 1801SOL     OW16861   4.338   1.756   4.497 -0.3398  0.2897  0.1443
 1801SOL    HW116862   4.430   1.768   4.520 -0.1133 -0.3529 -0.4366
 1801SOL    HW216863   4.325   1.688   4.564  1.4175  1.0713  1.2902
 1802SOL     OW16864   2.153   3.978  10.122  0.1455  0.2483 -0.0550
 1802SOL    HW116865   2.061   3.992  10.142  0.5738  1.2368  1.2210
 1802SOL    HW216866   2.197   4.062  10.135  1.8138 -0.8184  1.1831
 1803SOL     OW16867   0.967   3.045   7.828 -0.3156 -0.9122  0.0882
 1803SOL    HW116868   0.948   3.126   7.875  1.1231 -0.8095  0.4930
 1803SOL    HW216869   0.900   2.988   7.867 -0.1713 -0.0259  1.6266
 1804SOL     OW16870   3.256   2.265   2.951  0.0823  0.1626 -0.4886
 1804SOL    HW116871   3.266   2.170   2.956  0.4027  0.2961  1.5260
 1804SOL    HW216872   3.167   2.268   2.916  0.7793 -3.0772 -2.5023
 1805SOL     OW16873   1.351   3.743   2.515 -0.2526 -0.3320  0.1347
 1805SOL    HW116874   1.441   3.717   2.492 -0.6310  0.1392 -1.8548
 1805SOL    HW216875   1.331   3.663   2.564  1.2036 -0.2809  0.8105
 1806SOL     OW16876   2.803   2.714   9.256  0.6550  0.5665 -0.1383
 1806SOL    HW116877   2.881   2.662   9.272  0.5660  1.0764  1.9191
 1806SOL    HW216878   2.847   2.773   9.194  2.3270 -1.5819 -0.9715
 1807SOL     OW16879   1.531   4.081   5.800  0.5308  0.1114  0.2289
 1807SOL    HW116880   1.512   3.990   5.777 -0.3975  0.4248 -0.2427
 1807SOL    HW216881   1.588   4.093   5.725 -0.3236  2.5280 -0.0522
 1808SOL     OW16882   0.068   1.190  16.897  0.3807  0.6734 -0.5004
 1808SOL    HW116883   0.004   1.218  16.832  0.1684  0.5575 -0.3390
 1808SOL    HW216884   0.129   1.264  16.894  1.3156 -0.1410 -1.7078
 1809SOL     OW16885   0.642   0.996   4.964  0.2240  0.0855  0.3068
 1809SOL    HW116886   0.577   0.960   5.025  1.0062 -0.1724  0.9938
 1809SOL    HW216887   0.669   0.916   4.920 -0.1275  1.0153 -1.6194
 1810SOL     OW16888   0.058   4.262   7.794  0.2538  0.1017  0.0326
 1810SOL    HW116889   0.049   4.255   7.889  1.6891 -0.2186  0.1461
 1810SOL    HW216890   4.690   4.237   7.766  0.9646 -1.9563 -0.3908
 1811SOL     OW16891   4.026   3.847   4.490 -0.4568 -1.2441  0.2671
 1811SOL    HW116892   3.983   3.890   4.564 -0.2057  0.1093 -0.3714
 1811SOL    HW216893   3.992   3.901   4.419  3.1661  0.5813 -0.0994
 1812SOL     OW16894   4.080   4.295  10.537  0.3843  0.3463  0.2438
 1812SOL    HW116895   4.054   4.203  10.542  0.6383  0.2143 -0.7262
 1812SOL    HW216896   4.015   4.331  10.597  0.1912  0.8747 -0.2807
 1813SOL     OW16897   3.575   0.110   4.647  0.0014 -0.7384 -0.1683
 1813SOL    HW116898   3.560   0.185   4.705 -0.2271  0.7867 -2.2242
 1813SOL    HW216899   3.523   0.121   4.568 -1.1500 -1.5412  0.4723
 1814SOL     OW16900   1.079   1.936   6.580  0.1980 -0.3552 -0.3078
 1814SOL    HW116901   1.018   1.959   6.510  0.2392 -3.9245 -1.5158
 1814SOL    HW216902   1.026   1.915   6.657  1.4087 -0.5582  0.4605
 1815SOL     OW16903   0.203   3.300  13.337  0.3190  0.1506 -0.3093
 1815SOL    HW116904   0.231   3.261  13.420 -1.5783 -3.1396 -1.2002
 1815SOL    HW216905   0.290   3.331  13.314 -0.7373  3.7055  0.5016
 1816SOL     OW16906   0.573   3.768   8.138 -0.5336  0.3954  0.3166
 1816SOL    HW116907   0.598   3.806   8.054  1.2455 -2.9580 -0.6672
 1816SOL    HW216908   0.656   3.781   8.184  0.5712 -0.4525 -1.4350
 1817SOL     OW16909   2.825   0.395   4.995 -0.2169 -0.1472  0.4186
 1817SOL    HW116910   2.835   0.340   4.917 -1.3011 -0.2492  0.3484
 1817SOL    HW216911   2.765   0.336   5.040  0.5983 -0.6292  0.8741
 1818SOL     OW16912   1.475   1.403  15.207 -0.9481 -0.3238  0.1762
 1818SOL    HW116913   1.570   1.403  15.220 -0.7953  0.5897 -0.9040
 1818SOL    HW216914   1.460   1.308  15.204  2.2575 -0.9179  2.8235
 1819SOL     OW16915   2.452   1.499   6.359 -0.2645  0.2378  0.3917
 1819SOL    HW116916   2.404   1.526   6.280 -1.0585 -3.6566 -0.4604
 1819SOL    HW216917   2.480   1.412   6.330  3.0668  1.7766 -0.9037
 1820SOL     OW16918   2.992   3.683  16.214 -0.4512 -0.2538 -0.4893
 1820SOL    HW116919   2.954   3.770  16.198 -0.9263 -0.1131  1.3418
 1820SOL    HW216920   2.999   3.655  16.123  0.5665 -2.3638  0.2441
 1821SOL     OW16921   1.137   1.661   8.183 -0.0858  0.3310 -0.6041
 1821SOL    HW116922   1.042   1.671   8.180 -0.4336 -2.7101 -0.4851
 1821SOL    HW216923   1.156   1.662   8.277  2.4017 -2.4677 -1.0824
 1822SOL     OW16924   3.008   1.607   5.542 -0.5737  0.2615  0.0547
 1822SOL    HW116925   2.917   1.607   5.515 -0.1410 -0.4561 -1.3991
 1822SOL    HW216926   3.029   1.700   5.542  0.8706 -0.0736 -2.9109
 1823SOL     OW16927   4.300   4.035   7.930 -0.0146 -0.0990  0.2080
 1823SOL    HW116928   4.381   4.010   7.976 -0.0485 -1.1061 -0.2705
 1823SOL    HW216929   4.270   3.946   7.914 -0.9609  0.2768 -0.0652
 1824SOL     OW16930   2.485   0.248   8.513  0.3725 -0.0096  0.2846
 1824SOL    HW116931   2.511   0.192   8.586 -1.2230 -1.2289 -0.0968
 1824SOL    HW216932   2.492   0.335   8.553  1.7904  0.4226 -0.9336
 1825SOL     OW16933   0.340   0.222   2.679  0.6437 -0.1031  0.4635
 1825SOL    HW116934   0.390   0.251   2.603  0.2165  0.8550  0.5463
 1825SOL    HW216935   0.265   0.281   2.682  0.1999 -0.4879 -2.9722
 1826SOL     OW16936   0.573   4.663   2.770  0.7477  0.1122  0.3976
 1826SOL    HW116937   0.528   0.015   2.726 -0.5635 -0.8707  0.1166
 1826SOL    HW216938   0.599   4.694   2.857 -3.6848  1.6179  1.1923
 1827SOL     OW16939   1.441   3.066   5.773  0.0589 -0.2170 -0.2618
 1827SOL    HW116940   1.366   3.006   5.772  0.8215 -1.1688 -1.0541
 1827SOL    HW216941   1.455   3.099   5.685 -0.3345  0.2756 -0.1348
 1828SOL     OW16942   4.183   1.452  14.780 -0.1025 -0.8258  0.1953
 1828SOL    HW116943   4.184   1.517  14.850  1.3310  0.2733 -0.8225
 1828SOL    HW216944   4.253   1.487  14.725 -2.9695 -0.1148 -3.0051
 1829SOL     OW16945   0.413   2.008   9.343  0.0085  0.1242 -0.0199
 1829SOL    HW116946   0.506   2.025   9.357  0.2530  0.5578 -2.1534
 1829SOL    HW216947   0.399   2.028   9.251 -0.3698  0.2019  0.0542
 1830SOL     OW16948   4.597   0.096   5.661  0.2159  0.0269 -0.4021
 1830SOL    HW116949   4.641   0.083   5.745  1.7960 -0.5586 -1.3153
 1830SOL    HW216950   4.512   0.054   5.676 -0.2485  0.7858 -0.8595
 1831SOL     OW16951   4.306   3.626   9.468  0.1261  0.3307 -0.0740
 1831SOL    HW116952   4.246   3.564   9.426  4.3756 -3.5736 -0.4314
 1831SOL    HW216953   4.284   3.632   9.561  1.3951 -1.6653  0.3464
 1832SOL     OW16954   3.958   1.426  15.108 -0.0587 -0.1414  0.4738
 1832SOL    HW116955   4.026   1.469  15.161 -0.0237  1.4579 -0.8554
 1832SOL    HW216956   3.995   1.338  15.100  0.4406  0.2588 -1.7625
 1833SOL     OW16957   1.957   1.057  10.901  0.1671 -0.2971 -0.2048
 1833SOL    HW116958   2.028   1.056  10.965 -1.0248 -1.0463  1.1283
 1833SOL    HW216959   1.915   1.141  10.916 -0.7877 -0.4871 -1.8211
 1834SOL     OW16960   2.273   1.454   5.200 -0.9157  0.2420  0.4601
 1834SOL    HW116961   2.306   1.365   5.212  0.7363  0.9658  1.2099
 1834SOL    HW216962   2.179   1.435   5.191 -0.9629 -0.4416  2.4574
 1835SOL     OW16963   0.548   2.547  16.617 -0.0355 -0.2020  0.1544
 1835SOL    HW116964   0.526   2.529  16.708 -2.0341  0.1940 -0.2617
 1835SOL    HW216965   0.641   2.526  16.604  0.2249  1.8208 -1.3564
 1836SOL     OW16966   3.112   4.583  10.319  0.3352 -0.0028 -0.3410
 1836SOL    HW116967   3.065   4.648  10.267  4.3077  2.6567 -0.5912
 1836SOL    HW216968   3.180   4.638  10.358  1.5549  0.3518 -2.9835
 1837SOL     OW16969   2.859   2.064   4.659  0.3286 -0.3182 -0.4550
 1837SOL    HW116970   2.816   2.127   4.600 -1.3475  0.4541  1.5836
 1837SOL    HW216971   2.826   2.098   4.743 -2.6235 -1.1772 -1.2720
 1838SOL     OW16972   4.014   1.023   4.956 -0.2239  0.4097  0.0114
 1838SOL    HW116973   4.060   0.963   4.897 -1.6809 -0.4058 -0.2813
 1838SOL    HW216974   4.021   1.103   4.904 -0.7155  0.7815  0.5183
 1839SOL     OW16975   3.816   1.411   7.555 -0.1179  0.2559 -0.7864
 1839SOL    HW116976   3.830   1.502   7.582 -0.4244  0.2673 -0.6664
 1839SOL    HW216977   3.726   1.404   7.587  0.0536  2.5429  0.2054
 1840SOL     OW16978   0.555   1.767   1.858 -0.0176  0.0473 -0.1330
 1840SOL    HW116979   0.604   1.817   1.794  0.2213  0.5947  0.4797
 1840SOL    HW216980   0.568   1.679   1.822 -1.7745 -1.6893  3.3601
 1841SOL     OW16981   4.409   3.398  15.127 -0.1681 -0.3716 -0.1647
 1841SOL    HW116982   4.379   3.408  15.037  2.0245 -1.0735 -0.9668
 1841SOL    HW216983   4.480   3.336  15.115 -1.3998 -2.0413  1.1551
 1842SOL     OW16984   3.835   3.842  14.485  0.2417  0.1230 -0.2772
 1842SOL    HW116985   3.929   3.855  14.476  0.2942 -1.8672 -2.6192
 1842SOL    HW216986   3.808   3.833  14.393  0.3585 -0.4357 -0.2564
 1843SOL     OW16987   0.875   1.215  15.663 -0.3932 -0.0873 -0.5008
 1843SOL    HW116988   0.872   1.293  15.608  2.2834 -0.4665 -1.2027
 1843SOL    HW216989   0.959   1.199  15.707 -1.4035  1.3677  1.9563
 1844SOL     OW16990   1.798   0.043  14.889 -0.4090  0.1328 -0.7695
 1844SOL    HW116991   1.751   0.120  14.921 -1.5166  0.1842 -2.4969
 1844SOL    HW216992   1.800   4.715  14.971  3.3517  1.0446 -0.3171
 1845SOL     OW16993   0.962   1.813  16.296  0.5595 -0.3459  0.2262
 1845SOL    HW116994   0.900   1.783  16.361 -0.3983  0.6351 -0.2339
 1845SOL    HW216995   0.919   1.800  16.211  1.7092 -0.3510 -0.3601
 1846SOL     OW16996   1.527   3.166  12.376  0.1741 -0.4126  0.0148
 1846SOL    HW116997   1.455   3.175  12.439 -1.3106 -3.5032 -1.2358
 1846SOL    HW216998   1.494   3.098  12.318 -2.6212 -1.0888  2.3906
 1847SOL     OW16999   1.978   3.831  17.436 -0.0820  0.0773 -0.0075
 1847SOL    HW117000   1.905   3.862  17.490 -0.3589  1.6145 -1.2508
 1847SOL    HW217001   1.969   3.885  17.358  1.0050 -0.3318 -0.4100
 1848SOL     OW17002   2.033   3.733  13.457  0.0017 -0.8686  0.3167
 1848SOL    HW117003   2.125   3.708  13.449  0.7023  1.2082  2.0398
 1848SOL    HW217004   1.989   3.708  13.375 -4.5213 -0.5926  2.6805
 1849SOL     OW17005   4.568   0.928   0.061  0.6024 -0.0774  0.3627
 1849SOL    HW117006   4.651   0.892   0.032 -1.0060 -1.6455 -2.3514
 1849SOL    HW217007   4.553   0.995  17.678 -1.0044 -0.5383  0.2338
 1850SOL     OW17008   0.843   1.003   9.783 -0.2607 -0.3138  0.2091
 1850SOL    HW117009   0.925   0.992   9.829  1.1438 -1.8426 -2.6551
 1850SOL    HW217010   0.859   1.066   9.712  0.5461  1.1488  1.6962
 1851SOL     OW17011   3.146   4.121   5.939 -0.1258 -0.2577  0.2064
 1851SOL    HW117012   3.117   4.043   5.890  0.1369  0.1853 -0.6621
 1851SOL    HW217013   3.214   4.151   5.878 -1.2733  1.4405 -0.2301
 1852SOL     OW17014   1.826   2.297   9.189  0.5591 -0.1239  0.4771
 1852SOL    HW117015   1.833   2.377   9.241 -0.0852 -0.8823  1.7359
 1852SOL    HW217016   1.912   2.265   9.164  0.5572 -0.4801  0.9413
 1853SOL     OW17017   0.624   4.262   8.033  0.1345  0.0406  0.2951
 1853SOL    HW117018   0.624   4.334   7.969  0.4942  0.1576  0.4274
 1853SOL    HW217019   0.718   4.247   8.044  0.0573 -1.4981 -1.0960
 1854SOL     OW17020   0.657   3.011   7.519  0.1295 -0.4102 -0.4065
 1854SOL    HW117021   0.602   2.997   7.596 -0.1396 -0.5969 -0.6344
 1854SOL    HW217022   0.590   3.024   7.452 -0.1738  1.5662  0.2768
 1855SOL     OW17023   0.148   1.821   8.480  0.3890  0.0626  0.0645
 1855SOL    HW117024   0.179   1.778   8.559 -1.3988  0.4218  0.9606
 1855SOL    HW217025   0.225   1.829   8.425 -0.5560 -4.6867 -1.9762
 1856SOL     OW17026   1.154   4.041   3.670  0.3091  0.1869  0.0561
 1856SOL    HW117027   1.189   4.119   3.626 -0.1604  0.0998 -0.4680
 1856SOL    HW217028   1.175   4.069   3.759 -0.8841  1.3122 -0.0272
 1857SOL     OW17029   4.681   3.638   3.582 -0.1850  0.4755  0.0030
 1857SOL    HW117030   0.048   3.642   3.621  1.2107  1.9838 -3.2506
 1857SOL    HW217031   4.666   3.544   3.592 -1.6922  0.6405 -0.8248
 1858SOL     OW17032   4.583   4.578  16.045 -0.1614  0.2146 -0.3944
 1858SOL    HW117033   4.652   4.593  15.980 -1.5319  0.5400 -1.7773
 1858SOL    HW217034   4.503   4.573  15.993  0.6976 -1.3215 -1.5558
 1859SOL     OW17035   0.745   3.620  12.111  0.2527 -0.4014  0.6047
 1859SOL    HW117036   0.766   3.642  12.202 -1.1465 -0.1496  0.8658
 1859SOL    HW217037   0.822   3.662  12.072 -0.3147 -2.6224 -2.9109
 1860SOL     OW17038   4.052   2.271   8.068  0.1467  0.0660  0.5102
 1860SOL    HW117039   4.021   2.225   8.145  0.1622 -2.0403 -0.7350
 1860SOL    HW217040   4.046   2.363   8.092 -3.3289  0.3688 -1.5505
 1861SOL     OW17041   1.310   2.485   6.444  0.4050  0.3295 -0.2491
 1861SOL    HW117042   1.297   2.390   6.445 -0.1110  0.4190  2.7546
 1861SOL    HW217043   1.402   2.496   6.469 -0.1710  3.1643  0.5988
 1862SOL     OW17044   4.232   4.365   2.601  0.1073  0.3099  0.3720
 1862SOL    HW117045   4.225   4.394   2.510  0.8822  0.7941  0.4767
 1862SOL    HW217046   4.283   4.436   2.637  1.3132 -1.1106  1.4566
 1863SOL     OW17047   4.556   1.133   4.873 -0.8481  0.1276  0.1019
 1863SOL    HW117048   4.484   1.071   4.884 -0.9641  0.3143  0.3748
 1863SOL    HW217049   4.551   1.132   4.777  0.2507  0.0469  0.0384
 1864SOL     OW17050   0.430   4.164  15.646 -0.2636  0.3492 -0.2149
 1864SOL    HW117051   0.516   4.123  15.649 -0.5181 -0.3177 -1.8822
 1864SOL    HW217052   0.452   4.256  15.657 -0.5638  0.4243 -0.2432
 1865SOL     OW17053   1.327   1.583   3.956  0.2362  0.2860  0.0596
 1865SOL    HW117054   1.376   1.586   3.874  1.1823 -1.7771  0.5451
 1865SOL    HW217055   1.347   1.664   4.002  1.2434  0.1596 -0.1495
 1866SOL     OW17056   2.434   2.267   4.610  0.0284 -0.8019 -0.0824
 1866SOL    HW117057   2.454   2.311   4.693 -0.8185 -0.0734 -0.2656
 1866SOL    HW217058   2.478   2.319   4.543  0.7101 -1.7414 -0.3582
 1867SOL     OW17059   1.802   1.693   7.567 -0.1142 -0.0385 -0.0396
 1867SOL    HW117060   1.826   1.610   7.607 -0.5608 -0.3371 -0.3973
 1867SOL    HW217061   1.743   1.657   7.501  0.2152 -0.8329  0.1081
 1868SOL     OW17062   0.857   4.203  11.205  0.2688  0.3773  0.3896
 1868SOL    HW117063   0.789   4.153  11.160  0.6855 -0.3292  0.5419
 1868SOL    HW217064   0.833   4.287  11.168  1.5812  0.6041  0.0554
 1869SOL     OW17065   4.041   3.287   4.137 -0.5638  0.3972  0.1532
 1869SOL    HW117066   4.001   3.202   4.122 -0.0166  0.0553  0.6464
 1869SOL    HW217067   4.046   3.292   4.232 -0.3490  2.9647  0.0166
 1870SOL     OW17068   3.288   2.481  17.305 -0.1318 -0.1318 -0.3739
 1870SOL    HW117069   3.211   2.537  17.318  0.7454  1.2120 -0.9523
 1870SOL    HW217070   3.276   2.415  17.373 -0.4691 -1.4852 -1.7525
 1871SOL     OW17071   1.862   0.112   4.881  0.1851 -0.0446  0.5856
 1871SOL    HW117072   1.792   0.120   4.817  1.6375 -1.3147 -1.1729
 1871SOL    HW217073   1.835   0.037   4.934  0.6847 -0.6717 -0.0502
 1872SOL     OW17074   1.849   2.681   4.512  0.2138 -0.0935 -0.6463
 1872SOL    HW117075   1.931   2.662   4.466  0.9434 -0.7174  0.9226
 1872SOL    HW217076   1.857   2.775   4.526  2.1844 -0.7031  2.3357
 1873SOL     OW17077   2.695   0.835   3.480  0.5402  0.1550  0.6533
 1873SOL    HW117078   2.721   0.802   3.394 -0.5591  1.9511 -0.3742
 1873SOL    HW217079   2.704   0.763   3.543  0.2510 -1.0224 -0.6488
 1874SOL     OW17080   0.248   1.059   4.691  0.8488 -0.0951 -0.4921
 1874SOL    HW117081   0.170   1.011   4.662  0.9460 -0.0471 -0.8349
 1874SOL    HW217082   0.314   1.001   4.653  1.0684 -0.3151  0.2318
 1875SOL     OW17083   1.233   1.057  17.389  0.0382 -0.5962 -1.0176
 1875SOL    HW117084   1.307   1.111  17.416  0.4847 -1.2948 -0.8446
 1875SOL    HW217085   1.208   1.109  17.313 -1.0063 -0.8991 -0.8813
 1876SOL     OW17086   3.199   3.519   2.384  0.4227  0.3802  0.3859
 1876SOL    HW117087   3.178   3.542   2.474 -1.1725  1.3228 -0.2348
 1876SOL    HW217088   3.157   3.433   2.380 -0.1223  0.7487 -2.1401
 1877SOL     OW17089   0.237   3.286   3.609  0.2607  0.5024  0.2305
 1877SOL    HW117090   0.292   3.214   3.576  2.6523  1.3167  2.4896
 1877SOL    HW217091   0.205   3.328   3.529 -2.9531 -0.9799  0.7252
 1878SOL     OW17092   0.057   1.300  17.668  0.1894 -0.1278  0.0910
 1878SOL    HW117093   4.716   1.335  17.603 -0.3672 -1.9492 -0.3592
 1878SOL    HW217094   0.129   1.280  17.608 -0.7867  0.8023 -1.3975
 1879SOL     OW17095   2.202   1.203   3.552 -0.1767  0.0467  0.1362
 1879SOL    HW117096   2.135   1.267   3.575  1.7635  1.9431  0.5616
 1879SOL    HW217097   2.161   1.125   3.589  0.7188  1.1042  3.4093
 1880SOL     OW17098   2.926   1.605   8.223  0.0546 -0.4316 -0.3793
 1880SOL    HW117099   2.940   1.644   8.309 -2.7504 -1.9532  0.7684
 1880SOL    HW217100   3.018   1.605   8.196 -0.2851  0.9043 -1.5556
 1881SOL     OW17101   2.486   2.365  16.754  0.1632  0.2987 -0.2933
 1881SOL    HW117102   2.424   2.340  16.685 -0.4661  0.5906  0.1581
 1881SOL    HW217103   2.549   2.421  16.709  1.1481 -0.9497 -0.4591
 1882SOL     OW17104   2.591   0.551   4.596 -1.3494 -0.4060 -0.6366
 1882SOL    HW117105   2.610   0.481   4.533 -1.0439 -0.1787 -0.7997
 1882SOL    HW217106   2.527   0.503   4.649 -1.1126  0.3480  0.3248
 1883SOL     OW17107   4.189   4.694   4.095  0.1983  0.2099 -0.3216
 1883SOL    HW117108   4.259   4.702   4.030  1.2091 -3.0680  0.3754
 1883SOL    HW217109   4.139   4.615   4.075  0.3599  0.1317 -0.4106
 1884SOL     OW17110   2.911   1.682   3.136 -0.4314 -0.0680  0.9048
 1884SOL    HW117111   2.918   1.712   3.226 -3.0878 -2.3904  1.9240
 1884SOL    HW217112   3.004   1.681   3.116 -0.6521 -1.7844 -0.0736
 1885SOL     OW17113   3.039   0.075   9.874 -0.2469 -0.3365 -0.3833
 1885SOL    HW117114   2.972   0.126   9.828  0.3723  0.7924 -0.0460
 1885SOL    HW217115   3.076   0.028   9.800  1.4460  1.4628 -0.6668
 1886SOL     OW17116   2.778   4.547  10.199 -0.2829 -0.1452  0.3591
 1886SOL    HW117117   2.696   4.563  10.152  0.3709  0.4353 -0.5833
 1886SOL    HW217118   2.800   4.455  10.185  3.2465  0.6067  0.8733
 1887SOL     OW17119   1.194   3.875   5.839  0.1780  0.4817 -0.0637
 1887SOL    HW117120   1.133   3.859   5.911  0.7857  2.1403  0.8449
 1887SOL    HW217121   1.198   3.787   5.802 -1.4197  0.6166 -0.5269
 1888SOL     OW17122   4.361   2.896  13.141 -0.5904  1.0449 -0.1208
 1888SOL    HW117123   4.312   2.814  13.147 -0.7299  1.0913 -0.6274
 1888SOL    HW217124   4.289   2.958  13.130 -0.6646  0.7842 -1.1735
 1889SOL     OW17125   3.538   2.970  17.200 -0.2291 -0.0145 -0.0380
 1889SOL    HW117126   3.571   2.993  17.113 -1.9134  0.7793 -0.4778
 1889SOL    HW217127   3.610   3.007  17.251  2.3848 -2.2336 -2.1146
 1890SOL     OW17128   0.395   4.100   2.463 -0.3590  0.6203  0.2911
 1890SOL    HW117129   0.477   4.132   2.499  1.2739 -0.5762 -2.3686
 1890SOL    HW217130   0.413   4.096   2.369 -1.4728  0.5442  0.0781
 1891SOL     OW17131   2.403   0.925   5.828 -0.4377  0.3058  0.3191
 1891SOL    HW117132   2.453   0.880   5.760 -0.0704 -0.1249  0.8724
 1891SOL    HW217133   2.466   0.984   5.869  0.7666 -0.4328 -0.4736
 1892SOL     OW17134   3.733   2.581  10.716 -0.0169 -0.0219  0.1601
 1892SOL    HW117135   3.702   2.532  10.792 -1.9383  2.3803  0.9264
 1892SOL    HW217136   3.818   2.551  10.684 -0.1143 -0.8359  0.6522
 1893SOL     OW17137   3.229   2.060   8.064 -0.3976  0.2385  0.1269
 1893SOL    HW117138   3.253   2.084   8.153  2.7401 -0.6448 -0.4559
 1893SOL    HW217139   3.135   2.047   8.068 -0.3919  0.5846  1.1756
 1894SOL     OW17140   4.188   2.959   5.227  0.3277 -0.3369 -0.1696
 1894SOL    HW117141   4.223   2.872   5.246 -0.3536 -0.4644  0.5085
 1894SOL    HW217142   4.128   2.960   5.302  1.3613 -2.1969  0.6819
 1895SOL     OW17143   3.215   2.303   5.925  0.2803 -0.0301 -0.6735
 1895SOL    HW117144   3.254   2.344   5.848  1.4377 -1.0295 -0.6010
 1895SOL    HW217145   3.298   2.281   5.966 -0.9343 -2.4170  0.4837
 1896SOL     OW17146   2.617   0.632   6.838  0.4664 -0.1017  0.0446
 1896SOL    HW117147   2.651   0.675   6.916 -2.3634 -0.4915  1.5079
 1896SOL    HW217148   2.589   0.549   6.876  0.1127 -0.5094 -1.0822
 1897SOL     OW17149   0.485   2.439   5.245 -0.1218 -0.0899 -0.8582
 1897SOL    HW117150   0.394   2.462   5.231 -0.4138 -0.8085 -0.1160
 1897SOL    HW217151   0.520   2.513   5.295 -0.3283 -0.6609  0.1212
 1898SOL     OW17152   4.347   4.123   7.400  0.6989  0.5754 -0.2139
 1898SOL    HW117153   4.335   4.064   7.475  0.1188  2.0868  0.8794
 1898SOL    HW217154   4.270   4.177   7.417  0.3668 -0.6925  2.2953
 1899SOL     OW17155   0.740   2.347   2.957 -0.1460  0.2140  0.3011
 1899SOL    HW117156   0.691   2.291   2.897 -1.1513  3.2001 -1.6703
 1899SOL    HW217157   0.725   2.289   3.033 -2.5952  0.6286  0.1300
 1900SOL     OW17158   3.608   2.621   9.195  1.2274  0.2868  0.8090
 1900SOL    HW117159   3.617   2.710   9.163 -1.1061  0.7066  1.2929
 1900SOL    HW217160   3.687   2.584   9.154  0.6296 -0.4582  0.3151
 1901SOL     OW17161   3.457   0.472   3.623 -0.3838  0.0891 -0.5542
 1901SOL    HW117162   3.437   0.542   3.561  2.1228 -0.3876 -1.9159
 1901SOL    HW217163   3.538   0.498   3.667 -0.6477  0.3324 -0.2185
 1902SOL     OW17164   0.316   3.923   8.233  0.4354  0.0368  0.4410
 1902SOL    HW117165   0.380   3.864   8.191 -2.1697 -1.3304 -1.6137
 1902SOL    HW217166   0.361   4.007   8.224 -0.0691  0.1536 -1.0996
 1903SOL     OW17167   1.406   2.089  17.389 -0.1039 -0.2193  0.2976
 1903SOL    HW117168   1.472   2.024  17.412 -1.5031 -1.7779 -0.0971
 1903SOL    HW217169   1.422   2.172  17.435  1.6595  0.5512 -1.7077
 1904SOL     OW17170   4.375   4.620   3.611  0.2242 -0.2924 -0.7347
 1904SOL    HW117171   4.405   4.529   3.609  2.0471  0.2287  3.4261
 1904SOL    HW217172   4.333   4.624   3.525  1.7354  0.2376 -1.4310
 1905SOL     OW17173   2.445   3.822   6.526  0.0531  0.0275  0.0334
 1905SOL    HW117174   2.412   3.733   6.539  0.8619 -0.0265  1.7329
 1905SOL    HW217175   2.537   3.797   6.516  0.6458  2.5782 -0.9184
 1906SOL     OW17176   4.228   3.627   6.182 -0.1703  0.1461 -0.6026
 1906SOL    HW117177   4.262   3.545   6.220  0.4566 -0.5478 -2.6793
 1906SOL    HW217178   4.185   3.585   6.108  1.5007 -1.7287 -0.5069
 1907SOL     OW17179   1.106   3.426  10.206  0.3185  0.5742  0.7186
 1907SOL    HW117180   1.184   3.371  10.214 -0.2900 -0.3113  0.4581
 1907SOL    HW217181   1.124   3.507  10.255  0.2237  0.3324  1.1581
 1908SOL     OW17182   3.153   3.309   0.672 -0.1547  0.5317 -0.0289
 1908SOL    HW117183   3.154   3.354   0.757 -0.4390  1.0711 -0.3108
 1908SOL    HW217184   3.220   3.364   0.633  0.1114  0.4885  0.3645
 1909SOL     OW17185   4.152   0.361  11.439  0.0684 -0.1509 -0.2929
 1909SOL    HW117186   4.121   0.312  11.515  1.1152  2.1702  1.6255
 1909SOL    HW217187   4.080   0.418  11.412 -1.0171 -0.4165  2.0402
 1910SOL     OW17188   3.585   2.542   3.722  0.0748 -0.1463  0.1247
 1910SOL    HW117189   3.506   2.560   3.773 -0.2459 -0.9316 -0.0905
 1910SOL    HW217190   3.613   2.456   3.755  1.9542 -0.4411 -2.2390
 1911SOL     OW17191   0.138   2.311   8.182  0.4282 -0.7223 -0.0957
 1911SOL    HW117192   0.174   2.248   8.120  1.3524  1.3998 -1.6713
 1911SOL    HW217193   0.049   2.326   8.149  0.4546 -2.9693 -1.1831
 1912SOL     OW17194   4.208   0.067  14.414  0.2359  0.1695  0.1385
 1912SOL    HW117195   4.290   0.031  14.379  0.2881  0.6889 -0.2805
 1912SOL    HW217196   4.210   0.037  14.504 -1.4047  2.9747  1.1263
 1913SOL     OW17197   0.085   3.471   4.940  0.5719  0.2146 -0.4061
 1913SOL    HW117198   0.096   3.486   5.034 -2.0932  0.0612 -0.0597
 1913SOL    HW217199   0.147   3.399   4.924  1.5287  1.6962 -3.3058
 1914SOL     OW17200   4.446   4.089   4.246 -0.6975  0.1477  0.3619
 1914SOL    HW117201   4.393   4.040   4.309  0.7005 -0.5938  0.9698
 1914SOL    HW217202   4.463   4.022   4.179 -1.4314 -1.2843  1.6013
 1915SOL     OW17203   2.836   2.754  10.574 -0.4399 -0.4904  0.2363
 1915SOL    HW117204   2.869   2.816  10.509 -0.9248  0.7718  1.2206
 1915SOL    HW217205   2.848   2.674  10.522 -0.3647  1.3925 -2.6308
 1916SOL     OW17206   0.910   0.146  12.105 -0.4469  0.3391  0.8558
 1916SOL    HW117207   0.971   0.073  12.097 -0.5358  0.2804  0.7107
 1916SOL    HW217208   0.916   0.168  12.197  1.4183 -0.5863  0.9412
 1917SOL     OW17209   0.498   1.082  12.553 -0.2349 -0.0215  0.4910
 1917SOL    HW117210   0.501   1.014  12.620  1.0590  0.3351  0.7905
 1917SOL    HW217211   0.554   1.147  12.596 -0.6367  2.5157 -2.8275
 1918SOL     OW17212   0.752   2.226   1.808 -0.2827  0.2340 -0.0983
 1918SOL    HW117213   0.845   2.240   1.830 -0.2365 -0.6672  0.2913
 1918SOL    HW217214   0.731   2.172   1.884 -1.3757 -1.3269 -1.5275
 1919SOL     OW17215   1.702   0.726   9.653  0.7601  0.1613  0.3703
 1919SOL    HW117216   1.652   0.800   9.619  0.8075 -0.4747 -1.1027
 1919SOL    HW217217   1.773   0.704   9.593 -0.6838 -0.3806 -1.1377
 1920SOL     OW17218   3.609   4.455   1.638 -0.0708  0.0985  0.4613
 1920SOL    HW117219   3.521   4.452   1.600 -0.0907 -0.6229  0.5624
 1920SOL    HW217220   3.658   4.435   1.558 -1.0927  1.2244 -0.4504
 1921SOL     OW17221   3.295   0.583   9.076  0.0242  0.2085  0.4348
 1921SOL    HW117222   3.340   0.652   9.125  2.0262 -3.0888  3.2122
 1921SOL    HW217223   3.204   0.589   9.104  0.3036  3.3030  0.7171
 1922SOL     OW17224   1.097   3.858   7.029 -0.2136 -0.0935  0.5494
 1922SOL    HW117225   1.153   3.892   6.960 -0.5693 -2.7134 -1.0486
 1922SOL    HW217226   1.106   3.929   7.092 -3.5602  0.4931  0.3921
 1923SOL     OW17227   4.108   3.615  13.612  0.3538 -0.2975 -0.3836
 1923SOL    HW117228   4.145   3.555  13.677  1.7922  1.7859  0.7126
 1923SOL    HW217229   4.090   3.555  13.540  0.7618 -0.3950 -0.4083
 1924SOL     OW17230   2.223   0.276  12.937  0.0091  0.1933 -0.3061
 1924SOL    HW117231   2.253   0.305  12.850 -0.8331 -1.3815 -1.1138
 1924SOL    HW217232   2.159   0.208  12.916  0.6895  0.1985 -2.3710
 1925SOL     OW17233   0.181   2.905   3.914 -0.6225  0.2736 -0.2497
 1925SOL    HW117234   0.271   2.922   3.887 -0.0512 -0.6620  1.1002
 1925SOL    HW217235   0.139   2.971   3.857  1.3094  1.6037 -0.1178
 1926SOL     OW17236   1.602   2.210   2.606 -0.5305 -0.4488  0.0221
 1926SOL    HW117237   1.558   2.179   2.526 -0.2254  0.4304 -0.4859
 1926SOL    HW217238   1.615   2.302   2.583  0.3046 -0.1593  1.6436
 1927SOL     OW17239   3.644   0.819   4.016 -0.4820  0.1723  1.0425
 1927SOL    HW117240   3.718   0.759   4.023 -0.5319  0.5684  4.9123
 1927SOL    HW217241   3.624   0.815   4.109  0.9000  0.5388  1.3481
 1928SOL     OW17242   0.485   4.338   5.435  0.5771  0.0953 -0.1188
 1928SOL    HW117243   0.517   4.386   5.512 -1.2467  2.6737 -0.9785
 1928SOL    HW217244   0.560   4.348   5.375  2.2056 -1.0697  1.7146
 1929SOL     OW17245   3.893   2.282   3.340 -0.2435 -0.2124 -0.4735
 1929SOL    HW117246   3.838   2.348   3.296 -0.4332  0.0353  0.1447
 1929SOL    HW217247   3.824   2.244   3.394  0.2511 -0.9597 -0.3616
 1930SOL     OW17248   0.799   2.644   2.014 -0.1578  0.7547 -0.5390
 1930SOL    HW117249   0.752   2.700   1.952 -1.8774 -0.7924 -0.6160
 1930SOL    HW217250   0.804   2.705   2.087  0.5375 -1.6540  1.4074
 1931SOL     OW17251   2.970   1.666  12.781 -0.0495 -0.2649 -0.5303
 1931SOL    HW117252   3.057   1.689  12.748 -1.0016  3.2334 -0.5653
 1931SOL    HW217253   2.916   1.667  12.702  0.6680  0.6701 -1.0013
 1932SOL     OW17254   1.128   2.485   7.674 -0.1398  0.4281 -0.4281
 1932SOL    HW117255   1.120   2.575   7.704 -3.4486 -0.4477  1.3543
 1932SOL    HW217256   1.066   2.480   7.601  3.1150  2.0379 -3.2877
 1933SOL     OW17257   2.065   4.558   6.019  0.1011  0.0060  0.2362
 1933SOL    HW117258   1.985   4.542   5.968  1.4565 -0.3452 -1.8080
 1933SOL    HW217259   2.064   4.484   6.079  0.6003  1.5724  2.1819
 1934SOL     OW17260   1.329   4.426   2.180  0.5375 -0.3671 -0.6117
 1934SOL    HW117261   1.289   4.426   2.093  0.4547  0.6577 -0.5730
 1934SOL    HW217262   1.400   4.362   2.174  1.3848  0.2920  2.4515
 1935SOL     OW17263   2.601   1.727  14.939  0.4096  0.6718 -0.0691
 1935SOL    HW117264   2.611   1.649  14.884  0.8207  1.6396 -1.4007
 1935SOL    HW217265   2.613   1.697  15.029 -0.4765 -0.7837 -0.4383
 1936SOL     OW17266   1.829   4.319   8.465 -0.3017  0.3709 -0.5629
 1936SOL    HW117267   1.791   4.374   8.395 -2.1574 -0.0245  0.1399
 1936SOL    HW217268   1.918   4.353   8.473  0.5219 -1.2554 -2.7866
 1937SOL     OW17269   3.505   3.471   4.625 -0.3246  0.3212 -0.6638
 1937SOL    HW117270   3.435   3.534   4.646 -0.0019  0.8530 -1.1890
 1937SOL    HW217271   3.470   3.438   4.542 -0.7745  0.7803 -0.6562
 1938SOL     OW17272   0.050   1.980   1.083  0.1650 -0.4629 -0.2094
 1938SOL    HW117273   0.019   1.926   1.155 -0.9354  1.9245  1.1307
 1938SOL    HW217274   0.132   1.933   1.066  0.7474  1.1211 -1.8295
 1939SOL     OW17275   2.670   3.304   4.424 -0.0402 -0.3531  0.0948
 1939SOL    HW117276   2.618   3.359   4.483 -1.5439 -2.2835  0.5721
 1939SOL    HW217277   2.758   3.304   4.460  0.6251 -0.4645 -1.5627
 1940SOL     OW17278   0.235   4.446   7.881  0.2176 -0.3661 -0.4073
 1940SOL    HW117279   0.165   4.381   7.886  0.6321 -0.6787  1.2557
 1940SOL    HW217280   0.265   4.428   7.791  1.0076 -0.9945 -0.0211
 1941SOL     OW17281   1.263   3.354   4.101 -0.0417  0.2690 -0.9049
 1941SOL    HW117282   1.240   3.307   4.181 -3.2929  3.2256 -0.1258
 1941SOL    HW217283   1.254   3.277   4.045 -0.6293  0.1888 -0.7036
 1942SOL     OW17284   3.364   4.016   8.358  0.1316  0.8765  0.0725
 1942SOL    HW117285   3.408   3.931   8.357 -1.5704 -0.0031  1.1400
 1942SOL    HW217286   3.303   4.000   8.430  1.7824 -1.4012  0.9888
 1943SOL     OW17287   0.804   2.394   9.044  0.6844  0.2639  0.0934
 1943SOL    HW117288   0.824   2.320   8.986 -0.7585  0.6958 -0.9413
 1943SOL    HW217289   0.751   2.452   8.989  1.7164  2.0841  1.0153
 1944SOL     OW17290   1.038   2.727   5.422 -0.0816 -0.0800  0.4937
 1944SOL    HW117291   1.111   2.730   5.484 -1.2407 -0.7175  1.8927
 1944SOL    HW217292   1.079   2.715   5.336 -1.6154 -1.1781 -0.0959
 1945SOL     OW17293   1.195   1.148   0.705 -0.0675 -0.4845 -0.2839
 1945SOL    HW117294   1.121   1.116   0.755  1.1870 -1.4042  0.9527
 1945SOL    HW217295   1.154   1.153   0.618  0.7984  1.2911 -0.6046
 1946SOL     OW17296   3.010   1.793   7.975  0.1521  0.7213  0.2821
 1946SOL    HW117297   3.104   1.781   7.964  0.0824 -1.3612  2.0952
 1946SOL    HW217298   3.018   1.866   8.036 -0.5193  0.0265  1.1929
 1947SOL     OW17299   0.815   2.684   5.616 -0.6175 -0.4147 -0.1288
 1947SOL    HW117300   0.891   2.669   5.559  0.7166  1.1131  1.2346
 1947SOL    HW217301   0.845   2.632   5.691 -2.6419 -1.1513  0.1579
 1948SOL     OW17302   3.255   2.554   5.066 -0.1954 -0.6383  0.2058
 1948SOL    HW117303   3.215   2.640   5.066  1.3088  0.0620 -1.7436
 1948SOL    HW217304   3.183   2.504   5.026 -0.0415 -1.1024  0.5080
 1949SOL     OW17305   1.678   1.477  11.702  0.2300  0.1741 -0.0675
 1949SOL    HW117306   1.759   1.488  11.752  0.1912  0.2082 -0.0125
 1949SOL    HW217307   1.715   1.495  11.616  1.8896  0.2387  0.6560
 1950SOL     OW17308   0.630   2.687  10.243 -0.3361 -0.9746 -0.2909
 1950SOL    HW117309   0.710   2.635  10.235 -1.7652 -2.9739 -1.5179
 1950SOL    HW217310   0.610   2.696  10.150  2.1570  0.3841 -0.6992
 1951SOL     OW17311   3.217   3.873   3.441 -0.0853 -0.1306  0.0977
 1951SOL    HW117312   3.252   3.930   3.372 -0.0995 -1.5847 -1.1294
 1951SOL    HW217313   3.238   3.790   3.398  0.8547  0.8540 -1.3707
 1952SOL     OW17314   1.639   4.488  14.469 -0.1731 -0.2683 -0.1537
 1952SOL    HW117315   1.548   4.515  14.458 -0.4382 -1.3834 -0.7161
 1952SOL    HW217316   1.646   4.511  14.561  0.5074  0.0210 -0.2757
 1953SOL     OW17317   4.544   2.878   6.602  0.1498  0.6705  0.2891
 1953SOL    HW117318   4.600   2.880   6.680  0.7273  0.5560 -0.1205
 1953SOL    HW217319   4.458   2.861   6.640  0.0196  1.0344  0.1602
 1954SOL     OW17320   0.630   1.795   2.232 -0.2556 -0.3580  0.6407
 1954SOL    HW117321   0.565   1.862   2.213  0.0571 -0.4560 -0.7960
 1954SOL    HW217322   0.697   1.854   2.268  1.5215 -1.1338 -1.3483
 1955SOL     OW17323   3.430   1.466  11.565 -0.0479  0.1431  0.2424
 1955SOL    HW117324   3.345   1.462  11.522 -0.1591  0.5626  0.4301
 1955SOL    HW217325   3.459   1.555  11.545 -2.5919  0.9695  0.1769
 1956SOL     OW17326   3.565   3.835   3.467 -0.5278 -0.1043 -0.1041
 1956SOL    HW117327   3.555   3.885   3.547 -1.7136  1.1611 -1.0531
 1956SOL    HW217328   3.475   3.805   3.460 -0.2514 -0.8712 -0.4193
 1957SOL     OW17329   3.097   0.635   4.195  0.7783 -0.1427 -0.1026
 1957SOL    HW117330   3.112   0.669   4.284 -0.9849  0.7248 -0.1314
 1957SOL    HW217331   3.164   0.567   4.195 -0.3245 -1.2455 -0.2638
 1958SOL     OW17332   0.140   3.518   9.852  0.9313 -0.2605 -0.1457
 1958SOL    HW117333   0.185   3.598   9.880 -0.3628  0.4517 -0.1139
 1958SOL    HW217334   0.055   3.520   9.896  1.2180 -0.2248  0.4094
 1959SOL     OW17335   4.401   1.926   2.664 -0.5245 -0.2483  0.0281
 1959SOL    HW117336   4.388   2.017   2.691  0.0043 -1.0146  2.9587
 1959SOL    HW217337   4.327   1.884   2.707 -0.1790 -2.9349 -1.9866
 1960SOL     OW17338   4.253   2.034   3.141  0.3032 -0.3964 -0.2483
 1960SOL    HW117339   4.184   2.008   3.201 -1.4921  1.3027 -1.5683
 1960SOL    HW217340   4.197   2.091   3.088 -1.2521 -1.5610  0.1504
 1961SOL     OW17341   4.314   0.899   4.523  0.4705  0.6398 -0.6098
 1961SOL    HW117342   4.218   0.901   4.517  0.4610  0.0170 -0.7001
 1961SOL    HW217343   4.331   0.872   4.433  0.3803  1.1218 -0.7691
 1962SOL     OW17344   3.766   0.035   8.848 -0.5457  0.1120 -0.2420
 1962SOL    HW117345   3.805   4.708   8.921 -0.4871  2.0626  1.0001
 1962SOL    HW217346   3.678   0.048   8.883 -0.5947 -1.9990  0.4171
 1963SOL     OW17347   4.644   1.506   3.424  0.3436  0.4292 -0.0942
 1963SOL    HW117348   4.591   1.581   3.399 -0.1226  0.2883  0.4795
 1963SOL    HW217349   4.604   1.436   3.372 -2.3793  1.1768  1.0014
 1964SOL     OW17350   0.434   0.587  13.526 -0.2260 -0.1820 -0.1215
 1964SOL    HW117351   0.364   0.613  13.586 -0.2918 -0.6996  0.0231
 1964SOL    HW217352   0.423   0.492  13.536 -1.2991  0.0912  1.2509
 1965SOL     OW17353   0.378   3.169   7.115  0.0072  0.0433  0.0448
 1965SOL    HW117354   0.468   3.181   7.085 -0.3811 -1.0562 -1.5194
 1965SOL    HW217355   0.355   3.260   7.134 -0.6072  0.1121 -1.0813
 1966SOL     OW17356   0.567   1.764  12.117  0.3685  0.1232  0.2652
 1966SOL    HW117357   0.481   1.738  12.151 -0.9625  1.7003 -1.8569
 1966SOL    HW217358   0.583   1.838  12.176 -0.4713  0.1172  0.5012
 1967SOL     OW17359   3.528   1.177   8.755 -0.1208 -0.0055  0.6340
 1967SOL    HW117360   3.516   1.256   8.702 -0.8395 -0.8376 -0.4510
 1967SOL    HW217361   3.580   1.209   8.829  1.9267  2.7548 -1.9785
 1968SOL     OW17362   0.962   1.604   6.465  0.1341 -0.3019  0.0458
 1968SOL    HW117363   0.969   1.536   6.532  2.3202  1.2673  1.3881
 1968SOL    HW217364   0.986   1.681   6.517 -1.8720  0.4166 -0.0800
 1969SOL     OW17365   1.958   3.711   6.039 -0.3078 -0.1126 -0.0744
 1969SOL    HW117366   1.875   3.748   6.068 -0.5756 -0.1532 -0.8104
 1969SOL    HW217367   1.959   3.727   5.945  2.0958 -0.5733 -0.1269
 1970SOL     OW17368   4.544   0.996   1.249 -0.1648 -0.0677 -0.0176
 1970SOL    HW117369   4.505   1.041   1.174 -1.1638 -1.3357 -0.2450
 1970SOL    HW217370   4.617   0.945   1.213  1.7678  2.8250 -0.1943
 1971SOL     OW17371   1.676   2.237   6.078 -0.4034  0.2180 -0.4505
 1971SOL    HW117372   1.708   2.239   6.168  0.8089  1.0470 -0.9065
 1971SOL    HW217373   1.723   2.310   6.040 -2.0582  1.0565 -0.9009
 1972SOL     OW17374   1.349   1.301  10.312  0.4463  0.0088  0.3461
 1972SOL    HW117375   1.443   1.280  10.305  0.4164  0.5586 -1.6329
 1972SOL    HW217376   1.336   1.380  10.259  0.0705 -0.1199  0.2514
 1973SOL     OW17377   3.961   3.292   4.453 -0.1457  0.2531  0.2994
 1973SOL    HW117378   3.869   3.265   4.450  0.5442 -2.0902  0.4195
 1973SOL    HW217379   3.948   3.385   4.473 -0.5908  0.3549 -0.4547
 1974SOL     OW17380   0.289   0.784  11.766  0.1017  0.7554  0.2519
 1974SOL    HW117381   0.241   0.855  11.807 -0.5738 -1.5580  3.4681
 1974SOL    HW217382   0.376   0.800  11.803  0.6708 -0.2520 -0.6240
 1975SOL     OW17383   4.146   0.065  10.997 -0.2587 -0.2292  0.0775
 1975SOL    HW117384   4.155   0.024  11.082  0.6861 -2.3420 -1.0494
 1975SOL    HW217385   4.234   0.079  10.962 -0.6800  1.1880 -0.4332
 1976SOL     OW17386   3.758   1.090   4.443  0.0873 -0.3051  0.0646
 1976SOL    HW117387   3.748   1.138   4.525 -0.0660  0.3178 -0.3179
 1976SOL    HW217388   3.834   1.134   4.404  1.0853 -0.4730  1.8169
 1977SOL     OW17389   1.621   4.386  16.559  0.2570  0.3101  0.4865
 1977SOL    HW117390   1.549   4.342  16.604  0.7259 -0.1394  0.7965
 1977SOL    HW217391   1.690   4.329  16.592  0.2881 -0.1514 -0.3813
 1978SOL     OW17392   1.289   2.076  15.730  0.0331  0.3866 -0.3047
 1978SOL    HW117393   1.198   2.067  15.700 -0.1634  1.9557 -0.2270
 1978SOL    HW217394   1.328   2.102  15.646  0.4746 -2.2983 -0.9029
 1979SOL     OW17395   4.629   4.335  16.439  0.0753 -0.1163  0.7795
 1979SOL    HW117396   4.595   4.249  16.465 -2.1862  1.0325  1.6871
 1979SOL    HW217397   4.572   4.394  16.487  0.2088  0.6646 -0.0229
 1980SOL     OW17398   1.180   3.739   4.548 -0.3259 -0.1046 -0.2023
 1980SOL    HW117399   1.152   3.743   4.639 -0.5107 -1.7009 -0.1858
 1980SOL    HW217400   1.212   3.825   4.522 -0.2579 -0.3081 -0.8100
 1981SOL     OW17401   2.771   2.749  14.570  0.0969  0.7650  0.4800
 1981SOL    HW117402   2.769   2.763  14.665 -2.7777 -0.3750  0.5981
 1981SOL    HW217403   2.820   2.667  14.575 -1.0628  0.1053  1.0811
 1982SOL     OW17404   0.238   1.305   0.349  0.3254  0.7496  0.7224
 1982SOL    HW117405   0.154   1.262   0.331  0.6348 -0.0691  1.2164
 1982SOL    HW217406   0.246   1.262   0.434  0.9868  1.6221  1.0936
 1983SOL     OW17407   4.011   4.178   2.738 -0.0462  0.3632 -0.2364
 1983SOL    HW117408   4.080   4.171   2.673 -1.8279  1.5670 -2.2328
 1983SOL    HW217409   3.984   4.265   2.710 -3.3214  0.2968  2.6001
 1984SOL     OW17410   2.416   4.154  14.113 -0.1012  0.1374  0.4986
 1984SOL    HW117411   2.457   4.138  14.198  2.9935  0.8484 -0.8649
 1984SOL    HW217412   2.402   4.248  14.122 -0.4977  0.1783 -0.5503
 1985SOL     OW17413   1.428   1.179   6.014 -0.0810 -0.4994 -0.4099
 1985SOL    HW117414   1.386   1.151   6.095  0.4099 -2.2289 -0.7612
 1985SOL    HW217415   1.519   1.191   6.042  0.2409  0.9693 -2.1018
 1986SOL     OW17416   3.099   1.145   3.088 -0.0311  0.2652  0.4170
 1986SOL    HW117417   3.033   1.211   3.068  1.4233  1.4034 -0.6262
 1986SOL    HW217418   3.070   1.107   3.171 -1.8908  1.3993  0.2732
 1987SOL     OW17419   0.585   3.486   5.600 -0.1994 -0.1634 -0.2422
 1987SOL    HW117420   0.519   3.447   5.542 -2.8181  1.6610  1.5167
 1987SOL    HW217421   0.651   3.522   5.541  0.3069 -0.1471  0.3366
 1988SOL     OW17422   1.304   0.005   3.067  0.3003  0.1748  0.1374
 1988SOL    HW117423   1.254   0.067   3.013 -1.6412 -0.0762  1.6790
 1988SOL    HW217424   1.248   4.648   3.068  2.6933 -1.5161  1.7685
 1989SOL     OW17425   0.375   1.996   2.380 -0.1383 -0.1499 -0.5370
 1989SOL    HW117426   0.394   1.999   2.286 -1.0921  0.0774 -0.7220
 1989SOL    HW217427   0.346   2.085   2.401 -0.2846 -0.3616  0.1315
 1990SOL     OW17428   4.047   0.602  17.587 -0.3604  0.1828 -0.5063
 1990SOL    HW117429   4.049   0.687  17.630  0.7330  0.7350 -1.6643
 1990SOL    HW217430   4.105   0.553  17.646 -1.5842  0.3365  0.8344
 1991SOL     OW17431   4.160   0.287   3.383 -0.3454  0.1823  0.4233
 1991SOL    HW117432   4.120   0.357   3.331 -0.4076 -0.1476  0.0228
 1991SOL    HW217433   4.236   0.282   3.326 -1.5199  3.2308 -1.4414
 1992SOL     OW17434   4.023   1.460  11.527  0.2990 -0.0896  0.1365
 1992SOL    HW117435   3.947   1.404  11.541 -0.9588  1.2007 -1.4360
 1992SOL    HW217436   4.091   1.400  11.496  0.2150  1.0716 -2.2946
 1993SOL     OW17437   3.812   0.613   8.528  0.3839 -0.1928 -0.8261
 1993SOL    HW117438   3.718   0.599   8.513  0.5109  0.0983 -1.9428
 1993SOL    HW217439   3.838   0.527   8.494 -1.6050 -1.9704  2.1906
 1994SOL     OW17440   3.300   4.484   4.848 -0.0193 -0.1127  0.5430
 1994SOL    HW117441   3.381   4.536   4.839 -0.2189  0.1782  0.4235
 1994SOL    HW217442   3.334   4.398   4.823 -0.6838 -0.1412 -0.2257
 1995SOL     OW17443   4.045   1.646   8.105  0.6555 -0.2169 -0.1701
 1995SOL    HW117444   4.020   1.571   8.053  0.1393 -1.2082  1.5050
 1995SOL    HW217445   3.969   1.702   8.093  0.9238 -0.2081 -1.8176
 1996SOL     OW17446   2.944   3.575   5.052 -0.2396  0.0890 -0.2179
 1996SOL    HW117447   2.869   3.622   5.016 -0.6032  2.1645  3.2457
 1996SOL    HW217448   3.017   3.602   4.995  0.9641 -1.9569  0.3521
 1997SOL     OW17449   1.914   4.288  12.561 -0.2045  0.2403  0.3067
 1997SOL    HW117450   1.877   4.326  12.481 -1.7921  0.8599  1.3192
 1997SOL    HW217451   2.000   4.328  12.568  0.1186 -0.4289  0.1706
 1998SOL     OW17452   4.271   1.751   7.053  0.6266 -0.1473  0.1264
 1998SOL    HW117453   4.303   1.792   6.973 -0.2315 -0.7149 -0.5005
 1998SOL    HW217454   4.265   1.662   7.018  0.6307  0.1286 -0.5787
 1999SOL     OW17455   3.303   4.664   6.484 -0.1541  0.0590 -0.0026
 1999SOL    HW117456   3.219   4.624   6.464  0.0619  0.1347 -1.0751
 1999SOL    HW217457   3.287   0.033   6.455 -0.8968 -0.0539  0.0645
 2000SOL     OW17458   4.693   0.327   4.634 -0.3059  0.0712 -0.1930
 2000SOL    HW117459   0.043   0.342   4.698  1.6367  0.3093 -2.3763
 2000SOL    HW217460   4.640   0.406   4.643  0.3638  0.4193  0.7932
 2001SOL     OW17461   3.058   0.689  12.752 -0.3639 -0.0465 -0.6112
 2001SOL    HW117462   3.100   0.617  12.705  1.2854  0.4729  0.0665
 2001SOL    HW217463   3.020   0.641  12.826 -0.2690  1.0762  0.1566
 2002SOL     OW17464   0.755   2.044   8.166  0.1801 -0.1666  0.0994
 2002SOL    HW117465   0.760   2.116   8.104  2.2258 -0.1960  0.2204
 2002SOL    HW217466   0.663   2.048   8.191 -0.2195 -0.3633 -1.3433
 2003SOL     OW17467   1.285   2.721   7.537  0.5149  0.0027 -0.8102
 2003SOL    HW117468   1.191   2.708   7.545  0.6859 -1.1463 -0.7314
 2003SOL    HW217469   1.301   2.785   7.606 -2.0777  0.6659 -0.8344
 2004SOL     OW17470   0.530   1.928   8.568 -0.0392 -0.0350 -0.2358
 2004SOL    HW117471   0.527   2.017   8.533 -0.8621  0.4641  1.1155
 2004SOL    HW217472   0.618   1.900   8.544 -0.7356 -0.8401 -1.8511
 2005SOL     OW17473   0.722   4.665  13.525 -0.2804 -0.0850  0.1139
 2005SOL    HW117474   0.647   4.677  13.467  0.3075 -0.7578 -0.7849
 2005SOL    HW217475   0.707   4.577  13.558  0.2824  1.0050  3.2847
 2006SOL     OW17476   1.903   1.530   8.262 -0.1383 -1.0529  0.2026
 2006SOL    HW117477   1.924   1.493   8.177 -0.4081  0.0511 -0.3356
 2006SOL    HW217478   1.934   1.620   8.256  0.4538 -1.3111 -0.5306
 2007SOL     OW17479   0.017   0.974   8.129  0.5299 -0.0161  0.1172
 2007SOL    HW117480   4.684   0.991   8.207  3.1503  0.1455  1.8526
 2007SOL    HW217481   4.671   0.925   8.079  0.4773  1.3860 -1.2379
 2008SOL     OW17482   2.806   4.245   2.274 -0.7984 -0.0770 -0.0382
 2008SOL    HW117483   2.824   4.321   2.218 -0.6836  0.2186  0.4038
 2008SOL    HW217484   2.751   4.278   2.345 -0.4175 -0.5468  0.4751
 2009SOL     OW17485   0.947   2.362  17.617 -0.0958 -0.0832  0.4158
 2009SOL    HW117486   0.885   2.294  17.645  0.1172 -0.3039  0.3507
 2009SOL    HW217487   1.020   2.304  17.594 -0.5552 -0.8425  0.8589
 2010SOL     OW17488   2.232   0.623  15.945  0.3000 -0.1025 -0.6840
 2010SOL    HW117489   2.251   0.716  15.935  0.8760 -0.0374  1.0464
 2010SOL    HW217490   2.313   0.584  15.914  0.9170  0.4307  0.2733
 2011SOL     OW17491   4.375   2.794  16.091 -0.1780  0.2874 -0.0730
 2011SOL    HW117492   4.338   2.830  16.010 -0.0305 -0.0480 -0.2858
 2011SOL    HW217493   4.440   2.729  16.067  0.1589 -0.1005  1.8268
 2012SOL     OW17494   1.807   0.763  16.604  0.7516 -0.0942 -0.3419
 2012SOL    HW117495   1.823   0.758  16.509 -0.4706 -0.0580 -0.5519
 2012SOL    HW217496   1.883   0.729  16.650  1.0047  0.7784 -0.1236
 2013SOL     OW17497   4.070   1.934   8.664 -0.1986  0.5565  0.5494
 2013SOL    HW117498   4.038   2.017   8.699 -2.9585 -0.3550  0.2287
 2013SOL    HW217499   4.114   1.902   8.742 -0.7485 -0.7877  0.3084
 2014SOL     OW17500   1.452   0.902   0.471 -0.0621 -0.3223 -0.4076
 2014SOL    HW117501   1.397   0.934   0.542  0.4849  0.8903 -0.5260
 2014SOL    HW217502   1.540   0.887   0.506 -0.0059  1.2621  0.1560
 2015SOL     OW17503   3.322   1.066   1.876 -0.5559 -0.3560  0.1885
 2015SOL    HW117504   3.359   1.075   1.964 -0.0458 -0.7847  0.0119
 2015SOL    HW217505   3.252   1.002   1.893 -2.5708  1.4868 -1.2197
 2016SOL     OW17506   1.762   3.744  10.346 -0.2801  0.1464 -0.4834
 2016SOL    HW117507   1.685   3.688  10.343  1.6220 -2.5307  0.8992
 2016SOL    HW217508   1.769   3.761  10.440 -3.3022  0.0569 -0.2426
 2017SOL     OW17509   4.236   3.628   5.275  0.0293  0.5992 -0.7099
 2017SOL    HW117510   4.255   3.702   5.332 -0.3995  0.6020 -0.5707
 2017SOL    HW217511   4.140   3.634   5.278 -0.2494 -3.5144 -1.1994
 2018SOL     OW17512   1.152   3.775   8.010  0.4198 -0.1991  0.0949
 2018SOL    HW117513   1.225   3.765   7.950 -2.1461 -1.5488 -2.7824
 2018SOL    HW217514   1.122   3.689   8.040 -0.1323 -0.3789 -0.9995
 2019SOL     OW17515   2.661   3.461   5.128 -0.1438 -0.0883 -0.3268
 2019SOL    HW117516   2.645   3.409   5.207  1.9072 -1.7328 -0.9803
 2019SOL    HW217517   2.574   3.483   5.094  0.2465  1.7631 -0.1040
 2020SOL     OW17518   4.205   0.073  13.740  0.1115  0.8512 -0.0430
 2020SOL    HW117519   4.276   0.134  13.758  2.0814 -0.9569 -1.6505
 2020SOL    HW217520   4.199   0.035  13.827 -2.0588  1.1520 -0.0669
 2021SOL     OW17521   1.104   1.366   3.808 -0.2630 -0.2388 -0.4253
 2021SOL    HW117522   1.172   1.308   3.842  0.6029  0.8581 -0.2811
 2021SOL    HW217523   1.042   1.347   3.879 -0.4310  2.3395  0.1307
 2022SOL     OW17524   2.206   2.558   3.372 -0.0916 -0.0403  0.0501
 2022SOL    HW117525   2.230   2.627   3.310  1.1953  0.1775  0.7894
 2022SOL    HW217526   2.290   2.517   3.389  0.8049  2.1469  0.8354
 2023SOL     OW17527   3.991   2.335  13.279  0.1456  0.2123 -0.1574
 2023SOL    HW117528   4.033   2.415  13.311 -1.0671  0.5207  0.6717
 2023SOL    HW217529   3.945   2.372  13.203  1.1222 -1.4534 -1.5727
 2024SOL     OW17530   1.133   2.646   6.344  0.1227 -1.1228  0.3779
 2024SOL    HW117531   1.061   2.584   6.332 -0.4152 -0.3603 -0.3911
 2024SOL    HW217532   1.200   2.586   6.377  1.0254 -0.5161 -0.3524
 2025SOL     OW17533   4.093   1.336   7.654 -0.4184  0.4245 -0.6949
 2025SOL    HW117534   4.164   1.383   7.611  1.3843  0.6473  2.5037
 2025SOL    HW217535   4.027   1.405   7.643 -0.0007  1.2647  1.8945
 2026SOL     OW17536   1.424   3.257   4.463  0.0253  0.7213  0.3319
 2026SOL    HW117537   1.348   3.315   4.460  0.7178  1.7120  2.1294
 2026SOL    HW217538   1.419   3.234   4.555 -1.8823  0.5907  0.1973
 2027SOL     OW17539   3.794   1.917   0.272  0.0191 -0.9699  0.4653
 2027SOL    HW117540   3.807   1.853   0.343  0.1604  0.3098  1.5940
 2027SOL    HW217541   3.700   1.925   0.288  0.1238  1.6204 -0.2995
 2028SOL     OW17542   2.638   2.106   8.757  0.5381 -0.5506 -0.5732
 2028SOL    HW117543   2.596   2.021   8.771  2.0283 -1.3509 -1.0249
 2028SOL    HW217544   2.602   2.122   8.670  0.9524 -0.8610 -0.8001
 2029SOL     OW17545   2.039   3.417   4.034  0.3169  0.4369  0.1349
 2029SOL    HW117546   2.049   3.395   4.127  1.7466 -0.4335 -0.2146
 2029SOL    HW217547   2.105   3.359   3.996 -1.4496 -0.4044 -1.6225
 2030SOL     OW17548   2.628   2.024   5.771 -0.7688 -0.0067  0.3596
 2030SOL    HW117549   2.665   2.082   5.837  0.0769  1.9786 -1.8389
 2030SOL    HW217550   2.601   2.082   5.700 -1.7354  1.2062  1.7178
 2031SOL     OW17551   2.394   3.449   3.117 -0.1085 -0.1483  0.8355
 2031SOL    HW117552   2.461   3.502   3.160  0.7794 -0.8149  0.2887
 2031SOL    HW217553   2.382   3.485   3.029  0.8622  1.2115  1.2571
 2032SOL     OW17554   1.730   2.957  13.715 -0.4339  0.3868  0.0818
 2032SOL    HW117555   1.803   2.970  13.654  0.1219  0.9606  0.8571
 2032SOL    HW217556   1.768   2.898  13.779 -0.6631  1.4059  1.1644
 2033SOL     OW17557   1.087   3.046   5.058 -0.1418 -0.1592 -0.2793
 2033SOL    HW117558   1.082   3.107   4.985  2.4408  1.2568  0.6952
 2033SOL    HW217559   0.995   3.022   5.068  0.2509 -1.6542 -0.3676
 2034SOL     OW17560   0.369   1.757   6.242 -0.3586 -0.3107 -0.3984
 2034SOL    HW117561   0.361   1.679   6.297 -1.9481  0.6612  0.7321
 2034SOL    HW217562   0.464   1.765   6.231 -0.5385  0.9221 -0.9595
 2035SOL     OW17563   2.695   4.494  15.751 -0.4461 -0.8507 -0.1931
 2035SOL    HW117564   2.777   4.536  15.775 -0.0544  0.4652 -3.8013
 2035SOL    HW217565   2.636   4.566  15.773  1.9545  0.7978  0.8171
 2036SOL     OW17566   2.604   1.929   4.874 -0.5262  0.0660  0.2104
 2036SOL    HW117567   2.589   1.909   4.782  2.4022 -1.7519  0.1329
 2036SOL    HW217568   2.515   1.925   4.909 -0.9121  1.6110 -0.5959
 2037SOL     OW17569   4.626   2.313   5.686  0.2805  0.2906  0.2337
 2037SOL    HW117570   4.621   2.367   5.765  1.2484  0.0664  0.4475
 2037SOL    HW217571   4.621   2.379   5.618  1.1915 -0.3761 -0.4741
 2038SOL     OW17572   3.997   2.021   3.286  0.2213 -0.0881 -0.1488
 2038SOL    HW117573   3.994   2.052   3.195  0.9165 -1.3468 -0.6015
 2038SOL    HW217574   3.951   2.089   3.335 -1.6452 -0.2109 -1.7339
 2039SOL     OW17575   1.236   0.157   2.285  0.7293 -0.2826  0.6168
 2039SOL    HW117576   1.309   0.150   2.223  0.3061 -0.6438  0.1631
 2039SOL    HW217577   1.202   0.068   2.281  0.5632 -0.2389  1.0884
 2040SOL     OW17578   3.742   2.680  14.452 -0.2638  0.2236 -0.4316
 2040SOL    HW117579   3.825   2.679  14.406 -1.4780  0.2570 -2.5980
 2040SOL    HW217580   3.710   2.770  14.443 -0.8133  0.0956  0.1402
 2041SOL     OW17581   2.458   1.818  11.580 -0.1959 -0.8300  0.4572
 2041SOL    HW117582   2.479   1.893  11.635 -1.2571 -0.1425 -0.0680
 2041SOL    HW217583   2.390   1.863  11.530 -0.8035  0.3539  2.3380
 2042SOL     OW17584   2.895   1.571   8.807 -0.0588  0.5515  0.5920
 2042SOL    HW117585   2.947   1.549   8.730 -0.7804  1.4511 -0.1498
 2042SOL    HW217586   2.906   1.666   8.803  1.5059  0.3847  0.7586
 2043SOL     OW17587   3.389   4.156   5.704 -0.0489  0.2448 -0.0369
 2043SOL    HW117588   3.454   4.098   5.663 -2.0637 -1.3570 -1.0041
 2043SOL    HW217589   3.436   4.191   5.780  0.6078  1.0169 -0.8022
 2044SOL     OW17590   3.631   3.835   1.420  0.3108 -0.0597 -0.7110
 2044SOL    HW117591   3.609   3.888   1.343  0.5767  0.2973 -0.5444
 2044SOL    HW217592   3.698   3.775   1.389  2.6368  1.4539  1.4047
 2045SOL     OW17593   2.702   0.666   7.275 -0.5502 -0.4028  0.0032
 2045SOL    HW117594   2.691   0.573   7.258 -1.5262 -0.1155 -0.9306
 2045SOL    HW217595   2.712   0.698   7.185 -0.8994 -1.2125 -0.3218
 2046SOL     OW17596   4.286   3.260   6.611  0.8739  0.5261  0.8003
 2046SOL    HW117597   4.207   3.313   6.607 -2.3139 -4.1492  0.9048
 2046SOL    HW217598   4.354   3.326   6.603  2.6234 -1.3239  0.3242
 2047SOL     OW17599   1.379   0.015   2.109  0.1664 -0.1449 -0.1470
 2047SOL    HW117600   1.350   4.700   2.025  1.3120 -0.0542 -0.5725
 2047SOL    HW217601   1.473   0.004   2.101  0.2282  2.9569 -3.8258
 2048SOL     OW17602   3.872   1.268  10.485  0.5015  0.1438  0.5096
 2048SOL    HW117603   3.944   1.270  10.549  1.3580 -1.0402 -0.4246
 2048SOL    HW217604   3.909   1.269  10.397  2.0051 -0.5405  1.1359
 2049SOL     OW17605   3.951   2.953   7.535  0.2739  0.0645 -0.4569
 2049SOL    HW117606   3.913   2.985   7.617 -1.3003  0.1303 -1.2015
 2049SOL    HW217607   3.985   2.872   7.573  0.7752  0.6593  0.3586
 2050SOL     OW17608   2.476   3.722   5.028 -0.1699 -0.1192  0.0269
 2050SOL    HW117609   2.451   3.761   4.944 -0.1924 -0.7858 -0.2842
 2050SOL    HW217610   2.458   3.628   5.023 -0.0856  0.0234 -2.9032
 2051SOL     OW17611   1.294   3.810   2.989 -0.1998  0.0371  0.0422
 2051SOL    HW117612   1.293   3.793   3.083 -3.3232 -0.2821 -0.0487
 2051SOL    HW217613   1.224   3.750   2.962  1.2205 -1.9681  0.8657
 2052SOL     OW17614   4.420   2.725   4.012  0.2827 -1.0764  0.3960
 2052SOL    HW117615   4.511   2.742   3.986 -0.1418  0.3121 -0.1652
 2052SOL    HW217616   4.438   2.666   4.085 -2.0064 -0.1505  1.6984
 2053SOL     OW17617   1.126   1.434  10.467  0.0035 -0.2958  0.1820
 2053SOL    HW117618   1.059   1.431  10.398  0.1550 -1.3024  0.0705
 2053SOL    HW217619   1.203   1.408  10.416  1.0315 -0.3232  1.7375
 2054SOL     OW17620   1.249   0.971   7.723  0.2026  0.0030  0.3399
 2054SOL    HW117621   1.321   1.025   7.755 -0.5767 -1.3264  4.2679
 2054SOL    HW217622   1.189   1.036   7.685  0.5765 -0.9978 -1.9918
 2055SOL     OW17623   3.124   2.410  11.631  0.8391 -0.2167  0.3581
 2055SOL    HW117624   3.114   2.446  11.719  2.1691 -0.1124  0.4675
 2055SOL    HW217625   3.068   2.470  11.581  0.6249 -0.0574  0.7963
 2056SOL     OW17626   2.575   1.219   4.354 -0.8860  0.2745 -0.0981
 2056SOL    HW117627   2.554   1.313   4.349  0.8636  0.7139  0.8038
 2056SOL    HW217628   2.671   1.213   4.355 -0.9230 -0.2199  0.2944
 2057SOL     OW17629   0.629   1.786   6.175  0.0653 -0.1778 -0.3512
 2057SOL    HW117630   0.716   1.823   6.157  0.3140 -0.1656  0.9068
 2057SOL    HW217631   0.623   1.730   6.098 -1.3022  2.2596 -2.0407
 2058SOL     OW17632   0.819   0.692   3.816  0.3277  0.8240  0.3183
 2058SOL    HW117633   0.759   0.622   3.791  3.1483 -0.9272 -1.5087
 2058SOL    HW217634   0.859   0.661   3.898 -0.0868 -0.8447 -0.1004
 2059SOL     OW17635   2.410   2.808   5.645  0.4968  0.1394 -0.3351
 2059SOL    HW117636   2.493   2.768   5.618  1.1832  0.3011  1.5511
 2059SOL    HW217637   2.401   2.758   5.726  0.4098 -0.8130 -0.9237
 2060SOL     OW17638   3.970   4.390   5.055 -0.1915  0.8105  0.7841
 2060SOL    HW117639   3.879   4.418   5.065 -0.1039  1.2858  0.2522
 2060SOL    HW217640   3.971   4.319   5.119 -0.7938  2.5519  2.7121
 2061SOL     OW17641   3.890   2.487   5.164  0.2171  0.0149  0.2449
 2061SOL    HW117642   3.889   2.569   5.213 -2.6295  1.3924 -2.1157
 2061SOL    HW217643   3.810   2.442   5.192  0.5972 -0.1351  1.0825
 2062SOL     OW17644   3.978   2.100   3.676  0.2176 -0.1484 -0.7564
 2062SOL    HW117645   4.058   2.086   3.626  0.0406  0.5560 -1.2425
 2062SOL    HW217646   3.980   2.193   3.697  1.0470 -0.5204  0.8033
 2063SOL     OW17647   2.710   1.638  15.206 -0.6648 -0.3689 -0.1373
 2063SOL    HW117648   2.719   1.644  15.301 -0.4752  0.1760 -0.1920
 2063SOL    HW217649   2.796   1.671  15.180 -0.2593 -0.3491  1.1973
 2064SOL     OW17650   0.829   1.435   2.696  0.1870  0.2150 -0.3988
 2064SOL    HW117651   0.922   1.440   2.719  0.4314 -0.2931 -1.2615
 2064SOL    HW217652   0.804   1.343   2.707 -0.5716  0.5125  0.3930
 2065SOL     OW17653   4.104   4.306   1.109  0.0612  0.6092  0.0433
 2065SOL    HW117654   4.190   4.336   1.081  0.9650 -0.3174  1.8290
 2065SOL    HW217655   4.119   4.257   1.190  0.7586  2.1841  0.8614
 2066SOL     OW17656   0.673   0.376   8.554 -0.0367  0.1717 -0.6069
 2066SOL    HW117657   0.729   0.409   8.625 -0.7996  1.7408 -0.7340
 2066SOL    HW217658   0.591   0.416   8.583 -1.7052 -2.0100 -2.3344
 2067SOL     OW17659   2.782   1.884   5.411  0.2524 -0.2774 -0.3636
 2067SOL    HW117660   2.716   1.863   5.345 -1.7850  3.6695  0.4016
 2067SOL    HW217661   2.739   1.834   5.480 -2.1006 -0.4137 -1.9149
 2068SOL     OW17662   4.712   1.668   7.809  0.1860  0.4028 -0.3392
 2068SOL    HW117663   0.029   1.756   7.822 -0.6331  0.6441  0.3204
 2068SOL    HW217664   0.022   1.649   7.720  0.1898  2.1105 -0.7081
 2069SOL     OW17665   0.149   2.118   8.799  1.2307 -0.9991  0.7594
 2069SOL    HW117666   0.162   2.179   8.872 -0.5111  0.6865 -0.3156
 2069SOL    HW217667   0.228   2.064   8.804  1.9117 -0.4790 -3.8182
 2070SOL     OW17668   3.116   2.168  12.771  0.1819 -0.3808 -0.0199
 2070SOL    HW117669   3.156   2.109  12.836 -0.9247  0.4969  1.4673
 2070SOL    HW217670   3.184   2.230  12.747 -0.0401  0.4365  1.4654
 2071SOL     OW17671   4.304   1.174   8.407  0.2545  0.1346  0.4112
 2071SOL    HW117672   4.283   1.252   8.357 -1.2663 -0.5394  0.0124
 2071SOL    HW217673   4.240   1.107   8.382  0.7061  0.1343 -0.7608
 2072SOL     OW17674   3.362   4.099  17.568 -0.0987  0.3373  0.4546
 2072SOL    HW117675   3.333   4.181  17.610  1.6273  0.1704  1.9837
 2072SOL    HW217676   3.412   4.133  17.494  0.2933 -2.3273 -0.5042
 2073SOL     OW17677   1.756   1.633   6.455  0.7049  0.2287 -0.6401
 2073SOL    HW117678   1.782   1.659   6.544 -0.7547  1.4598 -0.5725
 2073SOL    HW217679   1.829   1.572   6.439  0.4817 -0.5740  1.3084
 2074SOL     OW17680   1.354   4.647   8.875 -0.1734 -0.3003  0.1876
 2074SOL    HW117681   1.439   4.636   8.917 -0.2276 -0.5788  0.2275
 2074SOL    HW217682   1.327   0.013   8.907  0.4550 -0.2383  0.5427
 2075SOL     OW17683   2.632   0.049   3.298  0.3603 -0.2428  0.2877
 2075SOL    HW117684   2.686   0.128   3.293 -1.0693  0.7977  1.4037
 2075SOL    HW217685   2.680   4.711   3.239  0.1096 -1.2741  1.1179
 2076SOL     OW17686   0.428   3.846   4.811 -0.5922 -0.1470  0.5606
 2076SOL    HW117687   0.521   3.826   4.798 -0.6229  0.2705 -0.3490
 2076SOL    HW217688   0.392   3.761   4.835 -0.3509 -0.6140 -0.7143
 2077SOL     OW17689   0.349   1.861   1.655  0.4466 -0.1922  0.0444
 2077SOL    HW117690   0.342   1.775   1.696  0.3857 -0.0111  0.4103
 2077SOL    HW217691   0.444   1.870   1.662  0.6762  0.0814 -3.2447
 2078SOL     OW17692   2.328   1.472   1.292  0.3415 -0.5676 -0.1825
 2078SOL    HW117693   2.285   1.394   1.329 -0.5192  0.1283  0.3103
 2078SOL    HW217694   2.364   1.509   1.373 -0.9226  1.0947 -0.3773
 2079SOL     OW17695   3.298   0.073   1.413 -0.1480  0.5253 -0.6418
 2079SOL    HW117696   3.208   0.049   1.437  0.1943  2.3125  2.4015
 2079SOL    HW217697   3.341   4.713   1.444 -0.9184 -0.1620 -1.3714
 2080SOL     OW17698   1.309   0.339   9.069 -0.3108 -0.5373  1.0264
 2080SOL    HW117699   1.237   0.392   9.037  1.3192 -0.0338 -1.8025
 2080SOL    HW217700   1.281   0.267   9.013 -0.5015 -0.6574  1.2766
 2081SOL     OW17701   2.255   3.081   2.470 -0.5791 -0.3334 -0.0171
 2081SOL    HW117702   2.226   3.000   2.512  1.8217  0.3994  3.0867
 2081SOL    HW217703   2.221   3.141   2.536 -0.9739  0.5938 -1.0789
 2082SOL     OW17704   0.675   2.468   8.482  0.2350  0.1596 -0.4184
 2082SOL    HW117705   0.769   2.481   8.496  0.2917  1.6943 -2.1789
 2082SOL    HW217706   0.688   2.439   8.391 -0.1040 -0.3358 -0.3073
 2083SOL     OW17707   0.618   0.018   6.663  0.0294  0.2790  0.0116
 2083SOL    HW117708   0.557   4.665   6.656  1.4244 -1.2327  3.8561
 2083SOL    HW217709   0.639   0.038   6.572 -1.3509  0.0435 -0.3614
 2084SOL     OW17710   4.231   4.328   7.029  0.0305  0.6222  0.0649
 2084SOL    HW117711   4.309   4.331   7.085 -0.6889  0.6973  1.0715
 2084SOL    HW217712   4.264   4.266   6.964 -1.8632 -1.6989  1.2805
 2085SOL     OW17713   3.635   4.513   7.447 -0.1041  0.2520  0.6328
 2085SOL    HW117714   3.568   4.564   7.492 -0.5539  0.1837  0.0450
 2085SOL    HW217715   3.718   4.519   7.495  0.1367  2.4400 -0.0753
 2086SOL     OW17716   1.210   3.457   7.793 -0.0988  0.1151  0.0447
 2086SOL    HW117717   1.248   3.521   7.733 -0.1349  0.7836  0.7242
 2086SOL    HW217718   1.288   3.420   7.834  0.3925 -0.0551 -1.0600
 2087SOL     OW17719   0.773   1.480  13.743  0.2797 -0.6914  0.7202
 2087SOL    HW117720   0.773   1.425  13.821  0.4918 -0.5510  0.8172
 2087SOL    HW217721   0.771   1.406  13.682  0.3224  0.0742 -0.2063
 2088SOL     OW17722   4.247   0.143  14.973 -0.1272 -0.0818 -0.0097
 2088SOL    HW117723   4.231   0.049  14.972 -0.2574 -0.0596 -0.0363
 2088SOL    HW217724   4.157   0.176  14.966  0.0072  0.7779  2.6301
 2089SOL     OW17725   0.015   1.241   8.301  0.3004  0.5138  0.0071
 2089SOL    HW117726   4.686   1.293   8.365  1.6550  1.3025  0.3864
 2089SOL    HW217727   4.681   1.162   8.301 -1.2651  1.5779 -0.3141
 2090SOL     OW17728   3.467   1.677  16.392  0.2523  0.3275 -0.1824
 2090SOL    HW117729   3.378   1.685  16.426  0.7677  1.1177  0.9875
 2090SOL    HW217730   3.505   1.606  16.445  0.4376 -0.6483 -1.6203
 2091SOL     OW17731   1.747   3.342   2.398 -0.6102 -0.1046 -0.4166
 2091SOL    HW117732   1.711   3.282   2.464  0.7060  0.5861  0.9428
 2091SOL    HW217733   1.840   3.350   2.421 -1.1490 -3.5234  2.9729
 2092SOL     OW17734   1.603   1.886  17.387 -0.1504 -0.2618  0.1643
 2092SOL    HW117735   1.638   1.895  17.299 -0.0097  1.3768  0.3852
 2092SOL    HW217736   1.611   1.791  17.398  3.0511  0.0308  0.2456
 2093SOL     OW17737   1.912   4.230  14.197 -0.3725  0.0149  0.0061
 2093SOL    HW117738   1.977   4.187  14.142  1.3047  2.9131 -0.3059
 2093SOL    HW217739   1.872   4.149  14.228 -0.5307 -0.0190 -0.2894
 2094SOL     OW17740   3.773   2.372   8.863 -0.1604 -0.5964  0.0635
 2094SOL    HW117741   3.806   2.456   8.831 -0.1877 -0.7618 -0.4144
 2094SOL    HW217742   3.831   2.367   8.939 -0.9453  0.1565  0.7001
 2095SOL     OW17743   2.347   2.357  12.268 -0.0180  0.0810  0.1951
 2095SOL    HW117744   2.337   2.358  12.363 -1.0911  2.1675  0.0367
 2095SOL    HW217745   2.397   2.276  12.260 -0.1555 -0.0625  0.7776
 2096SOL     OW17746   0.816   4.068   8.592 -0.0625  0.0967 -0.4698
 2096SOL    HW117747   0.863   4.151   8.587 -1.0312  0.5537 -1.8295
 2096SOL    HW217748   0.730   4.108   8.606  0.9280  2.0463  0.0473
 2097SOL     OW17749   0.456   4.086   3.185  0.6511  0.1933 -0.0433
 2097SOL    HW117750   0.377   4.127   3.220  0.7389  2.1214 -2.0764
 2097SOL    HW217751   0.449   4.106   3.092 -0.1248 -0.6110 -0.1622
 2098SOL     OW17752   1.142   1.654   4.524  0.5845  0.2520 -0.6131
 2098SOL    HW117753   1.171   1.641   4.434  2.8472  0.6318  0.0619
 2098SOL    HW217754   1.215   1.626   4.578  0.7882  0.2314 -0.9032
 2099SOL     OW17755   3.173   0.860  13.363  0.1571  0.0798 -0.1943
 2099SOL    HW117756   3.267   0.840  13.370  0.4325  1.7220  0.7893
 2099SOL    HW217757   3.150   0.842  13.454 -2.3138 -2.7532 -1.3714
 2100SOL     OW17758   0.479   0.991   7.089 -0.2238 -0.4600 -0.7228
 2100SOL    HW117759   0.447   0.906   7.120 -0.3426 -0.5331 -1.0435
 2100SOL    HW217760   0.562   0.970   7.047 -0.0483 -1.5984  0.1916
 2101SOL     OW17761   3.042   2.784  15.232 -0.2653  0.4753  0.2285
 2101SOL    HW117762   2.989   2.840  15.289 -1.6671 -1.9163  1.2778
 2101SOL    HW217763   3.042   2.702  15.281 -1.2073  0.0756 -0.4324
 2102SOL     OW17764   0.088   2.909   3.617  0.5191 -0.5419  0.0460
 2102SOL    HW117765   0.177   2.901   3.582  0.7920 -1.0489  0.8655
 2102SOL    HW217766   0.094   2.998   3.653  1.4275  0.3508 -2.2752
 2103SOL     OW17767   2.543   0.604  15.276  0.2892 -0.0675  0.4183
 2103SOL    HW117768   2.611   0.549  15.237 -0.1334  0.0461 -0.4914
 2103SOL    HW217769   2.505   0.627  15.191  0.7496 -3.2850 -0.6504
 2104SOL     OW17770   0.708   1.887   1.164  0.5016 -0.3190 -0.0765
 2104SOL    HW117771   0.703   1.946   1.239 -0.9376 -1.4873  0.7509
 2104SOL    HW217772   0.627   1.840   1.182 -0.1913  2.1043  3.1232
 2105SOL     OW17773   3.251   2.516   4.469 -0.1938  0.1412 -0.3573
 2105SOL    HW117774   3.303   2.436   4.474  0.1317  0.4048  0.4538
 2105SOL    HW217775   3.159   2.490   4.473  0.2161 -1.1876  0.4321
 2106SOL     OW17776   0.146   2.582  11.695 -1.2001  0.1802 -0.2426
 2106SOL    HW117777   0.089   2.634  11.638 -1.1231 -0.7658 -1.1834
 2106SOL    HW217778   0.158   2.643  11.768 -0.9750  0.3332 -0.4061
 2107SOL     OW17779   1.040   0.798  13.701  0.2657 -0.4547 -0.1880
 2107SOL    HW117780   1.126   0.812  13.663  1.0517 -0.2414  1.7143
 2107SOL    HW217781   1.045   0.703  13.711 -2.6595 -0.8088 -1.8048
 2108SOL     OW17782   4.506   4.349   7.993  0.1752  0.7577  0.0801
 2108SOL    HW117783   4.479   4.343   8.085  0.0555 -0.7367 -0.0405
 2108SOL    HW217784   4.595   4.312   7.992 -0.3814 -0.6646  2.2893
 2109SOL     OW17785   4.111   2.616   3.342  0.3038 -0.2097  0.5216
 2109SOL    HW117786   4.144   2.689   3.393 -0.0501  0.6816 -0.5333
 2109SOL    HW217787   4.097   2.666   3.262 -1.3855  0.3607  1.1813
 2110SOL     OW17788   3.221   0.512   5.476 -0.2795 -0.0126 -0.3459
 2110SOL    HW117789   3.238   0.452   5.548  0.5032 -0.0168 -0.5309
 2110SOL    HW217790   3.132   0.544   5.489  0.0225 -0.6868  3.1541
 2111SOL     OW17791   2.575   0.148   4.828 -0.8461 -0.3078  0.1384
 2111SOL    HW117792   2.568   0.056   4.805 -1.8732  0.0490 -0.9365
 2111SOL    HW217793   2.536   0.153   4.916 -1.8842  2.2447 -0.4497
 2112SOL     OW17794   1.730   4.663  15.185 -0.4547  0.2930  0.5407
 2112SOL    HW117795   1.759   4.578  15.219 -2.9342 -0.0320  1.8957
 2112SOL    HW217796   1.797   4.719  15.224 -0.4093  0.7043 -0.1358
 2113SOL     OW17797   2.829   0.241  15.150 -0.0283  0.3757  0.1033
 2113SOL    HW117798   2.819   0.164  15.205  1.8598  0.8229  1.0817
 2113SOL    HW217799   2.912   0.223  15.106 -0.7571  0.9328 -1.5070
 2114SOL     OW17800   0.767   3.507   4.580  0.2641 -0.4752 -0.2497
 2114SOL    HW117801   0.722   3.586   4.611 -0.9171 -1.7983  1.4298
 2114SOL    HW217802   0.759   3.520   4.485 -0.4143 -0.4905 -0.1963
 2115SOL     OW17803   3.488   1.291   5.262 -0.1446 -0.2269 -0.5109
 2115SOL    HW117804   3.429   1.235   5.313  1.1387 -1.7049 -0.6239
 2115SOL    HW217805   3.427   1.339   5.207 -1.6956 -0.2301  1.1954
 2116SOL     OW17806   3.570   2.674   6.617  0.6226 -0.1053  0.1069
 2116SOL    HW117807   3.654   2.720   6.619 -0.1934  1.3555  0.3287
 2116SOL    HW217808   3.529   2.708   6.696 -1.5367 -0.5928 -0.8041
 2117SOL     OW17809   4.325   1.414  12.421  0.3182 -0.3478 -0.3779
 2117SOL    HW117810   4.266   1.452  12.356 -0.2674 -1.5945 -0.5748
 2117SOL    HW217811   4.408   1.432  12.377  0.6261  1.2946  0.8340
 2118SOL     OW17812   0.243   0.698   8.127 -0.3486  0.0721 -0.4180
 2118SOL    HW117813   0.192   0.732   8.201  0.3700 -1.7022  0.8967
 2118SOL    HW217814   0.335   0.699   8.152  0.4038 -2.4422 -3.0617
 2119SOL     OW17815   4.136   2.609   6.828  0.5507 -0.0878 -0.2271
 2119SOL    HW117816   4.120   2.596   6.921  1.2124  0.4545 -0.0291
 2119SOL    HW217817   4.187   2.529   6.812  1.2135  0.5216 -1.1997
 2120SOL     OW17818   4.289   4.399   9.090 -0.2513  0.3196  0.1511
 2120SOL    HW117819   4.382   4.379   9.077 -0.3585  0.2402 -0.5203
 2120SOL    HW217820   4.281   4.435   9.178  1.1113  0.6945  0.1222
 2121SOL     OW17821   3.415   2.393   7.520 -0.5864 -0.2888  0.0542
 2121SOL    HW117822   3.469   2.468   7.543 -0.9557  0.1271 -0.4343
 2121SOL    HW217823   3.419   2.351   7.606 -1.1897  0.6795  0.5466
 2122SOL     OW17824   4.718   0.325   4.075 -0.0278  0.0927 -0.2494
 2122SOL    HW117825   4.660   0.399   4.058 -0.5033 -0.8660 -2.7945
 2122SOL    HW217826   0.005   0.330   4.170 -2.2604 -1.0188 -0.0040
 2123SOL     OW17827   2.923   2.013   7.456 -0.0653  0.4226  0.1578
 2123SOL    HW117828   2.963   1.928   7.474  2.5761  1.5412 -0.4454
 2123SOL    HW217829   2.833   2.002   7.426 -1.0005  1.0593  2.7546
 2124SOL     OW17830   3.021   0.993   4.465 -0.0791  0.2035  0.5052
 2124SOL    HW117831   3.082   0.976   4.393 -0.1865  1.9155  0.0002
 2124SOL    HW217832   2.947   0.946   4.426  0.1923 -0.4820  0.8234
 2125SOL     OW17833   2.176   2.486  12.089  0.1542 -0.0510  0.2890
 2125SOL    HW117834   2.190   2.483  11.995  1.7333  2.2447  0.4600
 2125SOL    HW217835   2.254   2.445  12.128  0.8035 -0.5787 -1.5973
 2126SOL     OW17836   4.194   2.358   5.671 -0.1047 -0.0409 -0.0109
 2126SOL    HW117837   4.138   2.280   5.670 -1.3997  0.8999  0.1286
 2126SOL    HW217838   4.282   2.319   5.668 -0.0472 -0.1873  2.9592
 2127SOL     OW17839   1.291   0.528  11.019  0.1156  0.2357  0.4220
 2127SOL    HW117840   1.210   0.509  11.066 -0.6027  1.5109 -0.3148
 2127SOL    HW217841   1.298   0.623  11.019 -0.9091  0.3114  0.0776
 2128SOL     OW17842   3.118   4.079  13.834  0.2101  0.6145 -0.1637
 2128SOL    HW117843   3.100   3.986  13.822  0.5274  0.5976 -0.4689
 2128SOL    HW217844   3.090   4.114  13.749 -0.3494 -1.1875 -0.7066
 2129SOL     OW17845   3.199   4.313  10.431  0.1875  0.1207 -0.4027
 2129SOL    HW117846   3.244   4.379  10.483 -0.7479 -0.0517  0.6060
 2129SOL    HW217847   3.215   4.341  10.341 -1.2914  0.1664 -0.6567
 2130SOL     OW17848   3.878   4.494   4.669  0.4876  0.0483  0.6412
 2130SOL    HW117849   3.882   4.565   4.733 -2.8408 -1.1333  2.1345
 2130SOL    HW217850   3.801   4.446   4.700  1.6726 -0.0588  3.3884
 2131SOL     OW17851   2.183   1.690   4.561 -0.5587  0.0776  0.5556
 2131SOL    HW117852   2.171   1.771   4.609  0.2917  1.0788 -0.9193
 2131SOL    HW217853   2.113   1.689   4.496  1.3602 -3.3049 -1.4995
 2132SOL     OW17854   2.776   3.417   6.235 -0.1238 -0.0050 -0.4737
 2132SOL    HW117855   2.822   3.442   6.315 -1.0381 -0.7667  0.2992
 2132SOL    HW217856   2.766   3.499   6.187  3.2878  0.0567 -1.0060
 2133SOL     OW17857   0.701   1.390   8.987 -0.2135  0.1654 -0.6851
 2133SOL    HW117858   0.761   1.465   8.978  0.0261 -0.0258 -0.6825
 2133SOL    HW217859   0.722   1.346   8.905  1.8159 -1.7748  0.8676
 2134SOL     OW17860   3.291   1.857  13.975 -0.0271 -0.0732 -0.6525
 2134SOL    HW117861   3.198   1.857  13.997  0.0923  0.1593 -0.1287
 2134SOL    HW217862   3.287   1.889  13.885  2.1133  0.9700 -0.3705
 2135SOL     OW17863   2.444   3.905   7.451 -0.5929 -0.2438 -0.3819
 2135SOL    HW117864   2.380   3.853   7.402 -0.3097 -1.3309  0.3949
 2135SOL    HW217865   2.431   3.882   7.544  1.0024 -1.3826 -0.4347
 2136SOL     OW17866   4.408   0.238  13.818 -0.4796 -0.0546 -0.0315
 2136SOL    HW117867   4.479   0.236  13.882 -1.7763  0.4464  1.4412
 2136SOL    HW217868   4.341   0.272  13.877 -2.7301 -2.9167 -0.9556
 2137SOL     OW17869   0.889   1.112   0.749 -0.1862 -0.3521  0.0907
 2137SOL    HW117870   0.882   1.208   0.750  0.1040 -0.3306  0.0327
 2137SOL    HW217871   0.845   1.108   0.664  0.1356 -1.1959 -0.0293
 2138SOL     OW17872   0.457   1.029   2.190 -0.2195 -0.0825 -0.0829
 2138SOL    HW117873   0.544   1.006   2.158 -1.5798 -2.5650 -1.9316
 2138SOL    HW217874   0.457   1.125   2.197 -1.1806 -0.0285 -0.8614
 2139SOL     OW17875   1.422   0.414   4.072  0.9517 -0.1350 -0.5782
 2139SOL    HW117876   1.471   0.429   3.992  0.0029  0.5499 -1.0407
 2139SOL    HW217877   1.498   0.411   4.130  0.5628 -1.1882 -0.1235
 2140SOL     OW17878   3.002   4.068   5.018  0.2525  0.0567  0.3569
 2140SOL    HW117879   2.910   4.077   4.992  0.2726  0.3151  0.3771
 2140SOL    HW217880   3.019   4.160   5.041  0.0231 -0.1591  1.3719
 2141SOL     OW17881   0.002   0.608   3.443 -0.2453  0.5829 -0.1249
 2141SOL    HW117882   4.650   0.591   3.382  0.2752 -2.0852 -0.0187
 2141SOL    HW217883   0.080   0.598   3.387 -1.8048 -1.5701 -1.9088
 2142SOL     OW17884   1.145   2.985   3.744 -0.0218  0.6264 -0.5220
 2142SOL    HW117885   1.063   2.971   3.697 -0.8588  4.6689 -0.2856
 2142SOL    HW217886   1.186   2.900   3.732  0.7558  0.9672 -0.2869
 2143SOL     OW17887   0.351   3.768   4.117  0.4016 -0.2137  0.4386
 2143SOL    HW117888   0.375   3.861   4.123 -0.9673  0.1727 -0.0782
 2143SOL    HW217889   0.381   3.745   4.029 -2.4040 -0.5836 -0.4110
 2144SOL     OW17890   4.033   2.728   1.755  0.0400  0.5158 -0.6284
 2144SOL    HW117891   4.127   2.743   1.763  0.0485  0.8312 -1.3707
 2144SOL    HW217892   3.987   2.746   1.838  2.4333  0.3441  0.7482
 2145SOL     OW17893   2.117   3.507   5.417  0.5959  0.4812  0.0200
 2145SOL    HW117894   2.050   3.451   5.455  1.2215  0.0653  0.5182
 2145SOL    HW217895   2.130   3.471   5.329  1.2562 -0.4117  0.4812
 2146SOL     OW17896   0.580   3.880   1.665 -0.3447 -0.1458 -0.6722
 2146SOL    HW117897   0.597   3.927   1.746 -0.5442 -2.0694  0.4986
 2146SOL    HW217898   0.665   3.885   1.621 -0.3470  1.9928 -0.3860
 2147SOL     OW17899   1.980   1.537   0.012  0.0577 -0.4912  0.0803
 2147SOL    HW117900   1.908   1.600   0.022 -1.0254 -1.5682 -0.9510
 2147SOL    HW217901   1.995   1.525   0.106 -0.3398  0.4910  0.2643
 2148SOL     OW17902   0.713   4.259   2.908  0.1213  0.6462  0.5998
 2148SOL    HW117903   0.662   4.339   2.892  1.7718  0.8831 -3.2837
 2148SOL    HW217904   0.718   4.260   3.004  0.2843  1.5617  0.5795
 2149SOL     OW17905   0.762   3.216  10.622  0.1981 -0.4592  0.2989
 2149SOL    HW117906   0.822   3.236  10.550  0.4778  2.1016  1.2526
 2149SOL    HW217907   0.812   3.237  10.701  3.8511  0.0200 -2.1202
 2150SOL     OW17908   0.399   0.054   3.302 -0.3709 -0.0207  0.0604
 2150SOL    HW117909   0.409   0.035   3.396 -0.6047 -2.2196 -0.3473
 2150SOL    HW217910   0.370   4.688   3.272  0.0881 -0.9528  2.2538
 2151SOL     OW17911   3.336   0.500   4.033  0.4898 -0.1706  0.8043
 2151SOL    HW117912   3.414   0.456   4.067  0.6227  0.9445  1.9511
 2151SOL    HW217913   3.270   0.431   4.039 -2.0073  2.0669 -1.1316
 2152SOL     OW17914   3.573   2.870   2.772  0.9233 -0.4720 -0.0120
 2152SOL    HW117915   3.572   2.829   2.686 -2.4950 -0.9945  0.2864
 2152SOL    HW217916   3.552   2.791   2.821 -1.5223 -0.4456 -0.9799
 2153SOL     OW17917   3.770   2.863   6.558 -0.1538 -0.3012  0.5392
 2153SOL    HW117918   3.816   2.840   6.639 -0.1698  0.4290  0.7587
 2153SOL    HW217919   3.804   2.805   6.491 -1.9481  0.0127 -0.6323
 2154SOL     OW17920   2.194   1.721   2.155 -0.1126  0.0105  0.0059
 2154SOL    HW117921   2.200   1.665   2.233  1.8619  0.2445  0.0157
 2154SOL    HW217922   2.134   1.663   2.109  2.3610 -2.7101  0.2386
 2155SOL     OW17923   4.464   3.703   2.332 -0.1397  0.1777  0.0156
 2155SOL    HW117924   4.421   3.756   2.399  0.6341 -1.5829  1.9196
 2155SOL    HW217925   4.505   3.770   2.278 -0.5921 -0.4712 -1.1532
 2156SOL     OW17926   4.636   4.424   4.772  0.6108 -0.5736 -0.1342
 2156SOL    HW117927   4.608   4.501   4.822 -1.0776 -0.6913 -0.9011
 2156SOL    HW217928   4.604   4.357   4.832  1.0362 -1.1972 -0.6050
 2157SOL     OW17929   2.685   3.324  14.803 -0.0545  0.1086 -0.2210
 2157SOL    HW117930   2.674   3.245  14.856 -2.7887  0.1748 -0.6893
 2157SOL    HW217931   2.768   3.302  14.760 -0.2486 -3.1024  1.0700
 2158SOL     OW17932   4.435   2.749   8.026 -0.7620  0.0497  0.2864
 2158SOL    HW117933   4.413   2.674   8.082 -0.6896  2.3514  3.4388
 2158SOL    HW217934   4.466   2.804   8.098 -0.6723  1.3552 -0.7622
 2159SOL     OW17935   0.572   1.283  10.295 -0.1710  0.5852  0.8029
 2159SOL    HW117936   0.527   1.334  10.363 -3.6304 -1.1594 -0.1516
 2159SOL    HW217937   0.499   1.232  10.259  0.8506  0.6683 -1.3638
 2160SOL     OW17938   1.699   3.371  12.367  0.2792  0.0088 -0.0766
 2160SOL    HW117939   1.662   3.283  12.364 -1.3059  0.6915 -0.2841
 2160SOL    HW217940   1.628   3.417  12.413 -0.9892  1.0803 -3.1545
 2161SOL     OW17941   3.114   2.372   4.913  0.0698  0.5651 -0.4958
 2161SOL    HW117942   3.165   2.342   4.837 -1.6313 -4.0967  0.1598
 2161SOL    HW217943   3.025   2.390   4.883 -0.2702  1.3638  0.9841
 2162SOL     OW17944   2.233   0.189   3.400  0.6576 -0.0484 -0.4146
 2162SOL    HW117945   2.297   0.134   3.354  0.0355 -2.2253  1.2910
 2162SOL    HW217946   2.274   0.273   3.380 -1.6258  1.3521  0.7360
 2163SOL     OW17947   1.609   0.087  15.909  0.5063  0.4784 -0.3204
 2163SOL    HW117948   1.627   0.008  15.859 -0.9952  0.1596 -0.3451
 2163SOL    HW217949   1.631   0.060  15.999 -2.0053  0.5844  0.3140
 2164SOL     OW17950   2.025   0.878   4.789 -0.2005  0.7150 -0.0011
 2164SOL    HW117951   1.939   0.894   4.750  0.5226  0.3514 -1.7726
 2164SOL    HW217952   2.007   0.809   4.853  0.1548  0.9745  0.3758
 2165SOL     OW17953   2.646   4.053  10.788 -0.6284  0.2544 -0.2778
 2165SOL    HW117954   2.640   4.078  10.880  0.2730 -0.7511  0.0588
 2165SOL    HW217955   2.579   4.109  10.749 -0.2828  1.3974  0.7837
 2166SOL     OW17956   1.452   0.779  14.136 -0.0766  0.0094 -0.7374
 2166SOL    HW117957   1.420   0.706  14.190  0.6303  0.0012 -0.3284
 2166SOL    HW217958   1.420   0.759  14.048 -2.8057 -0.0869  0.2641
 2167SOL     OW17959   1.070   1.481   7.900  0.1868  0.4434  0.0168
 2167SOL    HW117960   1.005   1.444   7.959  1.9992 -0.5607  1.3943
 2167SOL    HW217961   1.027   1.564   7.877  0.8818  1.1279  1.1511
 2168SOL     OW17962   1.896   4.596   9.779 -0.4133 -0.1668 -0.5178
 2168SOL    HW117963   1.885   4.691   9.783 -0.7504 -0.2189 -0.1771
 2168SOL    HW217964   1.804   4.567   9.777 -0.0658 -1.3526  0.1099
 2169SOL     OW17965   3.372   1.143   6.168 -0.3178 -0.0317  0.8209
 2169SOL    HW117966   3.410   1.187   6.093 -0.8916 -0.2352  0.4090
 2169SOL    HW217967   3.420   1.185   6.240 -0.9631  1.5751  0.3151
 2170SOL     OW17968   2.648   3.038   5.261 -0.5754  0.7955 -0.0218
 2170SOL    HW117969   2.588   3.086   5.318  0.0553  0.0037  1.3163
 2170SOL    HW217970   2.736   3.062   5.287 -0.0635  0.8266 -1.8088
 2171SOL     OW17971   3.035   3.503   7.519  0.0432 -0.3071  0.3212
 2171SOL    HW117972   3.003   3.422   7.479 -1.8400  0.7993 -0.4246
 2171SOL    HW217973   2.958   3.511   7.576  1.2364  0.0746  1.8876
 2172SOL     OW17974   3.663   0.362   4.344 -0.3191  0.6781 -0.4713
 2172SOL    HW117975   3.731   0.363   4.412  0.6434  2.5304 -1.4793
 2172SOL    HW217976   3.591   0.323   4.393  0.9392  0.4156  1.2037
 2173SOL     OW17977   2.121   3.323   1.945  0.3106  0.5821 -0.1512
 2173SOL    HW117978   2.086   3.241   1.911 -1.4295  0.7470  1.2725
 2173SOL    HW217979   2.196   3.285   1.993 -1.6481 -0.3755  2.1575
 2174SOL     OW17980   1.935   2.404   1.886  0.4954 -0.3125 -0.2853
 2174SOL    HW117981   1.923   2.499   1.888 -2.4534 -0.6672 -0.7907
 2174SOL    HW217982   1.907   2.373   1.972 -1.6694  1.3459 -0.3900
 2175SOL     OW17983   4.083   2.651  13.278  0.1899 -0.0674 -0.8547
 2175SOL    HW117984   4.059   2.709  13.350 -2.1676 -2.6840  0.4666
 2175SOL    HW217985   3.999   2.645  13.233  0.4390 -0.9137 -1.2051
 2176SOL     OW17986   2.091   1.209  12.872 -0.0552 -0.6137  0.2100
 2176SOL    HW117987   2.176   1.252  12.879  0.1510 -1.0498  0.3787
 2176SOL    HW217988   2.088   1.171  12.960  1.5994 -0.7038  0.2284
 2177SOL     OW17989   3.176   3.899   8.563 -0.0963 -0.4406  0.2030
 2177SOL    HW117990   3.163   3.821   8.617  0.5492  0.0257  1.0375
 2177SOL    HW217991   3.137   3.870   8.481  0.1573 -0.8854  0.2411
 2178SOL     OW17992   1.595   0.903   7.563  0.6291 -0.3969 -0.5985
 2178SOL    HW117993   1.638   0.933   7.643  0.9758 -1.4125 -0.4036
 2178SOL    HW217994   1.503   0.913   7.585  0.2819 -2.3352 -1.1905
 2179SOL     OW17995   0.261   0.654   3.282  0.2954  0.2101 -0.3362
 2179SOL    HW117996   0.308   0.725   3.326 -0.4275  0.8287 -0.5532
 2179SOL    HW217997   0.278   0.685   3.193 -2.5530 -0.5212 -1.1343
 2180SOL     OW17998   4.507   1.486   7.396  0.1673 -0.0301 -0.1109
 2180SOL    HW117999   4.503   1.582   7.389 -0.6184 -0.0997 -0.5547
 2180SOL    HW218000   4.413   1.478   7.410  0.0729 -0.1485 -0.8444
 2181SOL     OW18001   2.608   1.950  10.987 -0.2418 -1.1064  0.4880
 2181SOL    HW118002   2.547   2.013  10.948  0.8934  0.8254  1.7802
 2181SOL    HW218003   2.677   2.017  10.992  0.3262 -1.4342 -3.3974
 2182SOL     OW18004   2.218   2.685  12.261  0.2277  0.3542 -0.2714
 2182SOL    HW118005   2.186   2.644  12.180  2.0451 -0.9739 -0.3306
 2182SOL    HW218006   2.310   2.660  12.255  0.4852  1.4316 -0.7539
 2183SOL     OW18007   3.185   1.251   1.439 -0.5083  0.3162  0.1556
 2183SOL    HW118008   3.257   1.313   1.438 -2.1267  2.2356  1.1269
 2183SOL    HW218009   3.136   1.290   1.366 -1.3966  2.2634  1.7713
 2184SOL     OW18010   3.077   1.010   5.014  0.1376 -0.5255 -0.9283
 2184SOL    HW118011   3.028   0.963   4.947 -1.0379 -1.8632  0.8938
 2184SOL    HW218012   3.099   1.093   4.970  1.7037 -1.0575 -1.1503
 2185SOL     OW18013   4.413   4.221   5.578  0.0868  0.0810  0.2551
 2185SOL    HW118014   4.424   4.201   5.485 -3.5619 -0.6060 -0.0409
 2185SOL    HW218015   4.500   4.261   5.581 -0.0161  0.5112 -3.2331
 2186SOL     OW18016   2.840   0.667   4.107 -0.4924 -0.2780  0.0066
 2186SOL    HW118017   2.923   0.626   4.129 -2.0555 -2.6018  1.6228
 2186SOL    HW218018   2.868   0.722   4.034 -0.4521 -0.9009 -0.4515
 2187SOL     OW18019   2.925   4.100   3.989  0.1517 -0.5321  0.1444
 2187SOL    HW118020   3.017   4.119   3.969  0.1790 -0.4356  0.3615
 2187SOL    HW218021   2.886   4.102   3.901 -1.3020 -0.1908  0.7993
 2188SOL     OW18022   0.006   0.646  12.757 -0.1567  0.2427 -0.4379
 2188SOL    HW118023   4.668   0.585  12.712 -0.8303  0.6115 -0.0526
 2188SOL    HW218024   4.690   0.729  12.727 -1.1194  0.5108  1.4908
 2189SOL     OW18025   2.293   3.181   8.174  0.2731  0.2886 -0.2149
 2189SOL    HW118026   2.264   3.101   8.129 -0.9642  1.3450 -1.2956
 2189SOL    HW218027   2.333   3.149   8.255 -0.0557 -1.0607 -0.5810
 2190SOL     OW18028   4.447   1.380   8.961  0.5704 -0.2670  0.3840
 2190SOL    HW118029   4.536   1.346   8.963  0.3837 -0.7791  0.0482
 2190SOL    HW218030   4.391   1.317   8.916  2.9979 -1.2885 -1.2360
 2191SOL     OW18031   4.132   1.279   5.295  0.1707  0.0579 -0.8373
 2191SOL    HW118032   4.061   1.267   5.358 -1.0671  0.6604 -2.1201
 2191SOL    HW218033   4.136   1.373   5.275  0.9877 -0.1511 -1.6391
 2192SOL     OW18034   0.758   1.901  14.754 -0.2977 -0.4435  0.0337
 2192SOL    HW118035   0.838   1.881  14.803 -0.8219 -0.4904  0.8788
 2192SOL    HW218036   0.779   1.980  14.704  0.7549 -0.7146  0.0491
 2193SOL     OW18037   1.104   0.700   9.190 -0.2318 -0.6083  0.3701
 2193SOL    HW118038   1.082   0.613   9.221 -1.9621 -1.2679 -2.6868
 2193SOL    HW218039   1.174   0.685   9.126  0.5073 -1.9182  1.4882
 2194SOL     OW18040   0.334   4.228   4.251 -0.2738 -0.1035  0.6597
 2194SOL    HW118041   0.278   4.222   4.328  0.5651 -2.3059  1.0918
 2194SOL    HW218042   0.272   4.273   4.193  0.1142  1.2692  1.3035
 2195SOL     OW18043   2.016   3.951   2.844  0.0316  0.2639  0.8599
 2195SOL    HW118044   1.932   3.992   2.823  0.8246  0.1586 -2.5645
 2195SOL    HW218045   2.017   3.878   2.783  0.9799  0.8663  0.1351
 2196SOL     OW18046   4.708   4.136   1.026  0.3117 -0.0279 -0.2449
 2196SOL    HW118047   4.650   4.114   1.100  1.9211 -3.2384  0.0411
 2196SOL    HW218048   0.071   4.161   1.067  0.5914 -1.7452  0.2420
 2197SOL     OW18049   1.442   0.570   2.427  0.1799  0.2956 -0.2406
 2197SOL    HW118050   1.395   0.493   2.460 -0.2009 -0.0730 -1.6540
 2197SOL    HW218051   1.529   0.530   2.426 -0.8236 -1.9377  0.7026
 2198SOL     OW18052   0.123   0.226   1.214  0.1808  0.2965 -0.3686
 2198SOL    HW118053   0.212   0.259   1.215  0.3260 -0.0995 -0.3410
 2198SOL    HW218054   0.087   0.301   1.166 -0.0529 -0.1356 -0.8650
 2199SOL     OW18055   1.743   1.669   0.068 -0.4250  0.9687 -0.3260
 2199SOL    HW118056   1.680   1.601   0.044 -1.9906  2.2464  0.1807
 2199SOL    HW218057   1.701   1.737   0.015  2.5573  2.8150 -0.3058
 2200SOL     OW18058   2.068   1.548   2.653 -0.2433  0.8765  0.2430
 2200SOL    HW118059   2.163   1.536   2.661 -0.4081  0.2921  1.3291
 2200SOL    HW218060   2.072   1.620   2.590 -2.9542 -0.9862 -2.0464
 2201SOL     OW18061   1.937   1.282   5.508 -0.1902 -0.2047 -0.2121
 2201SOL    HW118062   1.913   1.242   5.425 -0.1382 -0.4438 -0.1124
 2201SOL    HW218063   1.903   1.369   5.486  0.0078  0.4609  2.1302
 2202SOL     OW18064   3.237   4.579   3.821  0.1228 -0.3058 -0.3285
 2202SOL    HW118065   3.292   4.506   3.792 -0.4183 -1.2429  1.0276
 2202SOL    HW218066   3.299   4.633   3.870 -1.7715  0.5105  1.1671
 2203SOL     OW18067   3.259   4.064  17.219 -0.1517  0.3100  0.4880
 2203SOL    HW118068   3.264   4.122  17.143  0.0738  0.9031  0.9539
 2203SOL    HW218069   3.179   4.099  17.258 -0.1664  0.6862  0.1152
 2204SOL     OW18070   0.577   0.986  10.231  0.2476 -0.7186 -0.3937
 2204SOL    HW118071   0.581   1.000  10.325  0.3568 -1.1722 -0.3292
 2204SOL    HW218072   0.641   1.044  10.191 -0.0112  0.4928  0.9834
 2205SOL     OW18073   1.169   2.460   2.035  0.3804  0.6441 -0.1490
 2205SOL    HW118074   1.134   2.540   2.074 -1.6331  0.2908 -1.2034
 2205SOL    HW218075   1.102   2.429   1.975 -0.9283  2.2469  0.4840
 2206SOL     OW18076   2.556   0.744   6.580 -0.3558 -0.6540 -0.1626
 2206SOL    HW118077   2.594   0.699   6.656 -0.1745 -0.1586  0.0360
 2206SOL    HW218078   2.493   0.796   6.629  1.2422 -0.0584  1.2330
 2207SOL     OW18079   1.391   2.653   7.951 -0.2580  0.4755  0.2332
 2207SOL    HW118080   1.468   2.603   7.976 -0.3322  0.0953 -0.3033
 2207SOL    HW218081   1.385   2.624   7.860 -3.4220  1.0767  0.2531
 2208SOL     OW18082   2.402   0.890  15.992 -0.0097 -0.6077  0.1729
 2208SOL    HW118083   2.471   0.844  16.039 -1.3672 -2.8769 -0.0217
 2208SOL    HW218084   2.376   0.951  16.060  1.5375  0.3714 -0.1216
 2209SOL     OW18085   3.579   1.906   8.489 -0.1690  0.4189 -0.0018
 2209SOL    HW118086   3.592   1.813   8.502  1.4783  0.8169  1.1173
 2209SOL    HW218087   3.579   1.941   8.578  2.0106 -2.3993  1.0771
 2210SOL     OW18088   0.808   4.708   0.349  0.1875  0.2508  0.1692
 2210SOL    HW118089   0.786   4.625   0.390  1.8432  0.1962  0.9559
 2210SOL    HW218090   0.842   4.673   0.266 -1.4863  0.0171 -0.4123
 2211SOL     OW18091   4.452   3.776   6.199 -0.4778  0.3228 -0.6209
 2211SOL    HW118092   4.372   3.724   6.194 -1.1269  0.9720  3.4711
 2211SOL    HW218093   4.440   3.816   6.285 -0.0924  1.9815 -1.3404
 2212SOL     OW18094   4.475   2.296  14.256  0.1609 -0.3047 -0.0900
 2212SOL    HW118095   4.563   2.259  14.261  0.7532  1.1659  0.7076
 2212SOL    HW218096   4.454   2.302  14.163 -0.7509  0.2377  0.1479
 2213SOL     OW18097   3.036   1.582   4.851 -0.5375  0.4400  0.6182
 2213SOL    HW118098   3.121   1.615   4.825  0.3369  0.8408  3.9972
 2213SOL    HW218099   2.977   1.647   4.813  0.7782  1.0834 -0.3141
 2214SOL     OW18100   0.687   3.233   8.653  0.1458  0.9241  0.1967
 2214SOL    HW118101   0.720   3.147   8.679 -1.1823 -0.6662 -3.3633
 2214SOL    HW218102   0.758   3.273   8.604  1.4332 -0.1413  1.2051
 2215SOL     OW18103   4.134   1.880  16.337  0.0802 -0.1254 -0.1994
 2215SOL    HW118104   4.067   1.811  16.339 -0.5327  0.4067 -1.9854
 2215SOL    HW218105   4.127   1.896  16.431 -0.4561 -0.1850 -0.2282
 2216SOL     OW18106   0.286   1.430   6.650  0.0441  0.2405  0.3300
 2216SOL    HW118107   0.214   1.376   6.616 -1.8852  2.1333  1.4329
 2216SOL    HW218108   0.343   1.368   6.696 -1.5199  1.2463  3.6067
 2217SOL     OW18109   0.699   4.538   3.159 -0.4454 -0.4070 -0.2406
 2217SOL    HW118110   0.643   4.583   3.222 -1.3352  0.9693 -2.0265
 2217SOL    HW218111   0.684   4.446   3.185 -2.1158 -0.3280 -0.9396
 2218SOL     OW18112   4.534   4.104  15.159 -0.4029 -0.3528 -0.3613
 2218SOL    HW118113   4.585   4.177  15.122  3.7202 -2.8455  0.3651
 2218SOL    HW218114   4.601   4.036  15.159  0.4136  0.4565 -1.5102
 2219SOL     OW18115   0.255   4.355   8.228 -0.4735  0.2450  0.0795
 2219SOL    HW118116   0.260   4.331   8.320  0.4366 -2.6296 -0.7152
 2219SOL    HW218117   0.234   4.448   8.237 -0.1904  0.3394 -0.2223
 2220SOL     OW18118   3.990   3.381  13.461 -0.6761  0.2001  0.2515
 2220SOL    HW118119   3.991   3.411  13.370  1.5991  0.7795  0.4518
 2220SOL    HW218120   3.896   3.375  13.477 -0.3854  0.2510  1.9908
 2221SOL     OW18121   0.250   0.922   2.062 -0.1916 -1.0774  0.6412
 2221SOL    HW118122   0.328   0.944   2.112 -0.5381  3.3239 -0.7519
 2221SOL    HW218123   0.207   1.007   2.072 -1.0257 -1.4057 -0.2325
 2222SOL     OW18124   2.515   1.945  15.336  0.6603  0.3274  0.5404
 2222SOL    HW118125   2.435   1.984  15.368  0.2551 -1.3949  1.6098
 2222SOL    HW218126   2.481   1.918  15.250  0.6824  3.3295 -0.3993
 2223SOL     OW18127   1.106   2.580   0.465 -0.3792 -0.3472 -0.3673
 2223SOL    HW118128   1.122   2.651   0.402  2.1609 -1.7100 -1.2185
 2223SOL    HW218129   1.011   2.590   0.458 -0.2553 -0.0412 -1.5473
 2224SOL     OW18130   2.964   2.281   0.379  0.2204 -0.5587 -0.2859
 2224SOL    HW118131   3.016   2.201   0.371 -0.3957 -0.9908  0.0412
 2224SOL    HW218132   2.880   2.237   0.368 -0.7000  1.1675 -0.1861
 2225SOL     OW18133   1.211   0.883   2.106 -0.0987 -0.3111 -0.2810
 2225SOL    HW118134   1.208   0.821   2.033 -1.8484 -0.4338 -0.0880
 2225SOL    HW218135   1.203   0.828   2.184  2.6818  2.8792  2.2548
 2226SOL     OW18136   4.355   3.038  14.718  0.1815 -0.1383  0.4132
 2226SOL    HW118137   4.380   3.002  14.803 -1.9252 -1.0260  0.6503
 2226SOL    HW218138   4.429   3.001  14.669  0.1193 -1.4897  1.3268
 2227SOL     OW18139   2.210   4.060  13.402  0.5647  0.1416  0.8375
 2227SOL    HW118140   2.255   4.000  13.462  0.2037  1.5313  2.5223
 2227SOL    HW218141   2.256   4.025  13.326  0.7033 -0.2953  1.1175
 2228SOL     OW18142   3.171   1.507   4.219 -0.4505 -0.3919  0.3459
 2228SOL    HW118143   3.082   1.517   4.184 -0.0999 -1.8738 -0.9467
 2228SOL    HW218144   3.165   1.582   4.278  1.4677 -1.2321  1.5928
 2229SOL     OW18145   1.031   4.110   3.246  0.1100 -0.3016 -0.4368
 2229SOL    HW118146   1.049   4.017   3.263 -0.1817 -0.6122 -1.8292
 2229SOL    HW218147   1.037   4.123   3.152  0.8312 -0.6194 -0.4365
 2230SOL     OW18148   3.908   2.465   4.685 -0.2554 -0.0437  0.0284
 2230SOL    HW118149   3.973   2.500   4.747 -0.6536  0.0829  0.3716
 2230SOL    HW218150   3.924   2.374   4.711 -2.2998 -0.2783  0.4905
 2231SOL     OW18151   2.516   4.400   5.989 -0.2925 -0.1968 -0.2174
 2231SOL    HW118152   2.518   4.424   6.081 -2.0671 -3.2558  0.6324
 2231SOL    HW218153   2.517   4.488   5.952 -3.0191  0.6187  1.6985
 2232SOL     OW18154   3.224   0.537   2.023  0.6296  0.0582 -0.6481
 2232SOL    HW118155   3.268   0.465   2.068 -1.0534 -0.6282 -0.1036
 2232SOL    HW218156   3.156   0.498   1.970 -0.8221  3.0543 -1.0129
 2233SOL     OW18157   0.464   0.678   4.124  0.0676  0.2474  0.7707
 2233SOL    HW118158   0.414   0.596   4.126 -2.0740  1.5807  2.1883
 2233SOL    HW218159   0.555   0.650   4.122 -0.5985 -1.7224 -2.2995
 2234SOL     OW18160   2.192   1.216   6.465  0.1481  0.7594  0.0547
 2234SOL    HW118161   2.116   1.173   6.504  0.3522  1.6980  1.4830
 2234SOL    HW218162   2.145   1.271   6.403 -1.3323 -2.9237 -2.1281
 2235SOL     OW18163   2.484   3.120   5.932 -0.3130  0.5041  0.5003
 2235SOL    HW118164   2.545   3.047   5.929  0.3939  1.2752 -3.5386
 2235SOL    HW218165   2.429   3.095   6.007 -3.2466  2.5117 -0.9593
 2236SOL     OW18166   1.930   3.574   6.791 -0.3087 -0.1750 -0.2045
 2236SOL    HW118167   1.911   3.516   6.864 -0.0670  0.0194  0.0119
 2236SOL    HW218168   1.987   3.645   6.821 -0.8603  1.4925 -3.0338
 2237SOL     OW18169   2.056   4.454   3.841 -0.4628  0.0253 -0.4755
 2237SOL    HW118170   2.113   4.505   3.898  2.7058 -0.4655 -3.2043
 2237SOL    HW218171   2.001   4.515   3.792 -2.5367 -2.5518 -1.3367
 2238SOL     OW18172   0.213   0.597   5.716 -0.0121 -0.1084  0.4599
 2238SOL    HW118173   0.197   0.565   5.805 -1.3182 -0.9454 -0.0645
 2238SOL    HW218174   0.123   0.627   5.704 -0.5066 -1.8245 -0.2428
 2239SOL     OW18175   1.345   1.180   5.576 -0.6756  0.4645  0.2994
 2239SOL    HW118176   1.252   1.185   5.552  0.2867 -0.2526 -3.5400
 2239SOL    HW218177   1.353   1.097   5.623  2.6255  0.6743  0.0864
 2240SOL     OW18178   1.221   2.045  14.111  0.7321 -0.1468 -0.0653
 2240SOL    HW118179   1.248   2.125  14.066 -0.1155  0.5399  0.6574
 2240SOL    HW218180   1.211   2.064  14.205  0.9013 -1.4091  0.2141
 2241SOL     OW18181   0.986   2.250   2.662 -0.8048  0.0042  0.0624
 2241SOL    HW118182   0.933   2.229   2.739  0.6674  0.6911  1.2681
 2241SOL    HW218183   1.073   2.252   2.702 -0.6106  0.5670 -0.3740
 2242SOL     OW18184   0.284   1.006   7.839 -0.5495  0.0528 -0.1947
 2242SOL    HW118185   0.222   1.068   7.876 -0.0822 -0.7226  1.8781
 2242SOL    HW218186   0.240   1.002   7.754 -1.3818  0.5756  0.2054
 2243SOL     OW18187   0.094   2.842   2.344  0.1170  0.3322  0.0615
 2243SOL    HW118188   0.102   2.877   2.255 -0.7098 -0.7503 -0.4321
 2243SOL    HW218189   0.089   2.929   2.384  1.2570  0.6933 -0.5723
 2244SOL     OW18190   2.859   3.419   7.746 -0.4164 -0.3478 -0.1429
 2244SOL    HW118191   2.798   3.493   7.740  0.1314 -0.0322 -1.7426
 2244SOL    HW218192   2.813   3.378   7.819  1.7365 -0.2149  1.2853
 2245SOL     OW18193   0.130   2.884   6.644 -0.0207 -0.0421  0.1110
 2245SOL    HW118194   0.225   2.869   6.638  0.0204  0.1885  0.1858
 2245SOL    HW218195   0.099   2.823   6.711  0.8459 -1.4852 -0.8052
 2246SOL     OW18196   0.417   4.355   9.169  0.2010 -0.3542  0.4772
 2246SOL    HW118197   0.453   4.420   9.108  1.3051  1.4993  3.0868
 2246SOL    HW218198   0.337   4.326   9.126 -1.4456  2.2100  1.7752
 2247SOL     OW18199   3.834   2.263  16.523 -0.0901 -0.1189  0.2614
 2247SOL    HW118200   3.776   2.339  16.530  0.4967  0.4261 -0.7843
 2247SOL    HW218201   3.867   2.279  16.435 -2.7656  1.3938 -0.4728
 2248SOL     OW18202   2.810   1.138  16.972  0.0733 -0.4209 -0.2107
 2248SOL    HW118203   2.741   1.097  16.920 -1.5354  0.2838  1.3787
 2248SOL    HW218204   2.763   1.156  17.054  0.6868 -1.4189  0.3715
 2249SOL     OW18205   2.821   3.373   8.807  0.3663 -0.6199  0.1216
 2249SOL    HW118206   2.850   3.432   8.877  1.1172 -0.4482 -0.3323
 2249SOL    HW218207   2.827   3.289   8.852  1.9232 -1.3903 -1.5434
 2250SOL     OW18208   1.207   2.129   1.260 -0.4428 -0.0986 -0.6425
 2250SOL    HW118209   1.225   2.077   1.338 -0.1733  1.0224  0.0430
 2250SOL    HW218210   1.124   2.165   1.290 -0.3716 -2.7470  2.6549
 2251SOL     OW18211   3.317   2.566   9.903  0.0643  0.0937  0.2295
 2251SOL    HW118212   3.290   2.598   9.817  2.4936  0.4388 -0.4024
 2251SOL    HW218213   3.355   2.649   9.933  1.5163 -0.2074 -0.7635
 2252SOL     OW18214   3.451   1.993  16.077  0.1472  0.1141 -0.1448
 2252SOL    HW118215   3.424   1.902  16.064  0.0775  0.2057 -0.6400
 2252SOL    HW218216   3.391   2.051  16.030 -0.0416  0.2581  0.2787
 2253SOL     OW18217   3.424   1.935   6.863  0.4756  0.0373  0.3058
 2253SOL    HW118218   3.368   1.860   6.844 -0.5620  0.7356  0.6064
 2253SOL    HW218219   3.359   1.997   6.829  0.4644 -0.3825 -0.4365
 2254SOL     OW18220   4.044   0.874  17.673 -0.2196 -0.2796  0.1399
 2254SOL    HW118221   4.061   0.952   0.042  0.2739  0.1350 -0.6293
 2254SOL    HW218222   3.956   0.890  17.639 -0.9140 -1.9431  1.2053
 2255SOL     OW18223   1.400   1.684   7.347 -0.2187  0.2072  0.0940
 2255SOL    HW118224   1.479   1.629   7.347 -2.0468 -2.4291  3.0986
 2255SOL    HW218225   1.418   1.746   7.417 -0.2863  0.5611 -0.2016
 2256SOL     OW18226   3.416   4.190  14.377 -0.5669 -0.0736 -0.0021
 2256SOL    HW118227   3.363   4.132  14.322 -0.2495  1.5875 -2.0790
 2256SOL    HW218228   3.352   4.261  14.388 -1.0771 -0.4264 -0.6506
 2257SOL     OW18229   2.934   4.696   2.310 -0.5514  0.5191  0.0706
 2257SOL    HW118230   2.921   0.068   2.328 -0.8113  0.5509 -0.2844
 2257SOL    HW218231   3.024   4.690   2.341 -1.0499 -3.2913  0.8824
 2258SOL     OW18232   4.400   0.314   3.253  0.4465 -0.0696  0.3499
 2258SOL    HW118233   4.439   0.382   3.198  1.6415  0.6730  2.1312
 2258SOL    HW218234   4.474   0.299   3.313 -0.1989  1.7676  1.6170
 2259SOL     OW18235   3.271   0.242   6.487  0.1245  0.2341 -0.0315
 2259SOL    HW118236   3.222   0.300   6.427  0.6628  1.1888  0.4511
 2259SOL    HW218237   3.229   0.253   6.572 -1.5772 -0.3560 -0.7832
 2260SOL     OW18238   4.272   3.620   4.999 -0.1551  0.2914  0.5064
 2260SOL    HW118239   4.313   3.543   4.958 -2.6437 -1.4615  1.3140
 2260SOL    HW218240   4.268   3.597   5.092  1.3667 -2.8386 -0.2172
 2261SOL     OW18241   4.706   3.772   6.980  0.2332  0.2772 -0.1358
 2261SOL    HW118242   0.068   3.753   7.026 -1.2912 -2.5334  1.4263
 2261SOL    HW218243   4.636   3.745   7.040  1.4804 -1.3494  0.6167
 2262SOL     OW18244   2.015   2.162   4.162  0.2849 -0.2649  0.3455
 2262SOL    HW118245   1.938   2.123   4.204 -0.5328  1.7571  0.7425
 2262SOL    HW218246   2.070   2.085   4.147 -0.8518 -0.9546 -0.2698
 2263SOL     OW18247   1.484   3.915   9.358 -0.1394  0.1937  0.7853
 2263SOL    HW118248   1.565   3.877   9.323  0.3459  1.4223  0.5742
 2263SOL    HW218249   1.424   3.841   9.350 -0.0703  0.1832  0.3705
 2264SOL     OW18250   3.794   0.007   6.993  0.1702  0.0164 -0.1202
 2264SOL    HW118251   3.815   4.658   6.931  1.4461 -1.0812  1.5499
 2264SOL    HW218252   3.776   0.077   6.930  1.3536  0.8089  0.4282
 2265SOL     OW18253   3.695   2.984  10.738  0.1510 -0.0223  0.2302
 2265SOL    HW118254   3.768   3.029  10.780  1.7378 -0.6110 -1.8718
 2265SOL    HW218255   3.688   3.035  10.657  1.3094 -1.8463 -1.0050
 2266SOL     OW18256   0.769   3.291   4.751 -0.3943  0.2187 -0.1588
 2266SOL    HW118257   0.767   3.320   4.659 -0.6153  1.3679  0.2027
 2266SOL    HW218258   0.761   3.372   4.801  1.7610  0.4399 -0.1707
 2267SOL     OW18259   4.386   3.146  10.407 -0.0717  0.4950 -0.6306
 2267SOL    HW118260   4.435   3.073  10.447  0.4315 -0.6926 -3.4220
 2267SOL    HW218261   4.313   3.095  10.372 -0.7079  1.2920 -0.4711
 2268SOL     OW18262   1.855   4.108   0.735 -0.1050  0.3232  0.0969
 2268SOL    HW118263   1.880   4.200   0.736  0.9625  0.0259  1.3717
 2268SOL    HW218264   1.825   4.100   0.645  0.8144 -2.1600  0.0157
 2269SOL     OW18265   1.341   1.127   2.120 -0.0486  0.3424 -0.3765
 2269SOL    HW118266   1.354   1.158   2.209 -2.3729 -0.8473  0.3912
 2269SOL    HW218267   1.318   1.035   2.134  0.4503  0.2227 -0.3662
 2270SOL     OW18268   3.740   2.813   7.329 -0.2755  0.0257  0.3499
 2270SOL    HW118269   3.762   2.846   7.416 -0.3207 -1.1461  0.7999
 2270SOL    HW218270   3.818   2.764   7.301 -1.1942 -0.8523 -0.6800
 2271SOL     OW18271   2.650   1.255   3.088 -0.4025  0.5885  0.0768
 2271SOL    HW118272   2.660   1.350   3.082 -2.6511  0.8817  1.1874
 2271SOL    HW218273   2.731   1.247   3.139  1.0240 -0.8976 -2.4366
 2272SOL     OW18274   4.466   0.061   7.052 -0.1738  0.1167 -0.3919
 2272SOL    HW118275   4.400   0.056   6.983 -2.6250  0.2089  1.9998
 2272SOL    HW218276   4.417   0.126   7.101 -0.1318  1.1559 -1.7381
 2273SOL     OW18277   2.125   1.384   9.147  0.0964 -0.0196  0.1826
 2273SOL    HW118278   2.126   1.291   9.169 -0.8043 -0.5879 -2.1572
 2273SOL    HW218279   2.167   1.423   9.223 -0.6492  0.9448  0.1000
 2274SOL     OW18280   2.497   2.853   3.048 -0.1663 -0.1676  0.2669
 2274SOL    HW118281   2.583   2.885   3.077  0.0887  0.9505 -1.7335
 2274SOL    HW218282   2.492   2.894   2.962  0.1722 -0.0960  0.2828
 2275SOL     OW18283   1.801   2.647   3.445 -0.3134 -0.2761 -0.2727
 2275SOL    HW118284   1.770   2.685   3.363 -0.7345  0.2610  0.1412
 2275SOL    HW218285   1.780   2.554   3.433  1.8891 -0.9505  1.0123
 2276SOL     OW18286   3.643   0.654   1.650 -0.7809  0.4895 -0.2839
 2276SOL    HW118287   3.687   0.661   1.565  0.7417  2.0392  0.6426
 2276SOL    HW218288   3.595   0.573   1.632  0.4862 -0.2212 -0.4249
 2277SOL     OW18289   0.928   2.077   7.371  0.7085  0.1902 -0.0065
 2277SOL    HW118290   0.927   2.164   7.332 -1.3816  0.6699  1.0775
 2277SOL    HW218291   0.926   2.104   7.463  0.6268  1.5667 -0.4159
 2278SOL     OW18292   0.085   0.085   2.386 -0.2535 -0.2276 -0.0409
 2278SOL    HW118293   0.136   0.006   2.366  2.5532  1.9076 -1.2977
 2278SOL    HW218294   0.152   0.151   2.406 -0.8672  0.2994  0.2456
 2279SOL     OW18295   0.079   3.008   0.238  0.0832  0.1860 -0.2187
 2279SOL    HW118296   0.052   3.099   0.247  0.0106  0.2117 -0.7537
 2279SOL    HW218297   0.058   2.978   0.327 -1.6122  1.7197 -0.0957
 2280SOL     OW18298   3.751   0.144   8.537 -0.4353 -0.4841  0.2696
 2280SOL    HW118299   3.801   0.189   8.605  0.6144 -0.5312 -0.4650
 2280SOL    HW218300   3.668   0.150   8.584 -0.2857  0.4473  0.4218
 2281SOL     OW18301   4.406   4.469   5.126 -0.0676  0.2362  0.8211
 2281SOL    HW118302   4.318   4.432   5.127  0.6607 -1.4961 -1.4658
 2281SOL    HW218303   4.428   4.428   5.042  0.0603 -0.7922  1.3630
 2282SOL     OW18304   0.797   4.532   7.960 -0.2985  1.1462 -0.2243
 2282SOL    HW118305   0.714   4.498   7.927  0.5524  1.0619 -2.2157
 2282SOL    HW218306   0.793   4.604   7.897  0.6336  1.5781  0.2047
 2283SOL     OW18307   3.065   0.947   3.714  0.2780  0.0869 -0.1556
 2283SOL    HW118308   3.128   0.965   3.644  2.4886  0.3026  1.8865
 2283SOL    HW218309   2.986   0.992   3.683  0.0102  0.9277  1.6934
 2284SOL     OW18310   2.025   4.572   5.262  0.7590 -0.0327  0.0232
 2284SOL    HW118311   1.944   4.571   5.314  0.4901 -2.3536 -0.4733
 2284SOL    HW218312   2.015   4.494   5.208  0.9949  0.4375 -0.7100
 2285SOL     OW18313   2.333   3.874   8.197  0.6432 -0.1956 -0.2495
 2285SOL    HW118314   2.368   3.861   8.286  1.4610  0.4066 -0.4833
 2285SOL    HW218315   2.252   3.823   8.197  0.2541  0.4173  1.0555
 2286SOL     OW18316   1.250   2.153   2.559 -0.5068  0.6269 -0.6665
 2286SOL    HW118317   1.279   2.166   2.649 -2.5313  0.7461 -0.0347
 2286SOL    HW218318   1.229   2.060   2.553 -1.0184  0.6297  1.1003
 2287SOL     OW18319   1.262   2.612  12.614 -0.2114  0.3875 -0.4813
 2287SOL    HW118320   1.213   2.675  12.667 -0.6076  0.7835 -1.3268
 2287SOL    HW218321   1.280   2.537  12.672  1.1500  0.5724 -0.6876
 2288SOL     OW18322   0.886   1.400   8.346  0.1030 -0.0432  0.0688
 2288SOL    HW118323   0.827   1.464   8.386 -0.1107 -0.2487  0.0803
 2288SOL    HW218324   0.828   1.326   8.330 -0.4037  0.3755 -0.0406
 2289SOL     OW18325   0.034   4.066   7.240 -0.2079  0.0409  0.5267
 2289SOL    HW118326   4.666   4.093   7.214 -0.1935  0.9263  1.4112
 2289SOL    HW218327   0.014   4.044   7.331 -1.4022  1.9491  0.7193
 2290SOL     OW18328   1.660   2.720   1.363  0.2075  0.5739 -0.0030
 2290SOL    HW118329   1.730   2.662   1.392 -1.4706 -0.4732  1.9426
 2290SOL    HW218330   1.699   2.731   1.276  1.7903 -0.8015  0.5487
 2291SOL     OW18331   0.014   2.952   4.452  0.2623 -0.3725 -0.5655
 2291SOL    HW118332   0.094   2.977   4.499 -0.3550 -0.3291  0.4564
 2291SOL    HW218333   0.021   2.998   4.368  1.3494  0.1382 -0.1895
 2292SOL     OW18334   2.655   1.809  15.552  0.1736  0.2317 -0.5188
 2292SOL    HW118335   2.613   1.879  15.502 -0.9138  1.3519  1.9553
 2292SOL    HW218336   2.738   1.807  15.505  0.8408 -1.0428  0.7038
 2293SOL     OW18337   1.140   4.710  13.537  0.2043  0.3597  0.1408
 2293SOL    HW118338   1.059   0.041  13.544  0.2926  0.4516  0.4688
 2293SOL    HW218339   1.122   4.637  13.595 -0.8531  2.3073  2.2481
 2294SOL     OW18340   0.635   2.216   1.542  0.1361 -0.3661  0.0998
 2294SOL    HW118341   0.575   2.282   1.578  0.0539  1.5083 -3.5123
 2294SOL    HW218342   0.691   2.205   1.619  0.4773  0.9826  0.0303
 2295SOL     OW18343   2.773   0.696   5.070 -0.2767  0.3223 -0.2074
 2295SOL    HW118344   2.683   0.692   5.039 -0.3301 -2.3928  0.2087
 2295SOL    HW218345   2.788   0.602   5.055  0.0939  0.1961  0.9375
 2296SOL     OW18346   0.102   4.458   5.366 -1.0515 -0.3055 -0.6421
 2296SOL    HW118347   0.027   4.489   5.316  0.8438  2.9663 -1.3831
 2296SOL    HW218348   0.078   4.495   5.451 -1.3830 -2.0594  0.0369
 2297SOL     OW18349   4.006   3.143  12.287  0.6457 -0.0904  0.6190
 2297SOL    HW118350   4.089   3.105  12.258  1.0386  0.2454  1.3169
 2297SOL    HW218351   4.025   3.233  12.313  0.1900  0.0430  0.4957
 2298SOL     OW18352   4.437   2.890   1.998 -0.2735 -0.1337  0.3764
 2298SOL    HW118353   4.462   2.980   1.980  1.6974 -0.1456  2.9459
 2298SOL    HW218354   4.399   2.854   1.918  0.8222  2.2661 -1.2135
 2299SOL     OW18355   0.310   3.596   4.590 -0.5797  0.3420  0.1944
 2299SOL    HW118356   0.285   3.503   4.585 -1.4585  0.7350 -2.9686
 2299SOL    HW218357   0.363   3.582   4.668 -0.2658  1.5309  0.1880
 2300SOL     OW18358   3.874   0.656  14.113  0.7515  0.6375  0.0797
 2300SOL    HW118359   3.878   0.674  14.207  1.4704  1.8846 -0.1848
 2300SOL    HW218360   3.850   0.743  14.082 -1.7879 -1.2170 -3.1397
 2301SOL     OW18361   0.365   1.982  12.245  0.0380 -0.7981 -0.2808
 2301SOL    HW118362   0.434   1.947  12.302 -0.2691 -2.2838 -0.8286
 2301SOL    HW218363   0.369   2.074  12.270  1.0508 -0.5405 -1.3889
 2302SOL     OW18364   2.243   0.159   8.784  0.6454  0.0182  0.5372
 2302SOL    HW118365   2.338   0.163   8.774  0.5551 -1.1743 -0.7756
 2302SOL    HW218366   2.214   0.133   8.697 -1.2296 -1.0753  1.5045
 2303SOL     OW18367   4.019   2.266  15.974 -0.9300  0.1437  0.2108
 2303SOL    HW118368   4.097   2.319  15.987  1.0240 -2.9866  1.2459
 2303SOL    HW218369   4.032   2.200  16.042 -3.1385 -1.2648 -0.7311
 2304SOL     OW18370   1.317   0.758   1.680 -0.4834  0.3336 -0.0575
 2304SOL    HW118371   1.365   0.801   1.610  1.8253  0.4224  1.5925
 2304SOL    HW218372   1.270   0.698   1.622  0.2970 -2.1557  1.9040
 2305SOL     OW18373   1.063   4.594  11.871  1.0281  0.2834 -0.0377
 2305SOL    HW118374   1.032   4.672  11.825 -0.1028 -1.0574 -1.5248
 2305SOL    HW218375   1.083   4.528  11.805 -0.1363 -0.3541  0.2578
 2306SOL     OW18376   3.923   0.022  13.913  0.0654  1.0154 -0.0401
 2306SOL    HW118377   3.881   0.096  13.869 -0.5344  0.1835 -0.8720
 2306SOL    HW218378   4.013   0.050  13.925  0.0704  2.1050 -2.5072
 2307SOL     OW18379   2.600   0.564   6.152  0.0562  0.1150  0.3393
 2307SOL    HW118380   2.530   0.554   6.217 -1.6735  0.0949 -1.5274
 2307SOL    HW218381   2.639   0.477   6.163 -0.3869 -0.0090  0.9476
 2308SOL     OW18382   4.183   1.785   4.841  0.3568  0.0685  0.3394
 2308SOL    HW118383   4.226   1.712   4.795  0.9726  0.6564 -0.0339
 2308SOL    HW218384   4.254   1.792   4.905  0.5765  0.5465  0.0384
 2309SOL     OW18385   2.830   2.523   6.955  0.3103 -0.6059 -0.9595
 2309SOL    HW118386   2.803   2.458   7.020  0.4038 -0.6598 -0.9738
 2309SOL    HW218387   2.889   2.471   6.900  1.9912  0.6819 -0.3734
 2310SOL     OW18388   4.453   1.667   1.364  0.3781 -0.0130 -0.1921
 2310SOL    HW118389   4.376   1.645   1.417 -0.8415  2.1374 -1.0473
 2310SOL    HW218390   4.493   1.581   1.373  1.9770  0.8046  0.4447
 2311SOL     OW18391   1.045   3.590   3.224 -0.1416 -0.0762 -0.3146
 2311SOL    HW118392   1.023   3.630   3.308  0.4449 -3.0722  1.2430
 2311SOL    HW218393   1.140   3.599   3.231  0.0869 -2.5264 -0.5879
 2312SOL     OW18394   3.183   2.808   5.130 -0.3183 -0.5813  0.2366
 2312SOL    HW118395   3.176   2.829   5.223 -0.1008  0.8531 -0.0741
 2312SOL    HW218396   3.263   2.853   5.105  0.0802 -0.4585  1.7153
 2313SOL     OW18397   4.130   3.659   1.472 -0.2074  0.1529 -0.4891
 2313SOL    HW118398   4.041   3.674   1.504 -0.2909  0.4979 -0.8813
 2313SOL    HW218399   4.163   3.593   1.533  0.7117  1.3845  0.3593
 2314SOL     OW18400   1.040   1.153   2.344  0.3229 -0.2697  0.3229
 2314SOL    HW118401   1.067   1.139   2.253 -0.3739 -0.1582  0.0955
 2314SOL    HW218402   1.026   1.247   2.335 -2.4730 -0.7802 -0.6264
 2315SOL     OW18403   0.863   0.689  11.522  0.4826 -0.3093 -0.1571
 2315SOL    HW118404   0.918   0.636  11.463 -0.1053 -1.3842  0.2545
 2315SOL    HW218405   0.784   0.646  11.488  0.5166 -1.1652  0.8304
 2316SOL     OW18406   1.943   3.320   0.984  0.2071  0.1474 -0.0242
 2316SOL    HW118407   1.862   3.357   1.020 -0.0266 -0.4486  0.0690
 2316SOL    HW218408   1.918   3.314   0.892  2.0285 -1.0419 -0.4535
 2317SOL     OW18409   3.476   4.340   7.744 -0.3006  0.3413  0.1690
 2317SOL    HW118410   3.386   4.334   7.776 -0.8274  0.2413 -1.2991
 2317SOL    HW218411   3.469   4.424   7.698  1.5730  1.1018  1.3151
 2318SOL     OW18412   1.672   0.412   2.456 -0.0267 -0.2216  0.2616
 2318SOL    HW118413   1.760   0.448   2.465 -0.7680  1.5584  0.5194
 2318SOL    HW218414   1.672   0.345   2.524 -0.0116 -2.0820 -1.5666
 2319SOL     OW18415   2.376   2.947   7.794  0.1127  0.3264  0.3595
 2319SOL    HW118416   2.420   2.920   7.875  1.1295 -1.6510 -0.8613
 2319SOL    HW218417   2.447   2.926   7.734 -1.0077 -0.6637 -0.6215
 2320SOL     OW18418   2.001   2.661   6.538  0.1651  0.1244  0.0305
 2320SOL    HW118419   2.083   2.657   6.588  0.8666  0.2497 -1.1095
 2320SOL    HW218420   2.000   2.756   6.528  0.1148 -0.0314 -1.4834
 2321SOL     OW18421   3.222   1.360   3.975 -0.3711 -0.2502 -0.1484
 2321SOL    HW118422   3.197   1.361   4.067  0.1029  0.7210 -0.0387
 2321SOL    HW218423   3.261   1.276   3.951 -0.6606 -0.6010  0.6343
 2322SOL     OW18424   2.609   4.021   4.575  0.2258  0.2852 -0.4952
 2322SOL    HW118425   2.545   4.087   4.548 -0.9134 -0.0275  1.3972
 2322SOL    HW218426   2.675   4.072   4.621 -0.5942  1.5301 -0.7030
 2323SOL     OW18427   3.560   3.979   5.411  0.4423  0.5578  0.5194
 2323SOL    HW118428   3.616   4.056   5.417  0.1331  0.8484 -0.3798
 2323SOL    HW218429   3.600   3.905   5.457  2.8379  1.2782 -0.3843
 2324SOL     OW18430   3.855   2.546   2.505  0.0765 -0.1249 -0.2026
 2324SOL    HW118431   3.822   2.521   2.592  1.2239 -0.8761  0.0126
 2324SOL    HW218432   3.802   2.488   2.451  1.0566 -0.9210 -0.3053
 2325SOL     OW18433   4.148   3.158   2.511 -0.1273 -0.6830  0.0541
 2325SOL    HW118434   4.092   3.152   2.588 -1.5011  0.8434 -0.8434
 2325SOL    HW218435   4.126   3.245   2.477 -0.9209 -0.3678  1.3858
 2326SOL     OW18436   1.114   3.186   2.519 -0.2195  0.0123  0.6498
 2326SOL    HW118437   1.172   3.254   2.487  0.0997 -0.5494  0.0387
 2326SOL    HW218438   1.028   3.227   2.510 -0.4766 -0.3343  1.4636
 2327SOL     OW18439   1.684   0.753   1.357 -0.4899 -0.0221  0.4291
 2327SOL    HW118440   1.606   0.700   1.372 -1.8092  1.4819 -1.0960
 2327SOL    HW218441   1.645   0.838   1.377  0.7194  1.0569 -1.7285
 2328SOL     OW18442   2.485   4.605  10.051 -0.0249 -0.0388  0.3630
 2328SOL    HW118443   2.553   4.658  10.009  0.2157 -1.8731 -1.5214
 2328SOL    HW218444   2.481   4.535   9.986  0.4647  0.8673 -0.6544
 2329SOL     OW18445   1.116   3.528  16.004 -0.3869 -0.1044 -0.2484
 2329SOL    HW118446   1.128   3.433  15.994 -0.7091  0.2962 -4.5670
 2329SOL    HW218447   1.090   3.539  16.095  2.2220  1.4636  0.2935
 2330SOL     OW18448   2.150   2.941  12.147  0.5050  0.4142 -0.3849
 2330SOL    HW118449   2.161   2.908  12.058 -0.9217 -0.7863 -0.1129
 2330SOL    HW218450   2.174   2.861  12.195  1.0851  0.7465 -0.1198
 2331SOL     OW18451   2.590   2.183   1.930  0.4323  0.6586  0.0656
 2331SOL    HW118452   2.585   2.112   1.865 -0.4794 -0.6378  1.5536
 2331SOL    HW218453   2.615   2.260   1.879 -1.4156 -0.5723 -2.7425
 2332SOL     OW18454   1.365   3.508  10.577 -0.1011 -0.0537  0.0470
 2332SOL    HW118455   1.298   3.573  10.598 -0.8211 -1.0469  0.8202
 2332SOL    HW218456   1.435   3.545  10.630 -0.3816  1.2488 -0.4959
 2333SOL     OW18457   3.287   0.993   1.605 -0.4840 -0.4974 -0.1499
 2333SOL    HW118458   3.201   1.017   1.570 -0.6524 -0.1263  0.5198
 2333SOL    HW218459   3.300   1.038   1.688  2.2410 -0.2630 -0.7164
 2334SOL     OW18460   0.159   3.575   0.472 -0.4943  0.1910  0.1523
 2334SOL    HW118461   0.077   3.546   0.431 -1.1156 -0.5917  1.9293
 2334SOL    HW218462   0.191   3.503   0.526 -1.1670 -0.1901  0.0477
 2335SOL     OW18463   1.450   0.295   7.907  0.0373 -0.2501  0.0028
 2335SOL    HW118464   1.423   0.377   7.948  0.6692  0.1279 -0.3171
 2335SOL    HW218465   1.520   0.325   7.848  0.2709 -0.2097  0.2995
 2336SOL     OW18466   0.423   2.712  15.002 -0.2435 -0.3143 -0.1836
 2336SOL    HW118467   0.388   2.694  15.089 -0.2539 -0.0014 -0.1233
 2336SOL    HW218468   0.511   2.675  15.014  1.4085  3.2649 -1.0184
 2337SOL     OW18469   2.749   3.740   8.778  0.4930  0.4872 -0.0016
 2337SOL    HW118470   2.766   3.724   8.685 -1.7588  0.5077 -0.4063
 2337SOL    HW218471   2.816   3.809   8.786  0.5121  0.7135 -2.1023
 2338SOL     OW18472   4.411   4.005   5.141 -0.0023  0.1015 -0.2051
 2338SOL    HW118473   4.345   3.968   5.083  1.0517 -1.5076 -0.3699
 2338SOL    HW218474   4.463   3.925   5.146  0.0949  0.2653  1.4768
 2339SOL     OW18475   4.110   4.379   8.760 -0.1108 -0.0103  0.1587
 2339SOL    HW118476   4.015   4.389   8.753 -0.4031 -1.1824  2.5852
 2339SOL    HW218477   4.132   4.450   8.821 -2.0157  0.5375  0.2033
 2340SOL     OW18478   0.384   3.377   8.331  0.4307  0.5642  0.0346
 2340SOL    HW118479   0.333   3.398   8.410 -2.0271  0.9532 -1.6478
 2340SOL    HW218480   0.419   3.465   8.318  1.1153 -0.3605 -4.0844
 2341SOL     OW18481   1.579   2.082   2.851  0.2055 -0.4817 -0.2066
 2341SOL    HW118482   1.591   2.148   2.783  1.3960  0.0303  0.4925
 2341SOL    HW218483   1.581   2.134   2.931 -0.8304 -0.2860 -0.3097
 2342SOL     OW18484   2.013   0.648  11.750 -0.4837  0.1941 -0.1717
 2342SOL    HW118485   1.954   0.595  11.804  0.0005  0.5929  0.7518
 2342SOL    HW218486   1.967   0.643  11.667  0.6622  2.2725 -0.9475
 2343SOL     OW18487   2.717   4.715   4.301  0.4420  0.2335 -0.0001
 2343SOL    HW118488   2.624   0.006   4.282  0.9924 -0.2533 -3.0544
 2343SOL    HW218489   2.755   0.033   4.222 -1.4421 -1.3703 -1.6598
 2344SOL     OW18490   0.980   2.117   4.834  0.3325  0.5192  0.0552
 2344SOL    HW118491   0.925   2.169   4.775 -0.6180 -1.4120 -0.7443
 2344SOL    HW218492   0.950   2.034   4.798  2.5556 -0.3569  0.2229
 2345SOL     OW18493   2.927   0.462  12.204  0.0258  0.4148  0.1527
 2345SOL    HW118494   3.014   0.499  12.216 -0.4131  1.6226 -0.4236
 2345SOL    HW218495   2.871   0.501  12.271 -1.2043  0.1796 -0.7305
 2346SOL     OW18496   4.697   1.416   4.246 -0.6192 -0.1075  0.4569
 2346SOL    HW118497   0.036   1.396   4.319  0.0389 -0.5867 -0.2109
 2346SOL    HW218498   0.030   1.473   4.190  0.4284 -0.0618  1.5092
 2347SOL     OW18499   1.618   1.205  10.897 -0.0303  0.7057  0.5265
 2347SOL    HW118500   1.625   1.277  10.834 -1.2045 -1.2822 -1.9046
 2347SOL    HW218501   1.528   1.206  10.929 -0.4360 -0.1365 -0.5603
 2348SOL     OW18502   1.766   4.702   4.128 -0.0889  0.3846 -0.5372
 2348SOL    HW118503   1.738   4.672   4.042 -0.0023 -2.0816  0.2741
 2348SOL    HW218504   1.682   0.019   4.157 -0.6043 -0.3454 -1.0882
 2349SOL     OW18505   0.109   4.079  15.734 -0.0088 -0.1953  0.2264
 2349SOL    HW118506   0.078   4.074  15.825  1.4948  1.8372  0.8444
 2349SOL    HW218507   0.203   4.088  15.750  0.4072 -1.8466 -1.1938
 2350SOL     OW18508   0.532   0.662   0.738 -0.1683 -0.1775 -0.0713
 2350SOL    HW118509   0.473   0.646   0.665 -1.2157  0.5644  0.6024
 2350SOL    HW218510   0.615   0.667   0.691  1.2544 -4.0804  1.9866
 2351SOL     OW18511   1.751   2.488  17.414 -0.3318  0.2644  0.4091
 2351SOL    HW118512   1.816   2.441  17.468  1.2912  1.9175 -0.1094
 2351SOL    HW218513   1.761   2.564  17.472  0.5649 -0.8997  1.7938
 2352SOL     OW18514   3.437   0.430   5.229  0.0857  0.0385 -0.2104
 2352SOL    HW118515   3.386   0.495   5.279  0.1797  0.7339 -1.0202
 2352SOL    HW218516   3.393   0.439   5.145  0.7007 -0.1917 -0.5537
 2353SOL     OW18517   1.517   2.758   6.157  0.2690 -0.3017 -0.0030
 2353SOL    HW118518   1.532   2.677   6.108  1.4669 -1.3376  2.1061
 2353SOL    HW218519   1.430   2.781   6.122 -0.2630 -1.7791  0.3600
 2354SOL     OW18520   2.400   1.825  16.419 -0.2443  0.7854 -0.0945
 2354SOL    HW118521   2.456   1.748  16.406 -0.2891  1.1163 -2.1640
 2354SOL    HW218522   2.465   1.890  16.445  0.7735 -0.2490 -0.0019
 2355SOL     OW18523   4.316   2.511   7.800 -0.1989 -0.0816 -0.3551
 2355SOL    HW118524   4.284   2.422   7.810 -1.3714  0.5456  1.5951
 2355SOL    HW218525   4.241   2.570   7.814  0.0016  0.5786 -2.1220
 2356SOL     OW18526   2.618   3.066   7.599 -0.0688 -0.8791 -0.0079
 2356SOL    HW118527   2.676   3.066   7.675 -1.4876  0.1565  1.0941
 2356SOL    HW218528   2.584   2.978   7.616  0.4761 -1.0944 -0.0478
 2357SOL     OW18529   3.218   1.382   5.128 -0.5174 -0.3494  0.1715
 2357SOL    HW118530   3.180   1.307   5.173  0.6087 -2.0354 -1.6423
 2357SOL    HW218531   3.208   1.355   5.036  2.2016  0.1017 -0.2741
 2358SOL     OW18532   1.889   2.456   4.255 -0.7579  0.2217  0.0761
 2358SOL    HW118533   1.976   2.470   4.293  0.0154 -0.3682 -1.4927
 2358SOL    HW218534   1.840   2.412   4.325 -0.8319 -0.3519 -0.3388
 2359SOL     OW18535   3.187   2.443   6.609  0.2484 -0.4861 -0.2024
 2359SOL    HW118536   3.263   2.386   6.611  0.9651  0.4786  0.1233
 2359SOL    HW218537   3.222   2.524   6.647  1.1779 -0.8872 -0.2101
 2360SOL     OW18538   4.196   2.649   2.764 -0.4520  0.5611  0.3976
 2360SOL    HW118539   4.275   2.595   2.769 -1.7515 -1.2191  1.7709
 2360SOL    HW218540   4.226   2.739   2.757 -0.8467  0.6153 -0.5962
 2361SOL     OW18541   3.836   0.319  16.854 -0.5332 -0.1105  0.2339
 2361SOL    HW118542   3.786   0.335  16.934 -0.3854  0.8361  0.1416
 2361SOL    HW218543   3.789   0.385  16.803  1.4720  1.2948  0.2107
 2362SOL     OW18544   1.465   0.523   2.760  0.1046  1.0595 -0.2853
 2362SOL    HW118545   1.449   0.500   2.668 -1.8168  1.3804 -0.0328
 2362SOL    HW218546   1.398   0.466   2.796 -0.1649  1.5798  0.0341
 2363SOL     OW18547   3.638   0.913  13.022  0.0967 -0.8093  0.4784
 2363SOL    HW118548   3.728   0.941  13.035 -0.1457 -1.0924  2.7967
 2363SOL    HW218549   3.638   0.828  13.067  3.7306 -0.5419  0.9364
 2364SOL     OW18550   4.203   4.201   4.699 -0.2404 -0.3192 -0.1483
 2364SOL    HW118551   4.229   4.109   4.708  1.4923  0.3675  1.9770
 2364SOL    HW218552   4.108   4.202   4.688 -0.2906  0.3108  0.3544
 2365SOL     OW18553   2.655   3.649   3.248  0.0482 -0.0193  0.3048
 2365SOL    HW118554   2.572   3.676   3.289  0.4778 -0.5758  1.5403
 2365SOL    HW218555   2.644   3.697   3.166  1.1269 -1.1522 -0.5037
 2366SOL     OW18556   4.395   2.137   7.555  0.1529  0.2882  0.3541
 2366SOL    HW118557   4.370   2.160   7.465  0.8339 -2.4550 -0.5472
 2366SOL    HW218558   4.484   2.173   7.561 -0.2011  0.8994  1.7344
 2367SOL     OW18559   4.078   0.262   3.648 -0.3948  0.6041  0.1209
 2367SOL    HW118560   4.115   0.250   3.560 -1.6520  0.1323 -0.3448
 2367SOL    HW218561   4.080   0.171   3.678 -1.1987  0.3583 -0.5674
 2368SOL     OW18562   3.022   0.423  12.911 -0.6008  0.3520  0.0000
 2368SOL    HW118563   2.938   0.382  12.931 -1.3721  1.7821 -0.2782
 2368SOL    HW218564   3.051   0.454  12.996 -1.6339 -0.5224  0.6633
 2369SOL     OW18565   2.706   3.908  11.103 -0.2557  0.3811 -0.2448
 2369SOL    HW118566   2.666   3.994  11.115 -0.7563 -0.0911  1.4610
 2369SOL    HW218567   2.661   3.878  11.023  2.1598  2.1026 -2.2461
 2370SOL     OW18568   0.597   2.202  12.559 -0.3705 -0.1472  0.3423
 2370SOL    HW118569   0.543   2.193  12.481 -0.6953 -0.4934  0.6073
 2370SOL    HW218570   0.536   2.248  12.617 -1.5161 -0.2584 -0.7682
 2371SOL     OW18571   1.109   0.474  13.842 -0.3829 -0.2290  0.3481
 2371SOL    HW118572   1.015   0.463  13.849 -0.2101 -1.0808  1.2660
 2371SOL    HW218573   1.134   0.383  13.825 -0.6791 -0.7450  2.7285
 2372SOL     OW18574   2.396   4.359  14.320 -0.5147  0.4336  0.3507
 2372SOL    HW118575   2.438   4.331  14.402  2.7810  0.8961 -1.1797
 2372SOL    HW218576   2.304   4.347  14.343 -1.2469  1.5469 -2.0532
 2373SOL     OW18577   1.771   1.769  13.384 -0.2739 -0.0819  0.5141
 2373SOL    HW118578   1.790   1.860  13.364  1.4271 -0.3117  1.0759
 2373SOL    HW218579   1.744   1.741  13.296 -0.9613  2.6370 -0.1459
 2374SOL     OW18580   4.497   1.037   7.114  0.3815 -0.3595 -0.0284
 2374SOL    HW118581   4.586   1.050   7.081  0.4118 -0.4608  0.0152
 2374SOL    HW218582   4.509   0.969   7.180  0.2142  0.2787  0.6586
 2375SOL     OW18583   1.493   0.719   3.626  0.7704  0.1447  0.2653
 2375SOL    HW118584   1.415   0.731   3.680  0.3387  0.5229 -0.4281
 2375SOL    HW218585   1.452   0.655   3.568  0.0265  0.0486  0.9118
 2376SOL     OW18586   3.120   3.511  13.520  0.3170  0.6766 -0.7485
 2376SOL    HW118587   3.104   3.516  13.426 -1.3314  1.0983 -0.4387
 2376SOL    HW218588   3.044   3.558  13.553 -0.2175 -1.4704  1.0649
 2377SOL     OW18589   4.568   1.586  12.023  0.1924 -0.4131  0.2711
 2377SOL    HW118590   4.554   1.680  12.021 -0.5895 -0.5555 -1.3198
 2377SOL    HW218591   4.534   1.561  11.937  1.7767 -1.5890 -0.0263
 2378SOL     OW18592   4.289   2.290   5.076 -0.4249 -0.2133  0.2380
 2378SOL    HW118593   4.363   2.237   5.107 -1.5169 -1.9008 -0.0532
 2378SOL    HW218594   4.220   2.227   5.098 -1.7533  1.6762  1.4007
 2379SOL     OW18595   1.516   4.534  14.963 -0.1884 -0.4764  0.2993
 2379SOL    HW118596   1.551   4.565  15.046 -0.8577  0.7773  0.1155
 2379SOL    HW218597   1.420   4.537  14.969 -0.2483 -2.2729  0.1317
 2380SOL     OW18598   1.350   0.863  13.104  0.1511  0.1155  0.0214
 2380SOL    HW118599   1.258   0.836  13.106  1.2856 -3.6437  0.2423
 2380SOL    HW218600   1.394   0.790  13.146 -0.1941 -0.6253 -0.9153
 2381SOL     OW18601   0.558   0.272  12.917 -0.1665  0.6407 -0.6858
 2381SOL    HW118602   0.573   0.178  12.911  0.2412  0.6202  0.7139
 2381SOL    HW218603   0.638   0.306  12.877  1.1934 -2.8526 -0.9385
 2382SOL     OW18604   3.794   3.190   7.016  0.0583  0.2549 -0.8320
 2382SOL    HW118605   3.807   3.275   7.058  0.0634 -0.2552  0.2104
 2382SOL    HW218606   3.722   3.159   7.071 -1.1814 -0.1172 -2.6567
 2383SOL     OW18607   4.366   3.343   5.704  0.1338  0.1958  0.1166
 2383SOL    HW118608   4.381   3.267   5.648  0.8180 -0.0833  0.6793
 2383SOL    HW218609   4.397   3.301   5.785  0.2145 -1.4862 -0.7906
 2384SOL     OW18610   3.328   3.820   6.053  0.0867  0.0255  0.1937
 2384SOL    HW118611   3.344   3.832   5.959  1.2426 -0.9797  0.2497
 2384SOL    HW218612   3.334   3.726   6.070 -1.5574 -0.2160 -0.6430
 2385SOL     OW18613   4.379   4.004   0.723  0.7430 -0.4111 -0.0565
 2385SOL    HW118614   4.378   3.942   0.796  1.0437 -1.4815 -0.9615
 2385SOL    HW218615   4.472   4.022   0.717  0.8406 -0.5445  0.9627
 2386SOL     OW18616   1.586   0.875   2.139  0.2996 -0.1954 -0.3478
 2386SOL    HW118617   1.535   0.795   2.153  0.7483 -0.4195 -0.0002
 2386SOL    HW218618   1.586   0.894   2.232 -0.4519  3.3970 -1.1097
 2387SOL     OW18619   2.907   0.721   8.655  0.4131  0.1812  0.0249
 2387SOL    HW118620   2.881   0.725   8.747 -1.8312 -0.8934 -0.5694
 2387SOL    HW218621   2.991   0.677   8.669 -0.3766 -1.3372  0.0055
 2388SOL     OW18622   3.058   3.127   6.957  0.2958  0.0623  0.0526
 2388SOL    HW118623   3.144   3.119   6.916  0.4728  0.2400  0.3855
 2388SOL    HW218624   3.022   3.040   6.946 -0.8009  0.7926 -2.1459
 2389SOL     OW18625   0.732   2.532   2.374  0.5022  0.5536 -0.1109
 2389SOL    HW118626   0.718   2.452   2.323  0.9006  0.2500  0.2616
 2389SOL    HW218627   0.766   2.505   2.459  0.7316  1.0079 -0.0623
 2390SOL     OW18628   2.277   3.256   4.876 -0.0806 -0.7147 -0.2746
 2390SOL    HW118629   2.200   3.291   4.830 -0.1372  0.2550  0.5629
 2390SOL    HW218630   2.239   3.202   4.945  0.8484  1.0285  1.5759
 2391SOL     OW18631   2.112   2.450  17.393 -0.2273  0.5749  0.5372
 2391SOL    HW118632   2.057   2.399  17.452 -0.3480  0.1186  0.0270
 2391SOL    HW218633   2.195   2.401  17.400 -0.1439  0.5664 -0.5025
 2392SOL     OW18634   4.000   4.405   5.634 -0.0822  0.0968  0.2154
 2392SOL    HW118635   3.967   4.452   5.558 -2.5974 -0.5926  0.8971
 2392SOL    HW218636   3.923   4.426   5.688  0.2520  0.4781  0.5483
 2393SOL     OW18637   0.763   1.343  17.357  0.3404 -0.1656 -0.0057
 2393SOL    HW118638   0.842   1.389  17.386  0.2718 -0.8186  1.2263
 2393SOL    HW218639   0.797   1.272  17.303  1.2020  1.6077 -1.7801
 2394SOL     OW18640   1.611   4.078   4.906  0.2421 -0.5867 -0.6553
 2394SOL    HW118641   1.561   4.072   4.825 -0.6149  2.3886 -0.3610
 2394SOL    HW218642   1.577   4.154   4.953  0.9477 -1.1032  0.7071
 2395SOL     OW18643   2.305   0.619   3.923  0.2692  0.2242 -0.4894
 2395SOL    HW118644   2.253   0.566   3.863 -1.9761  0.4562  1.2456
 2395SOL    HW218645   2.392   0.585   3.902  0.1369 -0.2224 -0.3097
 2396SOL     OW18646   1.611   3.287   7.405 -0.1227  1.0150  0.0802
 2396SOL    HW118647   1.671   3.229   7.452  0.2040  2.1448  1.0289
 2396SOL    HW218648   1.590   3.349   7.474  3.3511  1.7758  0.4412
 2397SOL     OW18649   4.610   2.855   6.889 -0.4803  0.2974 -0.3624
 2397SOL    HW118650   4.580   2.820   6.973 -0.2172 -0.2788 -0.5093
 2397SOL    HW218651   4.689   2.804   6.868  0.0872  1.4784 -1.0704
 2398SOL     OW18652   0.956   0.232  12.361 -0.3087  0.0885 -0.0277
 2398SOL    HW118653   1.003   0.153  12.388 -1.2063  0.0407  1.4186
 2398SOL    HW218654   1.002   0.300  12.410 -0.8978 -0.1484  0.8607
 2399SOL     OW18655   4.297   1.308   7.848  0.2445  0.2699 -0.4110
 2399SOL    HW118656   4.213   1.313   7.802  0.4801 -0.3015 -0.9087
 2399SOL    HW218657   4.318   1.215   7.852  2.1210  0.6664 -0.7360
 2400SOL     OW18658   1.977   1.756   8.103 -0.5899  0.3327  0.7248
 2400SOL    HW118659   1.950   1.792   8.018 -2.2607  1.6358  1.8178
 2400SOL    HW218660   2.030   1.826   8.140  0.3210  0.1314 -0.1894
 2401SOL     OW18661   0.458   4.649   0.599 -0.3498  0.3079  0.0454
 2401SOL    HW118662   0.454   4.717   0.533  0.4105 -0.1140 -0.4466
 2401SOL    HW218663   0.438   4.703   0.675 -0.6557  0.9733 -0.5094
 2402SOL     OW18664   2.263   3.369   5.982  0.8192 -0.5875  0.1729
 2402SOL    HW118665   2.323   3.296   5.968  0.9925 -0.5000  0.4591
 2402SOL    HW218666   2.303   3.441   5.934  2.5311 -0.3712  1.9029
 2403SOL     OW18667   2.158   2.778   4.007  0.4878  0.2272 -0.2250
 2403SOL    HW118668   2.094   2.711   4.032 -0.7244  1.0595 -1.1203
 2403SOL    HW218669   2.130   2.794   3.917 -2.3024  0.4001  0.6801
 2404SOL     OW18670   0.918   0.297   6.280  0.3102  0.2340 -0.0277
 2404SOL    HW118671   0.894   0.273   6.191 -3.8232  0.6359  0.9751
 2404SOL    HW218672   0.911   0.392   6.276  1.1580  0.3568  1.2389
 2405SOL     OW18673   2.393   4.195   4.480  0.0483  0.1676 -0.0058
 2405SOL    HW118674   2.340   4.275   4.485 -1.3571 -0.8138  1.1195
 2405SOL    HW218675   2.399   4.185   4.385  1.6627 -0.4482  0.1636
 2406SOL     OW18676   4.669   4.283   5.607  0.2111  0.2103  0.4208
 2406SOL    HW118677   0.021   4.336   5.642  0.2650 -0.4245  1.2779
 2406SOL    HW218678   4.709   4.252   5.526 -0.3711 -0.4423  0.3857
 2407SOL     OW18679   0.878   4.663   2.707 -0.5569 -0.3645 -0.5139
 2407SOL    HW118680   0.895   0.037   2.711  0.3952 -0.4128 -3.5953
 2407SOL    HW218681   0.875   4.644   2.800 -0.0717 -0.2254 -0.4692
 2408SOL     OW18682   1.112   1.194   6.726 -0.2637 -0.3839  0.5302
 2408SOL    HW118683   1.056   1.156   6.793  1.0007 -2.4451  0.4114
 2408SOL    HW218684   1.121   1.279   6.769 -0.5394 -0.9106  1.6140
 2409SOL     OW18685   0.683   2.620   1.539  0.4797 -0.6291 -0.1511
 2409SOL    HW118686   0.598   2.597   1.503 -0.1902  2.4437 -0.5258
 2409SOL    HW218687   0.654   2.673   1.613 -0.7100 -1.1236 -0.2772
 2410SOL     OW18688   3.252   3.464   0.879  0.3245  0.1928  0.4919
 2410SOL    HW118689   3.335   3.503   0.851 -0.0852  0.8234  0.1476
 2410SOL    HW218690   3.209   3.533   0.929 -0.2928 -1.4355  2.2143
 2411SOL     OW18691   1.520   0.679  13.238 -0.4357  0.1117 -0.2178
 2411SOL    HW118692   1.544   0.602  13.290 -1.9822  0.5649  1.1982
 2411SOL    HW218693   1.607   0.717  13.241 -1.5341  2.4924  1.4862
 2412SOL     OW18694   3.458   2.193   0.480  0.1218 -0.0883  0.0660
 2412SOL    HW118695   3.405   2.114   0.487  0.8810 -0.8538 -2.6587
 2412SOL    HW218696   3.388   2.253   0.453  0.0184 -0.5211 -0.6244
 2413SOL     OW18697   3.073   0.681  11.615  0.1241 -0.1450  0.1570
 2413SOL    HW118698   3.101   0.608  11.560 -1.4006 -0.7343  0.1616
 2413SOL    HW218699   2.978   0.676  11.606  0.2296  0.8382 -1.3786
 2414SOL     OW18700   1.136   4.011   8.449  0.4614 -0.1344  0.4833
 2414SOL    HW118701   1.127   4.094   8.496 -0.7138 -0.1826  0.3613
 2414SOL    HW218702   1.044   3.985   8.459  0.4342 -0.2382 -0.0236
 2415SOL     OW18703   0.533   0.016   2.430  0.4875 -0.0381  0.3068
 2415SOL    HW118704   0.549   0.083   2.363 -0.0729  0.9666  1.1726
 2415SOL    HW218705   0.438   0.005   2.433  0.6749 -1.1503  1.8624
 2416SOL     OW18706   0.568   1.536   8.041 -0.4973  0.1471  0.2682
 2416SOL    HW118707   0.513   1.467   8.004 -0.3635 -1.3608  2.8530
 2416SOL    HW218708   0.643   1.480   8.061 -1.5395 -0.8418  1.4419
 2417SOL     OW18709   3.554   0.659   6.636  0.0505 -0.0826 -0.0343
 2417SOL    HW118710   3.507   0.742   6.638 -0.9249 -0.6922  1.5115
 2417SOL    HW218711   3.619   0.680   6.568 -0.1774  0.8240  0.0321
 2418SOL     OW18712   3.500   2.972   0.999  0.3691 -0.4459 -0.0348
 2418SOL    HW118713   3.575   2.978   0.940  0.1748  2.1579  0.0039
 2418SOL    HW218714   3.538   2.955   1.084 -0.5094 -2.4878 -0.0316
 2419SOL     OW18715   1.738   3.578   4.203  0.5066  0.0155 -0.7139
 2419SOL    HW118716   1.715   3.521   4.275  2.6307  0.8267  0.6210
 2419SOL    HW218717   1.658   3.600   4.156  0.7411 -1.1054 -1.6402
 2420SOL     OW18718   1.958   2.401   3.163  0.0031 -0.3480 -0.1922
 2420SOL    HW118719   2.019   2.353   3.219  1.7287 -0.2988 -2.0319
 2420SOL    HW218720   1.990   2.375   3.077 -1.2040  1.6434 -1.2401
 2421SOL     OW18721   2.776   3.957   3.055 -0.2501 -0.0112 -0.0079
 2421SOL    HW118722   2.821   3.926   3.133  0.2674  1.7192  0.3743
 2421SOL    HW218723   2.727   3.881   3.023  2.1405 -0.7744 -1.8369
 2422SOL     OW18724   2.451   2.952   2.786  0.5528  0.0444 -0.3426
 2422SOL    HW118725   2.439   2.903   2.704  2.3094 -0.4881 -0.2931
 2422SOL    HW218726   2.364   2.933   2.821  0.6734 -0.6986 -0.4311
 2423SOL     OW18727   1.080   3.631   5.898 -0.1670 -0.1662 -0.0742
 2423SOL    HW118728   1.022   3.561   5.867 -0.6400  1.2047 -2.2897
 2423SOL    HW218729   1.014   3.683   5.942  0.5474  1.9954 -1.5723
 2424SOL     OW18730   2.034   1.275   5.780  0.1373  1.0151  0.2864
 2424SOL    HW118731   2.087   1.203   5.747 -0.1303  1.1512 -0.4430
 2424SOL    HW218732   1.994   1.300   5.696  0.5857  2.3554  0.4725
 2425SOL     OW18733   2.639   3.576  11.079  0.5118 -0.8746 -0.5950
 2425SOL    HW118734   2.641   3.622  11.163 -0.6641 -0.0855 -0.9837
 2425SOL    HW218735   2.590   3.497  11.101  0.9624 -0.7696  0.8039
 2426SOL     OW18736   0.606   1.159  12.300  0.5516 -0.0997  0.2498
 2426SOL    HW118737   0.674   1.094  12.316  0.0647 -0.6871 -0.0651
 2426SOL    HW218738   0.542   1.142  12.368 -1.2192  0.3425 -1.3197
 2427SOL     OW18739   4.190   4.095  14.591 -0.7545 -0.2710 -0.4460
 2427SOL    HW118740   4.183   4.038  14.515  0.9133  0.5471 -1.2154
 2427SOL    HW218741   4.250   4.057  14.655 -2.3914 -0.8258  0.7673
 2428SOL     OW18742   3.883   2.505  15.869  0.2838  1.1010 -0.4201
 2428SOL    HW118743   3.910   2.440  15.933 -1.3421 -0.3186 -1.1779
 2428SOL    HW218744   3.857   2.578  15.925 -0.9889 -0.7289  1.3709
 2429SOL     OW18745   0.764   0.578   6.612 -0.1812  0.0712 -0.5272
 2429SOL    HW118746   0.732   0.577   6.522  1.1538 -0.1932 -0.9930
 2429SOL    HW218747   0.853   0.601   6.584 -0.0733  0.4433  0.0977
 2430SOL     OW18748   1.158   1.955   1.039 -0.1447 -0.3739  0.2227
 2430SOL    HW118749   1.067   1.937   1.014 -0.1848  0.1519 -0.0134
 2430SOL    HW218750   1.156   2.038   1.087  0.9223  0.0045 -0.3770
 2431SOL     OW18751   0.289   3.015   6.349 -0.2825 -0.2084  0.0272
 2431SOL    HW118752   0.319   2.983   6.435 -0.8753  0.3165  0.4303
 2431SOL    HW218753   0.300   2.932   6.303 -1.0247  0.2868 -1.0397
 2432SOL     OW18754   3.524   1.282   5.981  0.3469  0.2642 -0.2670
 2432SOL    HW118755   3.510   1.376   5.969  3.6209  0.6347 -1.2020
 2432SOL    HW218756   3.613   1.277   5.947 -0.3674  2.3682 -2.4909
 2433SOL     OW18757   3.440   1.016   1.394 -0.0509  0.1674 -0.1400
 2433SOL    HW118758   3.378   1.007   1.467 -0.1470  3.5317  0.1771
 2433SOL    HW218759   3.395   1.088   1.349 -2.1515 -0.0394  1.6052
 2434SOL     OW18760   4.549   3.147   7.565  0.3217  0.5807 -0.4749
 2434SOL    HW118761   4.482   3.085   7.593  1.7420 -0.0142  1.6022
 2434SOL    HW218762   4.598   3.156   7.647 -1.6412  0.3488  0.7224
 2435SOL     OW18763   3.928   1.899   7.351 -0.0565  0.1620 -0.4842
 2435SOL    HW118764   3.967   1.984   7.331 -1.0056  1.0227  1.2756
 2435SOL    HW218765   3.967   1.854   7.276 -0.2599  0.4071 -0.7327
 2436SOL     OW18766   3.727   1.546  14.416  0.0561 -0.4240  0.3075
 2436SOL    HW118767   3.768   1.483  14.474  0.8556  1.1777  1.4563
 2436SOL    HW218768   3.737   1.489  14.339 -2.1580  0.7664 -0.8829
 2437SOL     OW18769   1.234   0.641   8.789 -0.3267  0.3260 -0.1049
 2437SOL    HW118770   1.189   0.572   8.837  0.6869  0.7949  1.5297
 2437SOL    HW218771   1.261   0.697   8.861 -0.5371  1.0036 -0.5484
 2438SOL     OW18772   0.627   3.631   4.036  0.5309 -0.0362  0.6574
 2438SOL    HW118773   0.710   3.584   4.028  1.1782  1.2220 -0.0310
 2438SOL    HW218774   0.646   3.706   4.093  1.6375  0.5911 -0.5076
 2439SOL     OW18775   4.081   0.890   8.076  0.0518  0.5232  0.4004
 2439SOL    HW118776   4.070   0.958   8.009 -0.7220 -1.9792 -1.9741
 2439SOL    HW218777   4.156   0.839   8.044 -0.2481  0.3278  0.0128
 2440SOL     OW18778   2.480   4.498  17.070 -0.3015 -0.1683 -0.5016
 2440SOL    HW118779   2.571   4.469  17.061 -0.4045  0.0495 -2.2067
 2440SOL    HW218780   2.496   4.582  17.027 -0.3402 -0.3567 -0.8828
 2441SOL     OW18781   0.810   3.198   3.100 -0.1335 -0.3301  0.4203
 2441SOL    HW118782   0.801   3.267   3.166  0.7291  1.5812 -1.4564
 2441SOL    HW218783   0.860   3.137   3.154 -1.2079  0.3647  2.2104
 2442SOL     OW18784   3.909   4.288   4.492  0.1053  0.1243  0.9804
 2442SOL    HW118785   3.901   4.357   4.558  2.5368  1.3652 -0.0239
 2442SOL    HW218786   4.002   4.283   4.472  0.4139  0.9401  2.2154
 2443SOL     OW18787   4.154   1.928   6.223 -0.3790 -0.0551 -0.3353
 2443SOL    HW118788   4.152   1.858   6.288  0.2836  1.8230  1.7079
 2443SOL    HW218789   4.077   1.901   6.174 -1.4952  1.5750  0.5427
 2444SOL     OW18790   1.205   3.319   1.555  0.1653 -0.1563  0.4979
 2444SOL    HW118791   1.174   3.409   1.546  0.8923 -0.0823 -1.2100
 2444SOL    HW218792   1.296   3.330   1.583  0.3233 -0.7907  0.2329
 2445SOL     OW18793   2.833   3.634   9.022  0.3069  0.1248  0.8556
 2445SOL    HW118794   2.900   3.702   9.021  0.7230 -0.2953  0.3124
 2445SOL    HW218795   2.783   3.645   8.941  0.6798 -0.7597  0.5026
 2446SOL     OW18796   4.454   3.087   0.005 -0.3359 -0.2939 -0.3849
 2446SOL    HW118797   4.499   3.169   0.022  0.3380 -0.9713  1.1239
 2446SOL    HW218798   4.377   3.127  17.648  0.3826  1.5844  0.0967
 2447SOL     OW18799   0.063   0.420  13.110 -0.3023 -0.0934  0.2984
 2447SOL    HW118800   0.039   0.399  13.020  1.9438 -0.2775 -0.2742
 2447SOL    HW218801   0.156   0.442  13.097 -0.2683  0.1709  0.9916
 2448SOL     OW18802   3.404   4.674   7.373 -0.2048 -0.5317 -0.2176
 2448SOL    HW118803   3.347   0.026   7.345 -0.9804 -0.7038  0.9185
 2448SOL    HW218804   3.344   4.643   7.441 -1.9090 -0.4959 -1.7318
 2449SOL     OW18805   1.770   3.966   6.726 -0.5220 -0.6023  0.6326
 2449SOL    HW118806   1.680   3.974   6.695  0.0763 -1.5766 -1.3074
 2449SOL    HW218807   1.815   4.022   6.663  0.4777 -2.5176 -0.3361
 2450SOL     OW18808   1.406   4.191   4.074  0.4204  0.3457  0.1756
 2450SOL    HW118809   1.371   4.134   4.143  1.2040  0.7218  0.8858
 2450SOL    HW218810   1.455   4.138   4.012 -1.2737  1.4033 -2.0705
 2451SOL     OW18811   3.021   0.008   0.178 -0.3693 -0.3802 -0.4048
 2451SOL    HW118812   3.073   4.663   0.132 -0.9643 -0.3320 -1.1357
 2451SOL    HW218813   2.953   4.674   0.217  1.8649 -1.0581  2.5307
 2452SOL     OW18814   3.534   3.186   8.486 -0.2273 -0.3130  0.1541
 2452SOL    HW118815   3.506   3.235   8.563 -0.2281 -1.7064  1.0492
 2452SOL    HW218816   3.604   3.243   8.454 -0.5020  0.0602  0.2261
 2453SOL     OW18817   4.710   2.922  16.965  0.8791  0.0893 -0.9222
 2453SOL    HW118818   4.707   3.013  16.937 -4.6613  0.9379  2.6145
 2453SOL    HW218819   4.670   2.931  17.052 -2.3500 -0.7597 -2.3207
 2454SOL     OW18820   0.554   0.017   5.714 -0.2600  0.9667  0.0776
 2454SOL    HW118821   0.646   0.040   5.718  0.4448 -1.4919 -1.9867
 2454SOL    HW218822   0.526   0.036   5.803 -0.7880 -0.4159  0.2150
 2455SOL     OW18823   1.111   3.627   2.948  0.4226  0.0343  0.4174
 2455SOL    HW118824   1.064   3.646   2.867  1.6885  0.4022 -0.2367
 2455SOL    HW218825   1.042   3.602   3.009 -2.9901  3.0413 -2.2022
 2456SOL     OW18826   0.425   3.119   1.800  0.0782  0.0919  0.6267
 2456SOL    HW118827   0.354   3.177   1.773 -0.3716  0.0278  1.7187
 2456SOL    HW218828   0.486   3.129   1.726  1.3285  0.1587  1.6579
 2457SOL     OW18829   3.304   2.219   4.725  0.1557  0.0419 -0.7366
 2457SOL    HW118830   3.322   2.188   4.636  0.2032 -2.6569  0.2346
 2457SOL    HW218831   3.302   2.137   4.774  0.8373  0.6109  0.2350
 2458SOL     OW18832   1.541   0.675   7.382  0.0372 -0.1961 -0.4154
 2458SOL    HW118833   1.478   0.672   7.454 -0.1663  2.9039 -0.4584
 2458SOL    HW218834   1.616   0.712   7.429 -0.7328  1.7641 -0.6909
 2459SOL     OW18835   0.994   3.058   2.125 -0.9086  0.1042  0.2471
 2459SOL    HW118836   0.920   3.044   2.185 -1.8250  1.0842 -0.6753
 2459SOL    HW218837   1.072   3.039   2.178  0.2066  2.4787 -0.5439
 2460SOL     OW18838   1.415   1.267  14.624 -0.7862  0.2678  0.2603
 2460SOL    HW118839   1.510   1.262  14.616 -1.0838 -0.0170 -3.2556
 2460SOL    HW218840   1.405   1.362  14.621 -2.4280 -0.0051 -3.0372
 2461SOL     OW18841   0.697   0.919   6.958  0.7984  0.2241  0.1984
 2461SOL    HW118842   0.793   0.923   6.963  0.8403 -0.8235  0.2585
 2461SOL    HW218843   0.690   0.827   6.932  1.5154  0.5478 -1.1028
 2462SOL     OW18844   1.632   0.366   5.855 -0.1054  0.4460  0.2299
 2462SOL    HW118845   1.654   0.363   5.949  0.1456  1.5943  0.2127
 2462SOL    HW218846   1.712   0.407   5.821 -0.0097  1.1858  1.3237
 2463SOL     OW18847   3.502   0.302  17.243 -0.0020 -0.3652 -0.2678
 2463SOL    HW118848   3.482   0.365  17.312 -0.2056 -2.5034  1.6301
 2463SOL    HW218849   3.595   0.292  17.263  0.4437  2.2088 -1.0769
 2464SOL     OW18850   0.883   0.421  10.879  0.0246 -0.4988 -0.0377
 2464SOL    HW118851   0.901   0.402  10.971 -1.1270 -0.0240  0.2827
 2464SOL    HW218852   0.802   0.469  10.897  1.0934  1.2035  0.2135
 2465SOL     OW18853   3.009   2.599   7.861  0.1155 -0.1457 -0.1463
 2465SOL    HW118854   3.103   2.584   7.862  0.6106  3.1512  0.7100
 2465SOL    HW218855   2.979   2.550   7.938  2.1936  0.3312  0.9617
 2466SOL     OW18856   4.155   2.633   3.999 -0.0285 -0.0267 -0.3918
 2466SOL    HW118857   4.237   2.681   3.994  0.9459 -1.4527  1.8396
 2466SOL    HW218858   4.117   2.658   3.914  0.3321  0.1550 -0.4976
 2467SOL     OW18859   4.582   2.476   5.427 -0.2504 -0.2589 -0.1641
 2467SOL    HW118860   4.515   2.407   5.431  0.9186 -1.4428 -1.2240
 2467SOL    HW218861   4.584   2.520   5.512 -0.7410  2.0036 -1.3265
 2468SOL     OW18862   3.477   4.015   9.415  0.0536 -0.2049  0.0543
 2468SOL    HW118863   3.455   3.944   9.355  0.3975 -1.8305  1.8478
 2468SOL    HW218864   3.558   4.050   9.378  0.6369 -2.2602 -0.6357
 2469SOL     OW18865   0.770   0.231  11.886 -0.1135 -0.3693  0.2399
 2469SOL    HW118866   0.838   0.206  11.949 -0.8887 -1.3610  0.6821
 2469SOL    HW218867   0.750   0.151  11.836 -0.8410  0.1757 -0.3483
 2470SOL     OW18868   4.472   3.588  13.893 -0.3199 -0.1957  0.2470
 2470SOL    HW118869   4.391   3.549  13.859  0.1571  0.0628 -1.2114
 2470SOL    HW218870   4.487   3.653  13.824 -2.6141  0.4060  0.3220
 2471SOL     OW18871   0.866   0.950   2.410  0.6733  0.4710 -0.3371
 2471SOL    HW118872   0.883   0.886   2.340 -2.0632  0.5970 -1.1021
 2471SOL    HW218873   0.931   1.019   2.395  1.3076  0.0973  0.6722
 2472SOL     OW18874   3.021   3.048  11.751 -0.2542  0.0504  0.0554
 2472SOL    HW118875   2.987   2.958  11.751 -1.9715  0.6909  2.6587
 2472SOL    HW218876   2.945   3.095  11.786  0.1270  0.2162  0.6737
 2473SOL     OW18877   2.114   3.494   8.650  0.3330  0.1719  0.1074
 2473SOL    HW118878   2.156   3.553   8.587 -1.3858  2.5359  1.1497
 2473SOL    HW218879   2.141   3.413   8.608  0.3800 -0.3686  1.1675
 2474SOL     OW18880   4.038   3.755   2.641  0.2660 -0.1270 -1.0267
 2474SOL    HW118881   4.015   3.662   2.647 -0.1753 -0.0659 -1.7616
 2474SOL    HW218882   4.097   3.764   2.716 -1.7002  0.8844  0.3907
 2475SOL     OW18883   0.663   2.266   7.687 -0.1188 -0.2123  0.0703
 2475SOL    HW118884   0.573   2.275   7.655 -0.2406 -0.3558  0.3712
 2475SOL    HW218885   0.687   2.359   7.693  0.4657 -0.1974 -2.4951
 2476SOL     OW18886   4.191   4.316   7.825 -0.0158 -0.9784 -0.6650
 2476SOL    HW118887   4.224   4.246   7.882 -1.5258 -0.5180  0.7797
 2476SOL    HW218888   4.213   4.402   7.863  1.5195 -0.9845 -1.5377
 2477SOL     OW18889   3.415   1.127  15.205 -0.3390 -0.8188 -0.1461
 2477SOL    HW118890   3.425   1.051  15.262  0.0011  1.0904  2.3229
 2477SOL    HW218891   3.320   1.130  15.191 -0.5912 -0.3825  1.7075
 2478SOL     OW18892   3.489   1.923   4.391  0.3887  0.4457 -0.0782
 2478SOL    HW118893   3.402   1.965   4.389 -0.0973 -0.6425 -1.5271
 2478SOL    HW218894   3.473   1.851   4.452  1.8227  0.1672 -0.0438
 2479SOL     OW18895   1.435   2.147  17.672 -0.8101  0.2638  0.1769
 2479SOL    HW118896   1.471   2.174   0.072 -0.5024  0.9259 -0.1642
 2479SOL    HW218897   1.461   2.216  17.610  0.4398 -1.9379 -1.7255
 2480SOL     OW18898   1.801   2.317   6.736 -0.2518  0.6995 -0.0483
 2480SOL    HW118899   1.768   2.394   6.782 -0.4386  0.2494  0.5680
 2480SOL    HW218900   1.870   2.286   6.795  0.7778  2.6172 -0.2406
 2481SOL     OW18901   3.814   1.924   8.339  0.2094 -0.4812  0.3581
 2481SOL    HW118902   3.725   1.913   8.371 -0.1304  1.5379  0.0485
 2481SOL    HW218903   3.855   1.989   8.396 -0.4707  0.3468 -0.1085
 2482SOL     OW18904   4.346   0.333   2.651 -0.4452  0.3731  0.0983
 2482SOL    HW118905   4.272   0.378   2.609  0.7070  1.1453 -1.0654
 2482SOL    HW218906   4.360   0.398   2.721  0.3707  0.1368  0.1522
 2483SOL     OW18907   0.255   1.040   0.045 -0.0178  0.1362  0.4925
 2483SOL    HW118908   0.309   1.108   0.085  0.9950  1.1973 -2.7005
 2483SOL    HW218909   0.235   1.093  17.652  1.7742 -0.6851 -0.5277
 2484SOL     OW18910   3.266   2.689   7.496 -0.7129  0.1039 -0.1596
 2484SOL    HW118911   3.203   2.630   7.455  0.0799 -0.4200 -0.6068
 2484SOL    HW218912   3.344   2.634   7.505 -0.1688  0.5875 -2.0727
 2485SOL     OW18913   2.385   3.969   8.576 -0.2412 -0.0403 -0.0076
 2485SOL    HW118914   2.426   3.927   8.500  0.8461  0.3779  0.3484
 2485SOL    HW218915   2.431   4.052   8.560 -2.4244  1.1654  0.0424
 2486SOL     OW18916   3.007   0.981  14.516  0.5509  0.3573  0.6128
 2486SOL    HW118917   2.917   0.996  14.489  1.2081 -0.4714 -2.0670
 2486SOL    HW218918   3.010   1.034  14.596  1.0347 -0.1337  0.9267
 2487SOL     OW18919   0.842   4.244   7.041  0.1708  0.2824  0.0207
 2487SOL    HW118920   0.793   4.212   7.117  1.8069 -0.0862  0.9081
 2487SOL    HW218921   0.786   4.319   7.019 -0.7986 -0.2291  0.7812
 2488SOL     OW18922   3.843   4.645   1.897 -0.4754  0.3018 -0.3876
 2488SOL    HW118923   3.883   4.671   1.980 -0.6026 -3.6189  0.8710
 2488SOL    HW218924   3.896   4.680   1.825 -2.6905  0.8093 -1.7500
 2489SOL     OW18925   1.662   1.495   8.020 -0.4553 -0.5048 -0.0248
 2489SOL    HW118926   1.689   1.437   8.091  2.8270 -0.7812 -1.4888
 2489SOL    HW218927   1.567   1.485   8.017 -0.7449  2.5488 -0.7058
 2490SOL     OW18928   3.048   0.629   9.211 -0.1535 -0.5480  0.4684
 2490SOL    HW118929   3.003   0.562   9.159  0.0064 -0.6544  0.4683
 2490SOL    HW218930   2.985   0.698   9.230  0.3652 -0.2609  1.1182
 2491SOL     OW18931   3.998   3.690   4.962 -0.6318 -0.5141  0.2787
 2491SOL    HW118932   3.980   3.655   5.049 -1.1234 -2.4499 -0.6233
 2491SOL    HW218933   4.092   3.670   4.962 -0.7212 -0.9503 -2.4458
 2492SOL     OW18934   3.554   2.390  13.245  0.2265  0.4482 -0.0243
 2492SOL    HW118935   3.514   2.311  13.210 -0.1953  0.6615 -0.0252
 2492SOL    HW218936   3.589   2.366  13.331 -0.5201 -0.4614  0.0352
 2493SOL     OW18937   4.564   0.786   7.947  0.3525 -0.1063  0.2089
 2493SOL    HW118938   4.659   0.791   7.934  0.3515 -0.6020  0.0161
 2493SOL    HW218939   4.543   0.695   7.924  1.1407 -0.5526  1.2482
 2494SOL     OW18940   1.112   3.591   7.079 -0.5402  0.3056  0.3633
 2494SOL    HW118941   1.142   3.546   7.001 -0.0418 -2.4672  2.1578
 2494SOL    HW218942   1.086   3.677   7.044  2.7401  0.4062 -1.7647
 2495SOL     OW18943   0.471   1.484   3.690  0.2636 -0.0131  0.4412
 2495SOL    HW118944   0.409   1.413   3.671 -1.4941  1.2016  1.6529
 2495SOL    HW218945   0.545   1.433   3.656  0.6676  1.5690 -1.0207
 2496SOL     OW18946   4.430   4.058   1.831  0.0193  0.4064  0.3369
 2496SOL    HW118947   4.437   3.985   1.769 -0.3081  1.2310 -0.6736
 2496SOL    HW218948   4.445   4.129   1.768 -3.2704  1.0051  0.2284
 2497SOL     OW18949   1.945   0.881   5.748 -0.2061  0.2802  0.8115
 2497SOL    HW118950   2.021   0.932   5.720  0.4528 -0.9405  0.3740
 2497SOL    HW218951   1.886   0.907   5.677 -0.0873  3.9549  2.0346
 2498SOL     OW18952   2.028   4.200   5.777  0.3796 -0.2893 -0.3462
 2498SOL    HW118953   1.977   4.153   5.843 -0.7738 -0.2046 -1.1697
 2498SOL    HW218954   2.067   4.259   5.842 -0.1068  2.6668 -2.7173
 2499SOL     OW18955   3.793   2.817  16.009  0.3470 -0.3797 -0.1754
 2499SOL    HW118956   3.779   2.904  15.972 -1.6950  0.2764  2.1644
 2499SOL    HW218957   3.724   2.760  15.978  0.9317 -0.8299 -0.6401
 2500SOL     OW18958   4.005   2.838   4.733  0.7648  0.0302  0.1713
 2500SOL    HW118959   4.030   2.747   4.751 -0.9662 -0.6969 -1.1450
 2500SOL    HW218960   4.056   2.898   4.789 -1.2657  0.6400  1.3859
 2501SOL     OW18961   0.088   3.297  10.629  0.6660  0.6008 -0.1875
 2501SOL    HW118962   0.082   3.228  10.563 -2.0019 -0.1203  0.8302
 2501SOL    HW218963   0.004   3.286  10.673  1.8207  0.7881  2.0914
 2502SOL     OW18964   4.062   4.179  10.080 -0.0407  0.9524 -0.1135
 2502SOL    HW118965   4.125   4.233  10.127  0.6236  1.2621 -1.3353
 2502SOL    HW218966   3.979   4.216  10.108 -2.6883 -2.3428 -3.5850
 2503SOL     OW18967   1.125   4.352   5.669  0.2001  0.3226  0.0530
 2503SOL    HW118968   1.099   4.267   5.634  2.4614 -1.2557  2.1551
 2503SOL    HW218969   1.040   4.395   5.681  0.0992 -0.0557  0.7454
 2504SOL     OW18970   0.875   4.467   4.254 -0.3360 -0.3911  0.2975
 2504SOL    HW118971   0.961   4.474   4.297 -0.3927 -0.9918  0.5161
 2504SOL    HW218972   0.842   4.553   4.277 -1.4497 -0.6930 -0.1784
 2505SOL     OW18973   3.810   3.772  11.873 -0.1967  0.5350  0.3948
 2505SOL    HW118974   3.812   3.676  11.863  1.8787  0.7871 -1.7572
 2505SOL    HW218975   3.722   3.767  11.910  0.3755 -0.4839  1.6015
 2506SOL     OW18976   0.686   2.118   0.403  0.0736  0.0019 -0.6730
 2506SOL    HW118977   0.724   2.198   0.367  0.1187 -0.0259 -0.6870
 2506SOL    HW218978   0.653   2.146   0.489  1.7844 -0.2485  0.0496
 2507SOL     OW18979   2.975   3.238   7.552  0.3247  0.0348 -0.6847
 2507SOL    HW118980   2.965   3.251   7.646 -0.5916 -0.2021 -0.7426
 2507SOL    HW218981   3.069   3.221   7.547  0.0271 -0.6598 -4.1795
 2508SOL     OW18982   1.074   3.290   1.952  0.6746  0.1521 -0.0550
 2508SOL    HW118983   1.152   3.313   2.003 -1.1444  2.2506  1.7822
 2508SOL    HW218984   1.026   3.234   2.012  0.9541 -0.1204 -0.0846
 2509SOL     OW18985   1.310   3.424  12.730 -0.1710  0.2200 -0.2361
 2509SOL    HW118986   1.242   3.435  12.664  2.3131  2.6024 -2.4133
 2509SOL    HW218987   1.301   3.505  12.781  0.4636  0.0536  0.1415
 2510SOL     OW18988   0.406   0.545   3.561 -0.1539 -0.1229  0.1337
 2510SOL    HW118989   0.446   0.461   3.581 -0.8383 -0.7023 -0.9033
 2510SOL    HW218990   0.417   0.550   3.466  1.1362 -0.7582  0.2655
 2511SOL     OW18991   4.323   1.289  14.978 -0.0662  0.3158 -0.6667
 2511SOL    HW118992   4.269   1.339  14.917 -0.0398  0.9589 -0.1558
 2511SOL    HW218993   4.369   1.224  14.924  0.3416  0.7244 -0.8160
 2512SOL     OW18994   0.407   0.596   7.157  0.1821 -0.0468  0.2348
 2512SOL    HW118995   0.453   0.518   7.126  0.1012 -0.0024  0.0032
 2512SOL    HW218996   0.353   0.574   7.233 -2.1998  0.6990 -1.2520
 2513SOL     OW18997   1.249   3.610   8.577 -0.7067 -0.1574 -0.4097
 2513SOL    HW118998   1.210   3.637   8.660 -0.1270 -1.0730  0.1553
 2513SOL    HW218999   1.176   3.576   8.526 -0.4243 -1.6348  0.1898
 2514SOL     OW19000   4.546   3.621  14.829 -0.5277  0.1845 -0.2045
 2514SOL    HW119001   4.550   3.646  14.921 -1.0829  0.6431 -0.3013
 2514SOL    HW219002   4.605   3.688  14.793  1.4225 -0.8798  1.0127
 2515SOL     OW19003   1.450   2.160   5.171  0.3380  0.2218 -0.5797
 2515SOL    HW119004   1.381   2.175   5.235  1.7949  0.5472  0.9000
 2515SOL    HW219005   1.416   2.218   5.103 -0.8054  0.7899  0.4865
 2516SOL     OW19006   2.744   0.613  10.936  0.0506 -0.1303  0.2025
 2516SOL    HW119007   2.777   0.534  10.977 -2.2687 -0.1415  2.0305
 2516SOL    HW219008   2.651   0.591  10.934  0.2258 -0.9622  1.9152
 2517SOL     OW19009   4.286   3.342   8.359 -0.3360 -0.0401 -0.6563
 2517SOL    HW119010   4.355   3.299   8.308 -1.0983 -2.0701  0.0737
 2517SOL    HW219011   4.278   3.284   8.434 -0.6481 -0.6455 -1.1588
 2518SOL     OW19012   3.066   2.623   8.388  0.4384 -0.2367 -0.1356
 2518SOL    HW119013   3.049   2.683   8.315  1.5095 -0.0421 -0.2293
 2518SOL    HW219014   3.136   2.678   8.424  0.2191 -1.0347  1.5063
 2519SOL     OW19015   3.878   1.986  13.178  0.2740 -0.5059  0.5076
 2519SOL    HW119016   3.919   1.950  13.257 -0.0638 -1.0089  0.4600
 2519SOL    HW219017   3.949   2.036  13.138  1.2221  0.6013  3.5416
 2520SOL     OW19018   2.939   2.940  10.354  0.0635 -0.4186  0.0209
 2520SOL    HW119019   2.918   3.005  10.287  0.2142 -1.5684 -1.1287
 2520SOL    HW219020   2.990   2.996  10.412 -1.5625 -1.7277  2.7244
 2521SOL     OW19021   0.730   0.527   5.438  0.1059 -0.3013  0.0395
 2521SOL    HW119022   0.698   0.603   5.486  2.0530 -0.0014  0.8783
 2521SOL    HW219023   0.718   0.455   5.499  1.4176 -1.7047 -1.3600
 2522SOL     OW19024   1.109   2.823   1.325 -0.1050 -0.9136 -0.7710
 2522SOL    HW119025   1.043   2.794   1.262 -0.2636 -1.5392 -0.3165
 2522SOL    HW219026   1.182   2.843   1.267 -0.1977  0.0021 -0.5759
 2523SOL     OW19027   2.139   0.639   6.555 -0.1331  0.3826 -0.8781
 2523SOL    HW119028   2.188   0.561   6.583  0.7807  0.4229 -2.3684
 2523SOL    HW219029   2.158   0.687   6.636 -1.3864 -0.5302 -0.0389
 2524SOL     OW19030   3.357   3.536   6.121  0.3844 -0.7195  0.2308
 2524SOL    HW119031   3.336   3.512   6.211 -2.6557 -0.8313 -0.5050
 2524SOL    HW219032   3.361   3.451   6.077  2.3230  0.4247 -1.8464
 2525SOL     OW19033   3.848   1.019  13.170 -0.0017 -0.1848  0.9816
 2525SOL    HW119034   3.873   0.927  13.179  0.4397 -0.3226 -1.6464
 2525SOL    HW219035   3.931   1.066  13.178 -0.6609  1.1804 -0.0527
 2526SOL     OW19036   3.578   0.715   6.942 -0.4962 -0.1667  0.3370
 2526SOL    HW119037   3.551   0.629   6.909 -1.4600 -0.1041  0.9579
 2526SOL    HW219038   3.495   0.752   6.973 -1.9119 -2.4050 -0.7549
 2527SOL     OW19039   2.930   3.092   5.945  0.0559  0.2755 -0.2566
 2527SOL    HW119040   2.957   3.124   6.031 -0.4664 -0.9479  0.3633
 2527SOL    HW219041   2.961   3.162   5.886  2.2510  0.6584  1.3782
 2528SOL     OW19042   1.065   4.232   4.561 -0.2361  0.2760 -0.0461
 2528SOL    HW119043   1.057   4.149   4.606 -1.3400 -0.1605 -1.0401
 2528SOL    HW219044   1.041   4.211   4.470  0.0318  1.1838 -0.3313
 2529SOL     OW19045   0.267   3.877   8.549 -0.0406  0.4733  0.4380
 2529SOL    HW119046   0.283   3.966   8.518  0.5546 -0.0782 -0.8312
 2529SOL    HW219047   0.175   3.880   8.575 -0.0163 -1.2374  0.7080
 2530SOL     OW19048   0.655   1.159   0.285  0.1832 -0.1974 -0.4129
 2530SOL    HW119049   0.642   1.242   0.331 -1.2554 -1.1553  0.9060
 2530SOL    HW219050   0.650   1.190   0.194  1.0181  0.2808 -0.3034
 2531SOL     OW19051   1.470   3.184   8.118  0.6625  0.0043  0.2507
 2531SOL    HW119052   1.507   3.267   8.089 -0.7027  0.8324  0.8702
 2531SOL    HW219053   1.424   3.150   8.041  0.7655 -0.6092  0.4667
 2532SOL     OW19054   3.855   0.294   4.908 -0.1464 -0.5550  0.1346
 2532SOL    HW119055   3.778   0.341   4.941  1.5734  1.8969  0.6808
 2532SOL    HW219056   3.922   0.308   4.975 -0.7082  0.3852  0.5017
 2533SOL     OW19057   2.684   0.617   7.574 -0.0742 -0.2506  0.6922
 2533SOL    HW119058   2.720   0.554   7.512  1.0344  0.6401  0.4243
 2533SOL    HW219059   2.666   0.554   7.643 -0.3174  0.0801  0.9318
 2534SOL     OW19060   0.710   0.408   1.440 -0.5694  0.1534  0.1954
 2534SOL    HW119061   0.765   0.449   1.373  1.9272 -0.4729  1.8699
 2534SOL    HW219062   0.651   0.364   1.380 -1.9207  1.7374  0.3559
 2535SOL     OW19063   2.496   3.115   6.946 -0.0631 -0.2010 -0.0045
 2535SOL    HW119064   2.459   3.182   7.003 -0.5657 -0.8990  0.4905
 2535SOL    HW219065   2.424   3.099   6.885 -0.4480  1.7453 -0.0638
 2536SOL     OW19066   4.591   3.121  12.122  0.8164  0.5766 -0.5673
 2536SOL    HW119067   4.597   3.133  12.028  0.6888  0.9841 -0.5235
 2536SOL    HW219068   4.605   3.027  12.135  0.5994  0.7804  1.1883
 2537SOL     OW19069   1.790   4.034   8.931 -0.0723  1.0819 -0.2862
 2537SOL    HW119070   1.823   4.097   8.867  0.9184  0.2165 -0.6434
 2537SOL    HW219071   1.751   4.085   9.002  1.0166  3.4103 -1.3436
 2538SOL     OW19072   0.161   2.982   5.081  0.3184  0.2052  0.0669
 2538SOL    HW119073   0.172   2.900   5.130 -0.2106  0.8762  1.3244
 2538SOL    HW219074   0.066   2.985   5.093  0.4354  1.6833  0.6319
 2539SOL     OW19075   0.638   0.106  12.199  0.1654  0.2893  0.4969
 2539SOL    HW119076   0.711   0.132  12.142  0.0971  0.1474  0.3456
 2539SOL    HW219077   0.675   0.026  12.236  1.3420  0.8129  0.4599
 2540SOL     OW19078   2.285   4.673   4.668 -0.1978 -0.1801 -0.0894
 2540SOL    HW119079   2.198   4.644   4.697 -0.7935  0.3400 -1.3169
 2540SOL    HW219080   2.335   4.667   4.749 -2.1788  4.4406  1.4782
 2541SOL     OW19081   0.624   0.097   8.499  0.0701  0.0335 -0.1800
 2541SOL    HW119082   0.643   0.189   8.515  0.6318 -0.7096  3.3842
 2541SOL    HW219083   0.673   0.050   8.567 -1.3607  0.1516  0.9391
 2542SOL     OW19084   1.342   1.069  10.973  0.3158 -0.0307 -0.1832
 2542SOL    HW119085   1.351   1.155  11.013 -2.0590 -0.0423  0.3671
 2542SOL    HW219086   1.338   1.085  10.878  0.2957 -1.9060 -0.4931
 2543SOL     OW19087   0.351   4.015   9.970  0.4538 -0.6607  0.1002
 2543SOL    HW119088   0.416   3.997  10.038 -0.2953 -0.5892  0.8506
 2543SOL    HW219089   0.400   3.997   9.890  0.5487  2.3341 -0.5089
 2544SOL     OW19090   1.581   1.548   2.875  0.3821  0.3624  0.3633
 2544SOL    HW119091   1.558   1.509   2.959 -0.9167  0.5248  0.0781
 2544SOL    HW219092   1.643   1.617   2.900  1.2204  0.2372 -1.3397
 2545SOL     OW19093   2.996   4.366   5.999 -0.5591  0.1523  0.4045
 2545SOL    HW119094   2.973   4.368   6.092 -2.2310 -2.0322  0.0331
 2545SOL    HW219095   3.032   4.280   5.976  2.8317  1.6595  0.0583
 2546SOL     OW19096   2.568   2.623   6.309 -0.1719  0.3945 -0.2649
 2546SOL    HW119097   2.656   2.595   6.336  0.3372  0.8212 -1.5090
 2546SOL    HW219098   2.563   2.700   6.366  1.0543  0.3186 -0.0562
 2547SOL     OW19099   0.901   0.791   1.380 -0.3162 -0.0188 -0.6192
 2547SOL    HW119100   0.849   0.869   1.356  1.1311  0.2635 -2.8498
 2547SOL    HW219101   0.898   0.741   1.298 -0.6867  2.3944 -2.0800
 2548SOL     OW19102   1.002   4.056   9.156  0.1683 -0.4869  0.4052
 2548SOL    HW119103   1.084   4.062   9.205  0.0681  0.5036  0.4408
 2548SOL    HW219104   1.016   4.121   9.088 -1.1258 -0.5460  0.0925
 2549SOL     OW19105   3.927   3.809   1.135  0.0461 -0.1392 -0.2399
 2549SOL    HW119106   3.943   3.793   1.042 -0.0064 -0.1589 -0.2458
 2549SOL    HW219107   3.884   3.728   1.161 -0.4289  0.1582 -0.0993
 2550SOL     OW19108   2.903   0.636  13.938  0.4188  0.0830 -0.3026
 2550SOL    HW119109   2.896   0.635  14.034 -0.8519 -2.5444 -0.4168
 2550SOL    HW219110   2.947   0.553  13.922 -0.0174 -0.0700 -0.6974
 2551SOL     OW19111   2.359   2.118  14.736 -0.4140  0.6508 -0.3232
 2551SOL    HW119112   2.452   2.098  14.742 -0.4468 -0.3446 -3.5609
 2551SOL    HW219113   2.352   2.147  14.645 -0.4223  0.6825 -0.3128
 2552SOL     OW19114   0.764   3.413   2.760  0.1525  0.1320  0.2449
 2552SOL    HW119115   0.779   3.481   2.826 -3.6998  2.3671 -1.2287
 2552SOL    HW219116   0.671   3.393   2.767  0.3885 -1.8013 -2.4465
 2553SOL     OW19117   3.881   0.808   8.737  0.0136 -0.6135 -0.2388
 2553SOL    HW119118   3.829   0.748   8.685 -0.8474 -0.9568  1.0072
 2553SOL    HW219119   3.831   0.783   8.815  0.0992 -2.3006 -0.7403
 2554SOL     OW19120   0.592   1.395   6.174 -0.2253 -0.1833 -0.2029
 2554SOL    HW119121   0.639   1.420   6.254  1.4956 -2.2228 -0.6063
 2554SOL    HW219122   0.659   1.410   6.108 -1.2715 -1.1171 -1.4827
 2555SOL     OW19123   2.507   3.976  15.426 -0.8182 -0.3864 -0.1941
 2555SOL    HW119124   2.585   3.964  15.373 -0.5606  1.0846 -0.1501
 2555SOL    HW219125   2.526   3.952  15.516 -2.4012  1.3327  0.5873
 2556SOL     OW19126   2.708   4.035   3.522 -0.4478  0.8741 -0.6304
 2556SOL    HW119127   2.652   4.008   3.449 -1.3266 -0.0791  0.3853
 2556SOL    HW219128   2.644   4.048   3.592 -0.1614  1.5641 -0.5018
 2557SOL     OW19129   1.421   4.204   3.725 -0.3293  1.1140 -0.9524
 2557SOL    HW119130   1.457   4.193   3.637 -0.8382  1.8241 -1.2617
 2557SOL    HW219131   1.441   4.116   3.756 -1.4005  1.0149 -0.5440
 2558SOL     OW19132   1.455   2.279   1.262  0.0845 -0.4150  0.4221
 2558SOL    HW119133   1.403   2.359   1.252  0.6941  0.1791  1.9613
 2558SOL    HW219134   1.390   2.221   1.301  0.7074 -2.5745 -1.7461
 2559SOL     OW19135   3.662   0.311   2.404 -0.1176  0.1368  0.8013
 2559SOL    HW119136   3.640   0.228   2.447 -0.9909 -0.3368 -0.5695
 2559SOL    HW219137   3.682   0.363   2.482 -0.5920 -0.1138  1.0923
 2560SOL     OW19138   3.819   3.153  10.906  0.3788 -0.2876 -0.3187
 2560SOL    HW119139   3.888   3.194  10.958 -0.5157 -0.3790  0.9655
 2560SOL    HW219140   3.780   3.086  10.964  2.4292 -1.4928 -0.3270
 2561SOL     OW19141   2.242   2.666   6.656 -0.0893 -0.4078 -0.4045
 2561SOL    HW119142   2.260   2.647   6.748 -1.9569 -1.8678 -0.3487
 2561SOL    HW219143   2.312   2.726   6.630  0.4752 -2.4255 -3.4774
 2562SOL     OW19144   1.710   2.203  11.406  0.3822 -0.2607  0.6799
 2562SOL    HW119145   1.700   2.226  11.313  0.9049 -0.7824  0.4996
 2562SOL    HW219146   1.649   2.268  11.441  1.7892  1.8051 -0.6728
 2563SOL     OW19147   2.087   2.529   6.979 -0.1789 -0.1152 -0.0948
 2563SOL    HW119148   2.087   2.613   7.025  1.6449 -0.6861  0.9889
 2563SOL    HW219149   2.062   2.467   7.048 -0.3568  0.6862  0.5478
 2564SOL     OW19150   0.356   2.954  14.909 -0.5017 -0.0424  0.5066
 2564SOL    HW119151   0.352   2.861  14.929  0.5526 -0.0347  0.7331
 2564SOL    HW219152   0.345   2.995  14.995 -0.8141 -1.0850  0.9519
 2565SOL     OW19153   4.554   4.124   2.765 -0.2044 -0.4310  0.0963
 2565SOL    HW119154   4.604   4.057   2.719  0.4994 -0.3427  0.7375
 2565SOL    HW219155   4.583   4.203   2.718  1.2002 -1.2970 -0.5060
 2566SOL     OW19156   1.571   4.663  13.711 -0.0397  0.2058  0.2482
 2566SOL    HW119157   1.610   4.672  13.798 -0.2412  0.0004  0.3611
 2566SOL    HW219158   1.546   0.034  13.696 -2.3371 -0.6570 -1.2601
 2567SOL     OW19159   4.701   0.779   9.637 -0.5902  0.0612  0.1157
 2567SOL    HW119160   4.615   0.816   9.612 -0.1452 -1.6198 -3.9022
 2567SOL    HW219161   0.007   0.727   9.561  2.0808  0.5349  0.7237
 2568SOL     OW19162   4.676   1.613   6.085 -0.1782  0.1692 -0.3120
 2568SOL    HW119163   0.042   1.619   6.045 -0.0561 -0.4535 -0.1453
 2568SOL    HW219164   4.702   1.591   6.175 -2.5412  2.5603  0.9438
 2569SOL     OW19165   0.586   2.075  14.960  0.4496 -0.3132 -0.2405
 2569SOL    HW119166   0.561   2.164  14.935 -2.0974 -1.2697 -1.0688
 2569SOL    HW219167   0.501   2.032  14.970 -0.9294  2.9006  1.6716
 2570SOL     OW19168   3.059   0.937   8.518 -0.1868 -0.1549 -0.4772
 2570SOL    HW119169   3.127   0.973   8.575  0.2484 -1.1419 -0.3715
 2570SOL    HW219170   3.001   0.898   8.584  2.2151  1.4418  2.5429
 2571SOL     OW19171   3.323   1.578   1.017 -0.6498  0.5513 -0.0830
 2571SOL    HW119172   3.311   1.483   1.025 -1.1534  0.6869  0.6817
 2571SOL    HW219173   3.358   1.592   1.105 -1.2560 -2.3330  0.6401
 2572SOL     OW19174   3.690   1.901   6.743 -0.2280  0.0307 -0.1038
 2572SOL    HW119175   3.622   1.929   6.804 -0.2556  0.5932 -0.3897
 2572SOL    HW219176   3.685   1.808   6.766 -0.2912  0.3236  1.0402
 2573SOL     OW19177   2.849   4.068   7.628 -0.3692 -0.0078  0.3607
 2573SOL    HW119178   2.912   4.128   7.667  1.0727 -0.8706 -0.6435
 2573SOL    HW219179   2.892   3.985   7.646 -1.1311 -0.7287 -1.0955
 2574SOL     OW19180   3.674   0.878   8.122  0.0529 -0.2096  0.7440
 2574SOL    HW119181   3.741   0.931   8.080 -0.2422 -0.3699  0.0682
 2574SOL    HW219182   3.710   0.865   8.209 -2.5370 -0.9096  1.7152
 2575SOL     OW19183   3.957   3.115   6.801  0.2404 -0.9533  0.7510
 2575SOL    HW119184   4.031   3.169   6.827  0.0362 -0.5197  0.4242
 2575SOL    HW219185   3.898   3.137   6.873 -0.3907 -0.4406  0.0714
 2576SOL     OW19186   3.605   1.851   1.160 -0.2549 -0.9682  0.2632
 2576SOL    HW119187   3.533   1.914   1.155 -0.9969 -1.9009 -0.8035
 2576SOL    HW219188   3.673   1.902   1.205 -0.6497  0.3875 -0.6624
 2577SOL     OW19189   0.088   2.462   7.869 -0.0436 -0.1436 -0.2827
 2577SOL    HW119190   0.099   2.502   7.956 -0.2088  1.8568 -1.1864
 2577SOL    HW219191   0.012   2.509   7.835 -0.3231  0.2026  0.7991
 2578SOL     OW19192   2.943   4.284  17.087 -0.3641  0.1508 -0.0973
 2578SOL    HW119193   3.009   4.349  17.108 -0.0134 -0.9170  2.1326
 2578SOL    HW219194   2.958   4.220  17.157 -0.2513  0.0776 -0.1876
 2579SOL     OW19195   1.887   2.974   6.956 -0.2156 -0.0318 -0.3695
 2579SOL    HW119196   1.981   2.983   6.972 -0.3528 -1.3919  1.1570
 2579SOL    HW219197   1.865   2.941   7.043 -1.4166 -1.5693 -1.2514
 2580SOL     OW19198   3.048   0.977  12.687  0.2717 -0.1062  0.8739
 2580SOL    HW119199   3.066   0.884  12.682  1.3749  0.0503  1.9236
 2580SOL    HW219200   3.010   0.983  12.775  2.3947 -0.3484  1.8165
 2581SOL     OW19201   0.514   2.743   6.956  0.1850 -0.2465  0.5681
 2581SOL    HW119202   0.496   2.699   6.873  1.9201  0.7615 -0.3511
 2581SOL    HW219203   0.577   2.682   6.993 -0.1685 -1.3723 -0.7109
 2582SOL     OW19204   1.901   3.268   9.274  0.6743  0.2381  0.1658
 2582SOL    HW119205   1.937   3.262   9.185 -0.4396 -2.4106 -0.1011
 2582SOL    HW219206   1.975   3.238   9.327  0.0617 -2.7685 -0.6571
 2583SOL     OW19207   0.331   0.193   4.977  0.0183 -0.5890  0.3142
 2583SOL    HW119208   0.277   0.132   5.027  2.6962 -2.2495  1.2021
 2583SOL    HW219209   0.276   0.271   4.987  1.7771  0.5316  1.2108
 2584SOL     OW19210   3.746   1.829   3.223 -0.4130 -0.4190 -0.1588
 2584SOL    HW119211   3.699   1.832   3.306 -0.0851  0.4121 -0.0041
 2584SOL    HW219212   3.818   1.887   3.245 -1.9539  0.9003  1.3975
 2585SOL     OW19213   2.864   4.020  10.611 -0.0194 -0.3263  0.6877
 2585SOL    HW119214   2.809   4.043  10.686 -0.6691  0.5032 -0.0440
 2585SOL    HW219215   2.948   4.062  10.630 -1.0148  1.6570  0.6784
 2586SOL     OW19216   2.500   1.601   8.115 -0.3239  0.4666  0.0712
 2586SOL    HW119217   2.589   1.622   8.089  0.3572  0.3907  2.3732
 2586SOL    HW219218   2.504   1.505   8.117  1.6688  0.5870  1.4408
 2587SOL     OW19219   0.572   3.006   5.272  0.8330 -0.1688 -0.2249
 2587SOL    HW119220   0.543   3.026   5.361 -0.0776 -0.8446 -0.3668
 2587SOL    HW219221   0.661   2.979   5.292  0.4349  0.5692  2.5420
 2588SOL     OW19222   2.333   2.896   0.791  1.0067  0.5825  0.3991
 2588SOL    HW119223   2.383   2.960   0.841  0.8620  1.8128 -1.0382
 2588SOL    HW219224   2.295   2.839   0.858  0.3753  0.2618 -0.2317
 2589SOL     OW19225   4.253   3.858   5.434 -0.4111  0.3867  0.3429
 2589SOL    HW119226   4.186   3.915   5.396  0.4690  1.4650  0.4353
 2589SOL    HW219227   4.334   3.909   5.433  0.4732 -1.0273  0.2765
 2590SOL     OW19228   1.955   1.194   8.319 -0.2348 -0.3945 -0.6734
 2590SOL    HW119229   1.941   1.100   8.312 -1.8383 -0.2379  0.4474
 2590SOL    HW219230   2.039   1.202   8.273 -0.8070 -1.5557 -1.9132
 2591SOL     OW19231   2.989   0.018   6.622  0.5036  0.3620 -0.0451
 2591SOL    HW119232   2.982   0.105   6.585  2.2404  0.2620 -0.5984
 2591SOL    HW219233   3.030   0.040   6.706  1.5103 -0.2076 -0.3887
 2592SOL     OW19234   2.178   3.364   3.413 -0.7021  0.2328  0.0458
 2592SOL    HW119235   2.196   3.270   3.413  0.4783  0.4553  1.9200
 2592SOL    HW219236   2.123   3.364   3.334  0.5679 -0.4988 -0.8386
 2593SOL     OW19237   0.871   2.491   2.588  0.6173 -0.3859  0.4719
 2593SOL    HW119238   0.951   2.537   2.611  0.8576 -0.2250 -0.7022
 2593SOL    HW219239   0.891   2.399   2.602  0.9408 -0.2234  1.0714
 2594SOL     OW19240   4.420   3.279  10.150 -0.5010  0.2792  0.3400
 2594SOL    HW119241   4.385   3.237  10.228 -2.2017 -1.6191 -1.4451
 2594SOL    HW219242   4.512   3.250  10.147 -1.1006 -1.6433  0.5279
 2595SOL     OW19243   1.068   2.187  14.664  0.3573 -0.3094 -0.2659
 2595SOL    HW119244   1.095   2.279  14.670 -0.9429  0.2682 -3.2847
 2595SOL    HW219245   0.973   2.194  14.664  0.6747  4.1833  2.0045
 2596SOL     OW19246   0.773   0.615   5.187  0.3130 -0.2196  0.4594
 2596SOL    HW119247   0.762   0.567   5.270 -0.3513 -1.4412 -0.3362
 2596SOL    HW219248   0.707   0.579   5.128  1.4298 -0.7814 -0.4446
 2597SOL     OW19249   3.319   0.994  12.718 -0.4845 -0.0717  0.2372
 2597SOL    HW119250   3.234   1.025  12.689 -0.9550  0.1136  1.8114
 2597SOL    HW219251   3.377   1.040  12.657  0.0204  0.0361  0.7862
 2598SOL     OW19252   3.090   0.524   7.103  0.1988  0.4016 -0.4650
 2598SOL    HW119253   3.132   0.551   7.185 -0.2184 -0.6317  0.0927
 2598SOL    HW219254   3.155   0.479   7.049 -0.5794 -4.5087  2.7517
 2599SOL     OW19255   0.213   1.852   5.238 -0.3893  0.2699  0.1400
 2599SOL    HW119256   0.270   1.930   5.239 -0.1859  0.1014  1.6605
 2599SOL    HW219257   0.167   1.862   5.321 -3.7089 -0.8317 -1.5779
 2600SOL     OW19258   2.865   3.657   2.056  0.1602 -0.0581 -0.2232
 2600SOL    HW119259   2.935   3.659   1.991  0.8604 -0.1625  0.5394
 2600SOL    HW219260   2.831   3.746   2.066 -0.1750 -0.0027 -1.9362
 2601SOL     OW19261   4.006   4.459  11.165  0.6713 -0.1041  0.1578
 2601SOL    HW119262   4.004   4.482  11.258  0.9512  1.6199 -0.2698
 2601SOL    HW219263   3.937   4.514  11.127 -0.2040 -0.2468  1.5491
 2602SOL     OW19264   2.650   2.274   3.715  0.0419 -0.2395 -0.6183
 2602SOL    HW119265   2.743   2.252   3.712 -0.0654 -0.7259 -0.4033
 2602SOL    HW219266   2.646   2.353   3.662 -1.1201  1.1026  1.4451
 2603SOL     OW19267   0.472   3.738   2.408  0.3339  0.3382 -0.4271
 2603SOL    HW119268   0.461   3.701   2.321  2.2862 -0.8594 -0.1692
 2603SOL    HW219269   0.525   3.817   2.396  1.8608 -1.1142 -3.2346
 2604SOL     OW19270   0.408   3.585   2.184  0.7118 -0.0213 -0.3263
 2604SOL    HW119271   0.337   3.532   2.220  1.8617 -0.2290  1.6012
 2604SOL    HW219272   0.371   3.638   2.113 -0.5119  0.1196  0.4157
 2605SOL     OW19273   3.995   3.061   3.827 -0.1842 -0.3698 -0.4363
 2605SOL    HW119274   3.921   3.034   3.773 -0.2986  0.2276 -0.5747
 2605SOL    HW219275   3.963   3.065   3.917  0.1156 -0.4304 -0.3261
 2606SOL     OW19276   4.059   3.319  13.828  0.1264 -0.9981 -0.2530
 2606SOL    HW119277   4.025   3.266  13.756 -0.5540 -0.3226 -0.4288
 2606SOL    HW219278   4.065   3.253  13.897 -1.4152  3.6056  4.2535
 2607SOL     OW19279   1.717   2.707   3.737 -0.2406 -0.6735 -0.1307
 2607SOL    HW119280   1.771   2.653   3.794 -1.0011 -0.6612  0.6138
 2607SOL    HW219281   1.635   2.660   3.751 -1.2072  1.3046  0.8539
 2608SOL     OW19282   2.026   3.855   3.686  0.3758  0.4029  0.0259
 2608SOL    HW119283   2.032   3.934   3.739  0.8812  0.2020  0.2686
 2608SOL    HW219284   2.113   3.823   3.706  0.4372  2.3336  2.8188
 2609SOL     OW19285   2.313   4.447  12.750  0.6121 -0.2710 -0.3884
 2609SOL    HW119286   2.387   4.389  12.765  0.2137 -0.5491  0.4583
 2609SOL    HW219287   2.261   4.411  12.821 -0.9428  1.9656 -0.3998
 2610SOL     OW19288   1.165   3.097  11.913 -0.1628 -0.3737  0.2702
 2610SOL    HW119289   1.131   3.120  11.826 -1.2169 -0.1877  0.7270
 2610SOL    HW219290   1.241   3.050  11.878 -0.0755  0.3967 -0.5723
 2611SOL     OW19291   2.678   1.061   8.668  0.5856 -0.3334  0.0389
 2611SOL    HW119292   2.603   1.103   8.626 -0.0852 -1.2702  0.2860
 2611SOL    HW219293   2.734   1.136   8.653 -0.4061 -0.1381 -2.7285
 2612SOL     OW19294   2.859   1.863  14.774  0.5104 -0.1569 -0.4726
 2612SOL    HW119295   2.819   1.810  14.843  2.2357 -1.5791 -0.5494
 2612SOL    HW219296   2.951   1.843  14.792  1.0248 -0.1504 -3.0654
 2613SOL     OW19297   0.324   1.970   9.091 -0.6083 -0.1063  0.3243
 2613SOL    HW119298   0.331   1.876   9.107  2.4982  0.3936  1.8030
 2613SOL    HW219299   0.359   1.975   9.002 -1.7851 -0.8179 -0.1846
 2614SOL     OW19300   3.553   0.928   3.556  0.4275  0.7170  0.3216
 2614SOL    HW119301   3.634   0.883   3.532  0.5321  0.1203  1.7345
 2614SOL    HW219302   3.569   1.016   3.522 -3.2588  0.6664 -1.5399
 2615SOL     OW19303   3.194   1.056   2.573 -0.0231 -0.2512 -0.4413
 2615SOL    HW119304   3.248   1.105   2.511  0.9553  0.1922  0.7805
 2615SOL    HW219305   3.194   0.968   2.535 -1.4898 -1.2347  1.8441
 2616SOL     OW19306   4.500   0.274   9.480 -0.2341  0.5675  0.2379
 2616SOL    HW119307   4.582   0.301   9.521 -0.6702  2.7807 -0.3095
 2616SOL    HW219308   4.451   0.232   9.550 -1.6829  2.0099  0.1002
 2617SOL     OW19309   4.540   0.671   8.518 -0.0094 -0.0847 -0.2602
 2617SOL    HW119310   4.487   0.696   8.443  1.7063  2.6607 -0.5753
 2617SOL    HW219311   4.511   0.728   8.590  0.2841  1.1235 -1.0913
 2618SOL     OW19312   2.540   3.896   9.839  0.6605 -0.5923 -0.4593
 2618SOL    HW119313   2.609   3.831   9.850 -0.2770 -1.4781  0.2892
 2618SOL    HW219314   2.470   3.851   9.887 -1.3535  2.4134 -0.5742
 2619SOL     OW19315   0.219   2.681   9.142 -0.0034  0.5630 -0.1200
 2619SOL    HW119316   0.134   2.640   9.125 -1.0631  1.7635  2.3742
 2619SOL    HW219317   0.242   2.642   9.226  1.4086 -2.3479 -1.8465
 2620SOL     OW19318   0.809   0.348   8.317  0.0471  0.4780  0.3293
 2620SOL    HW119319   0.771   0.363   8.404  1.8158  1.7915  0.8747
 2620SOL    HW219320   0.808   0.434   8.274 -1.1197  0.9574  1.3125
 2621SOL     OW19321   4.129   2.301  10.827 -0.0743 -0.0078 -0.9491
 2621SOL    HW119322   4.193   2.370  10.812  0.4120 -0.1049  0.6671
 2621SOL    HW219323   4.161   2.267  10.911 -1.1320  2.8765  0.5918
 2622SOL     OW19324   2.310   1.932   7.818  0.0241 -0.2830 -0.1838
 2622SOL    HW119325   2.284   1.855   7.868  0.5473 -1.2686 -1.4381
 2622SOL    HW219326   2.310   2.003   7.883  0.7075 -0.5132  0.0666
 2623SOL     OW19327   2.886   0.518  11.947 -0.6889  0.2699  0.3564
 2623SOL    HW119328   2.965   0.572  11.943 -0.5059 -0.0204  0.0472
 2623SOL    HW219329   2.878   0.500  12.041  3.1552 -2.5893  0.1628
 2624SOL     OW19330   1.864   1.330   0.583 -0.2839  0.4315  0.0669
 2624SOL    HW119331   1.788   1.348   0.638 -2.0070  2.7949 -3.1182
 2624SOL    HW219332   1.843   1.245   0.544  0.5425 -1.0795  2.8514
 2625SOL     OW19333   3.867   0.337   1.475 -0.1580  0.2859  0.1419
 2625SOL    HW119334   3.913   0.397   1.417 -0.2787 -1.2990 -1.5715
 2625SOL    HW219335   3.832   0.273   1.413  0.2733  0.2477 -0.0602
 2626SOL     OW19336   2.887   2.206   8.596 -0.2452  0.2309 -0.0094
 2626SOL    HW119337   2.938   2.277   8.635 -1.0343  2.7157 -3.5085
 2626SOL    HW219338   2.807   2.215   8.648 -0.7269  0.2917 -0.7536
 2627SOL     OW19339   2.526   2.557   5.230  0.2275  0.2832 -0.9066
 2627SOL    HW119340   2.595   2.616   5.259 -1.6132  2.1562 -0.3186
 2627SOL    HW219341   2.461   2.582   5.296 -0.0831  1.8434 -1.7869
 2628SOL     OW19342   4.576   2.309   8.973 -0.3565 -0.1278  0.0142
 2628SOL    HW119343   4.627   2.238   9.012 -1.6934  0.1132  2.1500
 2628SOL    HW219344   4.588   2.298   8.878 -0.6121  1.2578 -0.1825
 2629SOL     OW19345   2.624   0.875   5.693  0.7241  0.7945  0.2119
 2629SOL    HW119346   2.657   0.787   5.675  0.0553  0.6172 -0.1683
 2629SOL    HW219347   2.629   0.908   5.604  2.4378  0.1400  0.0747
 2630SOL     OW19348   1.209   2.892   5.747 -0.3037 -0.4311 -0.1689
 2630SOL    HW119349   1.235   2.860   5.834  0.4766  0.9116  0.0920
 2630SOL    HW219350   1.231   2.820   5.689 -0.7602  0.5824 -1.5980
 2631SOL     OW19351   0.474   3.182  14.481  0.1638  0.0263 -0.6598
 2631SOL    HW119352   0.563   3.178  14.514 -0.3662  1.4614  0.9165
 2631SOL    HW219353   0.416   3.173  14.557 -1.2136 -3.1553 -2.0694
 2632SOL     OW19354   0.844   3.974   1.673 -0.1121 -0.0120  0.1313
 2632SOL    HW119355   0.913   4.008   1.731 -1.3551  1.0601  0.9851
 2632SOL    HW219356   0.871   3.888   1.643 -0.5755  0.3683 -1.3444
 2633SOL     OW19357   0.794   2.702   5.166 -0.1273  0.0700 -0.2330
 2633SOL    HW119358   0.802   2.660   5.080  1.9154 -0.3408  0.1574
 2633SOL    HW219359   0.813   2.622   5.214  0.0488  1.9354  2.7980
 2634SOL     OW19360   4.331   2.488  17.369  0.4776  0.0913  0.0047
 2634SOL    HW119361   4.237   2.475  17.376  0.3981  2.2517  3.1734
 2634SOL    HW219362   4.351   2.505  17.461 -0.3531  0.1223  0.1752
 2635SOL     OW19363   3.900   1.717  16.332  0.0811  0.0554 -0.4990
 2635SOL    HW119364   3.890   1.628  16.298  0.1544 -0.1589  0.0442
 2635SOL    HW219365   3.829   1.772  16.297  1.0960  0.4846 -1.8717
 2636SOL     OW19366   1.369   0.810   2.634 -0.0910 -0.5090 -0.1008
 2636SOL    HW119367   1.393   0.897   2.668 -1.1190 -0.3083  0.1004
 2636SOL    HW219368   1.448   0.768   2.601  0.3440  0.5095 -0.3845
 2637SOL     OW19369   0.728   2.684  16.868 -0.0204  0.4683 -0.8408
 2637SOL    HW119370   0.770   2.651  16.789  1.2318 -0.1576  0.0948
 2637SOL    HW219371   0.791   2.746  16.905 -0.2762 -0.0618  0.4995
 2638SOL     OW19372   2.369   2.867   7.236 -0.0460  0.8950 -0.1610
 2638SOL    HW119373   2.436   2.836   7.296  0.5353  1.6629 -0.4171
 2638SOL    HW219374   2.419   2.847   7.157  1.4161  0.1957  0.9416
 2639SOL     OW19375   2.928   3.343   6.714  0.4548 -0.0032 -0.4969
 2639SOL    HW119376   2.879   3.279   6.765 -1.4893 -1.4264 -4.0934
 2639SOL    HW219377   2.975   3.394   6.780 -2.5334  0.1106  1.5050
 2640SOL     OW19378   1.077   4.009   6.735  0.0834 -0.3615  0.2218
 2640SOL    HW119379   1.048   3.996   6.644  2.6361 -0.3031 -0.5816
 2640SOL    HW219380   1.031   3.936   6.778 -1.5476  0.0645 -0.7851
 2641SOL     OW19381   0.125   4.691  15.530  0.4763  0.0073 -0.3389
 2641SOL    HW119382   0.155   4.628  15.464 -3.1212  0.5056 -2.4271
 2641SOL    HW219383   0.211   4.708  15.569  0.0755 -0.4109  0.7237
 2642SOL     OW19384   0.083   0.046  16.520  0.2624 -0.3037  0.2214
 2642SOL    HW119385   0.018   0.025  16.454 -0.5783  2.5705  0.1580
 2642SOL    HW219386   0.120   0.124  16.478 -1.5932  0.0003 -0.8561
 2643SOL     OW19387   1.514   0.487  16.593 -0.1193  0.6854 -0.4956
 2643SOL    HW119388   1.607   0.474  16.578 -0.4167  0.7991 -2.4538
 2643SOL    HW219389   1.502   0.474  16.687 -0.3432  1.4922 -0.4107
 2644SOL     OW19390   3.111   1.640   2.958 -0.0551 -1.0380 -0.5781
 2644SOL    HW119391   3.194   1.673   2.923 -0.6226  1.1320  0.1046
 2644SOL    HW219392   3.067   1.685   2.885 -0.2188  1.5162  1.0769
 2645SOL     OW19393   2.846   0.263   6.839  0.2990 -0.5137  0.0350
 2645SOL    HW119394   2.751   0.260   6.828 -0.1073  1.8145  2.7384
 2645SOL    HW219395   2.853   0.354   6.869 -0.4456 -0.2989 -0.4397
 2646SOL     OW19396   4.205   1.190   6.005  0.0239  0.8217 -0.0658
 2646SOL    HW119397   4.215   1.097   5.985 -4.9280  0.3025 -0.0273
 2646SOL    HW219398   4.295   1.222   5.995  0.0586  0.6688 -0.2405
 2647SOL     OW19399   1.206   2.406   1.666  0.1383 -0.0539  0.6835
 2647SOL    HW119400   1.160   2.476   1.712  1.3834  2.0561 -1.2593
 2647SOL    HW219401   1.293   2.442   1.680 -0.4811  1.1602  1.3569
 2648SOL     OW19402   2.764   0.968   7.832 -0.5559 -0.2935 -0.0981
 2648SOL    HW119403   2.860   0.967   7.830 -0.5140  1.5193  0.9154
 2648SOL    HW219404   2.754   1.022   7.911  0.9354 -0.1165 -0.0265
 2649SOL     OW19405   0.113   0.264   9.991  0.1985 -0.5290  0.1754
 2649SOL    HW119406   0.205   0.255   9.964  0.6310  0.4165  1.3099
 2649SOL    HW219407   0.093   0.172  10.010  1.6173 -1.2502 -1.7752
 2650SOL     OW19408   2.220   1.421  13.839 -0.2535  0.5778  0.5623
 2650SOL    HW119409   2.136   1.438  13.883 -0.4554 -1.8798  1.1345
 2650SOL    HW219410   2.213   1.471  13.758 -0.2637  0.7600  0.6749
 2651SOL     OW19411   2.784   3.456   6.490 -0.5024 -0.0725 -0.1314
 2651SOL    HW119412   2.732   3.378   6.468 -0.1162  0.5475 -3.1346
 2651SOL    HW219413   2.814   3.418   6.573  0.5307  0.0693 -0.4415
 2652SOL     OW19414   3.236   1.289   8.561 -0.2335  0.1550 -0.2400
 2652SOL    HW119415   3.269   1.262   8.475 -0.7896  0.7074 -0.6204
 2652SOL    HW219416   3.248   1.212   8.618  0.4635 -1.2188 -2.2199
 2653SOL     OW19417   1.934   1.848   4.089  0.3029 -1.1937 -0.0177
 2653SOL    HW119418   1.900   1.795   4.161  0.5243 -0.3654  0.6934
 2653SOL    HW219419   2.026   1.866   4.108  0.0479 -1.1427  1.1685
 2654SOL     OW19420   3.263   3.886   9.616  0.5650 -0.1928  0.4307
 2654SOL    HW119421   3.202   3.815   9.640  2.3074 -1.8013  0.0519
 2654SOL    HW219422   3.322   3.853   9.548 -1.8598 -0.6823 -1.4475
 2655SOL     OW19423   1.830   3.738   8.061 -0.4861 -0.1034 -0.2019
 2655SOL    HW119424   1.887   3.711   8.132  0.7090  2.3785 -0.2192
 2655SOL    HW219425   1.867   3.678   7.996  0.7099  1.1625 -0.7167
 2656SOL     OW19426   0.680   0.822   1.767  0.1862 -0.1558  0.3508
 2656SOL    HW119427   0.751   0.857   1.714  0.1163  1.3707  1.2762
 2656SOL    HW219428   0.694   0.728   1.756 -1.3246 -0.3462  0.0113
 2657SOL     OW19429   1.840   0.580   5.813  0.4329  0.1980  0.0466
 2657SOL    HW119430   1.850   0.675   5.820  1.0046  0.0810  0.8014
 2657SOL    HW219431   1.930   0.556   5.794  0.5507 -0.0632  0.9455
 2658SOL     OW19432   1.226   3.154   2.772 -0.6953  0.4077 -0.3272
 2658SOL    HW119433   1.222   3.221   2.840  1.2219  1.7098 -1.4961
 2658SOL    HW219434   1.154   3.190   2.721  1.4267  0.5676 -3.1708
 2659SOL     OW19435   1.813   1.755   4.818  0.1860 -0.0291  0.1609
 2659SOL    HW119436   1.820   1.798   4.733  1.3317 -1.5903 -0.5273
 2659SOL    HW219437   1.902   1.759   4.852  0.0541 -1.1657  0.6443
 2660SOL     OW19438   1.392   2.945   6.531 -0.1616 -0.1709  0.2072
 2660SOL    HW119439   1.437   2.861   6.521 -1.1324 -0.6087 -0.4796
 2660SOL    HW219440   1.465   3.005   6.548 -0.4990  0.1336  0.5564
 2661SOL     OW19441   1.208   4.457   5.367 -0.2894 -0.2999  0.3533
 2661SOL    HW119442   1.197   4.549   5.346  0.9468 -0.3891 -0.6804
 2661SOL    HW219443   1.206   4.458   5.463  1.9551 -0.1123  0.4114
 2662SOL     OW19444   0.977   0.598   3.568 -0.0852  0.0390  0.1272
 2662SOL    HW119445   0.938   0.657   3.633  1.6474 -0.4476  1.6247
 2662SOL    HW219446   1.049   0.650   3.533 -0.6944 -0.9453 -2.5708
 2663SOL     OW19447   3.503   3.498  12.765  0.2728  0.5509 -0.3414
 2663SOL    HW119448   3.490   3.404  12.775  1.6928  0.5324  1.2116
 2663SOL    HW219449   3.580   3.501  12.821 -0.2465 -0.3633  0.4237
 2664SOL     OW19450   1.720   2.939   5.787  0.7964  0.5026 -0.3882
 2664SOL    HW119451   1.724   2.949   5.882 -0.8818 -0.1083 -0.2546
 2664SOL    HW219452   1.629   2.970   5.786  0.9256  0.8787 -0.5477
 2665SOL     OW19453   0.595   4.287   4.344 -0.3581  0.6443  0.0878
 2665SOL    HW119454   0.650   4.309   4.269  0.1866 -0.2777  0.2218
 2665SOL    HW219455   0.512   4.261   4.302  0.9211 -1.9130 -0.8440
 2666SOL     OW19456   1.805   1.448   1.614 -0.0929  0.0253 -0.2969
 2666SOL    HW119457   1.812   1.510   1.687  0.4370 -0.9079  0.4535
 2666SOL    HW219458   1.895   1.415   1.609  0.6909  2.3148 -1.5191
 2667SOL     OW19459   4.295   0.513  13.675 -0.0212  0.0429  0.6163
 2667SOL    HW119460   4.266   0.563  13.751  2.6789  0.3129  1.4674
 2667SOL    HW219461   4.234   0.439  13.671  0.7798 -0.4779 -1.6839
 2668SOL     OW19462   4.571   3.776   9.417 -0.4216 -0.0213 -0.0740
 2668SOL    HW119463   4.489   3.729   9.430 -1.0331  0.5303 -1.9055
 2668SOL    HW219464   4.578   3.767   9.322  1.9122 -0.9663  0.1851
 2669SOL     OW19465   0.741   2.004   4.357  0.8914  0.5170  0.3459
 2669SOL    HW119466   0.732   1.949   4.279  0.7078  0.5350  0.3554
 2669SOL    HW219467   0.829   2.043   4.357  1.3310 -0.4701  0.6361
 2670SOL     OW19468   2.322   1.811   3.370  0.1191  0.2818 -0.1661
 2670SOL    HW119469   2.295   1.902   3.365 -0.7291  0.1613  1.9936
 2670SOL    HW219470   2.383   1.804   3.296 -1.6184 -0.7883 -1.5120
 2671SOL     OW19471   4.608   1.350   5.574 -0.3925  0.1114 -0.2808
 2671SOL    HW119472   4.532   1.316   5.527  0.5770 -2.0458 -0.2989
 2671SOL    HW219473   4.555   1.369   5.652  0.1453  1.0047 -0.1350
 2672SOL     OW19474   1.376   3.679   1.396 -0.3382 -0.3644 -0.4842
 2672SOL    HW119475   1.457   3.718   1.431  0.5357  0.2047 -3.1210
 2672SOL    HW219476   1.338   3.635   1.471  0.0388 -0.9440 -0.6333
 2673SOL     OW19477   4.267   2.996   6.595  0.0103 -0.0210 -0.0912
 2673SOL    HW119478   4.286   3.090   6.591  1.5502 -0.2593  1.8563
 2673SOL    HW219479   4.218   2.987   6.677 -1.2845  0.0090 -0.8704
 2674SOL     OW19480   1.510   1.950  13.263  0.1498 -0.4072 -0.9039
 2674SOL    HW119481   1.479   1.891  13.332  0.4445 -0.1118 -0.5165
 2674SOL    HW219482   1.601   1.926  13.248 -0.0452 -0.9467 -1.2304
 2675SOL     OW19483   2.978   1.146  13.912  0.0067 -0.5200 -0.0686
 2675SOL    HW119484   3.069   1.173  13.904 -0.2170  0.2301 -0.1061
 2675SOL    HW219485   2.934   1.193  13.840  1.4233  2.2322  0.8684
 2676SOL     OW19486   1.994   4.311  16.120  0.0147 -0.3758  0.2610
 2676SOL    HW119487   1.940   4.329  16.043 -1.5665  0.6057  1.6071
 2676SOL    HW219488   1.971   4.395  16.158  2.0005 -0.9082  2.6692
 2677SOL     OW19489   0.101   2.445   3.984  0.3193  0.1253 -0.3196
 2677SOL    HW119490   0.068   2.418   4.069  3.3607 -1.3444  0.3950
 2677SOL    HW219491   0.192   2.449   4.013 -0.0138  3.2567  0.3157
 2678SOL     OW19492   2.208   2.956   7.442  0.0088  0.5869 -0.3773
 2678SOL    HW119493   2.166   3.039   7.418 -2.1324 -0.2364  0.5609
 2678SOL    HW219494   2.277   2.940   7.378  0.1027 -1.7107  0.3220
 2679SOL     OW19495   3.958   3.658  12.883  0.1093  0.2729  0.5002
 2679SOL    HW119496   3.978   3.745  12.848 -3.5289  0.8947 -0.0887
 2679SOL    HW219497   4.026   3.641  12.948 -1.0740  0.5656  1.8244
 2680SOL     OW19498   2.480   1.362  16.825  0.5344 -0.2712 -0.0709
 2680SOL    HW119499   2.463   1.413  16.905 -1.1015  0.1964 -0.7212
 2680SOL    HW219500   2.547   1.421  16.789 -0.2710  0.6300 -0.0943
 2681SOL     OW19501   1.677   3.958   7.674  0.5745  0.4966  0.1036
 2681SOL    HW119502   1.645   3.893   7.612  0.6962  0.3618  0.1826
 2681SOL    HW219503   1.627   3.926   7.749 -0.6551  0.6986 -0.6153
 2682SOL     OW19504   0.143   3.269   8.249 -0.0416 -0.0917  0.0499
 2682SOL    HW119505   0.116   3.248   8.338 -1.6038 -1.1458 -0.6865
 2682SOL    HW219506   0.233   3.298   8.268  0.1263 -0.9344  0.5581
 2683SOL     OW19507   0.044   3.467   6.607  0.6048  0.1561 -0.1850
 2683SOL    HW119508   0.096   3.426   6.675  0.6282 -1.4754 -1.1910
 2683SOL    HW219509   0.042   3.554   6.647  0.7412  1.2087 -2.4336
 2684SOL     OW19510   1.867   1.036   6.285 -0.3015 -0.0547  0.0166
 2684SOL    HW119511   1.893   1.120   6.247 -1.6402 -0.0824 -0.9537
 2684SOL    HW219512   1.944   1.001   6.331  0.8732  1.6109 -0.6911
 2685SOL     OW19513   2.374   0.065  14.260 -0.3801  0.0477 -0.3321
 2685SOL    HW119514   2.278   0.057  14.257 -0.3168 -0.2592 -2.0306
 2685SOL    HW219515   2.396   0.132  14.195  3.0312 -0.3076  0.4708
 2686SOL     OW19516   1.322   4.444   3.825 -0.1612  0.0644  0.2502
 2686SOL    HW119517   1.378   4.371   3.800 -1.5686 -1.1562  0.6427
 2686SOL    HW219518   1.237   4.402   3.835 -0.2848  0.1852 -0.2915
 2687SOL     OW19519   3.281   4.624   9.465  0.2251 -0.0085 -0.1886
 2687SOL    HW119520   3.230   4.672   9.530 -0.9806 -0.3080 -0.9029
 2687SOL    HW219521   3.361   4.596   9.509 -0.8701 -4.3854 -0.9169
 2688SOL     OW19522   0.330   1.317  17.219 -0.3352 -0.0189  0.3097
 2688SOL    HW119523   0.368   1.317  17.131 -2.6520 -1.7438 -0.6824
 2688SOL    HW219524   0.409   1.322  17.273  0.3611  0.4883 -0.7374
 2689SOL     OW19525   1.186   1.353   6.215 -0.5179  0.3261  0.5185
 2689SOL    HW119526   1.157   1.301   6.290  0.0758 -2.2964 -1.0776
 2689SOL    HW219527   1.281   1.353   6.232 -0.0613  0.6978 -1.9878
 2690SOL     OW19528   3.460   1.619   3.557  0.2810 -0.0545 -0.2889
 2690SOL    HW119529   3.542   1.577   3.585  0.1296  1.6468  2.7310
 2690SOL    HW219530   3.456   1.592   3.466 -1.1896 -0.6959 -0.0400
 2691SOL     OW19531   0.111   0.291   3.444  0.0531  0.0728  0.6563
 2691SOL    HW119532   0.175   0.322   3.381 -0.9502  0.2216 -0.3044
 2691SOL    HW219533   0.078   0.373   3.481 -0.9629  0.7492 -1.7437
 2692SOL     OW19534   3.024   0.151   3.095 -0.3524  0.2954  0.2993
 2692SOL    HW119535   3.065   0.078   3.050 -1.5387 -0.2131  0.0529
 2692SOL    HW219536   3.097   0.212   3.099 -0.4953  0.3705  1.8281
 2693SOL     OW19537   2.329   2.170   8.052  0.4211 -0.0011  0.1623
 2693SOL    HW119538   2.418   2.188   8.081  0.6771 -1.1761  0.0843
 2693SOL    HW219539   2.300   2.236   7.989  0.2550  1.7070  2.0422
 2694SOL     OW19540   3.303   3.797   6.702 -0.4098 -0.1539 -0.0342
 2694SOL    HW119541   3.279   3.883   6.735  2.3748  0.1113  1.2948
 2694SOL    HW219542   3.247   3.744   6.757 -0.5296 -1.0691 -1.0379
 2695SOL     OW19543   1.963   2.978  10.761 -0.1842 -0.1411 -0.3923
 2695SOL    HW119544   1.961   3.061  10.809 -1.8398 -1.2366  1.4353
 2695SOL    HW219545   2.021   3.001  10.688  0.4863  0.0888  0.2248
 2696SOL     OW19546   1.873   1.985   0.554  0.1267 -0.5736 -0.0075
 2696SOL    HW119547   1.919   1.901   0.557 -0.9838 -1.1685  0.2463
 2696SOL    HW219548   1.814   1.977   0.479 -1.1992 -0.7497  1.0443
 2697SOL     OW19549   1.459   1.131  16.854 -0.5872 -0.4926  0.3342
 2697SOL    HW119550   1.461   1.200  16.787  1.1989 -0.1608  0.7119
 2697SOL    HW219551   1.383   1.083  16.823  0.1673 -0.0627 -2.1595
 2698SOL     OW19552   4.604   3.838   2.094 -0.0488  0.2312  0.4430
 2698SOL    HW119553   4.697   3.819   2.099 -0.3035 -1.2954 -0.8788
 2698SOL    HW219554   4.601   3.921   2.142  2.4033  0.3190  0.4268
 2699SOL     OW19555   0.303   1.655   8.699  0.1822  0.4028  0.1487
 2699SOL    HW119556   0.398   1.643   8.705 -0.0874 -1.9342 -0.4012
 2699SOL    HW219557   0.273   1.607   8.776  0.7312  1.9498  1.3389
 2700SOL     OW19558   4.703   2.009   9.874 -0.3120  0.1263 -0.0120
 2700SOL    HW119559   4.680   2.101   9.883  0.8498  0.4149  0.0365
 2700SOL    HW219560   4.681   1.977   9.962  2.3085  0.1133  0.6403
 2701SOL     OW19561   4.118   3.868  13.687 -0.5954 -0.2111  0.7578
 2701SOL    HW119562   4.095   3.783  13.650  2.0277 -1.9442  3.0740
 2701SOL    HW219563   4.042   3.876  13.744 -2.4128 -0.1040 -1.6974
 2702SOL     OW19564   1.103   3.243  14.899  0.3861  0.1685 -0.4974
 2702SOL    HW119565   1.028   3.302  14.890  0.2954 -0.0559 -1.2413
 2702SOL    HW219566   1.084   3.195  14.980 -0.3768  0.9292 -0.2234
 2703SOL     OW19567   3.263   0.172   7.274 -0.2988 -0.2483  0.6248
 2703SOL    HW119568   3.177   0.173   7.316 -0.7963  0.1644 -0.4126
 2703SOL    HW219569   3.238   0.165   7.182  1.9023 -0.0269  0.0192
 2704SOL     OW19570   2.078   0.712   9.643 -0.4383  0.2663 -0.0356
 2704SOL    HW119571   2.130   0.634   9.628 -0.8900 -0.3862  1.8361
 2704SOL    HW219572   1.994   0.690   9.604 -1.2437  1.5467  0.9514
 2705SOL     OW19573   0.316   4.110   7.425  0.6114  0.3774  0.2302
 2705SOL    HW119574   0.307   4.018   7.450  0.2374  0.4154  0.2375
 2705SOL    HW219575   0.266   4.115   7.343  0.1580 -0.8594  0.4258
 2706SOL     OW19576   1.819   1.813   5.137  0.1975 -0.1443 -0.2866
 2706SOL    HW119577   1.725   1.818   5.120  0.1227 -3.3390 -0.6846
 2706SOL    HW219578   1.810   1.747   5.205 -1.0772 -1.2197 -1.5048
 2707SOL     OW19579   0.538   3.391   2.394  0.1113  0.6097  0.1958
 2707SOL    HW119580   0.563   3.367   2.304  0.2310  1.4472  0.0044
 2707SOL    HW219581   0.546   3.307   2.438  2.4746  0.9535  0.4519
 2708SOL     OW19582   4.115   0.721   9.001 -0.1489  0.0255 -0.0144
 2708SOL    HW119583   4.121   0.745   9.093 -0.8011 -0.7240  0.2225
 2708SOL    HW219584   4.200   0.746   8.964  0.5234 -0.7235  1.0394
 2709SOL     OW19585   4.070   2.834   0.185 -0.0931  0.1791 -0.1069
 2709SOL    HW119586   4.165   2.845   0.173 -0.0366  0.0435  0.2041
 2709SOL    HW219587   4.053   2.862   0.275  1.7229  0.2734  0.2054
 2710SOL     OW19588   3.052   2.288   4.424 -0.5110  0.2978  0.1599
 2710SOL    HW119589   2.990   2.216   4.416 -0.3287  0.1734 -0.1722
 2710SOL    HW219590   3.014   2.343   4.356 -0.2341  0.7037  0.3368
 2711SOL     OW19591   2.083   3.969   0.823  0.4401 -0.0907  0.3877
 2711SOL    HW119592   2.005   4.014   0.791  0.0933  0.3658  1.8739
 2711SOL    HW219593   2.095   4.001   0.913 -1.4055  0.1717  0.5423
 2712SOL     OW19594   3.121   2.930   6.231 -0.0624  0.3464 -0.2439
 2712SOL    HW119595   3.091   3.008   6.184  0.4036  0.7256  0.0847
 2712SOL    HW219596   3.201   2.906   6.184 -0.7450 -0.7554 -0.8426
 2713SOL     OW19597   2.248   1.791  15.572  0.6291  0.6762 -0.0839
 2713SOL    HW119598   2.284   1.804  15.660  1.7218 -1.0111 -0.2881
 2713SOL    HW219599   2.276   1.879  15.545  1.3533  0.9470  1.5611
 2714SOL     OW19600   3.629   4.091   3.577 -0.3968 -0.7931 -0.3636
 2714SOL    HW119601   3.598   4.178   3.603 -1.8027 -1.1917 -0.7031
 2714SOL    HW219602   3.575   4.076   3.500 -0.8203  0.4059 -0.2994
 2715SOL     OW19603   0.509   4.459   5.679  0.1995 -0.0171 -0.0307
 2715SOL    HW119604   0.561   4.475   5.758 -0.7432  1.7165  0.2394
 2715SOL    HW219605   0.473   4.546   5.661 -0.0874 -0.0465  0.3833
 2716SOL     OW19606   1.371   1.818   7.098 -0.0175 -0.3679  0.1653
 2716SOL    HW119607   1.383   1.767   7.179 -3.3191 -1.5000 -0.0813
 2716SOL    HW219608   1.446   1.793   7.044 -0.7070  0.1527 -1.0218
 2717SOL     OW19609   2.019   2.819   0.251 -0.0542 -0.4928  0.4350
 2717SOL    HW119610   1.988   2.805   0.340  1.9841  0.8877  1.3697
 2717SOL    HW219611   2.085   2.888   0.259  1.3665 -1.8241  0.2534
 2718SOL     OW19612   2.978   3.807   3.575  0.2078 -0.1022  0.1867
 2718SOL    HW119613   2.925   3.871   3.622 -0.7561  0.6036 -1.8543
 2718SOL    HW219614   3.056   3.859   3.555  2.6566 -3.0743  2.1910
 2719SOL     OW19615   0.013   1.608   0.978 -0.5680 -0.2632  0.3457
 2719SOL    HW119616   4.665   1.615   0.912 -0.3728  1.6453  0.3415
 2719SOL    HW219617   4.707   1.663   1.052 -0.3391 -0.1330  0.3310
 2720SOL     OW19618   4.712   1.967   6.184  0.0755  0.0622 -0.4338
 2720SOL    HW119619   0.032   2.029   6.244  0.4102 -0.7375  0.1639
 2720SOL    HW219620   0.071   1.931   6.145  1.2160 -0.0183  1.9810
 2721SOL     OW19621   3.988   2.380   4.436  0.3427  0.8548  0.2183
 2721SOL    HW119622   3.956   2.444   4.499 -1.3687  0.3772 -0.1876
 2721SOL    HW219623   4.059   2.332   4.478  2.0187  1.8771 -1.4084
 2722SOL     OW19624   3.285   4.324   3.193 -0.5710 -0.0025  0.6550
 2722SOL    HW119625   3.256   4.233   3.198  0.8329 -0.4844  0.0234
 2722SOL    HW219626   3.255   4.340   3.103 -0.9678 -0.4732  0.7031
 2723SOL     OW19627   3.833   1.807   8.090 -0.1597  0.1925 -0.0794
 2723SOL    HW119628   3.829   1.830   8.183 -0.6354 -0.3345  0.0329
 2723SOL    HW219629   3.764   1.741   8.089 -0.6874  0.7518 -0.1997
 2724SOL     OW19630   3.293   3.952   4.393 -0.3158 -0.0280 -0.3043
 2724SOL    HW119631   3.265   4.006   4.318  1.7361  1.8946  0.3070
 2724SOL    HW219632   3.268   4.017   4.459  0.3050 -2.1099  1.9751
 2725SOL     OW19633   1.136   2.134  17.248 -0.3954  0.0018  0.6555
 2725SOL    HW119634   1.141   2.165  17.339 -0.7936  0.7456  0.4232
 2725SOL    HW219635   1.221   2.148  17.205 -0.3508 -2.6048 -0.0791
 2726SOL     OW19636   2.111   2.826   3.734 -0.3291  0.2209 -0.6263
 2726SOL    HW119637   2.205   2.813   3.733 -0.4814 -1.0980  2.4780
 2726SOL    HW219638   2.085   2.865   3.650 -0.8971  1.3849  0.0819
 2727SOL     OW19639   1.885   0.676   8.244  0.1929  0.2767 -0.1001
 2727SOL    HW119640   1.970   0.697   8.205  0.4436 -0.8628 -0.1757
 2727SOL    HW219641   1.907   0.583   8.253  0.7540  0.4712  0.5570
 2728SOL     OW19642   1.395   2.619   2.187  0.5224  0.3727  0.1733
 2728SOL    HW119643   1.418   2.526   2.186 -1.9099 -0.2459  2.3178
 2728SOL    HW219644   1.300   2.612   2.177  0.5558  0.6616 -0.3472
 2729SOL     OW19645   2.550   4.118  12.368 -1.0930  0.6557 -0.1462
 2729SOL    HW119646   2.554   4.213  12.367  1.7219  0.5644  1.1718
 2729SOL    HW219647   2.487   4.102  12.298  0.1589  1.4713 -1.4440
 2730SOL     OW19648   2.136   3.726  11.625 -0.2165  0.1509 -0.2248
 2730SOL    HW119649   2.221   3.714  11.666 -0.9047 -0.4179  1.0607
 2730SOL    HW219650   2.151   3.756  11.536 -1.2829  0.4827 -0.2918
 2731SOL     OW19651   0.456   0.519   8.913 -0.6240 -0.0497  0.1814
 2731SOL    HW119652   0.449   0.473   8.996 -0.8993  0.4661  0.4411
 2731SOL    HW219653   0.503   0.601   8.926 -0.2352 -0.1780 -0.4204
 2732SOL     OW19654   1.431   1.068   3.406  0.2252 -0.4352  0.1376
 2732SOL    HW119655   1.400   1.095   3.320 -0.2351  0.0716  0.4656
 2732SOL    HW219656   1.468   1.146   3.446  0.1898  0.1133 -0.9198
 2733SOL     OW19657   4.279   3.435  13.754  0.0260  0.1465 -0.4178
 2733SOL    HW119658   4.340   3.372  13.792 -0.0212  2.1179  2.9676
 2733SOL    HW219659   4.198   3.387  13.773  0.2350  0.8388  2.1922
 2734SOL     OW19660   4.168   3.512   7.342 -0.1389 -0.4540 -0.4552
 2734SOL    HW119661   4.094   3.486   7.397  1.4643 -1.4117  1.2389
 2734SOL    HW219662   4.172   3.438   7.281  0.2668 -0.2948 -0.6208
 2735SOL     OW19663   3.419   1.460   7.949 -0.9429  0.2416  0.2419
 2735SOL    HW119664   3.416   1.366   7.966 -0.3231  0.5226  1.8358
 2735SOL    HW219665   3.327   1.483   7.954 -0.8437  0.1346  2.3910
 2736SOL     OW19666   0.772   4.269   3.206  0.7677  0.3088  0.3012
 2736SOL    HW119667   0.778   4.177   3.232 -0.8992  0.7241  2.1165
 2736SOL    HW219668   0.846   4.321   3.236  0.1065  1.2211  0.3399
 2737SOL     OW19669   1.632   1.928  13.789  1.1821 -0.2956 -0.1490
 2737SOL    HW119670   1.684   1.944  13.710  0.7639 -1.1510 -0.6074
 2737SOL    HW219671   1.700   1.894  13.847  0.1603  0.5325  1.5249
 2738SOL     OW19672   3.203   0.050   5.319  0.0224 -0.6850 -0.4185
 2738SOL    HW119673   3.200   0.021   5.228 -3.2594 -0.4902 -0.3712
 2738SOL    HW219674   3.286   0.098   5.323  0.4209 -1.5050  1.2769
 2739SOL     OW19675   0.480   3.256   3.286 -0.5622  0.2634 -0.1752
 2739SOL    HW119676   0.403   3.271   3.232  1.0249  0.1619 -2.4739
 2739SOL    HW219677   0.455   3.200   3.359  1.5014 -0.4021  0.0350
 2740SOL     OW19678   2.108   0.051   6.410  0.4390  0.2725 -0.0567
 2740SOL    HW119679   2.032   0.002   6.377  1.7898 -1.3525 -0.7538
 2740SOL    HW219680   2.069   0.135   6.434  0.0485  0.6866 -2.1733
 2741SOL     OW19681   1.874   0.516   6.798  0.0768 -0.2467 -0.6451
 2741SOL    HW119682   1.841   0.427   6.809 -3.6905  1.3583  1.1534
 2741SOL    HW219683   1.813   0.558   6.738 -2.3522  0.1844  2.1206
 2742SOL     OW19684   1.111   2.900   8.294  0.2165 -0.1151  0.0770
 2742SOL    HW119685   1.182   2.946   8.249  1.2970  0.0023  1.9005
 2742SOL    HW219686   1.082   2.845   8.220  0.6138 -0.7723  0.4054
 2743SOL     OW19687   2.955   4.531   9.602 -0.3852 -0.0841  0.2709
 2743SOL    HW119688   3.009   4.484   9.666  0.7955  0.7866 -0.0851
 2743SOL    HW219689   2.871   4.538   9.646 -2.0015 -4.5153 -2.0714
 2744SOL     OW19690   3.335   4.025   3.249 -0.0522 -0.1482 -0.0690
 2744SOL    HW119691   3.429   4.040   3.260  0.1127 -1.7605  0.6612
 2744SOL    HW219692   3.336   3.961   3.178  1.1979  0.3358 -0.4736
 2745SOL     OW19693   1.283   0.093   6.742 -0.0603  0.0836  0.0642
 2745SOL    HW119694   1.252   0.119   6.829  2.1297  0.8061  0.6258
 2745SOL    HW219695   1.376   0.086   6.762  0.1726  2.4535 -0.2117
 2746SOL     OW19696   4.691   4.160  16.915  0.1272  0.1891  0.6373
 2746SOL    HW119697   0.052   4.148  16.963 -0.1013  0.3899  1.0668
 2746SOL    HW219698   4.676   4.070  16.884 -2.3027  0.3425  1.3650
 2747SOL     OW19699   2.884   0.641  16.857  0.1557  0.5747  0.2644
 2747SOL    HW119700   2.840   0.609  16.936  0.4645 -0.6354 -0.0620
 2747SOL    HW219701   2.825   0.714  16.841  0.3387  0.4675 -0.8564
 2748SOL     OW19702   4.334   3.685  12.587  0.2823 -0.4678 -0.8643
 2748SOL    HW119703   4.367   3.625  12.520  1.2388 -0.8687 -0.0443
 2748SOL    HW219704   4.252   3.642  12.613  0.5319 -0.7745 -0.5806
 2749SOL     OW19705   2.459   1.873   8.546  0.3421 -0.7234 -0.3764
 2749SOL    HW119706   2.525   1.812   8.514  1.0019 -0.2615  0.1047
 2749SOL    HW219707   2.491   1.873   8.636 -1.4223 -1.3445  0.2447
 2750SOL     OW19708   0.206   4.625   8.265  0.0862  0.0209 -0.3984
 2750SOL    HW119709   0.235   4.709   8.231 -0.5609 -0.0554 -1.1302
 2750SOL    HW219710   0.165   4.651   8.348 -1.1312 -0.4427 -0.8510
 2751SOL     OW19711   4.283   4.474  12.010  0.2859  0.3657 -0.3394
 2751SOL    HW119712   4.347   4.539  11.980 -0.3411  1.1287 -0.0146
 2751SOL    HW219713   4.279   4.425  11.928 -0.9457  0.3493 -0.2596
 2752SOL     OW19714   3.066   2.089   9.314  0.2514  0.3234 -0.3020
 2752SOL    HW119715   3.099   2.000   9.315  0.9549  0.5700 -2.0664
 2752SOL    HW219716   3.091   2.124   9.400 -0.3869  1.2580 -0.4865
 2753SOL     OW19717   2.367   3.101  10.421  0.5300 -0.5744 -0.2304
 2753SOL    HW119718   2.452   3.057  10.414 -0.0310 -1.9851  1.9301
 2753SOL    HW219719   2.383   3.194  10.437 -0.1884 -0.5177  0.1318
 2754SOL     OW19720   1.541   1.240   7.371  0.0568  0.2564  0.3502
 2754SOL    HW119721   1.592   1.181   7.427  1.1056  0.2176 -0.6584
 2754SOL    HW219722   1.499   1.299   7.435 -0.0913  0.9542 -0.3930
 2755SOL     OW19723   1.919   2.277   3.704 -0.7955  0.7911 -0.0006
 2755SOL    HW119724   1.946   2.358   3.662 -2.4184  1.3259 -0.0057
 2755SOL    HW219725   1.921   2.306   3.795 -0.7783  0.4613  0.1060
 2756SOL     OW19726   4.013   2.973   3.422 -0.3782  0.1623  0.2455
 2756SOL    HW119727   3.959   3.010   3.491  1.3666  0.7005  1.3228
 2756SOL    HW219728   3.940   2.945   3.367 -0.1650  1.7093 -0.8300
 2757SOL     OW19729   4.003   2.009  17.136 -0.4288 -0.7339  0.3350
 2757SOL    HW119730   4.008   1.950  17.061  0.2819 -0.0750 -0.1417
 2757SOL    HW219731   3.908   2.014  17.150 -0.5645  0.2848 -1.0020
 2758SOL     OW19732   0.174   4.286  15.298  0.1123  0.3886 -1.0142
 2758SOL    HW119733   0.227   4.363  15.320  0.0673  0.5177 -1.3694
 2758SOL    HW219734   0.242   4.218  15.305 -0.2401  0.1927  0.5261
 2759SOL     OW19735   0.996   2.410  16.177  0.3922 -0.0449 -0.1254
 2759SOL    HW119736   0.993   2.357  16.097 -1.6292  0.7068 -0.5544
 2759SOL    HW219737   0.903   2.420  16.197 -0.0168  0.6837 -2.3462
 2760SOL     OW19738   1.992   1.058   6.546 -0.2322 -0.3537 -0.0579
 2760SOL    HW119739   1.995   0.969   6.581 -1.0343 -0.4346 -0.1971
 2760SOL    HW219740   1.941   1.097   6.617 -0.2622  0.9911 -0.8223
 2761SOL     OW19741   1.098   4.190   4.258 -0.6935 -0.1823  0.3411
 2761SOL    HW119742   1.123   4.282   4.264  0.2309 -0.2167 -2.9484
 2761SOL    HW219743   1.065   4.187   4.168  1.5014 -1.0446 -0.4228
 2762SOL     OW19744   4.561   2.818  12.972  0.8862  0.0662 -0.0024
 2762SOL    HW119745   4.545   2.882  12.902 -0.3272 -0.9975 -0.7124
 2762SOL    HW219746   4.491   2.846  13.030  0.9579 -0.3822  0.2991
 2763SOL     OW19747   1.584   2.472  11.969  1.1316 -0.1717 -0.0782
 2763SOL    HW119748   1.605   2.428  12.052 -0.2318 -0.5999  0.0360
 2763SOL    HW219749   1.588   2.397  11.910 -1.5142  0.1769 -0.6751
 2764SOL     OW19750   1.275   1.045   6.214 -0.2053  0.1974  0.0292
 2764SOL    HW119751   1.282   1.057   6.309  2.0348  2.4538 -0.4342
 2764SOL    HW219752   1.179   1.036   6.215 -0.3629  1.9402  0.7344
 2765SOL     OW19753   2.399   0.272   2.952  0.8194 -0.2408  0.1139
 2765SOL    HW119754   2.313   0.253   2.991  0.8457 -0.2226  0.1803
 2765SOL    HW219755   2.379   0.355   2.909  0.3324 -0.7150 -0.5950
 2766SOL     OW19756   0.324   0.974  12.382 -0.3426  0.4204 -0.3006
 2766SOL    HW119757   0.379   1.034  12.433 -0.7644 -1.2787  2.1364
 2766SOL    HW219758   0.357   0.888  12.407 -0.3481  0.5917  0.2968
 2767SOL     OW19759   4.649   3.677   4.804 -0.0381 -0.2058 -0.1768
 2767SOL    HW119760   4.630   3.769   4.821 -0.5680 -0.1470 -1.0642
 2767SOL    HW219761   4.702   3.642   4.876  0.4936  0.3834 -0.2823
 2768SOL     OW19762   1.906   2.427   8.339  1.7395 -0.5284 -0.1295
 2768SOL    HW119763   1.846   2.457   8.271  1.3874  3.9017  2.1771
 2768SOL    HW219764   1.975   2.491   8.323  0.9445  0.1566 -0.7926
 2769SOL     OW19765   0.017   1.548   6.359  0.0157  0.0076 -0.1351
 2769SOL    HW119766   0.016   1.622   6.420  2.6087  0.3641 -0.5286
 2769SOL    HW219767   0.022   1.485   6.431 -1.0551  0.2008  0.1146
 2770SOL     OW19768   1.133   0.979   4.284 -0.1757 -0.0995 -0.1228
 2770SOL    HW119769   1.090   1.027   4.354  1.8332 -0.5598  1.3864
 2770SOL    HW219770   1.059   0.945   4.232 -0.5147  0.2562  0.1337
 2771SOL     OW19771   1.482   1.384  12.523  0.4064 -0.3083  0.6641
 2771SOL    HW119772   1.460   1.461  12.576  1.2563  1.7273 -1.9531
 2771SOL    HW219773   1.559   1.418  12.477  1.5175 -1.5865  1.5639
 2772SOL     OW19774   1.434   0.543  14.299 -0.1798 -0.6267  0.1211
 2772SOL    HW119775   1.429   0.468  14.240  0.1158 -0.3858 -0.2129
 2772SOL    HW219776   1.530   0.545  14.305 -0.1762 -0.0819 -0.1594
 2773SOL     OW19777   4.048   3.489   8.754 -0.5993  0.2278 -0.1033
 2773SOL    HW119778   4.067   3.578   8.724 -3.4398  1.6312  2.2171
 2773SOL    HW219779   4.127   3.441   8.729 -1.6096 -1.8515  0.7819
 2774SOL     OW19780   4.502   1.115  17.544 -0.3420  0.5117 -0.3379
 2774SOL    HW119781   4.566   1.175  17.505  0.9075  0.6304  1.8848
 2774SOL    HW219782   4.460   1.181  17.600 -0.5559  0.0716  0.0119
 2775SOL     OW19783   3.333   4.349  13.041 -0.4198 -0.3630 -0.7917
 2775SOL    HW119784   3.415   4.300  13.033 -0.0259 -0.0852  1.5499
 2775SOL    HW219785   3.299   4.305  13.119  0.0864  0.9286  0.1455
 2776SOL     OW19786   1.835   1.620   0.367  0.5093  0.0212  0.1634
 2776SOL    HW119787   1.792   1.649   0.286 -0.9258  0.0194  0.9203
 2776SOL    HW219788   1.914   1.586   0.324 -0.2895 -1.7237  0.0558
 2777SOL     OW19789   0.510   1.480   1.087  0.2887 -0.4706  0.5379
 2777SOL    HW119790   0.550   1.460   1.172 -1.4535  0.0080  1.4641
 2777SOL    HW219791   0.415   1.475   1.098 -0.2361  0.2309 -3.6274
 2778SOL     OW19792   2.514   2.122   3.532 -0.1231 -0.7663  0.1935
 2778SOL    HW119793   2.580   2.165   3.586 -2.2290  1.1297  1.2811
 2778SOL    HW219794   2.538   2.030   3.531  0.2310 -0.6702 -0.0931
 2779SOL     OW19795   4.532   0.505   7.882 -0.6010  0.3495  0.2242
 2779SOL    HW119796   4.552   0.447   7.956 -0.7590 -0.5212 -0.4154
 2779SOL    HW219797   4.444   0.478   7.856  0.8493 -1.3518 -2.9944
 2780SOL     OW19798   3.118   1.075   7.447  0.4581 -0.3390 -0.6613
 2780SOL    HW119799   3.069   1.156   7.463  0.9644 -0.3998  1.1470
 2780SOL    HW219800   3.113   1.074   7.351  0.9674 -2.6625 -0.6626
 2781SOL     OW19801   1.056   4.024   4.726  0.8299 -0.1736 -0.3526
 2781SOL    HW119802   1.073   3.932   4.745  2.1159 -0.2548 -1.9297
 2781SOL    HW219803   1.069   4.061   4.814 -1.9781 -1.3213  0.5524
 2782SOL     OW19804   4.637   0.836   3.529  0.0824 -0.7476  0.3199
 2782SOL    HW119805   4.665   0.755   3.487 -0.4204  0.4279 -2.2394
 2782SOL    HW219806   4.710   0.842   3.591  0.8315  2.8001 -0.9032
 2783SOL     OW19807   3.201   3.344   3.409 -0.1205  0.3194 -0.4677
 2783SOL    HW119808   3.258   3.323   3.483  1.1369 -0.3171 -1.6228
 2783SOL    HW219809   3.142   3.403   3.456 -0.0351 -1.4740  1.8816
 2784SOL     OW19810   1.675   0.919  15.278 -0.3823 -0.1023  0.0408
 2784SOL    HW119811   1.620   0.852  15.236  0.4276  0.3020 -1.6675
 2784SOL    HW219812   1.619   0.996  15.277  0.6269  0.6343  0.4704
 2785SOL     OW19813   3.593   4.214   8.036  0.2729  0.1118  0.1481
 2785SOL    HW119814   3.537   4.136   8.027  1.2285 -0.7270  1.4666
 2785SOL    HW219815   3.572   4.247   8.124 -1.3365 -0.5584  0.0210
 2786SOL     OW19816   4.191   1.705   1.131  0.1444  0.0773  0.6665
 2786SOL    HW119817   4.233   1.791   1.121  0.2892 -0.0321  0.3356
 2786SOL    HW219818   4.099   1.724   1.149  0.3665  1.0711  0.7779
 2787SOL     OW19819   4.305   1.091   5.131 -0.1779 -0.1156 -0.3483
 2787SOL    HW119820   4.336   1.002   5.116 -0.5140 -0.0364 -1.4626
 2787SOL    HW219821   4.213   1.077   5.112 -0.2991  1.0965 -0.6489
 2788SOL     OW19822   4.522   1.752   3.355 -0.5450  0.3006 -0.4595
 2788SOL    HW119823   4.597   1.797   3.318 -0.9218  0.8894 -0.5033
 2788SOL    HW219824   4.468   1.820   3.396  1.2885  0.0350  2.3744
 2789SOL     OW19825   4.514   1.008   5.467  0.3373 -0.0029 -0.1681
 2789SOL    HW119826   4.461   0.980   5.392  1.7329 -0.5258 -0.9539
 2789SOL    HW219827   4.482   0.948   5.534  0.2143 -0.7345 -0.8862
 2790SOL     OW19828   4.623   0.220   5.130 -0.4755  0.0162 -0.1863
 2790SOL    HW119829   4.615   0.139   5.080 -0.3806  0.3523 -0.7455
 2790SOL    HW219830   4.618   0.190   5.220  0.9210 -0.6952 -0.3369
 2791SOL     OW19831   2.121   3.728   3.090 -0.2771  0.3336 -0.7096
 2791SOL    HW119832   2.054   3.687   3.145 -0.6873 -1.2889 -2.4100
 2791SOL    HW219833   2.079   3.812   3.072 -0.3388  0.6972  1.0946
 2792SOL     OW19834   3.677   3.910   3.779  0.0258  0.4714  0.6372
 2792SOL    HW119835   3.583   3.891   3.770  0.4092 -1.3040  0.3448
 2792SOL    HW219836   3.687   3.972   3.708  2.7277 -0.2207  0.4253
 2793SOL     OW19837   0.015   2.711  14.737  0.2815 -0.2437 -0.2704
 2793SOL    HW119838   0.081   2.642  14.742 -0.6525 -0.9751  1.6619
 2793SOL    HW219839   0.004   2.725  14.643  0.2512  0.5506 -0.1468
 2794SOL     OW19840   2.835   4.120   2.790 -0.1802  0.4442  0.1027
 2794SOL    HW119841   2.855   4.031   2.764  1.5616  0.5215  1.1684
 2794SOL    HW219842   2.827   4.115   2.885 -0.4813 -0.8173  0.0039
 2795SOL     OW19843   1.549   1.731   6.926  0.0111 -0.2776  0.2589
 2795SOL    HW119844   1.547   1.772   6.839 -0.0361 -1.5180 -0.3140
 2795SOL    HW219845   1.519   1.645   6.898  1.7040 -0.5397 -0.8154
 2796SOL     OW19846   3.304   2.829  11.677  0.4291  0.0796 -0.1838
 2796SOL    HW119847   3.328   2.921  11.675 -0.7220  0.3711 -1.2604
 2796SOL    HW219848   3.297   2.808  11.584 -0.7298 -0.7184  0.0761
 2797SOL     OW19849   1.228   0.709   3.674 -0.3973 -0.4626 -0.1104
 2797SOL    HW119850   1.219   0.643   3.743 -0.1891 -0.6329 -0.2465
 2797SOL    HW219851   1.154   0.770   3.681  0.8588  1.1992 -1.3093
 2798SOL     OW19852   2.560   3.859   8.356  0.0013  0.1134  0.2015
 2798SOL    HW119853   2.576   3.919   8.283 -1.2233 -0.6086 -0.6686
 2798SOL    HW219854   2.624   3.789   8.342 -1.0411 -0.5061 -1.6081
 2799SOL     OW19855   2.965   0.615   5.470 -0.2820  0.5223 -0.5049
 2799SOL    HW119856   2.877   0.650   5.460 -0.6114  0.5857  2.6473
 2799SOL    HW219857   2.965   0.562   5.390 -1.0829  1.9099 -1.4097
 2800SOL     OW19858   0.239   1.417  12.966 -0.1598 -0.0714  0.0311
 2800SOL    HW119859   0.297   1.399  13.040 -0.5627 -0.3834  0.2722
 2800SOL    HW219860   0.182   1.480  13.010 -0.9318  0.1023 -1.1950
 2801SOL     OW19861   4.475   2.245  10.955  0.3306  0.2106 -0.6947
 2801SOL    HW119862   4.453   2.155  10.980  1.0889 -0.6489 -3.0326
 2801SOL    HW219863   4.389   2.282  10.969  0.3049  0.0772 -0.4951
 2802SOL     OW19864   2.214   4.657  10.743  0.4583 -0.7209  0.0021
 2802SOL    HW119865   2.287   4.610  10.784  0.9071 -0.9596 -1.0816
 2802SOL    HW219866   2.226   0.022  10.784  0.9889 -0.7172 -0.1590
 2803SOL     OW19867   1.893   3.922   1.824  0.2995 -0.5447 -0.5154
 2803SOL    HW119868   1.841   3.992   1.784  0.3144  0.1832  0.7280
 2803SOL    HW219869   1.846   3.902   1.905 -1.5615  0.7460 -1.2816
 2804SOL     OW19870   1.367   1.363   0.730 -0.3643  0.0592  0.1819
 2804SOL    HW119871   1.350   1.374   0.824  0.3298 -3.1303  0.6765
 2804SOL    HW219872   1.307   1.292   0.710  2.5492 -2.1592 -0.6530
 2805SOL     OW19873   4.651   0.569  11.308 -0.3245  0.1515 -0.3089
 2805SOL    HW119874   4.596   0.565  11.230 -0.5680  2.7593 -0.2759
 2805SOL    HW219875   0.005   0.622  11.280 -1.6232  0.9668 -2.2594
 2806SOL     OW19876   4.565   4.190   3.456 -0.4245 -0.1651  0.5557
 2806SOL    HW119877   4.638   4.157   3.403 -0.1156  1.4877 -0.0649
 2806SOL    HW219878   4.536   4.109   3.497  0.4120 -1.1242 -0.7857
 2807SOL     OW19879   0.411   3.540   0.321 -0.8037 -0.2249 -0.0036
 2807SOL    HW119880   0.395   3.537   0.226  1.2840  0.8393 -0.3875
 2807SOL    HW219881   0.351   3.611   0.345 -0.4188  0.1752 -0.2218
 2808SOL     OW19882   2.991   3.817   6.943 -0.1160 -0.1846 -0.2794
 2808SOL    HW119883   3.034   3.901   6.927 -0.3102  0.1057  0.7491
 2808SOL    HW219884   2.896   3.830   6.941 -0.2806 -1.4254 -0.2989
 2809SOL     OW19885   4.529   3.885   5.471  0.1264 -0.1115  0.3773
 2809SOL    HW119886   4.505   3.810   5.526  1.5393  0.4010  1.7146
 2809SOL    HW219887   4.621   3.891   5.498  0.9846 -2.0189 -2.0425
 2810SOL     OW19888   1.980   3.349   3.187 -0.1926 -0.6605  0.1855
 2810SOL    HW119889   2.023   3.314   3.109 -0.2904 -0.9436  0.2629
 2810SOL    HW219890   1.890   3.331   3.161 -0.4526 -0.7430  1.1551
 2811SOL     OW19891   3.797   1.790   7.554  0.2413  0.0979 -0.2405
 2811SOL    HW119892   3.794   1.869   7.607 -0.8961  1.3657 -2.2275
 2811SOL    HW219893   3.845   1.821   7.478 -1.5848  1.3687 -0.8781
 2812SOL     OW19894   2.845   1.273  12.881  0.4317  0.0704 -0.4484
 2812SOL    HW119895   2.811   1.295  12.967 -1.5204  2.1105 -1.7666
 2812SOL    HW219896   2.887   1.186  12.883  3.7015  1.6920  1.3310
 2813SOL     OW19897   4.346   2.248  17.209 -0.4722 -0.0527 -0.2816
 2813SOL    HW119898   4.252   2.228  17.212 -0.5960  0.6361  0.2763
 2813SOL    HW219899   4.342   2.328  17.261 -2.3776 -0.6639  0.5115
 2814SOL     OW19900   3.700   1.479  17.357  0.3447  0.1647 -0.2614
 2814SOL    HW119901   3.768   1.544  17.341 -0.7677  1.5831  0.6521
 2814SOL    HW219902   3.730   1.437  17.438  0.4468  2.0307  0.6789
 2815SOL     OW19903   4.506   3.717  15.072 -0.4156  0.1883 -0.1753
 2815SOL    HW119904   4.415   3.747  15.065 -0.5528 -0.4295 -1.1025
 2815SOL    HW219905   4.563   3.787  15.103  0.3977 -0.1431 -0.9333
 2816SOL     OW19906   4.540   3.714   9.168 -0.1328 -0.1851  0.2930
 2816SOL    HW119907   4.512   3.640   9.115  0.3456 -1.3111  1.6399
 2816SOL    HW219908   4.473   3.780   9.147  1.4826  1.2735 -0.3233
 2817SOL     OW19909   4.572   3.783   5.203  0.5311 -0.2399 -0.0391
 2817SOL    HW119910   4.585   3.844   5.276  0.2847 -0.9811  0.6237
 2817SOL    HW219911   4.558   3.696   5.240  0.5310 -0.6096 -0.9088
 2818SOL     OW19912   1.557   2.677   2.564 -0.2679  0.6506 -0.2811
 2818SOL    HW119913   1.638   2.693   2.611 -0.2493 -0.4276  0.0565
 2818SOL    HW219914   1.575   2.600   2.511 -1.0384 -0.2850  0.8221
 2819SOL     OW19915   4.541   2.891   8.251  0.2742  0.3181  0.0716
 2819SOL    HW119916   4.616   2.946   8.273 -0.2337  1.3456 -0.7759
 2819SOL    HW219917   4.562   2.805   8.288  1.2929  0.4628 -0.1795
 2820SOL     OW19918   1.643   3.702   3.293  0.4622  0.5132 -0.1377
 2820SOL    HW119919   1.696   3.649   3.233 -0.1352 -1.9347  1.5137
 2820SOL    HW219920   1.628   3.635   3.359 -3.0084  1.2726 -0.1799
 2821SOL     OW19921   0.584   3.282   7.833  0.0024  0.3805 -0.2444
 2821SOL    HW119922   0.512   3.338   7.803 -0.4792  0.1737  0.5260
 2821SOL    HW219923   0.607   3.339   7.907  0.6062 -0.5538  0.2765
 2822SOL     OW19924   0.620   1.696   5.020  0.4204  0.0818 -0.0423
 2822SOL    HW119925   0.557   1.625   5.012  0.5801 -0.1057  0.3605
 2822SOL    HW219926   0.558   1.760   4.984 -0.3574 -0.8382 -0.3507
 2823SOL     OW19927   2.524   1.546   0.461 -0.1811  0.1281 -0.3833
 2823SOL    HW119928   2.521   1.546   0.557  0.4322  1.2844 -0.3558
 2823SOL    HW219929   2.608   1.589   0.447  0.2423 -0.6341 -0.1987
 2824SOL     OW19930   0.543   1.881  17.526  0.4007  0.3420 -0.7874
 2824SOL    HW119931   0.585   1.940  17.462 -0.9722  1.8473 -0.2833
 2824SOL    HW219932   0.609   1.812  17.523  0.0822  0.1207 -2.7734
 2825SOL     OW19933   4.238   0.022  14.012  0.3618  0.7471  0.2732
 2825SOL    HW119934   4.223   4.700  14.096  0.2399 -0.4463 -0.3576
 2825SOL    HW219935   4.215   0.113  14.032 -0.3264  0.3400  1.3212
 2826SOL     OW19936   1.584   1.542   7.761 -0.2982  0.0825 -0.1822
 2826SOL    HW119937   1.545   1.629   7.758  0.2863  0.3227 -0.8832
 2826SOL    HW219938   1.616   1.532   7.850 -0.5979  1.2798  0.0601
 2827SOL     OW19939   0.749   3.495   3.726  0.1363 -0.0108  0.9295
 2827SOL    HW119940   0.762   3.442   3.804  2.0557  0.2820  0.8148
 2827SOL    HW219941   0.838   3.489   3.689  0.5595 -1.6004  2.2427
 2828SOL     OW19942   2.844   3.375   2.034  0.1240  0.5963 -0.1786
 2828SOL    HW119943   2.873   3.463   2.059 -0.3336  0.2182  1.7553
 2828SOL    HW219944   2.750   3.380   2.052  0.3481  0.2488  1.0964
 2829SOL     OW19945   3.302   0.808   3.423  0.0955 -0.0737  0.4131
 2829SOL    HW119946   3.336   0.746   3.359 -0.1346 -0.0732  0.2938
 2829SOL    HW219947   3.385   0.824   3.469  0.3523 -1.5262  0.4327
 2830SOL     OW19948   0.536   0.946   5.357 -0.2260  0.1332  0.4182
 2830SOL    HW119949   0.529   0.896   5.439 -0.0919 -0.8020 -0.1333
 2830SOL    HW219950   0.479   1.022   5.368  0.9293  1.5931 -3.9125
 2831SOL     OW19951   2.671   0.860   2.805 -0.0037  0.1014 -0.1617
 2831SOL    HW119952   2.761   0.877   2.832  0.3644  2.3477 -2.6990
 2831SOL    HW219953   2.644   0.793   2.867  3.5073 -2.0545 -0.9495
 2832SOL     OW19954   4.536   0.941  16.240  0.5061 -0.1677  0.5477
 2832SOL    HW119955   4.587   0.889  16.177 -1.2185  0.5468 -1.4568
 2832SOL    HW219956   4.523   0.875  16.308 -0.5111 -1.4739 -0.9095
 2833SOL     OW19957   1.496   1.953   5.738 -0.3763  0.0846 -0.1286
 2833SOL    HW119958   1.531   1.915   5.819 -1.7722 -0.5400  0.1862
 2833SOL    HW219959   1.484   2.044   5.764  1.4172 -0.1577  1.5405
 2834SOL     OW19960   3.891   1.697  16.676  0.1022 -0.0228  0.4532
 2834SOL    HW119961   3.810   1.683  16.627 -0.2269  2.5197  0.2643
 2834SOL    HW219962   3.929   1.611  16.661 -0.7322 -0.2060 -0.5418
 2835SOL     OW19963   0.981   1.891  11.061 -0.1325 -0.6963 -0.6940
 2835SOL    HW119964   0.912   1.931  11.113  0.0870 -0.3491 -0.6684
 2835SOL    HW219965   1.045   1.866  11.128 -0.0618 -0.0941 -0.5398
 2836SOL     OW19966   4.463   4.390   2.266  0.2778 -0.5697 -0.3029
 2836SOL    HW119967   4.474   4.307   2.312 -0.5268 -0.0589  0.8083
 2836SOL    HW219968   4.437   4.349   2.184  1.9833  3.7434 -3.0087
 2837SOL     OW19969   4.355   3.567  15.512  0.1290  0.3000 -0.1257
 2837SOL    HW119970   4.408   3.641  15.541 -2.7194  1.3826  2.3787
 2837SOL    HW219971   4.286   3.589  15.575  0.0389 -0.7880  0.1426
 2838SOL     OW19972   1.346   4.174   3.219  0.2078 -0.0985  0.5273
 2838SOL    HW119973   1.257   4.153   3.247  0.3879  0.0227  1.1824
 2838SOL    HW219974   1.323   4.206   3.132  1.2266  0.1996  0.3647
 2839SOL     OW19975   2.031   1.818   8.462  0.3831  0.1144 -0.2891
 2839SOL    HW119976   1.969   1.831   8.533  2.2224  1.2784  1.0890
 2839SOL    HW219977   2.024   1.897   8.408  3.2022 -0.2361 -1.1651
 2840SOL     OW19978   2.981   1.173   2.696 -0.1464 -0.7519  0.6820
 2840SOL    HW119979   3.014   1.254   2.734 -0.5394  0.7869 -2.2507
 2840SOL    HW219980   3.063   1.136   2.665 -0.7764 -0.6707 -1.0957
 2841SOL     OW19981   3.131   1.810  14.829  0.4695 -0.2077  0.1777
 2841SOL    HW119982   3.202   1.746  14.822  1.2700  0.8526 -1.2540
 2841SOL    HW219983   3.177   1.893  14.832 -0.4116  0.3067 -0.5888
 2842SOL     OW19984   0.382   3.460   0.048  0.0047  0.5776  0.0384
 2842SOL    HW119985   0.295   3.473   0.087 -0.1807 -1.3337  0.2463
 2842SOL    HW219986   0.387   3.367   0.028  0.7679  0.6364 -0.0478
 2843SOL     OW19987   3.807   1.165  16.932 -0.6304 -0.3815 -0.3820
 2843SOL    HW119988   3.884   1.201  16.889 -0.5995 -1.4039 -1.1851
 2843SOL    HW219989   3.826   1.145  17.024 -2.1028  0.9089  0.2208
 2844SOL     OW19990   0.510   1.011   9.087  0.2846  0.0772 -0.2626
 2844SOL    HW119991   0.478   0.973   9.169 -0.2975 -0.9132 -0.9364
 2844SOL    HW219992   0.563   0.939   9.051 -1.0034  0.6424 -3.2731
 2845SOL     OW19993   0.726   1.361   3.612 -0.0488 -0.2406 -0.6823
 2845SOL    HW119994   0.751   1.360   3.519  1.4091 -0.4561 -0.2893
 2845SOL    HW219995   0.744   1.274   3.647  0.0675  0.5201  1.1328
 2846SOL     OW19996   2.495   0.739   8.862 -0.3031  0.2497  0.4393
 2846SOL    HW119997   2.577   0.689   8.860  0.2156  1.1875 -1.7253
 2846SOL    HW219998   2.486   0.769   8.771 -0.2029  1.5271  0.8509
 2847SOL     OW19999   2.131   0.307   5.619 -0.0652 -0.2612 -0.5058
 2847SOL    HW120000   2.043   0.273   5.631  0.6994 -1.6943  1.1255
 2847SOL    HW220001   2.127   0.400   5.642  1.7301  0.1849 -2.0125
 2848SOL     OW20002   1.354   2.194   6.424 -0.4083 -0.9258 -0.2813
 2848SOL    HW120003   1.373   2.119   6.481  2.4615  0.4164  0.5355
 2848SOL    HW220004   1.390   2.167   6.339  1.7065 -0.9855  0.6204
 2849SOL     OW20005   2.763   2.366   7.835  0.4154 -0.5366 -0.1381
 2849SOL    HW120006   2.812   2.396   7.911  0.7637 -0.1362 -0.5216
 2849SOL    HW220007   2.805   2.288   7.798  1.2231 -0.5195  0.7582
 2850SOL     OW20008   0.326   0.902  12.708 -0.0139 -0.0761 -0.0230
 2850SOL    HW120009   0.311   0.875  12.618 -0.4916  1.7261 -0.4750
 2850SOL    HW220010   0.241   0.896  12.753  0.2938  2.5324  0.8914
 2851SOL     OW20011   3.388   0.375   2.657 -0.4792  0.4779 -0.4020
 2851SOL    HW120012   3.464   0.426   2.630 -0.6692  0.8336 -0.2676
 2851SOL    HW220013   3.333   0.389   2.580  0.5674 -0.2113 -1.2741
 2852SOL     OW20014   0.371   0.415  13.279  0.3359  0.2189 -0.4527
 2852SOL    HW120015   0.466   0.412  13.273  0.2642 -0.4806 -1.2921
 2852SOL    HW220016   0.350   0.424  13.186 -2.0472 -0.4969  0.0226
 2853SOL     OW20017   0.855   4.554  12.183 -0.0793  0.9523  0.4998
 2853SOL    HW120018   0.894   4.471  12.153  0.8663  2.2852 -2.0030
 2853SOL    HW220019   0.925   4.607  12.144 -1.8452  1.8959 -1.4263
 2854SOL     OW20020   4.690   0.152  10.846  0.1404  0.3398  0.3010
 2854SOL    HW120021   4.714   0.239  10.879  0.4271  0.0295  0.9089
 2854SOL    HW220022   0.053   0.108  10.864  0.8423  0.8536 -1.6547
 2855SOL     OW20023   1.325   1.283   3.004  0.2908  0.1381 -1.0624
 2855SOL    HW120024   1.290   1.194   3.003  4.0343 -1.3299 -0.8215
 2855SOL    HW220025   1.417   1.261   3.017 -0.2992 -0.5365  1.8418
 2856SOL     OW20026   0.989   2.813   6.965  0.0172  0.2707 -0.2167
 2856SOL    HW120027   0.972   2.719   6.976 -0.2766  0.4735  1.0231
 2856SOL    HW220028   1.074   2.809   6.922  1.3865  3.5159  2.2467
 2857SOL     OW20029   2.220   0.783  15.179  0.4462 -0.2509 -0.2155
 2857SOL    HW120030   2.142   0.833  15.154 -0.1923 -0.1925  1.8215
 2857SOL    HW220031   2.257   0.757  15.095  0.9252 -0.0676 -0.0626
 2858SOL     OW20032   0.031   0.045   2.820  0.1210  0.2556  0.0140
 2858SOL    HW120033   4.682   0.111   2.829  0.0843  0.7086 -3.4727
 2858SOL    HW220034   0.004   4.691   2.874 -0.8268  2.1995  2.2197
 2859SOL     OW20035   3.565   1.650   7.535 -0.0179 -0.2148 -0.2331
 2859SOL    HW120036   3.566   1.639   7.630  1.1855  1.2884 -0.0839
 2859SOL    HW220037   3.655   1.680   7.533 -0.4877  1.3147  2.0739
 2860SOL     OW20038   1.679   3.015  14.649 -0.1190 -0.1860 -0.1069
 2860SOL    HW120039   1.684   3.048  14.560 -0.5079  0.6668  0.1867
 2860SOL    HW220040   1.753   2.954  14.648  0.3567  0.3993 -0.4231
 2861SOL     OW20041   2.591   1.004   7.620  0.1146 -0.4146 -0.3909
 2861SOL    HW120042   2.643   0.992   7.700 -1.9214 -2.2011  0.6867
 2861SOL    HW220043   2.601   1.098   7.602  2.3254 -0.4022  0.8541
 2862SOL     OW20044   1.757   3.996   5.202  0.5213  0.0494  0.0168
 2862SOL    HW120045   1.822   4.053   5.243  0.0440 -0.1611  1.0621
 2862SOL    HW220046   1.702   4.063   5.163 -0.0960 -0.1295  0.5867
 2863SOL     OW20047   3.362   0.163   2.320 -0.7706  0.5579 -0.4571
 2863SOL    HW120048   3.456   0.150   2.331 -1.2426 -0.4085  2.6645
 2863SOL    HW220049   3.367   0.219   2.243  0.8244 -0.3671 -1.0207
 2864SOL     OW20050   4.064   2.789  16.017 -0.0488  0.2513 -0.8666
 2864SOL    HW120051   4.122   2.727  15.972  0.8442 -0.0364  0.6802
 2864SOL    HW220052   3.974   2.758  16.011 -0.3359  1.1890 -1.3492
 2865SOL     OW20053   1.277   1.363   4.707  0.5073  0.5837  0.1614
 2865SOL    HW120054   1.182   1.373   4.708  0.2758 -1.1406 -2.9726
 2865SOL    HW220055   1.301   1.420   4.780 -0.6109  0.0818  0.9071
 2866SOL     OW20056   4.152   0.342   9.662  0.3180  0.3784  0.1701
 2866SOL    HW120057   4.058   0.358   9.675  0.1705  0.1140 -0.5651
 2866SOL    HW220058   4.148   0.344   9.567 -0.7398 -2.0419  0.1652
 2867SOL     OW20059   4.532   2.959   7.327  0.1604  0.4447 -0.6413
 2867SOL    HW120060   4.625   2.967   7.309  0.4081 -0.8156  0.0490
 2867SOL    HW220061   4.523   3.006   7.410 -0.4957 -0.2311 -0.3258
 2868SOL     OW20062   3.917   1.016   6.219 -0.3413 -0.1489  0.4690
 2868SOL    HW120063   4.002   1.044   6.255  0.3620 -2.3585  0.4913
 2868SOL    HW220064   3.862   1.030   6.296 -1.3037 -0.6873 -0.1226
 2869SOL     OW20065   0.206   3.778   0.301  0.2358 -0.1830 -1.1419
 2869SOL    HW120066   0.167   3.860   0.331 -0.1478  0.3235 -3.0510
 2869SOL    HW220067   0.169   3.713   0.362 -0.0814 -0.2749 -1.4347
 2870SOL     OW20068   2.993   1.155  15.026 -0.1555 -0.3954  0.4245
 2870SOL    HW120069   2.905   1.171  15.061  0.2360  1.5890  0.5173
 2870SOL    HW220070   3.045   1.219  15.074  1.0884 -0.8244 -0.3552
 2871SOL     OW20071   2.986   0.463   3.324  0.0414  0.7963  0.4781
 2871SOL    HW120072   3.072   0.426   3.344 -0.0499 -0.3985 -1.3050
 2871SOL    HW220073   3.007   0.556   3.334 -2.0836  1.1629  1.5324
 2872SOL     OW20074   2.779   3.960  12.394  0.0946 -0.4226 -0.8692
 2872SOL    HW120075   2.768   3.900  12.469  0.7030  0.8943  0.2658
 2872SOL    HW220076   2.701   4.016  12.394  0.4000  0.0230  0.5095
 2873SOL     OW20077   2.174   1.570   3.305 -0.2604  0.5229 -0.0594
 2873SOL    HW120078   2.144   1.518   3.379  0.9618  0.3316  0.3010
 2873SOL    HW220079   2.218   1.640   3.353  1.9667  0.3619 -1.7957
 2874SOL     OW20080   0.041   3.487   0.826  0.6910  0.0185 -0.5082
 2874SOL    HW120081   4.705   3.420   0.787 -0.5572  1.3509 -1.0050
 2874SOL    HW220082   4.709   3.560   0.793 -2.0716 -1.8903 -0.3894
 2875SOL     OW20083   4.163   3.755  12.113 -0.6386 -0.0841  0.0642
 2875SOL    HW120084   4.177   3.668  12.150 -0.9586 -0.6753 -1.2007
 2875SOL    HW220085   4.213   3.767  12.032 -0.2202  0.9645  0.4783
 2876SOL     OW20086   1.169   4.329   3.547  0.3354 -0.2430  0.3765
 2876SOL    HW120087   1.150   4.387   3.474 -0.3383 -3.9915 -2.4420
 2876SOL    HW220088   1.252   4.355   3.586  0.4133 -0.2938  0.2426
 2877SOL     OW20089   1.641   4.278   6.564  0.1798  0.1737 -0.0018
 2877SOL    HW120090   1.678   4.267   6.476 -0.2577  1.2454 -0.3148
 2877SOL    HW220091   1.651   4.372   6.580 -2.6996  0.1807  1.7470
 2878SOL     OW20092   0.536   2.009  11.113  0.2431  0.5851  0.2930
 2878SOL    HW120093   0.472   2.007  11.184 -0.8661 -2.1020 -0.8090
 2878SOL    HW220094   0.555   1.917  11.095 -0.5676  0.1105  1.8751
 2879SOL     OW20095   3.584   3.242   3.798  0.7854  0.0449  0.3656
 2879SOL    HW120096   3.661   3.241   3.856  0.3327  2.1689  1.0068
 2879SOL    HW220097   3.603   3.317   3.742 -2.4616  0.7675  0.2650
 2880SOL     OW20098   1.387   1.009  13.942  1.2226 -0.2493 -0.1196
 2880SOL    HW120099   1.315   1.067  13.914  0.7927 -1.3067 -1.1818
 2880SOL    HW220100   1.361   0.919  13.923 -0.0818 -0.0520  0.7503
 2881SOL     OW20101   3.672   3.706   6.146  0.2763 -0.0047  0.0997
 2881SOL    HW120102   3.589   3.663   6.127 -0.2837  0.8848  0.5469
 2881SOL    HW220103   3.649   3.759   6.222  2.7985 -0.2022  0.9971
 2882SOL     OW20104   3.957   3.857   1.998 -0.1069 -1.0583  0.1878
 2882SOL    HW120105   3.862   3.847   1.996  0.0007 -2.3849  1.2681
 2882SOL    HW220106   3.968   3.860   1.903  1.9010  0.2484  0.4625
 2883SOL     OW20107   2.220   0.876   7.816  0.1116 -0.0071  0.1498
 2883SOL    HW120108   2.236   0.896   7.724 -2.1197 -1.3451 -0.5412
 2883SOL    HW220109   2.144   0.929   7.840 -0.9558 -0.4799 -2.1441
 2884SOL     OW20110   2.520   0.089   8.753 -0.0148 -0.5785 -0.0964
 2884SOL    HW120111   2.604   0.076   8.795  0.7185 -2.0254 -2.0147
 2884SOL    HW220112   2.485   0.003   8.777 -0.0859 -0.0113  1.8310
 2885SOL     OW20113   1.086   4.677   3.937  0.1845 -0.5199  0.6504
 2885SOL    HW120114   1.000   4.671   3.894 -0.2433  0.5264  1.3556
 2885SOL    HW220115   1.069   0.035   3.988 -0.9424 -0.1292 -0.3260
 2886SOL     OW20116   1.456   3.617   4.143 -1.1655 -0.3490 -0.5743
 2886SOL    HW120117   1.391   3.554   4.174 -0.2343 -0.1403  1.8098
 2886SOL    HW220118   1.471   3.658   4.229  1.1503 -1.0823 -0.6138
 2887SOL     OW20119   3.031   3.422   5.911 -0.0055 -0.1813  0.1024
 2887SOL    HW120120   3.015   3.425   5.817 -0.4092  0.6416  0.1959
 2887SOL    HW220121   3.122   3.391   5.913 -0.6437 -2.1576 -1.6907
 2888SOL     OW20122   2.597   4.136   5.931  0.4275 -0.0560  0.2061
 2888SOL    HW120123   2.609   4.133   6.026  2.6185 -0.0113 -0.0809
 2888SOL    HW220124   2.576   4.228   5.915  0.8020 -0.1495 -0.7669
 2889SOL     OW20125   1.664   1.773   2.509  0.8114 -0.4191  0.1818
 2889SOL    HW120126   1.594   1.745   2.451  1.5511 -0.5078 -0.6598
 2889SOL    HW220127   1.704   1.695   2.549 -0.6363 -1.1963  0.1108
 2890SOL     OW20128   3.263   3.057   0.577 -0.0995  0.0234  0.1427
 2890SOL    HW120129   3.343   3.076   0.528 -1.7522  1.6118 -1.9604
 2890SOL    HW220130   3.219   3.142   0.587  1.1930  0.3076  3.3442
 2891SOL     OW20131   0.972   2.345   6.068 -0.4332 -0.3952 -0.4136
 2891SOL    HW120132   1.021   2.263   6.070 -1.4276 -0.9735  0.3797
 2891SOL    HW220133   0.910   2.332   5.996 -1.3508 -0.8513  0.4488
 2892SOL     OW20134   4.338   4.451   6.228  0.1248  0.0450  0.1947
 2892SOL    HW120135   4.277   4.480   6.160 -0.2574  0.5010  0.7356
 2892SOL    HW220136   4.409   4.413   6.177 -0.5737  1.4400 -1.7976
 2893SOL     OW20137   3.492   0.607   3.362  0.3317 -0.0128 -0.1155
 2893SOL    HW120138   3.577   0.638   3.392  0.6620 -1.0822  0.0242
 2893SOL    HW220139   3.506   0.591   3.268 -1.4688  0.0533 -0.4000
 2894SOL     OW20140   2.839   1.656  11.226  0.0622 -0.4219 -0.1558
 2894SOL    HW120141   2.743   1.661  11.217  0.2471 -0.8521 -2.4158
 2894SOL    HW220142   2.865   1.744  11.198 -0.8420 -0.3290 -0.7263
 2895SOL     OW20143   2.514   3.768   4.523  0.4811  0.4292  0.1381
 2895SOL    HW120144   2.548   3.749   4.435  0.4977 -2.1105  0.6792
 2895SOL    HW220145   2.531   3.862   4.525 -1.9669  0.9039 -1.0156
 2896SOL     OW20146   0.309   0.376   3.270  0.5788  0.1071  0.2042
 2896SOL    HW120147   0.262   0.372   3.187 -1.5048  0.1746  1.3774
 2896SOL    HW220148   0.358   0.457   3.263  0.2885  0.3190  0.6075
 2897SOL     OW20149   0.021   1.113   5.647 -0.7268  0.3505 -0.6426
 2897SOL    HW120150   4.714   1.201   5.620  0.6244  1.4120  1.4980
 2897SOL    HW220151   4.709   1.053   5.580 -0.7859  0.1573 -0.4412
 2898SOL     OW20152   4.127   2.258   5.382  0.1970  0.0461 -0.0967
 2898SOL    HW120153   4.068   2.238   5.310  1.9769  2.0693 -2.0966
 2898SOL    HW220154   4.108   2.177   5.431 -1.5964  0.5717  0.0835
 2899SOL     OW20155   3.901   1.405   0.034  0.4266 -0.1968  0.0162
 2899SOL    HW120156   3.824   1.398  17.661  0.7596  0.8505 -0.5865
 2899SOL    HW220157   3.920   1.499   0.031  0.0743 -0.0878  1.5734
 2900SOL     OW20158   2.733   1.319   9.213 -0.0696  0.0714  0.1036
 2900SOL    HW120159   2.708   1.380   9.283  0.0637  0.7199 -0.4110
 2900SOL    HW220160   2.695   1.367   9.139 -0.3428 -1.7972 -0.9795
 2901SOL     OW20161   2.269   3.797   5.438  0.0873 -0.3174 -0.3653
 2901SOL    HW120162   2.300   3.708   5.453  0.3538 -0.0537  0.6068
 2901SOL    HW220163   2.187   3.773   5.395 -1.5260  0.0044  2.5319
 2902SOL     OW20164   3.212   0.724   3.144  0.2892 -0.4306  0.1990
 2902SOL    HW120165   3.237   0.810   3.110 -1.1890  0.7370  2.1122
 2902SOL    HW220166   3.150   0.749   3.212 -1.7905 -0.5384 -1.6335
 2903SOL     OW20167   1.770   1.343   0.283  0.3588  0.1832  0.2772
 2903SOL    HW120168   1.855   1.301   0.271  0.5796  1.2733 -1.9003
 2903SOL    HW220169   1.788   1.414   0.345  1.8822  0.3789 -0.3955
 2904SOL     OW20170   0.235   1.498   8.908 -0.5296 -0.0064  0.0956
 2904SOL    HW120171   0.200   1.411   8.888 -0.6713  0.1656 -0.3895
 2904SOL    HW220172   0.272   1.477   8.994  2.8328  1.8765 -0.9219
 2905SOL     OW20173   0.374   3.532  15.329 -0.3888  0.4239  0.4354
 2905SOL    HW120174   0.401   3.441  15.314 -0.5383  0.4083  0.2643
 2905SOL    HW220175   0.426   3.551  15.408  1.4001  1.0147 -0.8821
 2906SOL     OW20176   0.929   0.126  13.557 -0.3271  0.2441  0.3011
 2906SOL    HW120177   0.870   0.202  13.560  0.4283  0.7945  1.3770
 2906SOL    HW220178   0.867   0.058  13.531  0.5524 -0.3696 -0.1823
 2907SOL     OW20179   3.855   1.423  16.505 -0.1711 -0.3512 -1.1158
 2907SOL    HW120180   3.876   1.411  16.412  1.5479 -2.2470 -0.4745
 2907SOL    HW220181   3.936   1.397  16.548  0.2201 -1.5061 -2.5382
 2908SOL     OW20182   4.388   0.888   9.312  0.4560  0.0704  0.2420
 2908SOL    HW120183   4.411   0.861   9.401 -1.1972  2.3362  1.3496
 2908SOL    HW220184   4.478   0.895   9.280  0.1981 -2.5863 -1.0732
 2909SOL     OW20185   2.263   4.026   7.906  0.2026 -0.8686 -0.2276
 2909SOL    HW120186   2.296   4.026   7.816 -0.4278  0.0980 -0.4632
 2909SOL    HW220187   2.211   3.945   7.905  0.8882 -1.3115 -0.0109
 2910SOL     OW20188   1.449   2.096  15.503 -0.0223  0.2115  0.5108
 2910SOL    HW120189   1.533   2.139  15.518  0.6814 -0.8191 -0.4804
 2910SOL    HW220190   1.466   2.018  15.450 -0.3390  1.3896 -1.3524
 2911SOL     OW20191   4.622   2.276   9.895  0.2496  0.5824 -0.4123
 2911SOL    HW120192   4.565   2.340   9.853 -0.1154  1.3963  1.3376
 2911SOL    HW220193   4.569   2.264   9.974  2.0761  0.6767  0.8270
 2912SOL     OW20194   4.285   1.164   6.822  0.1029 -0.3145 -0.0051
 2912SOL    HW120195   4.198   1.168   6.784  0.2775  1.3018 -0.2309
 2912SOL    HW220196   4.337   1.132   6.748 -0.1099  1.2001 -0.8006
 2913SOL     OW20197   2.593   3.759   3.000  0.2970 -0.1260  0.2426
 2913SOL    HW120198   2.498   3.761   3.004  0.3605  2.8458  0.1860
 2913SOL    HW220199   2.612   3.755   2.906 -0.1313  1.6291  0.0716
 2914SOL     OW20200   0.186   0.933   9.685 -0.1861 -0.4489  0.0853
 2914SOL    HW120201   0.121   0.865   9.667  1.0150 -1.1310 -1.6281
 2914SOL    HW220202   0.187   0.980   9.602 -2.2128 -0.9214 -0.2131
 2915SOL     OW20203   0.051   4.121   3.266 -0.7198  0.7354  0.2486
 2915SOL    HW120204   0.095   4.156   3.189 -1.0120  2.6905  0.9471
 2915SOL    HW220205   4.720   4.054   3.222 -1.1306  0.9363  0.4213
 2916SOL     OW20206   2.103   1.540   3.042 -0.0134  0.2256 -0.2223
 2916SOL    HW120207   2.121   1.446   3.040  0.2105  0.2654 -0.0519
 2916SOL    HW220208   2.124   1.559   3.133 -1.6136  0.0931  0.1806
 2917SOL     OW20209   3.748   3.407   8.412 -0.0011  0.4567 -0.2075
 2917SOL    HW120210   3.762   3.455   8.493 -0.9419  3.0246 -1.5739
 2917SOL    HW220211   3.833   3.368   8.394 -0.3854 -1.1519  1.4138
 2918SOL     OW20212   1.392   3.355  17.522  0.7897  0.3455 -0.5040
 2918SOL    HW120213   1.425   3.282  17.575 -0.5807  1.2584  1.5938
 2918SOL    HW220214   1.442   3.435  17.538 -2.2536  2.7896 -3.2727
 2919SOL     OW20215   4.070   2.108  16.782 -0.4736  0.2747 -1.3199
 2919SOL    HW120216   4.020   2.176  16.737  0.2171  1.5615 -0.1765
 2919SOL    HW220217   4.009   2.065  16.842  0.8253 -1.3202 -1.1507
 2920SOL     OW20218   4.562   4.455   4.403 -0.0595  0.6557  0.4519
 2920SOL    HW120219   4.511   4.477   4.325  0.1927 -0.4522 -0.0129
 2920SOL    HW220220   4.490   4.437   4.464  0.5684 -0.4575  0.8513
 2921SOL     OW20221   2.663   4.571   8.540 -0.6582  0.5156 -0.5223
 2921SOL    HW120222   2.754   4.561   8.567 -0.9304  0.8262  0.5204
 2921SOL    HW220223   2.617   4.524   8.610  2.2329  0.3089  1.2379
 2922SOL     OW20224   4.167   3.042  10.294  0.0212  0.3030  0.3274
 2922SOL    HW120225   4.086   3.093  10.285  0.4643  0.8897 -0.4078
 2922SOL    HW220226   4.135   2.975  10.354 -0.4864 -1.3134 -1.7774
 2923SOL     OW20227   0.722   1.091   4.588  0.8051 -0.1822 -0.6616
 2923SOL    HW120228   0.721   1.096   4.492 -1.1443  0.1184 -0.6278
 2923SOL    HW220229   0.634   1.058   4.607  0.7913  1.5904  2.2106
 2924SOL     OW20230   1.024   3.695   3.456  0.2609  0.3775  0.2019
 2924SOL    HW120231   0.939   3.740   3.455 -0.5218 -1.1048 -0.1293
 2924SOL    HW220232   1.004   3.626   3.519  0.2361  0.1540 -0.0552
 2925SOL     OW20233   1.780   1.043  16.203  0.5250 -0.1233  0.4988
 2925SOL    HW120234   1.695   1.003  16.222  0.0167  0.7432  0.0219
 2925SOL    HW220235   1.769   1.069  16.112  0.8759 -0.4683  0.3610
 2926SOL     OW20236   1.315   3.573   6.001  0.5402  0.8657  0.7172
 2926SOL    HW120237   1.238   3.606   5.955  1.9390  3.0249 -0.1182
 2926SOL    HW220238   1.310   3.480   5.983  1.0547  1.0153 -0.2001
 2927SOL     OW20239   0.173   1.285   9.779 -0.1251  0.4135  0.1316
 2927SOL    HW120240   0.219   1.247   9.853 -2.4445 -0.8437  0.9236
 2927SOL    HW220241   0.119   1.350   9.824 -0.9738  0.0207 -0.3195
 2928SOL     OW20242   4.046   3.254   2.119  0.1533 -0.5099 -0.3777
 2928SOL    HW120243   4.010   3.177   2.075 -1.8620  0.1139  0.1715
 2928SOL    HW220244   4.008   3.321   2.061  0.5019  0.4070  0.4502
 2929SOL     OW20245   4.380   1.413  12.720 -0.2240 -0.7489 -0.0887
 2929SOL    HW120246   4.461   1.374  12.686  0.6658  1.1725 -0.1965
 2929SOL    HW220247   4.323   1.337  12.722 -1.6308  0.3305  0.8264
 2930SOL     OW20248   3.157   3.023   4.521 -0.2488 -0.4774 -0.5196
 2930SOL    HW120249   3.116   3.049   4.439 -2.0893  0.0652  0.5702
 2930SOL    HW220250   3.085   3.016   4.584  1.4185 -2.2778  1.1830
 2931SOL     OW20251   3.118   0.480  14.083  0.9042 -0.3704  0.1459
 2931SOL    HW120252   3.080   0.502  14.169  0.7369 -2.9955  0.7433
 2931SOL    HW220253   3.194   0.537  14.093 -0.6126  1.6087  0.3081
 2932SOL     OW20254   3.307   0.534  11.960  0.2376  0.1876  0.3950
 2932SOL    HW120255   3.243   0.603  11.942 -1.0813 -0.3205  3.2204
 2932SOL    HW220256   3.392   0.570  11.934 -0.1397  1.5733  1.1201
 2933SOL     OW20257   1.442   1.770   3.373 -0.5371  0.3367  0.4121
 2933SOL    HW120258   1.424   1.751   3.465  1.0143  1.1368  0.8875
 2933SOL    HW220259   1.526   1.726   3.362 -1.2669 -1.3356  1.5305
 2934SOL     OW20260   3.314   1.399   6.327 -0.0900 -0.1897 -0.4609
 2934SOL    HW120261   3.390   1.451   6.352 -0.7952  1.3107 -1.4282
 2934SOL    HW220262   3.282   1.444   6.249 -1.0300 -0.4602 -0.2244
 2935SOL     OW20263   1.691   1.820   1.614 -0.0512  0.0536 -0.7975
 2935SOL    HW120264   1.783   1.845   1.622  0.0705 -0.4784 -0.5995
 2935SOL    HW220265   1.692   1.745   1.672 -2.1160  2.2616  2.1140
 2936SOL     OW20266   0.466   2.698  12.567 -0.5261 -0.1171 -0.0447
 2936SOL    HW120267   0.461   2.774  12.508 -0.4183  0.4580  0.6846
 2936SOL    HW220268   0.443   2.728  12.655 -0.7596 -0.3011 -0.0430
 2937SOL     OW20269   4.036   4.039   3.864  0.3987 -0.1517  0.2134
 2937SOL    HW120270   4.039   4.090   3.945  1.7265 -0.1819  0.1781
 2937SOL    HW220271   3.979   4.089   3.805  1.5280  0.0427 -0.7107
 2938SOL     OW20272   3.662   1.501   3.747 -0.5187  0.4513  0.0483
 2938SOL    HW120273   3.722   1.459   3.686 -0.2161 -0.0103  0.6627
 2938SOL    HW220274   3.603   1.428   3.761  0.8013 -0.3433  1.5195
 2939SOL     OW20275   0.092   3.290  17.595  0.3181  0.2009  0.6386
 2939SOL    HW120276   0.070   3.197  17.591 -1.5714  0.6740  0.0439
 2939SOL    HW220277   0.187   3.288  17.607  0.3716  0.5036  0.2706
 2940SOL     OW20278   3.673   3.976   7.398  0.1293 -0.0528  0.5128
 2940SOL    HW120279   3.686   4.067   7.425 -0.0817 -0.0625  0.6504
 2940SOL    HW220280   3.760   3.937   7.395  0.2386  0.1383  1.2657
 2941SOL     OW20281   1.762   4.305   2.203  0.0001 -0.3584  0.0617
 2941SOL    HW120282   1.835   4.322   2.263 -0.6295  1.0751  0.4200
 2941SOL    HW220283   1.797   4.225   2.162  0.8682 -1.5509  3.0791
 2942SOL     OW20284   3.471   2.461  14.022  0.0078  0.1035  0.1043
 2942SOL    HW120285   3.551   2.506  13.994 -0.6559  1.1980 -0.0063
 2942SOL    HW220286   3.506   2.372  14.031  0.1666  0.1690  0.1414
 2943SOL     OW20287   0.026   3.226   1.886  0.3345 -0.3791 -0.1585
 2943SOL    HW120288   4.651   3.222   1.881  0.3693 -1.1857 -0.2508
 2943SOL    HW220289   0.036   3.308   1.838  1.9085 -0.7907 -0.5269
 2944SOL     OW20290   0.994   0.919   2.656 -0.4285  0.3203  0.6094
 2944SOL    HW120291   1.075   0.953   2.618 -1.3466  1.5258 -0.2879
 2944SOL    HW220292   0.934   0.920   2.581 -0.8815  1.0540  0.9810
 2945SOL     OW20293   4.688   0.974   3.974  0.3119 -0.4579  0.4251
 2945SOL    HW120294   4.651   1.002   4.058 -1.2118  0.7730 -0.6648
 2945SOL    HW220295   4.611   0.946   3.926  0.3026 -1.9541  1.3049
 2946SOL     OW20296   2.755   2.950   1.299 -0.0473 -0.5212  0.0866
 2946SOL    HW120297   2.817   2.984   1.235 -1.2877  0.4930 -0.5913
 2946SOL    HW220298   2.725   2.872   1.251 -1.0490  1.2804 -2.2314
 2947SOL     OW20299   1.396   0.855   6.060  0.4206 -0.3456 -0.2092
 2947SOL    HW120300   1.430   0.810   6.137 -1.8419 -0.7471  0.5382
 2947SOL    HW220301   1.353   0.932   6.097  2.3268  0.8056 -0.3750
 2948SOL     OW20302   1.339   3.532   8.201 -0.3528 -0.1813 -0.5353
 2948SOL    HW120303   1.332   3.453   8.254 -2.3023  2.0378  2.4927
 2948SOL    HW220304   1.412   3.576   8.244  1.7868 -2.6226 -1.6525
 2949SOL     OW20305   4.542   3.970   8.088  0.1730  0.3967  0.4632
 2949SOL    HW120306   4.556   3.934   8.000  2.0965  0.3200  0.8118
 2949SOL    HW220307   4.579   3.910   8.153  0.0528  0.9194  1.0066
 2950SOL     OW20308   3.363   2.952   0.269 -0.5736 -0.0699  0.8617
 2950SOL    HW120309   3.283   2.997   0.295 -1.6734 -0.6601 -1.4711
 2950SOL    HW220310   3.417   3.007   0.325  0.6751  2.1606 -2.5138
 2951SOL     OW20311   1.681   4.530   5.002  1.0569 -0.8994  0.2085
 2951SOL    HW120312   1.685   4.622   5.026 -0.5661 -1.3960  2.4256
 2951SOL    HW220313   1.589   4.528   4.974  2.1171 -0.9383 -3.2531
 2952SOL     OW20314   2.713   1.801  14.488  0.6577  0.3428 -0.5294
 2952SOL    HW120315   2.746   1.785  14.576  2.9597 -0.6761 -1.5653
 2952SOL    HW220316   2.631   1.844  14.511 -0.0822 -0.9280 -0.8054
 2953SOL     OW20317   1.708   1.510  12.030  0.0172 -0.0675 -0.3984
 2953SOL    HW120318   1.793   1.468  12.042 -0.1792  0.2131  2.1049
 2953SOL    HW220319   1.662   1.463  12.100 -0.6026  1.1732  0.0235
 2954SOL     OW20320   0.857   1.544  14.806  0.9085 -0.0519 -0.4588
 2954SOL    HW120321   0.797   1.488  14.756  0.7369  0.5442 -0.9211
 2954SOL    HW220322   0.794   1.609  14.837  0.3962  0.6657 -2.9859
 2955SOL     OW20323   2.849   4.024   3.746 -0.2273 -0.5811  0.8126
 2955SOL    HW120324   2.822   4.054   3.660  0.2322 -0.0184  0.8663
 2955SOL    HW220325   2.762   3.990   3.765 -1.5823  0.8753 -2.8652
 2956SOL     OW20326   4.221   1.410   8.301 -0.7140  0.5843 -0.3319
 2956SOL    HW120327   4.275   1.447   8.232 -1.8541  0.4123 -1.3299
 2956SOL    HW220328   4.185   1.487   8.345  0.4186  0.0219  1.5762
 2957SOL     OW20329   4.622   3.030   7.848  0.1825 -0.6439  0.3125
 2957SOL    HW120330   4.625   3.015   7.942  0.8955  1.6206  0.6536
 2957SOL    HW220331   4.692   2.975   7.813  1.7610  2.1677 -0.8959
 2958SOL     OW20332   4.137   0.335  13.291  0.0157 -0.3212 -0.4130
 2958SOL    HW120333   4.083   0.284  13.230 -0.5532  0.3764 -0.4921
 2958SOL    HW220334   4.178   0.396  13.229 -0.2001  0.3995  0.1527
 2959SOL     OW20335   3.853   0.418   3.646  0.0028 -0.3348  0.2913
 2959SOL    HW120336   3.783   0.359   3.674 -0.8810 -0.0653 -1.3289
 2959SOL    HW220337   3.916   0.350   3.624  2.3231  1.4431  1.4770
 2960SOL     OW20338   3.571   2.844  16.872  0.6281  0.5825  0.8186
 2960SOL    HW120339   3.523   2.775  16.826  0.8713 -2.1839  4.7356
 2960SOL    HW220340   3.629   2.788  16.923 -0.4538 -0.8193  0.4940
 2961SOL     OW20341   1.459   3.979  16.136 -0.8352 -0.1617  0.5770
 2961SOL    HW120342   1.369   3.985  16.103 -0.6551 -1.4257 -0.1368
 2961SOL    HW220343   1.446   4.041  16.208  0.3289  0.5893  0.1493
 2962SOL     OW20344   2.887   0.402   7.980 -0.5435 -0.6130  0.8287
 2962SOL    HW120345   2.924   0.477   8.026 -0.4404 -0.1363 -0.0284
 2962SOL    HW220346   2.917   0.331   8.036  3.0552  1.0610  1.0482
 2963SOL     OW20347   2.546   4.462   8.796  0.3347 -0.2806 -0.3053
 2963SOL    HW120348   2.562   4.510   8.877 -1.1160  1.7132 -1.1764
 2963SOL    HW220349   2.455   4.434   8.806  0.3224  0.0347  0.4200
 2964SOL     OW20350   0.795   3.024  12.556  0.0830  0.5387  0.5561
 2964SOL    HW120351   0.843   3.006  12.475  2.6629  2.3885  1.6569
 2964SOL    HW220352   0.821   2.953  12.614 -1.9581  0.3229  1.1937
 2965SOL     OW20353   0.474   3.367   2.790 -0.0972 -0.1626 -0.0836
 2965SOL    HW120354   0.412   3.395   2.858  0.1510 -0.9159  0.4562
 2965SOL    HW220355   0.444   3.429   2.724  3.4521  0.4045 -1.1172
 2966SOL     OW20356   2.850   3.916  13.459 -0.4273  0.2620 -0.2532
 2966SOL    HW120357   2.803   3.921  13.543 -2.9208 -1.7766 -1.5335
 2966SOL    HW220358   2.779   3.944  13.401 -0.9066  2.3146  1.3171
 2967SOL     OW20359   1.423   0.034  11.941  0.2025  0.2296  0.1288
 2967SOL    HW120360   1.484   0.007  11.873 -0.7403 -0.5868 -0.3898
 2967SOL    HW220361   1.370   0.102  11.899 -1.4360 -0.8551  0.4251
 2968SOL     OW20362   0.889   3.806  16.908  0.3709 -1.0739  0.7456
 2968SOL    HW120363   0.889   3.747  16.984  1.0825  0.1791  1.7171
 2968SOL    HW220364   0.975   3.846  16.907 -0.0858 -0.1439 -1.7952
 2969SOL     OW20365   0.392   2.764  16.508 -0.0262 -0.2481 -0.2872
 2969SOL    HW120366   0.457   2.694  16.516  1.8210  1.4192 -0.6450
 2969SOL    HW220367   0.420   2.813  16.585 -0.7976 -0.5301  0.1739
 2970SOL     OW20368   1.496   0.747  10.802  0.0660 -0.5324 -0.3868
 2970SOL    HW120369   1.462   0.816  10.745  0.1092 -2.3489 -2.6121
 2970SOL    HW220370   1.564   0.795  10.849  0.9047  0.3068 -2.4328
 2971SOL     OW20371   3.733   0.945   3.316 -0.4600 -0.0588  0.2129
 2971SOL    HW120372   3.733   0.915   3.225 -0.0082  0.2148  0.1225
 2971SOL    HW220373   3.776   1.030   3.312  2.0130 -1.2398  1.3284
 2972SOL     OW20374   0.886   4.589  11.332  0.1170  0.2955  0.4531
 2972SOL    HW120375   0.874   4.680  11.305 -2.1232 -0.2610 -0.4401
 2972SOL    HW220376   0.896   4.534  11.254  1.5464  1.1991 -0.0115
 2973SOL     OW20377   2.903   2.531  14.600  0.3808 -0.0010  0.0243
 2973SOL    HW120378   2.981   2.535  14.655  1.0696  1.4658 -1.0788
 2973SOL    HW220379   2.850   2.478  14.660 -0.1494 -0.7708 -1.1130
 2974SOL     OW20380   1.142   0.016   5.838  0.1907  0.6080  0.2710
 2974SOL    HW120381   1.126   4.644   5.820 -0.7907  0.5335  1.5416
 2974SOL    HW220382   1.201   0.011   5.914  0.2212  0.8143  0.2623
 2975SOL     OW20383   3.279   0.147  16.476  0.4078  0.1837  0.6210
 2975SOL    HW120384   3.231   0.065  16.474 -0.9584  0.9815  0.8529
 2975SOL    HW220385   3.311   0.142  16.386 -0.8323  1.6066  0.1062
 2976SOL     OW20386   1.452   2.732  14.458  0.3023  0.1342  0.5828
 2976SOL    HW120387   1.372   2.778  14.435  0.0224  0.7744  2.8893
 2976SOL    HW220388   1.470   2.760  14.547  1.4007  2.2281 -0.2932
 2977SOL     OW20389   1.645   1.166   6.385  0.4491  0.1405  0.1639
 2977SOL    HW120390   1.716   1.114   6.348  0.6953  0.6876 -0.1221
 2977SOL    HW220391   1.611   1.214   6.310  1.2004 -0.0386 -0.2843
 2978SOL     OW20392   0.106   0.458   6.843 -0.4272 -0.2210  0.1695
 2978SOL    HW120393   0.036   0.424   6.786 -1.6550  2.8445 -0.1756
 2978SOL    HW220394   0.134   0.373   6.876  0.3222 -0.6824 -1.6263
 2979SOL     OW20395   1.519   1.072   8.053  0.0389  0.4221 -0.2948
 2979SOL    HW120396   1.459   1.137   8.016  0.4974  1.1939  0.3079
 2979SOL    HW220397   1.460   1.011   8.095  0.2114  1.4521  1.4420
 2980SOL     OW20398   1.576   1.279   3.506  0.1859 -0.0601 -0.0659
 2980SOL    HW120399   1.597   1.371   3.486 -0.5146  0.2150  0.4495
 2980SOL    HW220400   1.582   1.286   3.602  1.7535 -2.3605 -0.0018
 2981SOL     OW20401   1.936   2.100  17.071 -0.2940 -0.0337  0.0073
 2981SOL    HW120402   1.987   2.180  17.059  1.7153 -1.5261 -1.4617
 2981SOL    HW220403   1.890   2.134  17.148 -0.9248  0.3615 -0.5459
 2982SOL     OW20404   0.468   4.433   4.122 -0.4965  0.2072 -0.1652
 2982SOL    HW120405   0.444   4.494   4.192 -1.1067 -1.2740  0.9161
 2982SOL    HW220406   0.385   4.390   4.099  0.0943 -0.7698 -0.4451
 2983SOL     OW20407   2.613   1.502  10.006 -0.1559 -0.3708 -0.1717
 2983SOL    HW120408   2.682   1.519   9.943 -0.2715  0.6479 -0.0201
 2983SOL    HW220409   2.656   1.432  10.055  0.0163  0.8996  1.4753
 2984SOL     OW20410   3.640   2.350   4.209 -0.7102  0.1022  0.0945
 2984SOL    HW120411   3.579   2.288   4.169 -1.1006  0.0820  0.7069
 2984SOL    HW220412   3.718   2.295   4.215 -1.0411 -0.4340 -0.4323
 2985SOL     OW20413   1.464   2.903   4.386  0.3157 -0.3483 -0.4281
 2985SOL    HW120414   1.474   2.846   4.310  0.7909  1.0830 -1.4379
 2985SOL    HW220415   1.369   2.916   4.383  0.0129 -2.6305 -0.4722
 2986SOL     OW20416   0.511   1.249  17.426 -0.4361 -0.5006 -0.3243
 2986SOL    HW120417   0.542   1.184  17.489  0.0395 -0.6062 -0.6698
 2986SOL    HW220418   0.596   1.281  17.397 -0.2054 -0.7395  0.0865
 2987SOL     OW20419   1.529   0.439   3.795  0.2909 -0.3578  0.1773
 2987SOL    HW120420   1.591   0.433   3.722  0.1478  0.0624  0.0167
 2987SOL    HW220421   1.442   0.439   3.754  0.7236 -1.5683 -0.7426
 2988SOL     OW20422   4.050   1.466   7.241  0.1150  0.1839 -0.2823
 2988SOL    HW120423   4.012   1.394   7.191  0.8050  0.0280 -0.5798
 2988SOL    HW220424   4.120   1.488   7.180  2.4933 -1.5157  1.8706
 2989SOL     OW20425   2.952   3.334   2.321 -0.0348  0.2064  0.2893
 2989SOL    HW120426   3.025   3.300   2.269 -1.1078 -0.0443 -1.0773
 2989SOL    HW220427   2.905   3.374   2.248  0.5177  0.8097  0.2738
 2990SOL     OW20428   1.900   3.937  11.080  0.0877 -0.2451  0.0491
 2990SOL    HW120429   1.883   3.908  10.991  1.0995 -1.5828  0.2932
 2990SOL    HW220430   1.810   3.950  11.111 -0.2483 -0.9162 -0.6318
 2991SOL     OW20431   3.600   4.578  10.476  0.0641  0.3205  0.3239
 2991SOL    HW120432   3.669   4.541  10.421  0.1977 -0.3117  0.9140
 2991SOL    HW220433   3.618   4.672  10.480 -0.5038  0.3491  2.0192
 2992SOL     OW20434   0.316   1.132   0.588  0.1036  0.2138 -0.0541
 2992SOL    HW120435   0.347   1.044   0.568 -0.9733 -0.0311 -0.6744
 2992SOL    HW220436   0.392   1.181   0.619 -0.4254  0.1716  1.3072
 2993SOL     OW20437   0.687   1.799   3.881  0.2570  0.1894  0.5382
 2993SOL    HW120438   0.618   1.791   3.814  1.2947  1.3343 -0.6767
 2993SOL    HW220439   0.754   1.736   3.858 -1.2592  0.1262 -3.7758
 2994SOL     OW20440   3.797   4.183   7.175  0.2767  0.1148  0.1996
 2994SOL    HW120441   3.759   4.097   7.158  0.9146  0.1123 -1.2654
 2994SOL    HW220442   3.718   4.237   7.184  0.2234  0.2773 -1.2062
 2995SOL     OW20443   0.883   2.457   0.652 -0.4057  0.1254 -0.5264
 2995SOL    HW120444   0.910   2.368   0.672 -2.3816 -0.0629  1.4171
 2995SOL    HW220445   0.789   2.448   0.670 -0.3912  1.0242  0.0003
 2996SOL     OW20446   0.290   1.416  10.261 -0.4593  0.5128  0.0702
 2996SOL    HW120447   0.303   1.458  10.346 -1.4467  0.1177  0.4234
 2996SOL    HW220448   0.217   1.469  10.229 -0.4821  0.7484  0.5100
 2997SOL     OW20449   2.723   0.236  15.862 -0.1011 -0.2054  0.1191
 2997SOL    HW120450   2.792   0.271  15.805 -1.6701  1.0115 -1.0220
 2997SOL    HW220451   2.680   0.177  15.800 -1.4812  1.4443 -0.4930
 2998SOL     OW20452   4.437   1.110   1.467  0.7551 -0.1214  0.4292
 2998SOL    HW120453   4.515   1.093   1.520  1.0872 -2.7062 -0.8726
 2998SOL    HW220454   4.465   1.086   1.379 -1.2053 -1.5062  0.1846
 2999SOL     OW20455   2.775   4.184   9.195  0.7238  0.0635 -0.1599
 2999SOL    HW120456   2.845   4.246   9.177  0.8036 -0.1885 -0.7097
 2999SOL    HW220457   2.776   4.177   9.291 -1.1624  3.0413  0.0583
 3000SOL     OW20458   3.523   4.177   5.946  0.0472  0.2042 -0.0923
 3000SOL    HW120459   3.589   4.116   5.913 -1.0734 -0.7896 -0.5015
 3000SOL    HW220460   3.498   4.138   6.030 -0.9615  2.2931  0.5697
 3001SOL     OW20461   3.858   3.920  13.021  0.1718 -0.0963  0.1527
 3001SOL    HW120462   3.763   3.924  13.015  0.1420 -0.0877  0.6809
 3001SOL    HW220463   3.867   3.835  13.063  0.1625 -0.3739 -0.3973
 3002SOL     OW20464   0.619   3.523  16.874  0.1906 -0.1825 -0.3592
 3002SOL    HW120465   0.626   3.617  16.858 -0.0409 -0.1374 -0.1964
 3002SOL    HW220466   0.583   3.526  16.963 -1.1450 -2.3509 -0.8176
 3003SOL     OW20467   3.977   3.464   1.977 -0.2444  0.3784 -0.1847
 3003SOL    HW120468   3.895   3.495   2.017  0.2437  0.8049  0.4994
 3003SOL    HW220469   3.960   3.475   1.884  3.1223 -2.7168 -1.1229
 3004SOL     OW20470   3.223   1.040   8.712  0.3999 -0.2853 -0.3507
 3004SOL    HW120471   3.147   1.055   8.768 -0.5535 -1.7244 -1.2426
 3004SOL    HW220472   3.300   1.072   8.759 -1.9952  1.1972  2.5605
 3005SOL     OW20473   2.880   2.996   1.535  0.4303  0.0478 -0.9784
 3005SOL    HW120474   2.958   2.945   1.518 -0.9392 -1.1241 -3.8202
 3005SOL    HW220475   2.830   2.986   1.453 -2.1325  0.1300  0.5563
 3006SOL     OW20476   4.665   3.993   7.492  0.2577  0.2306  0.1004
 3006SOL    HW120477   4.622   4.047   7.558 -0.6643  0.0221 -0.3324
 3006SOL    HW220478   4.682   3.910   7.537 -0.7844 -0.0856 -0.0909
 3007SOL     OW20479   2.208   1.903   2.733 -0.1611  0.3740 -0.1591
 3007SOL    HW120480   2.182   1.823   2.778 -0.1326 -0.1112 -0.9993
 3007SOL    HW220481   2.216   1.963   2.807  1.4581  2.2606 -1.8660
 3008SOL     OW20482   1.462   2.069  10.173  0.0935 -0.7395  0.2138
 3008SOL    HW120483   1.470   2.161  10.199 -1.2652 -0.5128 -0.1637
 3008SOL    HW220484   1.432   2.030  10.256  0.4022  0.1410  0.7387
 3009SOL     OW20485   2.979   4.429  13.643 -0.1680  0.4260 -0.0252
 3009SOL    HW120486   2.904   4.372  13.659  0.6800 -0.1792  1.7400
 3009SOL    HW220487   3.044   4.400  13.706  0.5990 -0.3406 -1.1703
 3010SOL     OW20488   2.815   3.509   4.636 -0.3164  0.0498  0.1828
 3010SOL    HW120489   2.734   3.505   4.688  0.8613  2.6103  2.2535
 3010SOL    HW220490   2.812   3.602   4.612  1.0457  0.0041 -0.1966
 3011SOL     OW20491   1.173   2.146   1.913 -0.8150  0.2549 -0.4949
 3011SOL    HW120492   1.255   2.155   1.963  0.9440 -1.7831 -3.0200
 3011SOL    HW220493   1.202   2.118   1.826 -1.0174  1.1465 -0.8501
 3012SOL     OW20494   1.464   2.157   2.375  0.9014 -0.1507 -0.2034
 3012SOL    HW120495   1.427   2.104   2.304  1.0535  0.9090 -1.0745
 3012SOL    HW220496   1.379   2.181   2.413  0.1794 -0.8401 -1.3685
 3013SOL     OW20497   3.416   2.364   6.872 -0.1961 -0.3788 -0.4459
 3013SOL    HW120498   3.461   2.308   6.935 -1.9256 -0.2097  0.9629
 3013SOL    HW220499   3.328   2.329   6.886  0.2839 -2.1708 -1.9572
 3014SOL     OW20500   0.587   1.251   4.377  0.2802  0.3106 -0.6820
 3014SOL    HW120501   0.600   1.245   4.282  0.5010 -0.3180 -0.6141
 3014SOL    HW220502   0.581   1.345   4.392 -0.4741 -0.1878  2.1714
 3015SOL     OW20503   1.297   4.473   8.362 -0.0977  0.1080 -0.1609
 3015SOL    HW120504   1.265   4.523   8.437  1.8432  0.9150  0.1372
 3015SOL    HW220505   1.366   4.425   8.408 -2.2562 -1.7948  1.0881
 3016SOL     OW20506   1.700   0.603   5.541 -0.4834 -0.1918  0.4657
 3016SOL    HW120507   1.693   0.508   5.530  1.8365 -0.5405  1.9415
 3016SOL    HW220508   1.691   0.611   5.636  0.6208  0.6666  0.4866
 3017SOL     OW20509   3.168   3.280   8.360  0.3798  0.1336 -0.1178
 3017SOL    HW120510   3.248   3.248   8.317 -1.9927 -3.5238 -1.8128
 3017SOL    HW220511   3.107   3.206   8.357  0.4296  0.0127  2.3180
 3018SOL     OW20512   2.914   1.197   9.396  0.5445 -0.2978 -0.0262
 3018SOL    HW120513   2.972   1.264   9.432 -0.9925  1.3825 -0.6873
 3018SOL    HW220514   2.863   1.244   9.330  2.2985 -0.0533 -1.2115
 3019SOL     OW20515   3.034   1.678   0.917 -0.1676  0.4932  0.1858
 3019SOL    HW120516   2.958   1.704   0.865  0.7209  0.2270 -1.2475
 3019SOL    HW220517   2.983   1.640   0.988  1.6773 -1.9279  0.2227
 3020SOL     OW20518   3.527   0.411   8.140 -0.5590  0.4359  0.1364
 3020SOL    HW120519   3.545   0.335   8.196 -1.0674 -0.8481 -1.4437
 3020SOL    HW220520   3.599   0.473   8.152  0.4644 -0.1765 -2.9317
 3021SOL     OW20521   1.223   0.291   5.802 -0.3696  0.6003  0.0170
 3021SOL    HW120522   1.232   0.196   5.799 -1.0998  0.5236  0.3007
 3021SOL    HW220523   1.178   0.314   5.721 -1.3050  1.2259  0.7118
 3022SOL     OW20524   1.526   1.742   6.316  0.6735  0.2169  0.2015
 3022SOL    HW120525   1.610   1.699   6.329  0.2292 -1.2249 -1.6074
 3022SOL    HW220526   1.493   1.747   6.406 -1.1173  1.1414 -0.5075
 3023SOL     OW20527   1.484   2.161   6.839  1.2697  0.3928 -0.0257
 3023SOL    HW120528   1.520   2.139   6.753  1.0286  0.1618 -0.0680
 3023SOL    HW220529   1.510   2.253   6.846  1.1061  0.4818 -0.5940
 3024SOL     OW20530   0.367   0.662   9.420 -0.7731 -0.3233  0.3209
 3024SOL    HW120531   0.438   0.605   9.390 -2.1289 -1.5948 -0.4410
 3024SOL    HW220532   0.290   0.607   9.406 -0.4180 -0.1246 -2.5268
 3025SOL     OW20533   1.733   3.227   3.079  0.3124 -0.2560 -0.2286
 3025SOL    HW120534   1.689   3.273   3.008 -2.5833 -0.5243  1.3517
 3025SOL    HW220535   1.668   3.164   3.111 -0.3220  0.4180 -0.1620
 3026SOL     OW20536   0.334   2.112   4.535  0.0151 -1.0106  0.0317
 3026SOL    HW120537   0.416   2.065   4.520  1.1985  0.5778  1.4368
 3026SOL    HW220538   0.317   2.090   4.626 -1.1686 -0.8421 -0.1530
 3027SOL     OW20539   2.779   4.642   6.268 -0.4545 -0.0135 -0.0975
 3027SOL    HW120540   2.747   4.719   6.316 -0.3475  0.7805 -1.2859
 3027SOL    HW220541   2.872   4.663   6.258 -0.1911 -0.3138  1.6409
 3028SOL     OW20542   1.965   2.689   5.514  0.8007  0.5542  0.7712
 3028SOL    HW120543   1.943   2.771   5.471 -1.9815 -0.3546  0.4706
 3028SOL    HW220544   1.900   2.691   5.584 -0.3707 -1.5667 -0.2659
 3029SOL     OW20545   3.032   1.373   7.472  0.1218 -0.5271 -0.8982
 3029SOL    HW120546   2.959   1.332   7.518  0.0764  1.6567  0.9494
 3029SOL    HW220547   2.983   1.430   7.412  0.5016  0.3744 -0.3453
 3030SOL     OW20548   2.763   4.113   8.187  0.1440 -0.0082 -0.4366
 3030SOL    HW120549   2.711   4.165   8.249 -0.4889 -1.9941  0.7083
 3030SOL    HW220550   2.685   4.080   8.142  0.1591  0.9666 -1.1726
 3031SOL     OW20551   0.736   2.077   5.612  0.3280 -0.2365 -0.0693
 3031SOL    HW120552   0.669   2.102   5.675 -0.5246  1.6659 -1.7163
 3031SOL    HW220553   0.732   1.981   5.607 -3.3705 -0.0348 -0.8888
 3032SOL     OW20554   0.162   3.011  11.044 -0.5974  0.6524  0.0337
 3032SOL    HW120555   0.246   3.032  11.084  1.1057 -1.1134 -2.6792
 3032SOL    HW220556   0.109   3.075  11.093 -1.9002 -0.0179 -0.4958
 3033SOL     OW20557   3.788   3.480   8.685  0.5518 -0.3409 -0.0658
 3033SOL    HW120558   3.763   3.571   8.700  1.1165 -0.2991  0.6259
 3033SOL    HW220559   3.883   3.488   8.694  0.0937  4.1460  1.0348
 3034SOL     OW20560   3.832   2.128  17.381  0.0546 -0.6040  0.9147
 3034SOL    HW120561   3.801   2.071  17.310  2.1659  1.9146 -1.9921
 3034SOL    HW220562   3.886   2.067  17.431  2.4127 -1.2930 -2.4895
 3035SOL     OW20563   2.664   0.179   7.383 -0.0400  1.1545 -0.5312
 3035SOL    HW120564   2.683   0.133   7.465 -2.3804  0.9787 -0.0951
 3035SOL    HW220565   2.636   0.108   7.326  1.0937 -0.0902  0.4700
 3036SOL     OW20566   2.774   2.973   4.051  0.5984  0.2617 -0.2177
 3036SOL    HW120567   2.843   3.030   4.017  0.6874 -0.7105 -1.6618
 3036SOL    HW220568   2.759   3.006   4.140 -1.4153  0.8817 -0.7794
 3037SOL     OW20569   3.293   0.019  14.336  0.6348 -0.3438 -0.1271
 3037SOL    HW120570   3.373   0.069  14.354  1.4871 -2.3678  1.5936
 3037SOL    HW220571   3.222   0.048  14.394  0.6865 -2.9934  1.2296
 3038SOL     OW20572   4.063   3.226   9.623 -0.0967 -0.1209  0.8476
 3038SOL    HW120573   4.147   3.252   9.586 -0.7848  1.2274  0.2399
 3038SOL    HW220574   4.091   3.153   9.679 -0.5176 -0.7511  0.2489
 3039SOL     OW20575   2.590   3.024   3.606 -0.7606  0.7350  0.6337
 3039SOL    HW120576   2.534   3.094   3.639 -0.9623  0.2780  1.2463
 3039SOL    HW220577   2.598   2.970   3.684  0.9160 -0.1482 -0.1481
 3040SOL     OW20578   0.067   0.985   7.121  0.4896 -0.1034  0.5842
 3040SOL    HW120579   0.120   0.985   7.042 -1.4729  0.4517 -0.7195
 3040SOL    HW220580   0.032   0.896   7.133 -0.0422  0.0933  0.5247
 3041SOL     OW20581   3.564   2.822   2.505  0.3927  0.0235  0.2601
 3041SOL    HW120582   3.479   2.866   2.503  1.1750  1.4650 -1.0869
 3041SOL    HW220583   3.624   2.893   2.480  0.2975 -0.6537 -1.9581
 3042SOL     OW20584   0.739   0.448   3.483 -0.7012  0.3389  0.7691
 3042SOL    HW120585   0.794   0.523   3.507 -1.5056  0.6753  1.5423
 3042SOL    HW220586   0.724   0.413   3.571 -0.2515 -0.6517  0.4543
 3043SOL     OW20587   1.679   1.410   8.452  0.2821  0.4349  0.2662
 3043SOL    HW120588   1.656   1.377   8.365 -1.7309 -1.4859  1.5456
 3043SOL    HW220589   1.659   1.503   8.444  0.3098  0.4774  0.6932
 3044SOL     OW20590   4.080   2.576  17.356  0.1746 -0.2716  0.0024
 3044SOL    HW120591   4.016   2.584  17.427 -1.3380  1.2924 -1.5355
 3044SOL    HW220592   4.095   2.668  17.334 -1.7318 -0.2039 -1.0484
 3045SOL     OW20593   4.347   0.237  11.256  0.0790  0.3205  0.1883
 3045SOL    HW120594   4.263   0.254  11.300 -0.5320 -1.3822 -0.2982
 3045SOL    HW220595   4.349   0.312  11.197  1.4375 -2.6985 -3.5533
 3046SOL     OW20596   3.464   0.702   9.231 -0.0980  0.1734  0.6633
 3046SOL    HW120597   3.475   0.733   9.321 -0.4696  0.7720  0.4991
 3046SOL    HW220598   3.533   0.745   9.181 -1.2500  1.7655  0.4514
 3047SOL     OW20599   1.497   0.140   1.018  0.4100 -0.5516  0.2782
 3047SOL    HW120600   1.449   0.159   1.098  1.0906 -0.5573  0.6817
 3047SOL    HW220601   1.561   0.075   1.048  1.5901  0.9992  1.1250
 3048SOL     OW20602   0.430   4.152   8.182 -0.3710  0.2704 -0.7036
 3048SOL    HW120603   0.371   4.227   8.193  1.0231  1.1765  0.5706
 3048SOL    HW220604   0.503   4.188   8.132  1.9562 -1.5243  1.4043
 3049SOL     OW20605   2.204   1.903   4.126  0.2805  0.2364 -0.0126
 3049SOL    HW120606   2.229   1.961   4.055  1.6322  0.8492  0.9643
 3049SOL    HW220607   2.284   1.872   4.168  1.4154  0.4056 -2.0665
 3050SOL     OW20608   1.798   4.245   5.534 -0.1825  0.0714  0.5529
 3050SOL    HW120609   1.885   4.212   5.511  0.5562  1.4584  1.3682
 3050SOL    HW220610   1.806   4.321   5.477  0.3287  0.5852  1.3031
 3051SOL     OW20611   1.478   2.137   4.721 -0.2867 -0.4475 -0.2946
 3051SOL    HW120612   1.527   2.129   4.803 -0.2882 -0.3629 -0.2861
 3051SOL    HW220613   1.401   2.180   4.757 -0.5698 -0.8109 -0.4632
 3052SOL     OW20614   2.730   4.421   3.705  0.1199  0.1807  0.7432
 3052SOL    HW120615   2.668   4.453   3.640  1.8764 -1.0547 -1.5449
 3052SOL    HW220616   2.661   4.399   3.767  0.0155 -1.5125  0.0101
 3053SOL     OW20617   1.448   2.172   1.000 -0.5639 -0.5174  0.2938
 3053SOL    HW120618   1.438   2.209   1.088  0.9359  3.4413 -1.2269
 3053SOL    HW220619   1.485   2.085   1.018  1.7710  0.4572  0.1612
 3054SOL     OW20620   1.357   3.295   5.420 -0.6140 -0.6388 -0.2963
 3054SOL    HW120621   1.282   3.297   5.361 -1.0935 -0.4725  0.3107
 3054SOL    HW220622   1.321   3.320   5.505  1.3482 -2.9600  1.2061
 3055SOL     OW20623   4.487   3.505   9.758  0.5917  0.9714  0.3905
 3055SOL    HW120624   4.435   3.585   9.759  1.1769  1.3643 -1.2186
 3055SOL    HW220625   4.543   3.540   9.828 -4.1391  2.7696  3.3001
 3056SOL     OW20626   1.787   3.109   7.539  0.4792  0.4273  0.1926
 3056SOL    HW120627   1.878   3.123   7.514  0.9977 -0.8096  1.3788
 3056SOL    HW220628   1.786   3.019   7.571  2.1564  0.3343 -0.0183
 3057SOL     OW20629   1.961   1.923   1.007  0.1890  0.4834 -0.0247
 3057SOL    HW120630   1.895   1.920   1.076 -2.7332 -1.7814 -2.9258
 3057SOL    HW220631   1.950   1.838   0.965  1.7870  0.0693  0.3686
 3058SOL     OW20632   1.713   0.225   4.655  0.0189 -0.3421  0.0699
 3058SOL    HW120633   1.633   0.264   4.620 -0.1803 -1.8650 -1.1449
 3058SOL    HW220634   1.772   0.238   4.582 -0.2069 -0.6033 -0.1612
 3059SOL     OW20635   1.265   1.977   8.142 -0.1925 -0.0803  0.1106
 3059SOL    HW120636   1.249   2.046   8.079 -1.0050  0.8681  1.3532
 3059SOL    HW220637   1.254   1.900   8.086 -1.6494 -1.3570  2.1289
 3060SOL     OW20638   2.881   1.937   8.597  0.0554 -0.4605  0.3844
 3060SOL    HW120639   2.919   2.024   8.595  1.6639 -1.1582  1.1773
 3060SOL    HW220640   2.897   1.909   8.687  0.5178  0.9446  0.7314
 3061SOL     OW20641   0.520   2.524   4.755 -0.1213  0.1329  0.0910
 3061SOL    HW120642   0.509   2.458   4.823  0.6058  0.1921  0.2693
 3061SOL    HW220643   0.467   2.589   4.799 -0.6630 -0.9942  1.1011
 3062SOL     OW20644   1.132   4.042   2.974  0.0025  0.1925  0.0813
 3062SOL    HW120645   1.186   3.966   2.950 -1.3715 -0.0403 -2.3609
 3062SOL    HW220646   1.133   4.090   2.891 -1.9530  1.8509  1.0367
 3063SOL     OW20647   0.920   3.186   1.275 -0.0607 -0.0393  0.0100
 3063SOL    HW120648   0.922   3.270   1.230 -1.0772 -0.4693 -0.8346
 3063SOL    HW220649   0.945   3.131   1.200 -2.1818 -1.0173  0.0195
 3064SOL     OW20650   0.857   3.383  14.874  0.1499  0.4562  0.1318
 3064SOL    HW120651   0.793   3.365  14.943  0.7211 -1.0962  0.2356
 3064SOL    HW220652   0.803   3.382  14.794 -0.2117 -1.2223  0.3964
 3065SOL     OW20653   0.397   1.531   5.550 -0.0084 -0.2349 -0.2151
 3065SOL    HW120654   0.419   1.572   5.466  0.7521  0.3306  0.2610
 3065SOL    HW220655   0.394   1.599   5.616 -0.7556 -1.6842  1.2330
 3066SOL     OW20656   3.628   3.606   7.313  0.1296  0.6126 -0.3559
 3066SOL    HW120657   3.536   3.632   7.303 -0.2688 -0.8983 -0.5702
 3066SOL    HW220658   3.675   3.673   7.263  0.8182  1.9154  2.0280
 3067SOL     OW20659   1.726   3.276  15.420 -0.2250 -0.1033 -0.2683
 3067SOL    HW120660   1.817   3.255  15.400 -0.1413  1.0507 -1.1212
 3067SOL    HW220661   1.705   3.305  15.331  0.1732 -0.8438 -0.6023
 3068SOL     OW20662   3.724   3.701   4.639 -0.0235 -0.1585  0.9439
 3068SOL    HW120663   3.654   3.645   4.607 -1.0212  1.4889  0.1961
 3068SOL    HW220664   3.792   3.635   4.649 -0.5864 -0.8740 -0.0920
 3069SOL     OW20665   3.290   4.664  12.961 -0.3908  0.0050  0.6854
 3069SOL    HW120666   3.295   0.039  12.956  2.7944 -0.1609  0.8315
 3069SOL    HW220667   3.374   4.645  13.004 -0.4277  0.5573  1.0067
 3070SOL     OW20668   3.092   3.255   8.052  0.3542  0.5940  0.0132
 3070SOL    HW120669   3.109   3.217   8.138 -2.2629 -1.4851 -0.3857
 3070SOL    HW220670   3.117   3.183   7.994  1.2049  0.8426  0.0575
 3071SOL     OW20671   3.040   2.076  14.679  0.6554 -0.2261  0.2347
 3071SOL    HW120672   3.001   1.989  14.669  1.2179 -0.4243 -0.2157
 3071SOL    HW220673   2.999   2.111  14.758 -0.4846 -0.3584 -0.3094
 3072SOL     OW20674   1.577   4.659   9.030 -0.2167 -0.1172 -0.1186
 3072SOL    HW120675   1.637   4.718   8.983  0.4293 -1.9901 -1.6547
 3072SOL    HW220676   1.615   4.651   9.117 -0.3807  0.5106  0.0171
 3073SOL     OW20677   1.429   0.709   4.501 -0.3561  0.2565  0.1458
 3073SOL    HW120678   1.355   0.734   4.445 -1.6888  0.2144  1.9139
 3073SOL    HW220679   1.392   0.711   4.588 -0.6284  0.8656  0.0184
 3074SOL     OW20680   2.342   1.714   5.322 -0.4932  0.1245  0.0903
 3074SOL    HW120681   2.368   1.704   5.413 -1.3611 -1.8968  0.1099
 3074SOL    HW220682   2.317   1.626   5.293 -5.4828  2.0546 -1.4887
 3075SOL     OW20683   1.661   4.618   3.893 -0.0534 -0.3617  0.0207
 3075SOL    HW120684   1.615   4.534   3.903  1.3214 -0.9160  1.4904
 3075SOL    HW220685   1.582   4.663   3.862 -1.7954 -0.0085  5.1113
 3076SOL     OW20686   1.730   3.130  13.095  0.3943  0.1408  0.0031
 3076SOL    HW120687   1.804   3.183  13.124  0.3220 -0.0271  0.4944
 3076SOL    HW220688   1.661   3.196  13.092 -0.3535 -0.7437 -2.2922
 3077SOL     OW20689   4.389   3.442  10.502 -0.0503 -0.2832 -0.5650
 3077SOL    HW120690   4.296   3.460  10.518 -0.0932 -1.6810  0.8182
 3077SOL    HW220691   4.402   3.347  10.495  2.2125 -0.1054  1.2383
 3078SOL     OW20692   0.923   3.169  14.459  0.1605 -0.1369 -0.1636
 3078SOL    HW120693   0.962   3.124  14.384 -0.4751 -2.0595  0.6550
 3078SOL    HW220694   0.990   3.233  14.484 -0.8686  0.6142  0.6654
 3079SOL     OW20695   1.097   4.663  12.130  0.1529 -0.4479 -0.7651
 3079SOL    HW120696   1.107   4.634  12.039  1.2935  0.5910 -0.9788
 3079SOL    HW220697   1.187   4.655  12.163 -0.5561  0.0712  1.2695
 3080SOL     OW20698   2.795   3.322   2.537  0.3671 -0.1052  0.5939
 3080SOL    HW120699   2.855   3.303   2.465  0.1435 -1.4496  0.7556
 3080SOL    HW220700   2.708   3.309   2.499  0.9496 -1.3430 -0.3282
 3081SOL     OW20701   3.136   2.609  12.660 -0.1086 -0.2992 -0.4028
 3081SOL    HW120702   3.085   2.529  12.653 -1.7823  0.5476  1.9546
 3081SOL    HW220703   3.202   2.586  12.726 -0.9098  1.1499  0.9077
 3082SOL     OW20704   2.936   2.519   1.252  0.0141 -0.0444 -0.5031
 3082SOL    HW120705   3.020   2.476   1.240  0.1818  0.8341 -2.4532
 3082SOL    HW220706   2.890   2.465   1.316  1.2869 -1.4217 -0.7624
 3083SOL     OW20707   3.241   3.254  17.375  0.4440 -0.3254  0.4718
 3083SOL    HW120708   3.194   3.295  17.302  0.3832  0.5000  0.9765
 3083SOL    HW220709   3.334   3.274  17.363  0.2886 -0.5180 -1.0131
 3084SOL     OW20710   2.206   3.918  10.819  0.6470 -0.2886  0.2923
 3084SOL    HW120711   2.125   3.969  10.829 -0.1731 -1.4125 -0.6532
 3084SOL    HW220712   2.223   3.902  10.726 -2.5961  2.3596 -0.7687
 3085SOL     OW20713   4.228   4.142   8.973  0.1663  0.3065 -0.4807
 3085SOL    HW120714   4.230   4.227   9.017  0.0838  0.7162 -1.2742
 3085SOL    HW220715   4.254   4.180   8.889  0.6548  0.1249 -0.4078
 3086SOL     OW20716   1.859   3.648   8.308  0.5800 -0.4800 -0.8799
 3086SOL    HW120717   1.884   3.738   8.331  1.9045 -0.6494 -1.6482
 3086SOL    HW220718   1.943   3.603   8.316  0.6366  0.0651  1.8023
 3087SOL     OW20719   3.730   3.762   8.690  0.1864  0.1988 -0.3583
 3087SOL    HW120720   3.692   3.788   8.606 -1.7703 -0.8501  0.2018
 3087SOL    HW220721   3.819   3.795   8.679  0.0481  0.2586 -1.2429
 3088SOL     OW20722   3.501   1.449   5.712 -0.6028 -0.4436 -0.2554
 3088SOL    HW120723   3.535   1.380   5.655  0.4441  0.3436 -0.5890
 3088SOL    HW220724   3.507   1.521   5.650 -0.8807  0.0315  0.2726
 3089SOL     OW20725   4.234   2.396   6.111  0.3788  0.3788 -0.5025
 3089SOL    HW120726   4.232   2.333   6.039 -1.6741 -0.5820  0.3778
 3089SOL    HW220727   4.141   2.393   6.135  0.0170  0.3604 -1.8907
 3090SOL     OW20728   0.875   3.375   4.302 -0.0628  0.1456 -0.8618
 3090SOL    HW120729   0.889   3.286   4.269  1.2624  0.3857 -0.9391
 3090SOL    HW220730   0.786   3.384   4.266 -0.1733 -1.8632 -1.1159
 3091SOL     OW20731   3.300   1.191   2.359  0.0344  0.4166  0.1447
 3091SOL    HW120732   3.383   1.154   2.328 -0.3621  0.1414 -0.6020
 3091SOL    HW220733   3.330   1.271   2.401  0.1536 -0.5539  1.8926
 3092SOL     OW20734   2.364   1.619  15.172  0.3359 -0.7370  0.2709
 3092SOL    HW120735   2.449   1.652  15.202 -0.3098  0.6406  0.5927
 3092SOL    HW220736   2.360   1.528  15.202 -1.5519 -0.7706 -0.1255
 3093SOL     OW20737   0.670   1.772   5.553 -0.1858 -0.4313 -0.4821
 3093SOL    HW120738   0.697   1.691   5.511  0.6227 -0.6896  0.5292
 3093SOL    HW220739   0.584   1.754   5.590 -1.3707 -0.1010 -3.0789
 3094SOL     OW20740   0.240   1.918   6.028  0.1047  0.6865  0.1372
 3094SOL    HW120741   0.308   1.854   6.048  0.1502 -0.4066 -3.5520
 3094SOL    HW220742   0.191   1.868   5.963  0.0965  3.9455 -2.3595
 3095SOL     OW20743   2.425   3.916   1.774 -0.5271 -0.3205 -0.1308
 3095SOL    HW120744   2.371   3.995   1.767 -0.1247  0.1535  2.2120
 3095SOL    HW220745   2.416   3.870   1.691 -0.3377  0.4900 -0.6051
 3096SOL     OW20746   2.732   3.529   2.276  0.1887  0.2456  0.0720
 3096SOL    HW120747   2.664   3.502   2.214  0.0735  1.3996 -0.3104
 3096SOL    HW220748   2.773   3.605   2.234  2.3103  0.2379  2.1377
 3097SOL     OW20749   1.740   2.690  13.439 -0.4592  0.4385  0.0498
 3097SOL    HW120750   1.710   2.769  13.394  0.2948  0.8940  0.3579
 3097SOL    HW220751   1.686   2.678  13.518  1.9021  0.4689  1.6758
 3098SOL     OW20752   4.560   0.013   5.929 -0.3042 -0.3016 -0.2267
 3098SOL    HW120753   4.507   0.046   6.002  0.5629 -0.5569  0.5244
 3098SOL    HW220754   4.569   4.644   5.963 -0.1966  0.7012  2.4227
 3099SOL     OW20755   2.853   4.415   7.591 -0.2372 -0.7351 -0.0858
 3099SOL    HW120756   2.928   4.363   7.622 -0.3635 -0.2559  1.0252
 3099SOL    HW220757   2.809   4.349   7.537 -2.5093 -0.2198  1.1194
 3100SOL     OW20758   2.526   4.211   8.618  0.0201  0.0533  0.7010
 3100SOL    HW120759   2.480   4.229   8.700 -2.9225  1.1609 -1.2057
 3100SOL    HW220760   2.606   4.191   8.666  0.2170  2.7794  1.5111
 3101SOL     OW20761   4.308   1.634   8.143 -0.6177 -0.4603  0.2878
 3101SOL    HW120762   4.357   1.612   8.063  0.0433  0.3483  0.4735
 3101SOL    HW220763   4.216   1.647   8.119 -0.7570  0.9923  1.6489
 3102SOL     OW20764   0.577   1.868   0.310  0.0046 -0.4256 -0.1587
 3102SOL    HW120765   0.607   1.953   0.344 -3.1344  1.0328 -1.1036
 3102SOL    HW220766   0.581   1.872   0.215  1.2960  2.1197 -0.0250
 3103SOL     OW20767   4.018   1.777   7.135  0.3628 -0.5124  0.1260
 3103SOL    HW120768   4.111   1.753   7.134  0.4015 -0.4109  0.9642
 3103SOL    HW220769   3.998   1.773   7.042  1.9689  1.1362 -0.2891
 3104SOL     OW20770   3.008   2.888   9.307  0.0520 -0.7432 -0.1932
 3104SOL    HW120771   2.980   2.836   9.382 -0.9193  0.1637  0.0782
 3104SOL    HW220772   3.103   2.889   9.314  0.1068  0.5330 -1.0281
 3105SOL     OW20773   2.128   0.036  12.817  0.0785  0.0703  0.2764
 3105SOL    HW120774   2.041   0.054  12.853  0.4097  1.0482  0.5955
 3105SOL    HW220775   2.168   4.683  12.864 -0.7544  0.5610  1.7561
 3106SOL     OW20776   0.635   0.486   3.796 -0.3266 -0.1417 -0.3082
 3106SOL    HW120777   0.544   0.468   3.816 -0.7180  1.0945 -0.9772
 3106SOL    HW220778   0.677   0.401   3.780  1.8946  0.9356 -0.3083
 3107SOL     OW20779   0.148   2.182   5.735 -0.3696 -0.2405  0.2337
 3107SOL    HW120780   0.077   2.241   5.712 -1.3003 -1.5408 -0.1971
 3107SOL    HW220781   0.155   2.204   5.828 -0.7458  2.4868 -0.3744
 3108SOL     OW20782   2.036   1.854   5.004  0.2324  0.2572  0.1932
 3108SOL    HW120783   2.069   1.876   5.091 -1.1951  1.3665  0.4521
 3108SOL    HW220784   1.947   1.847   5.038 -0.3626 -1.7591 -1.8067
 3109SOL     OW20785   0.997   0.618   5.651 -0.5313  0.4693 -0.3846
 3109SOL    HW120786   1.065   0.682   5.634 -1.2041  1.5795  1.0842
 3109SOL    HW220787   1.029   0.533   5.621  2.3650  1.1493  0.7903
 3110SOL     OW20788   2.155   3.809   7.828 -0.1155  0.1497 -0.1756
 3110SOL    HW120789   2.221   3.797   7.759  1.0728 -0.8923  1.1486
 3110SOL    HW220790   2.075   3.792   7.778  0.8468 -1.1948 -1.2698
 3111SOL     OW20791   1.300   3.522   4.405 -0.3089  0.3362  0.3121
 3111SOL    HW120792   1.213   3.557   4.389  0.4557  1.5576 -1.1582
 3111SOL    HW220793   1.331   3.578   4.476 -2.4073 -1.8175  2.9131
 3112SOL     OW20794   3.568   1.458   7.359  0.5337  0.7133  0.1755
 3112SOL    HW120795   3.646   1.487   7.312 -0.0950  1.4033 -0.4545
 3112SOL    HW220796   3.554   1.521   7.429  0.8651  0.6970  0.2548
 3113SOL     OW20797   0.517   0.633  17.608 -0.7772  0.1357  0.0156
 3113SOL    HW120798   0.528   0.564  17.674  0.8913  0.6903  0.3223
 3113SOL    HW220799   0.562   0.710  17.643  1.5101 -1.2562  0.1818
 3114SOL     OW20800   2.232   3.566   4.659 -0.2847 -0.4743  0.1923
 3114SOL    HW120801   2.160   3.588   4.720 -0.5679 -0.4201 -0.1623
 3114SOL    HW220802   2.225   3.635   4.593  0.8013 -0.6838 -0.1247
 3115SOL     OW20803   4.340   3.938   4.742 -0.5725 -0.4552  0.5729
 3115SOL    HW120804   4.431   3.955   4.763 -0.0923 -0.6956 -1.3145
 3115SOL    HW220805   4.309   3.903   4.825  1.1667 -2.3768  0.3968
 3116SOL     OW20806   0.041   1.511   2.631  0.0509  0.1815 -0.3135
 3116SOL    HW120807   0.110   1.506   2.697 -1.7350 -1.2904  1.4343
 3116SOL    HW220808   4.693   1.452   2.662  0.5021 -0.0587  0.2332
 3117SOL     OW20809   0.146   3.207   7.840  0.2493  0.0037 -0.3308
 3117SOL    HW120810   0.164   3.252   7.758  0.4973  2.3629  1.0005
 3117SOL    HW220811   0.084   3.265   7.884 -0.1901 -0.5432 -0.2289
 3118SOL     OW20812   1.591   0.509  10.953  0.4231 -0.2522 -0.1118
 3118SOL    HW120813   1.680   0.497  10.919  0.4456 -0.6976  0.1036
 3118SOL    HW220814   1.608   0.582  11.013  0.3247 -0.9435  0.7635
 3119SOL     OW20815   3.516   4.402   6.368  0.3886 -0.5124 -0.1467
 3119SOL    HW120816   3.521   4.360   6.454  0.9698 -0.3022 -0.0856
 3119SOL    HW220817   3.421   4.396   6.353  0.6567 -3.6890 -0.6203
 3120SOL     OW20818   3.974   2.466   7.034 -0.2395  0.0204 -0.0748
 3120SOL    HW120819   4.010   2.379   7.048  0.1989  0.1698 -0.2864
 3120SOL    HW220820   3.963   2.462   6.939 -1.1434  1.1967 -0.0288
 3121SOL     OW20821   2.531   4.151   9.900  0.2118  0.0370  0.1465
 3121SOL    HW120822   2.534   4.119   9.990  0.9331 -2.3883 -0.7327
 3121SOL    HW220823   2.535   4.067   9.854  0.2482  0.5264 -0.7611
 3122SOL     OW20824   3.971   1.356  14.265  0.1198  0.4527 -0.1285
 3122SOL    HW120825   3.990   1.409  14.343  1.5267 -0.9755  0.5146
 3122SOL    HW220826   4.044   1.371  14.205  1.2166  0.6843  1.2325
 3123SOL     OW20827   3.674   1.049   9.698 -0.4213 -0.5961 -0.0050
 3123SOL    HW120828   3.580   1.067   9.706  0.3083  3.0746  0.4990
 3123SOL    HW220829   3.689   1.092   9.614 -0.1001  1.2557  0.9972
 3124SOL     OW20830   1.277   1.715   2.673  0.2635  0.2618  0.0575
 3124SOL    HW120831   1.263   1.638   2.729  2.0177  0.9903  1.5037
 3124SOL    HW220832   1.320   1.773   2.735 -0.0270  0.6607 -0.1146
 3125SOL     OW20833   0.045   1.101   5.343 -0.2091  0.8409  0.4537
 3125SOL    HW120834   0.025   1.126   5.253 -2.2344 -2.2984  0.0327
 3125SOL    HW220835   4.684   1.058   5.371  0.4951 -0.3966  0.6040
 3126SOL     OW20836   3.758   2.713  17.181 -0.0164  0.6175  0.1488
 3126SOL    HW120837   3.804   2.761  17.250  0.7753  0.7702 -0.4799
 3126SOL    HW220838   3.665   2.708  17.203 -0.8460  0.8513 -3.2589
 3127SOL     OW20839   0.799   1.821  11.580 -0.0232  0.3954 -1.0056
 3127SOL    HW120840   0.866   1.820  11.649  0.2365 -0.1039 -1.2615
 3127SOL    HW220841   0.837   1.881  11.516 -3.0447  1.2784 -1.9382
 3128SOL     OW20842   1.577   3.634   8.282 -0.1712  0.3276 -0.0315
 3128SOL    HW120843   1.560   3.719   8.324 -1.1903  0.7167 -1.2534
 3128SOL    HW220844   1.668   3.613   8.302 -0.0560  0.3983 -0.4765
 3129SOL     OW20845   2.834   3.716   7.969  0.4183  0.0512 -0.2371
 3129SOL    HW120846   2.853   3.623   7.983 -0.4619  0.1479  1.5604
 3129SOL    HW220847   2.920   3.756   7.957 -0.2299  1.6076  0.3434
 3130SOL     OW20848   0.367   4.267   7.050  0.3917  0.3992 -0.9677
 3130SOL    HW120849   0.373   4.233   6.961 -1.1999 -0.2651 -0.8202
 3130SOL    HW220850   0.272   4.262   7.057  0.3336  0.5894 -1.6808
 3131SOL     OW20851   2.431   4.450   3.840 -0.4348  0.2658  0.4107
 3131SOL    HW120852   2.413   4.520   3.777  0.6849  0.7233  0.5908
 3131SOL    HW220853   2.378   4.478   3.915 -0.9452 -0.2364  0.2263
 3132SOL     OW20854   2.425   2.681   3.236  0.0082  0.0484 -0.3690
 3132SOL    HW120855   2.447   2.746   3.170 -0.3566  0.5288 -0.0145
 3132SOL    HW220856   2.439   2.739   3.311  0.0395 -1.4059  0.7578
 3133SOL     OW20857   3.204   0.501  12.551 -0.6251 -0.1419 -0.1167
 3133SOL    HW120858   3.145   0.517  12.477  0.3590 -0.4815 -0.9730
 3133SOL    HW220859   3.233   0.411  12.533 -0.0344  0.0229  0.0074
 3134SOL     OW20860   1.542   0.428  15.052 -0.3056  0.1255 -0.1921
 3134SOL    HW120861   1.565   0.337  15.067  1.8569  0.8731  1.0082
 3134SOL    HW220862   1.626   0.464  15.023  0.0727  0.1202  0.8808
 3135SOL     OW20863   1.949   2.822   2.951 -0.4413 -0.6011 -0.3865
 3135SOL    HW120864   2.006   2.746   2.957 -0.5320 -0.7455 -1.2755
 3135SOL    HW220865   1.882   2.808   3.018 -0.8886 -1.2947 -0.9794
 3136SOL     OW20866   2.908   1.049   5.746  0.2639  0.1776  0.0270
 3136SOL    HW120867   2.980   1.098   5.786  0.1337  0.1393  0.3104
 3136SOL    HW220868   2.888   1.095   5.665  1.3396  1.2066  0.3491
 3137SOL     OW20869   0.322   0.101   1.040 -0.5868 -0.5221  0.5160
 3137SOL    HW120870   0.230   0.130   1.041 -0.2062  0.7651 -0.6816
 3137SOL    HW220871   0.320   0.047   1.118  1.1163 -1.4190 -0.0733
 3138SOL     OW20872   2.251   2.459   0.864 -0.2231 -0.0197  0.1825
 3138SOL    HW120873   2.198   2.469   0.785 -1.2185  0.0809  0.8656
 3138SOL    HW220874   2.319   2.521   0.836  2.8319 -2.7456  1.5470
 3139SOL     OW20875   2.823   0.471  15.597  0.5201 -0.0305 -0.4607
 3139SOL    HW120876   2.731   0.497  15.590  0.4040 -0.9231 -2.1820
 3139SOL    HW220877   2.819   0.422  15.515  1.1241  0.0908 -0.5656
 3140SOL     OW20878   1.051   4.289   7.268 -0.0674 -0.0711  0.1821
 3140SOL    HW120879   1.016   4.251   7.187  2.1313  0.2334 -0.9234
 3140SOL    HW220880   0.982   4.297   7.334 -1.8179 -0.1094 -1.6202
 3141SOL     OW20881   4.080   3.684   0.917  0.6834  0.0857 -0.3006
 3141SOL    HW120882   4.135   3.611   0.945  0.0749  0.8857  3.0856
 3141SOL    HW220883   4.143   3.749   0.885 -0.6263  1.3163 -0.4258
 3142SOL     OW20884   0.780   1.022   1.925  0.4637  0.3236  0.3205
 3142SOL    HW120885   0.764   0.965   1.850 -0.0979 -1.2076  1.6067
 3142SOL    HW220886   0.794   1.103   1.876  0.3321  0.2691  0.1933
 3143SOL     OW20887   2.713   1.485  16.612  0.9947 -0.1625  0.1589
 3143SOL    HW120888   2.757   1.450  16.535 -0.2196 -1.1497 -0.0948
 3143SOL    HW220889   2.739   1.426  16.682  1.8513 -1.0874 -0.9379
 3144SOL     OW20890   3.395   2.590   1.194 -0.1506  0.7593 -0.6863
 3144SOL    HW120891   3.439   2.512   1.229  2.0641  1.0428 -2.8308
 3144SOL    HW220892   3.381   2.642   1.274 -0.5973  0.8569 -0.8280
 3145SOL     OW20893   2.798   1.259  11.611 -0.4077  0.7806 -0.1220
 3145SOL    HW120894   2.829   1.189  11.554 -0.3384 -0.8916  1.9664
 3145SOL    HW220895   2.778   1.326  11.545 -0.1998 -0.2078 -1.1845
 3146SOL     OW20896   2.375   1.862  15.797 -0.8192  0.2604 -0.1569
 3146SOL    HW120897   2.426   1.942  15.810 -2.0098  0.8088  1.1643
 3146SOL    HW220898   2.355   1.831  15.885  0.9503 -0.6179 -0.0672
 3147SOL     OW20899   1.320   4.265  13.732  0.3527 -0.8991  0.1150
 3147SOL    HW120900   1.400   4.266  13.680 -0.5485 -0.1981 -1.2457
 3147SOL    HW220901   1.276   4.346  13.705 -3.3893 -2.7530  0.6028
 3148SOL     OW20902   1.943   2.162   8.450 -0.2794 -0.3736  0.1849
 3148SOL    HW120903   1.878   2.142   8.518 -1.5244  0.5082 -0.7554
 3148SOL    HW220904   1.923   2.253   8.432 -2.4963 -1.1829 -1.4032
 3149SOL     OW20905   4.398   2.278   5.444 -0.0158  0.5815 -0.6115
 3149SOL    HW120906   4.310   2.265   5.480  0.6841 -0.0923  0.8669
 3149SOL    HW220907   4.395   2.220   5.368 -0.5998  0.6522 -0.6429
 3150SOL     OW20908   3.589   1.633   7.799  0.3787 -0.1457 -0.4834
 3150SOL    HW120909   3.503   1.602   7.827  1.4785 -2.3239  0.5073
 3150SOL    HW220910   3.646   1.568   7.839 -0.0587  0.5154  1.2039
 3151SOL     OW20911   1.290   0.741   6.554 -0.7641 -0.1979 -0.3376
 3151SOL    HW120912   1.337   0.662   6.583 -1.3346 -1.4091 -2.7158
 3151SOL    HW220913   1.256   0.768   6.639  1.3125  2.5707 -0.3743
 3152SOL     OW20914   0.113   1.438   2.232  0.3793  0.2587 -0.2793
 3152SOL    HW120915   0.186   1.499   2.238 -0.5269  1.5295 -2.0470
 3152SOL    HW220916   0.042   1.500   2.247  0.6466  0.2360  1.0197
 3153SOL     OW20917   0.988   3.847   9.644 -0.2923  0.0542  0.2002
 3153SOL    HW120918   0.994   3.802   9.729 -3.5417  0.6711  0.7566
 3153SOL    HW220919   1.080   3.845   9.619 -0.5328 -2.7350 -0.4734
 3154SOL     OW20920   3.817   4.665  11.606  0.0681 -0.4220  0.0486
 3154SOL    HW120921   3.735   4.622  11.630 -1.2397  0.9047 -2.1019
 3154SOL    HW220922   3.859   4.682  11.690  0.1294 -1.0901  0.1547
 3155SOL     OW20923   0.460   2.514   3.166  0.4816  0.0526  0.0975
 3155SOL    HW120924   0.422   2.467   3.092 -0.9006 -0.0979  0.9241
 3155SOL    HW220925   0.458   2.604   3.133  0.0821  0.8920  2.4480
 3156SOL     OW20926   0.860   2.181  12.607 -0.0282 -0.5232  0.2313
 3156SOL    HW120927   0.879   2.212  12.519 -0.4032  2.3374  1.1809
 3156SOL    HW220928   0.766   2.181  12.624  0.0152  0.8540  0.4317
 3157SOL     OW20929   3.965   0.895   6.491 -0.1813 -0.2122 -0.1294
 3157SOL    HW120930   3.886   0.843   6.478 -0.9368  0.9992 -0.3543
 3157SOL    HW220931   4.030   0.844   6.442  1.5809  0.7781  1.1810
 3158SOL     OW20932   3.445   3.339   7.588  0.2017  0.7377 -0.1231
 3158SOL    HW120933   3.401   3.421   7.562  2.4867  1.4695 -1.7474
 3158SOL    HW220934   3.510   3.376   7.649  1.7146 -2.6795  0.3209
 3159SOL     OW20935   3.669   3.541  13.401  0.2446  0.4441 -0.5471
 3159SOL    HW120936   3.635   3.538  13.491  0.5238 -1.7119 -0.5026
 3159SOL    HW220937   3.682   3.449  13.376  1.3957  1.0752 -2.2031
 3160SOL     OW20938   3.547   1.734  12.290  0.9354 -0.0285  0.1904
 3160SOL    HW120939   3.548   1.784  12.209  2.6602 -0.9819 -0.4005
 3160SOL    HW220940   3.621   1.775  12.335  4.0541 -0.3619 -4.6686
 3161SOL     OW20941   0.281   4.589   2.329 -0.1207  0.6335 -0.4305
 3161SOL    HW120942   0.362   4.538   2.330  0.7920  2.0955  0.4030
 3161SOL    HW220943   0.223   4.524   2.369  2.1454 -0.8653  0.4091
 3162SOL     OW20944   3.907   3.884  10.814 -0.5126  0.1387  0.3442
 3162SOL    HW120945   4.002   3.874  10.810 -0.7118 -1.2563 -0.9169
 3162SOL    HW220946   3.891   3.956  10.754  1.1751 -0.7076 -1.1132
 3163SOL     OW20947   2.431   0.058  12.733  0.6066 -0.9063  0.6874
 3163SOL    HW120948   2.470   4.691  12.726 -0.8535 -1.5011  0.1870
 3163SOL    HW220949   2.458   0.086  12.821 -2.0134 -0.7044  1.4357
 3164SOL     OW20950   0.995   0.218   7.146 -0.2004  0.5171  0.4433
 3164SOL    HW120951   0.966   0.127   7.142  1.1232  0.0156  2.4732
 3164SOL    HW220952   1.016   0.218   7.239  0.1865  0.5034  0.3580
 3165SOL     OW20953   2.560   3.805   4.236 -0.0848 -0.5652 -0.1760
 3165SOL    HW120954   2.590   3.896   4.243  0.6272 -0.7389 -0.9641
 3165SOL    HW220955   2.474   3.812   4.196  0.0548  0.6673 -0.2655
 3166SOL     OW20956   3.946   3.938   9.169 -0.1295 -0.1489  0.1803
 3166SOL    HW120957   4.010   3.866   9.172 -0.1529 -0.3225 -3.2978
 3166SOL    HW220958   3.894   3.928   9.248 -1.0700  1.3008 -0.2658
 3167SOL     OW20959   0.878   1.843   6.081  0.6225 -0.0593  0.9612
 3167SOL    HW120960   0.923   1.858   5.998  0.5526 -1.6695  0.6203
 3167SOL    HW220961   0.933   1.778   6.125 -0.4793 -1.8042 -0.2142
 3168SOL     OW20962   0.071   3.751   4.569 -0.2842  0.2324  0.2053
 3168SOL    HW120963   0.142   3.688   4.583  0.9479  1.5959 -0.0189
 3168SOL    HW220964   4.720   3.717   4.623 -0.1294  1.7050  1.3272
 3169SOL     OW20965   3.591   4.354   6.943 -0.7772  0.1706  0.4605
 3169SOL    HW120966   3.584   4.450   6.942  2.3003  0.3646 -0.4180
 3169SOL    HW220967   3.615   4.326   7.031  0.8735  1.6534  0.4914
 3170SOL     OW20968   0.551   4.421   0.691  0.3713 -0.8697 -0.0252
 3170SOL    HW120969   0.515   4.435   0.778  0.2077 -1.4108 -0.0057
 3170SOL    HW220970   0.545   4.507   0.651  0.6517 -0.3976  0.9507
 3171SOL     OW20971   3.548   3.398   2.729 -0.2350 -0.7323 -0.1093
 3171SOL    HW120972   3.602   3.393   2.650 -0.6784 -1.6690 -0.3512
 3171SOL    HW220973   3.519   3.489   2.737 -2.3094 -1.4375  0.3169
 3172SOL     OW20974   0.889   2.464   9.941  0.5197 -0.0713 -0.4523
 3172SOL    HW120975   0.881   2.372   9.918  0.7772  0.7412 -3.8245
 3172SOL    HW220976   0.932   2.450  10.025  0.1834  2.3365  0.1445
 3173SOL     OW20977   2.722   1.034   8.113  0.6716  0.5212  0.2836
 3173SOL    HW120978   2.650   0.971   8.123  1.1738 -0.2080 -0.6388
 3173SOL    HW220979   2.776   1.027   8.192  1.5505 -1.5088 -0.4997
 3174SOL     OW20980   4.506   2.624  17.185  0.1027 -0.1636 -0.1956
 3174SOL    HW120981   4.428   2.591  17.229 -0.3013 -0.5670 -1.2039
 3174SOL    HW220982   4.483   2.617  17.092  0.9901  0.1535 -0.4342
 3175SOL     OW20983   0.062   3.975   8.878 -0.8497  0.0752  0.0729
 3175SOL    HW120984   0.014   3.895   8.858 -1.1833 -0.0971  1.5993
 3175SOL    HW220985   0.140   3.932   8.913 -0.1655 -0.3142 -1.9246
 3176SOL     OW20986   1.625   1.864   4.207 -0.7348 -0.2128 -0.0755
 3176SOL    HW120987   1.615   1.892   4.298 -1.0719  0.9729 -0.4740
 3176SOL    HW220988   1.627   1.768   4.214  2.1602 -0.1446  0.1483
 3177SOL     OW20989   0.391   2.940   5.820  0.9177  0.3805 -0.3209
 3177SOL    HW120990   0.443   2.953   5.900 -0.9111  1.3653  0.7074
 3177SOL    HW220991   0.344   3.023   5.827 -1.6170 -0.8736 -2.4434
 3178SOL     OW20992   0.978   2.714   3.180 -0.1113  0.1810  0.4817
 3178SOL    HW120993   1.047   2.658   3.144 -0.7385 -0.0940 -0.3173
 3178SOL    HW220994   0.960   2.760   3.097 -1.5750 -1.3364 -0.0308
 3179SOL     OW20995   3.328   2.504   0.924 -0.9428  0.2328 -0.4320
 3179SOL    HW120996   3.416   2.504   0.887  0.1885  1.8425  2.3267
 3179SOL    HW220997   3.350   2.524   1.015  0.5251  0.7397 -0.9021
 3180SOL     OW20998   3.815   2.858   3.263  0.1071 -0.2622 -0.4272
 3180SOL    HW120999   3.833   2.917   3.190 -0.5356  1.4084  0.7595
 3180SOL    HW221000   3.814   2.773   3.220  0.3888  0.3837 -1.6927
 3181SOL     OW21001   3.250   0.770   5.412 -0.1801  0.3942 -0.1945
 3181SOL    HW121002   3.257   0.679   5.441  0.1400 -0.1134 -1.8679
 3181SOL    HW221003   3.195   0.769   5.333  1.1020  0.0025 -1.0806
 3182SOL     OW21004   0.547   0.730   2.756  0.4759  0.1828 -0.1986
 3182SOL    HW121005   0.586   0.672   2.821  1.4343  0.8850 -0.1468
 3182SOL    HW221006   0.598   0.699   2.680  0.2777  0.0413 -0.2755
 3183SOL     OW21007   3.232   0.002   1.933 -0.0881 -0.2014  0.3060
 3183SOL    HW121008   3.311   0.025   1.983  1.5004 -2.0551 -1.4038
 3183SOL    HW221009   3.220   0.086   1.889 -0.3151 -0.3520  0.0863
 3184SOL     OW21010   0.931   4.193   2.471  0.0176 -0.2036 -0.8071
 3184SOL    HW121011   0.944   4.100   2.451 -1.5408 -0.4304 -0.8282
 3184SOL    HW221012   0.950   4.195   2.565 -1.2496  1.4445 -0.5849
 3185SOL     OW21013   2.596   4.678  13.109  0.7210 -0.5312 -0.3027
 3185SOL    HW121014   2.528   4.621  13.071 -1.9358  4.1944 -2.6531
 3185SOL    HW221015   2.579   0.043  13.070  2.3215 -1.3194 -2.7631
 3186SOL     OW21016   1.744   4.406  15.249  0.1978 -0.2618  0.2231
 3186SOL    HW121017   1.756   4.329  15.305  1.9152  1.1688  1.8423
 3186SOL    HW221018   1.661   4.402  15.202  0.3179 -0.4207  0.0267
 3187SOL     OW21019   1.728   3.884   4.346  0.4964  0.2146 -0.3227
 3187SOL    HW121020   1.748   3.880   4.439  0.0774  1.1437 -0.1852
 3187SOL    HW221021   1.638   3.853   4.335  1.0718 -1.9841  1.2740
 3188SOL     OW21022   2.565   4.367  11.334  0.6477  0.6654 -0.3285
 3188SOL    HW121023   2.625   4.296  11.356 -4.4302 -3.3123  0.5745
 3188SOL    HW221024   2.584   4.439  11.393  2.0173 -0.4924  0.6398
 3189SOL     OW21025   2.443   0.576   6.361 -0.0074 -0.5239 -0.1766
 3189SOL    HW121026   2.444   0.495   6.412  1.6332 -1.4559 -1.6884
 3189SOL    HW221027   2.487   0.629   6.428 -1.1057  0.1399  0.0213
 3190SOL     OW21028   1.431   0.381  10.079  0.4713 -0.0674 -0.1795
 3190SOL    HW121029   1.397   0.440  10.011 -0.6897 -0.3188  0.1850
 3190SOL    HW221030   1.398   0.306  10.031 -1.6387  1.8247 -1.6892
 3191SOL     OW21031   1.470   3.295   6.735  0.3767 -0.3662 -0.3556
 3191SOL    HW121032   1.449   3.304   6.642  0.1099 -1.2397 -0.3743
 3191SOL    HW221033   1.495   3.204   6.723  0.1899 -0.2050 -1.9458
 3192SOL     OW21034   4.190   0.874   2.326 -0.1719  0.4539 -0.2444
 3192SOL    HW121035   4.132   0.922   2.386 -0.4187 -2.8393  2.1941
 3192SOL    HW221036   4.201   0.787   2.364  1.0410  0.0865 -1.4601
 3193SOL     OW21037   0.943   1.710   2.525 -0.3134 -0.2575  0.1474
 3193SOL    HW121038   0.897   1.726   2.608 -0.0484  0.7071  0.1036
 3193SOL    HW221039   0.993   1.632   2.549  0.9627  0.6992  0.5705
 3194SOL     OW21040   4.012   0.313   1.727 -0.1345  0.9017 -0.2024
 3194SOL    HW121041   3.950   0.315   1.654 -0.5742 -0.3468  0.1293
 3194SOL    HW221042   4.093   0.355   1.699  0.5565 -1.2270 -1.3794
 3195SOL     OW21043   2.210   0.202   9.775 -0.3508 -0.5872 -0.9728
 3195SOL    HW121044   2.118   0.224   9.762 -0.4400  0.4392  1.3928
 3195SOL    HW221045   2.198   0.124   9.829 -2.6945  0.9657  0.7086
 3196SOL     OW21046   3.649   0.584   5.910  0.1561 -0.3627 -0.0213
 3196SOL    HW121047   3.612   0.663   5.949 -0.3865 -1.1958  1.1426
 3196SOL    HW221048   3.572   0.552   5.863 -1.5412  1.3563  1.5995
 3197SOL     OW21049   0.118   1.033  17.303  0.8038  0.3143 -0.3327
 3197SOL    HW121050   0.082   0.967  17.362  1.5522 -0.1775 -0.4352
 3197SOL    HW221051   0.042   1.059  17.250 -1.1647  1.1543  2.9450
 3198SOL     OW21052   2.737   4.444  16.124  0.4722  0.3732 -0.2150
 3198SOL    HW121053   2.756   4.409  16.211  2.2310  4.3861  1.0156
 3198SOL    HW221054   2.692   4.370  16.083 -0.5592  0.0378  1.5472
 3199SOL     OW21055   2.524   0.950   7.315  0.5566 -0.2831 -0.3132
 3199SOL    HW121056   2.507   1.039   7.283  2.4311 -0.2997 -1.3451
 3199SOL    HW221057   2.517   0.901   7.233  0.7475 -0.5801 -0.1530
 3200SOL     OW21058   0.658   2.860  10.858  0.8092  0.1908  0.3600
 3200SOL    HW121059   0.690   2.904  10.937 -0.6107 -2.4221  2.4100
 3200SOL    HW221060   0.565   2.855  10.880  1.1756  1.4953  2.2542
 3201SOL     OW21061   1.534   3.477  12.569 -0.2128 -0.3490  0.3663
 3201SOL    HW121062   1.585   3.433  12.637 -1.5783 -1.3157  0.7605
 3201SOL    HW221063   1.451   3.474  12.616 -0.3186 -1.4379  0.1012
 3202SOL     OW21064   2.811   3.462  16.027 -0.9034 -0.1659 -0.5048
 3202SOL    HW121065   2.779   3.540  16.074 -0.4039  0.7532 -1.7044
 3202SOL    HW221066   2.866   3.507  15.963 -2.8386  1.2840 -1.1484
 3203SOL     OW21067   4.266   4.505   8.555 -0.7251 -0.4878  0.4256
 3203SOL    HW121068   4.353   4.464   8.552 -0.5192 -0.0398  0.3182
 3203SOL    HW221069   4.226   4.444   8.618 -0.7728 -1.9811 -1.0459
 3204SOL     OW21070   3.766   2.965   4.629  0.3452  0.3784 -0.0870
 3204SOL    HW121071   3.849   2.919   4.643 -0.0743  0.4170  2.4353
 3204SOL    HW221072   3.704   2.906   4.586  0.2536 -0.5989  1.4266
 3205SOL     OW21073   0.137   3.572  10.693 -0.1401  0.5843  0.5455
 3205SOL    HW121074   0.227   3.584  10.666 -0.2837  0.2166 -0.0940
 3205SOL    HW221075   0.130   3.477  10.679 -0.3132  0.5485  0.8791
 3206SOL     OW21076   2.109   4.715  14.310  0.2299  0.6634  0.3044
 3206SOL    HW121077   2.037   0.001  14.248  0.2250 -0.3911  0.2055
 3206SOL    HW221078   2.087   4.631  14.350  1.7685  0.1733  0.1538
 3207SOL     OW21079   1.455   4.612  10.681  0.2645 -0.3733  0.4521
 3207SOL    HW121080   1.381   4.644  10.732  0.6199  0.5249  0.4004
 3207SOL    HW221081   1.532   4.637  10.733 -0.6509  1.5196  0.8843
 3208SOL     OW21082   3.431   0.205   4.431 -0.2452  0.3618 -0.5914
 3208SOL    HW121083   3.359   0.246   4.479  0.4216  2.3733 -1.3009
 3208SOL    HW221084   3.386   0.149   4.369  0.2997 -1.0371  0.2701
 3209SOL     OW21085   2.032   0.043   8.086  0.3120  0.5241  0.2441
 3209SOL    HW121086   2.025   0.136   8.107  1.4313  0.3846  1.2063
 3209SOL    HW221087   2.119   0.002   8.093  0.2679  0.5927  1.2666
 3210SOL     OW21088   1.674   0.942   7.822 -0.5316 -0.1026 -0.5340
 3210SOL    HW121089   1.617   0.998   7.875 -0.8056 -0.2639 -0.6564
 3210SOL    HW221090   1.669   0.860   7.872  2.4588  0.7927  1.2438
 3211SOL     OW21091   3.564   4.203  11.649 -0.0807  0.0729  0.2719
 3211SOL    HW121092   3.479   4.207  11.693 -0.3825 -0.9907 -0.2165
 3211SOL    HW221093   3.598   4.136  11.708 -0.3354 -0.7111 -0.4681
 3212SOL     OW21094   3.585   3.459   5.457  0.6464  0.1917 -0.1471
 3212SOL    HW121095   3.591   3.507   5.539 -1.6067 -1.4006  0.9450
 3212SOL    HW221096   3.652   3.395   5.478  0.0640 -0.0744  0.9270
 3213SOL     OW21097   1.764   0.242   6.723  0.5263  0.2245 -0.1735
 3213SOL    HW121098   1.696   0.266   6.660  1.0735 -1.1113 -1.2771
 3213SOL    HW221099   1.748   0.148   6.715 -1.3772  0.4120  1.4574
 3214SOL     OW21100   0.913   4.653   7.215  0.1236 -0.1626 -0.5403
 3214SOL    HW121101   0.956   4.655   7.300  0.3133  1.9292 -0.6949
 3214SOL    HW221102   0.838   4.594   7.223 -0.7260  0.9725 -0.2692
 3215SOL     OW21103   1.085   4.584   7.001  0.2843 -0.3073 -0.0912
 3215SOL    HW121104   1.160   4.632   7.036  0.2951  0.8619 -1.6996
 3215SOL    HW221105   1.018   4.601   7.067  1.8130  2.6636  0.6658
 3216SOL     OW21106   4.261   2.380   4.512  0.3706  0.3690 -0.0897
 3216SOL    HW121107   4.301   2.353   4.595 -0.6567  0.8770  0.5754
 3216SOL    HW221108   4.297   2.468   4.499 -1.9841  1.2388 -0.6787
 3217SOL     OW21109   3.337   2.503   1.557  0.0212  0.3531  0.5025
 3217SOL    HW121110   3.329   2.598   1.548  0.7669  0.4998  1.4777
 3217SOL    HW221111   3.429   2.491   1.535  0.3386  2.4361  0.6751
 3218SOL     OW21112   3.028   3.840  15.994 -0.2653  0.2670 -0.2942
 3218SOL    HW121113   2.968   3.912  15.973 -1.6291 -0.7501  0.0537
 3218SOL    HW221114   3.067   3.874  16.075 -0.0427  1.1629 -0.7886
 3219SOL     OW21115   0.891   0.595  14.241 -0.2282 -0.3198  0.4182
 3219SOL    HW121116   0.845   0.553  14.169  3.1154 -3.7885  0.3108
 3219SOL    HW221117   0.858   0.685  14.236 -2.4904 -1.2566 -1.4775
 3220SOL     OW21118   3.695   1.700   3.930  0.6137  0.8114  0.2390
 3220SOL    HW121119   3.640   1.630   3.965  0.8303  0.2286 -0.5796
 3220SOL    HW221120   3.695   1.670   3.839  1.3681  0.6181  0.3024
 3221SOL     OW21121   3.798   2.358  16.225  0.2414 -0.4615  0.1579
 3221SOL    HW121122   3.864   2.416  16.189 -1.2751  1.5017  0.5267
 3221SOL    HW221123   3.783   2.311  16.143 -2.0631 -0.4611  0.5805
 3222SOL     OW21124   4.079   4.228   7.461  0.4373 -0.1538 -0.3921
 3222SOL    HW121125   4.037   4.220   7.547  0.5292  0.2676 -0.3078
 3222SOL    HW221126   4.032   4.292   7.407  0.9801  0.4819 -0.1079
 3223SOL     OW21127   3.355   3.637   7.258  0.7429 -0.3534  0.4991
 3223SOL    HW121128   3.363   3.587   7.177 -1.6967  1.7649 -1.0644
 3223SOL    HW221129   3.303   3.711   7.227  0.6278 -1.3313 -1.6595
 3224SOL     OW21130   3.671   4.514   4.402 -0.2579  0.2097  0.4958
 3224SOL    HW121131   3.680   4.595   4.352  0.2037 -0.1264  0.0341
 3224SOL    HW221132   3.748   4.460   4.381  0.3670  0.4380  2.1652
 3225SOL     OW21133   0.977   0.553  15.829  0.2934 -0.3406  0.3395
 3225SOL    HW121134   0.918   0.499  15.882  3.5692 -1.6801  2.5915
 3225SOL    HW221135   0.917   0.582  15.760 -0.9713  0.7716  1.9052
 3226SOL     OW21136   0.431   2.842   6.583  0.4122  0.2042 -0.6456
 3226SOL    HW121137   0.474   2.779   6.526  1.1425  0.5747 -0.5055
 3226SOL    HW221138   0.477   2.926   6.576 -1.3801  1.1771 -0.7557
 3227SOL     OW21139   0.148   0.362  12.831  0.0117 -0.4826 -0.4037
 3227SOL    HW121140   0.232   0.360  12.878  0.0045  1.6983 -0.2801
 3227SOL    HW221141   0.171   0.368  12.738  0.1877 -0.4750 -0.3594
 3228SOL     OW21142   2.437   3.183   5.427 -0.4089  0.1384  0.1267
 3228SOL    HW121143   2.386   3.131   5.489 -0.1641  1.4905  1.4669
 3228SOL    HW221144   2.371   3.227   5.373  0.0149 -0.4272 -0.8342
 3229SOL     OW21145   2.536   1.639   3.343  0.4479  0.4933  0.4215
 3229SOL    HW121146   2.517   1.716   3.396  0.7029  1.3415 -0.7114
 3229SOL    HW221147   2.631   1.634   3.349  0.3583  0.0626  1.5933
 3230SOL     OW21148   2.131   0.503   7.480 -0.0698  0.0960  0.3892
 3230SOL    HW121149   2.080   0.583   7.488 -0.5289 -0.3258  1.7328
 3230SOL    HW221150   2.136   0.476   7.572 -1.6846 -1.8100 -0.0815
 3231SOL     OW21151   0.817   0.835  13.528 -0.3007  0.5906  0.4448
 3231SOL    HW121152   0.897   0.832  13.580 -0.5415 -0.4447  0.7596
 3231SOL    HW221153   0.775   0.750  13.544 -0.4561  0.4806 -0.5729
 3232SOL     OW21154   0.644   3.116  15.108  0.0671  0.1058  0.2864
 3232SOL    HW121155   0.652   3.211  15.122  3.8837 -0.3025  0.9619
 3232SOL    HW221156   0.604   3.123  15.021  1.2395 -2.5953 -0.4596
 3233SOL     OW21157   3.566   3.663   9.448  0.8834  0.9591  0.4544
 3233SOL    HW121158   3.491   3.703   9.403  0.3419 -1.5310 -0.8736
 3233SOL    HW221159   3.527   3.636   9.531  1.1134 -2.0306 -0.3997
 3234SOL     OW21160   2.411   3.634  16.357 -1.0583  0.5337 -0.3152
 3234SOL    HW121161   2.467   3.602  16.428 -1.4086 -0.9106 -0.6874
 3234SOL    HW221162   2.465   3.612  16.282 -4.3113  0.4677 -2.6533
 3235SOL     OW21163   2.102   4.098   2.304 -0.0410  0.7634  0.2563
 3235SOL    HW121164   2.176   4.046   2.273 -1.8558 -1.9413  0.4832
 3235SOL    HW221165   2.116   4.102   2.399 -1.6470 -0.6080  0.5409
 3236SOL     OW21166   3.608   4.006   2.471 -0.0182 -0.3763 -0.6034
 3236SOL    HW121167   3.667   4.065   2.518  0.5302 -2.0444  0.8074
 3236SOL    HW221168   3.670   3.937   2.448  2.9808  2.1412 -0.0008
 3237SOL     OW21169   3.457   2.794  10.052  0.1029 -0.6186 -0.2418
 3237SOL    HW121170   3.437   2.773  10.144  3.4532  0.5154  0.7434
 3237SOL    HW221171   3.550   2.770  10.047  0.1351 -0.7074  0.7446
 3238SOL     OW21172   2.704   3.085  14.008 -0.2372 -0.2598  0.1039
 3238SOL    HW121173   2.680   2.992  14.005 -2.5954  0.4247 -3.0696
 3238SOL    HW221174   2.782   3.092  14.063 -0.3542  1.8905 -0.0049
 3239SOL     OW21175   2.000   1.520   6.452  0.4060 -0.5109 -0.4823
 3239SOL    HW121176   2.044   1.470   6.383  1.6543 -1.0450  0.6707
 3239SOL    HW221177   2.043   1.601   6.425 -1.4069  0.1333 -1.3671
 3240SOL     OW21178   2.810   2.919   8.412 -0.1454 -0.1469 -0.0959
 3240SOL    HW121179   2.771   2.876   8.335 -0.9646 -1.0755  0.8300
 3240SOL    HW221180   2.779   2.867   8.486  0.7530  0.0174  0.3896
 3241SOL     OW21181   0.255   3.149   2.026 -0.0878 -0.3138 -0.2978
 3241SOL    HW121182   0.320   3.135   1.957  1.1326  3.6173  0.0505
 3241SOL    HW221183   0.176   3.157   1.973  0.3343  2.1132 -0.5549
 3242SOL     OW21184   0.343   0.958   2.733  0.3392  0.1359  0.4439
 3242SOL    HW121185   0.392   0.991   2.808 -1.5374  0.1910  1.6418
 3242SOL    HW221186   0.402   0.883   2.726 -0.3051 -0.3351  0.0211
 3243SOL     OW21187   1.639   2.451   2.461  0.3921 -0.4991 -0.3958
 3243SOL    HW121188   1.601   2.433   2.375 -0.6720 -0.4436  0.0581
 3243SOL    HW221189   1.732   2.433   2.448  0.8884 -0.1731  2.5732
 3244SOL     OW21190   0.715   0.528   4.063  0.2449  0.1131  0.5416
 3244SOL    HW121191   0.679   0.492   3.982 -1.7364 -0.9872  1.9003
 3244SOL    HW221192   0.740   0.458   4.123  1.9808 -0.2626 -0.6572
 3245SOL     OW21193   3.539   0.596   8.467  0.4119  0.1981  0.6969
 3245SOL    HW121194   3.512   0.686   8.449 -1.7773 -0.5367  0.2779
 3245SOL    HW221195   3.481   0.548   8.408  0.8651  1.7835 -1.0178
 3246SOL     OW21196   0.647   4.506   3.897  0.5767 -0.3936 -0.5095
 3246SOL    HW121197   0.682   4.435   3.842  1.2389 -0.0611 -0.5160
 3246SOL    HW221198   0.589   4.461   3.958  0.3220  0.2085 -0.3079
 3247SOL     OW21199   1.749   0.632   1.907 -0.4083  0.0207 -0.0807
 3247SOL    HW121200   1.656   0.645   1.925 -0.7531 -2.2476 -0.2098
 3247SOL    HW221201   1.767   0.702   1.844  0.7697 -1.7866 -1.7714
 3248SOL     OW21202   2.187   0.842   0.759  0.0847  0.2855 -0.2695
 3248SOL    HW121203   2.215   0.934   0.753 -0.4535  0.5025  0.4724
 3248SOL    HW221204   2.271   0.800   0.741 -0.2677  0.1651 -1.6014
 3249SOL     OW21205   2.281   0.212   9.212 -0.4650  0.0904  0.0623
 3249SOL    HW121206   2.253   0.153   9.282  1.4844  0.7321  1.4030
 3249SOL    HW221207   2.307   0.148   9.145  3.5087  1.7192  0.0462
 3250SOL     OW21208   0.993   3.459   1.727 -0.1004 -0.0069 -0.3567
 3250SOL    HW121209   0.932   3.483   1.797  0.4340 -1.9920  0.7813
 3250SOL    HW221210   1.049   3.397   1.773 -0.2768  0.6557  0.7628
 3251SOL     OW21211   3.918   2.280   0.032 -0.4064 -0.2240 -0.1298
 3251SOL    HW121212   3.980   2.352   0.045 -1.2981  0.9967 -2.7392
 3251SOL    HW221213   3.850   2.309  17.655 -0.7260 -0.0358  0.3177
 3252SOL     OW21214   2.048   0.968   6.852  0.1503  0.0588  0.0060
 3252SOL    HW121215   2.016   1.034   6.790  0.7765 -0.0490 -0.4297
 3252SOL    HW221216   1.970   0.928   6.892 -0.2453 -1.0684 -1.8428
 3253SOL     OW21217   0.785   4.253   5.501  0.2225  0.1102  0.0039
 3253SOL    HW121218   0.746   4.249   5.414  0.0529  0.5633  0.0590
 3253SOL    HW221219   0.793   4.347   5.515  1.9326 -0.2965  1.8325
 3254SOL     OW21220   2.731   1.275  10.146 -0.0020 -0.2364  0.0031
 3254SOL    HW121221   2.742   1.236  10.232 -2.1651 -1.7221 -0.4023
 3254SOL    HW221222   2.725   1.194  10.096 -1.8115 -0.2768  0.2733
 3255SOL     OW21223   3.642   0.140  13.018 -0.1232 -0.4630  0.2015
 3255SOL    HW121224   3.592   0.164  13.097  0.2394  1.8926 -0.2751
 3255SOL    HW221225   3.639   0.045  13.023 -0.7898 -0.2962  3.3451
 3256SOL     OW21226   1.420   1.166   7.737  0.7160  0.1178  0.2648
 3256SOL    HW121227   1.432   1.243   7.683  2.6693 -1.0805 -1.0013
 3256SOL    HW221228   1.381   1.208   7.814 -0.4076 -1.5351  0.6056
 3257SOL     OW21229   1.774   0.444  16.520  0.0318  0.1070  0.4512
 3257SOL    HW121230   1.843   0.494  16.477  0.3732  1.0232  2.0770
 3257SOL    HW221231   1.754   0.378  16.454  0.6336 -0.3479  0.7250
 3258SOL     OW21232   1.758   2.804   5.304 -0.3893 -0.2731 -0.0280
 3258SOL    HW121233   1.772   2.712   5.326 -0.1351 -0.7522 -2.2319
 3258SOL    HW221234   1.686   2.814   5.242  0.3506 -1.0505 -1.0077
 3259SOL     OW21235   4.202   1.158  13.773  0.0608 -0.3301  0.4244
 3259SOL    HW121236   4.235   1.070  13.790  0.6351 -0.6539 -2.4820
 3259SOL    HW221237   4.265   1.206  13.827  1.8277 -1.6547 -0.4581
 3260SOL     OW21238   3.991   1.501   3.284  0.6521  0.3973  0.6996
 3260SOL    HW121239   4.049   1.443   3.334  1.3626 -0.3164 -0.9588
 3260SOL    HW221240   4.024   1.582   3.324  1.1139 -0.8405  2.8544
 3261SOL     OW21241   1.249   3.019   6.849 -0.0978 -0.3522  0.1581
 3261SOL    HW121242   1.292   3.078   6.911 -0.5368  0.8747 -0.7107
 3261SOL    HW221243   1.167   3.062   6.823 -1.5482 -2.5538  1.0919
 3262SOL     OW21244   2.959   0.574   4.820 -0.0543  0.2522  0.3509
 3262SOL    HW121245   2.887   0.627   4.785  1.3481  1.5978 -0.5049
 3262SOL    HW221246   2.915   0.504   4.868 -2.8255  1.7233 -0.0418
 3263SOL     OW21247   2.238   2.126   5.387 -0.1721 -0.4276 -0.1239
 3263SOL    HW121248   2.291   2.189   5.338 -2.6770  0.2727 -1.8874
 3263SOL    HW221249   2.156   2.172   5.405  2.0725  3.8961 -0.9448
 3264SOL     OW21250   4.214   2.662   6.574 -0.0364 -0.0130 -0.1781
 3264SOL    HW121251   4.184   2.642   6.662 -0.3303 -0.5876 -0.4048
 3264SOL    HW221252   4.223   2.757   6.574  0.0637 -0.0173 -1.9551
 3265SOL     OW21253   3.043   1.942   4.469  0.3754  0.1353  0.1226
 3265SOL    HW121254   3.112   2.007   4.461  0.0032  0.6030  0.7877
 3265SOL    HW221255   2.980   1.988   4.523 -1.0942 -2.1453  0.3846
 3266SOL     OW21256   0.323   3.640   6.235  0.0142  0.2902  0.5290
 3266SOL    HW121257   0.337   3.643   6.140  0.6683  2.1632  0.6726
 3266SOL    HW221258   0.245   3.585   6.246  0.6221 -0.6668 -0.0095
 3267SOL     OW21259   1.347   1.312  15.809  0.0804  0.2786 -0.0234
 3267SOL    HW121260   1.305   1.398  15.801  0.2132  0.5119  1.7237
 3267SOL    HW221261   1.383   1.320  15.898 -1.9440 -2.4030  1.0390
 3268SOL     OW21262   3.172   1.698   4.423 -0.4263  0.4750  0.0218
 3268SOL    HW121263   3.120   1.776   4.408  1.5595  1.5016 -1.5970
 3268SOL    HW221264   3.238   1.727   4.485 -1.5918  1.4834  0.7767
 3269SOL     OW21265   2.555   4.703   1.041 -0.2453 -0.3053  0.1434
 3269SOL    HW121266   2.548   0.064   0.991 -3.1786 -0.3420  0.4765
 3269SOL    HW221267   2.597   4.647   0.976  0.6982 -0.1173  0.5994
 3270SOL     OW21268   0.049   2.242   7.036 -0.6705  0.0078 -0.0669
 3270SOL    HW121269   0.059   2.234   6.941  1.0128 -1.3915  0.2384
 3270SOL    HW221270   0.033   2.153   7.066 -0.5906 -0.3689 -1.1775
 3271SOL     OW21271   0.874   3.971  16.142 -0.2962  0.1347 -0.2844
 3271SOL    HW121272   0.945   4.036  16.140  0.8372 -1.1716 -3.9571
 3271SOL    HW221273   0.922   3.905  16.090 -1.2368 -0.7808  0.0182
 3272SOL     OW21274   0.478   3.853   8.700  0.5102  0.4181 -0.0358
 3272SOL    HW121275   0.392   3.853   8.658 -0.0373 -1.1513  1.0672
 3272SOL    HW221276   0.506   3.945   8.708  1.1249  0.3280 -1.1042
 3273SOL     OW21277   4.444   2.890   4.874  0.3738 -0.2091  0.0066
 3273SOL    HW121278   4.361   2.925   4.909  0.5359  0.2982 -0.1141
 3273SOL    HW221279   4.437   2.924   4.785  1.3357  1.3810  0.5259
 3274SOL     OW21280   0.106   0.912  12.876  0.0568  0.3823  0.0793
 3274SOL    HW121281   0.092   1.006  12.867  3.0113  0.8847  0.8583
 3274SOL    HW221282   0.020   0.874  12.895 -0.6740  2.3798  0.7095
 3275SOL     OW21283   2.982   1.046  10.491 -0.4662  0.4414 -0.1599
 3275SOL    HW121284   2.920   1.037  10.418 -0.4939 -2.2738  0.1896
 3275SOL    HW221285   2.928   1.009  10.562 -0.0372 -1.1174 -0.6471
 3276SOL     OW21286   0.051   0.896   1.121  0.0126 -0.0280 -0.2091
 3276SOL    HW121287   0.101   0.825   1.162 -0.1809  0.2465  0.5093
 3276SOL    HW221288   0.106   0.967   1.155 -0.2450  1.0264 -2.0108
 3277SOL     OW21289   4.225   2.630   5.768 -0.1719 -0.9182  0.3517
 3277SOL    HW121290   4.210   2.688   5.694 -1.4209 -2.5241 -0.6521
 3277SOL    HW221291   4.225   2.543   5.726  0.8075 -1.9054  2.4015
 3278SOL     OW21292   4.311   3.447   2.646 -0.0717 -0.2629 -0.1629
 3278SOL    HW121293   4.255   3.458   2.569  0.5959  0.3092 -0.5672
 3278SOL    HW221294   4.398   3.474   2.616  0.0373 -1.6920 -1.1183
 3279SOL     OW21295   0.050   2.616   3.683  0.5350  0.1225  0.3168
 3279SOL    HW121296   4.714   2.642   3.757  1.9952  0.1835  1.4180
 3279SOL    HW221297   0.044   2.682   3.614 -1.3098 -0.6547 -0.2543
 3280SOL     OW21298   1.432   2.963   0.482  0.4621 -0.1853 -0.9655
 3280SOL    HW121299   1.494   3.024   0.522 -0.6215 -1.1209  2.1553
 3280SOL    HW221300   1.372   3.028   0.444 -0.7586 -0.8271 -0.1098
 3281SOL     OW21301   1.565   0.309   6.375 -0.1317 -0.0439  0.0779
 3281SOL    HW121302   1.506   0.365   6.326  0.3910 -1.0139 -1.6503
 3281SOL    HW221303   1.529   0.325   6.462  0.9807 -0.4006  0.6051
 3282SOL     OW21304   1.386   2.265   2.018  0.1924 -0.0863 -0.0876
 3282SOL    HW121305   1.432   2.308   1.946 -0.8125 -0.3704 -0.8970
 3282SOL    HW221306   1.311   2.319   2.040  0.1659  0.1931 -0.8594
 3283SOL     OW21307   4.246   1.952  12.995 -0.5557 -0.5794  0.2021
 3283SOL    HW121308   4.182   2.022  12.980  0.2660 -0.6033 -3.4481
 3283SOL    HW221309   4.215   1.914  13.077 -0.6848  2.1898  1.4117
 3284SOL     OW21310   4.291   2.948  13.766  0.6548 -0.4010 -0.1570
 3284SOL    HW121311   4.249   3.000  13.836  2.4411  4.9339 -3.0596
 3284SOL    HW221312   4.381   2.954  13.796  1.0856  0.0208 -1.5614
 3285SOL     OW21313   1.701   3.026   8.697 -0.1680 -0.8470 -0.1635
 3285SOL    HW121314   1.627   3.022   8.636  1.1725 -0.9968 -1.7977
 3285SOL    HW221315   1.659   2.981   8.770 -3.3018  0.1741 -1.3359
 3286SOL     OW21316   1.469   2.470  11.134  0.4486  0.3373 -0.4652
 3286SOL    HW121317   1.525   2.451  11.209  0.1281 -5.7849 -1.7519
 3286SOL    HW221318   1.529   2.521  11.079 -1.4260  2.8648 -0.1670
 3287SOL     OW21319   4.330   2.881   2.515 -0.4398 -0.4828  0.3213
 3287SOL    HW121320   4.285   2.965   2.522  2.5607  1.1405 -0.1471
 3287SOL    HW221321   4.379   2.876   2.598 -0.0936  1.8330  0.2563
 3288SOL     OW21322   2.270   1.960   3.033 -0.0719  0.1076 -0.2615
 3288SOL    HW121323   2.195   1.997   3.079  0.4791  0.8253  0.0559
 3288SOL    HW221324   2.344   2.012   3.064 -0.8027  1.3765 -0.6359
 3289SOL     OW21325   3.109   4.669  16.742 -0.6276 -0.0546  0.1281
 3289SOL    HW121326   3.029   4.632  16.780  0.8815 -2.3215  1.0704
 3289SOL    HW221327   3.101   4.671  16.647 -1.2163  1.5915  0.2147
 3290SOL     OW21328   0.524   2.127   7.302  0.5449 -0.1160  0.2660
 3290SOL    HW121329   0.573   2.060   7.254  0.9336 -0.1293  0.6798
 3290SOL    HW221330   0.529   2.200   7.241 -0.6610 -0.8065 -0.6607
 3291SOL     OW21331   4.390   2.229   1.520 -0.2647  0.4269 -0.4457
 3291SOL    HW121332   4.420   2.238   1.430  0.3181  0.0209 -0.2919
 3291SOL    HW221333   4.450   2.159   1.547 -1.8813 -1.1415 -0.8909
 3292SOL     OW21334   2.300   4.036   6.568  0.3621  0.3107  0.1846
 3292SOL    HW121335   2.368   3.969   6.557  0.2867  0.6173 -2.1355
 3292SOL    HW221336   2.293   4.014   6.661 -0.3446  0.6180  0.2006
 3293SOL     OW21337   2.132   2.728   0.952  0.0827 -0.3845 -0.1530
 3293SOL    HW121338   2.088   2.809   0.978  2.4210  1.1242 -0.8319
 3293SOL    HW221339   2.136   2.677   1.032 -1.9749  0.7395  0.6581
 3294SOL     OW21340   0.950   0.740   2.253  0.1234  0.3884 -0.6168
 3294SOL    HW121341   1.034   0.741   2.299  0.6952  0.4444 -1.6582
 3294SOL    HW221342   0.954   0.656   2.208 -2.2975  1.5329 -2.9402
 3295SOL     OW21343   1.667   2.209  17.159 -0.0129  0.3030 -0.4513
 3295SOL    HW121344   1.693   2.301  17.151 -1.3530  0.6790 -0.5849
 3295SOL    HW221345   1.656   2.188  17.252 -1.3921  2.7390 -0.0694
 3296SOL     OW21346   4.610   2.622   9.503  0.3660  1.1264  0.1046
 3296SOL    HW121347   4.661   2.549   9.468  0.1991  0.2529  1.6808
 3296SOL    HW221348   4.620   2.622   9.598  3.2439 -0.4721 -0.2233
 3297SOL     OW21349   4.067   1.208   0.873 -0.4553 -0.3020 -0.3708
 3297SOL    HW121350   4.146   1.240   0.830  1.0333 -2.1211  1.0343
 3297SOL    HW221351   4.081   1.115   0.855 -0.1483 -0.4476  0.6426
 3298SOL     OW21352   0.437   0.580   8.396 -0.2023  0.4513 -0.6774
 3298SOL    HW121353   0.424   0.579   8.491  1.6484 -1.4018 -0.4402
 3298SOL    HW221354   0.444   0.488   8.371  0.4224 -0.0260  1.2869
 3299SOL     OW21355   3.647   2.991   0.220  0.1381  0.1991 -0.3440
 3299SOL    HW121356   3.639   2.927   0.291 -3.4889  0.8055 -0.2143
 3299SOL    HW221357   3.553   2.997   0.204 -0.0836  1.6553  1.5683
 3300SOL     OW21358   0.417   3.096   0.159  0.3189 -0.1734 -0.1961
 3300SOL    HW121359   0.420   3.153   0.235 -0.7673 -0.0946 -0.2067
 3300SOL    HW221360   0.392   3.158   0.091  1.5926  0.0668 -0.4405
 3301SOL     OW21361   3.379   3.163   8.188 -0.5300 -0.5088  0.0838
 3301SOL    HW121362   3.368   3.157   8.093  0.4481  0.8929 -0.1254
 3301SOL    HW221363   3.442   3.234   8.202 -0.1180 -0.5561 -1.5137
 3302SOL     OW21364   4.304   3.859  13.914  0.4344 -0.2099  0.7570
 3302SOL    HW121365   4.334   3.804  13.842  2.3978  0.7497  0.8336
 3302SOL    HW221366   4.230   3.910  13.881  1.3405  0.7159  0.1608
 3303SOL     OW21367   1.621   2.288  14.458  0.5510 -0.2324  0.0306
 3303SOL    HW121368   1.605   2.242  14.377 -0.9316 -2.1634  1.4300
 3303SOL    HW221369   1.614   2.219  14.524  1.9436 -0.9802 -0.6117
 3304SOL     OW21370   3.592   1.144   6.923 -0.0376 -0.4229  0.1349
 3304SOL    HW121371   3.571   1.095   7.003 -0.3227  0.8319  0.8259
 3304SOL    HW221372   3.648   1.080   6.879  0.7444 -0.2165  0.8197
 3305SOL     OW21373   1.365   0.191   1.255  0.0610 -0.6958  0.0987
 3305SOL    HW121374   1.368   0.283   1.280 -0.7278 -0.1604 -1.8140
 3305SOL    HW221375   1.398   0.147   1.334  1.7116 -0.0746 -0.2331
 3306SOL     OW21376   2.343   2.338   1.764 -0.6617  0.2257  0.6309
 3306SOL    HW121377   2.383   2.424   1.751  0.6306 -0.4820 -0.0852
 3306SOL    HW221378   2.314   2.321   1.674  0.0966  0.8586  0.2693
 3307SOL     OW21379   2.116   1.378   6.263 -0.6571  0.0714 -0.1746
 3307SOL    HW121380   2.178   1.442   6.227  0.3227 -1.0350 -0.4643
 3307SOL    HW221381   2.079   1.346   6.181 -0.0468 -0.0592 -0.3975
 3308SOL     OW21382   4.660   2.194   3.226  0.0149 -0.4361 -0.0434
 3308SOL    HW121383   4.568   2.185   3.248 -0.4017  1.2610 -1.0391
 3308SOL    HW221384   4.657   2.142   3.146  0.6542 -0.4092 -0.0830
 3309SOL     OW21385   2.488   1.595  11.403 -0.4718  0.2340 -0.2824
 3309SOL    HW121386   2.565   1.635  11.362 -0.6337 -0.2274 -1.0232
 3309SOL    HW221387   2.475   1.644  11.485 -2.2694 -0.4519 -0.1532
 3310SOL     OW21388   0.059   1.939   7.824  0.6084 -0.0451  0.5572
 3310SOL    HW121389   0.016   2.020   7.850 -1.7545 -0.4900 -1.9082
 3310SOL    HW221390   0.151   1.958   7.843  0.6133  0.9225 -0.4410
 3311SOL     OW21391   3.074   3.853   6.131  0.1485 -0.3803  0.0454
 3311SOL    HW121392   3.044   3.777   6.181  1.4422 -0.3725  0.8357
 3311SOL    HW221393   3.168   3.837   6.118  0.2333 -1.0883  1.5630
 3312SOL     OW21394   3.188   3.560   2.648  0.5106 -0.1804  0.1441
 3312SOL    HW121395   3.226   3.646   2.666  0.8457 -0.4708  0.8184
 3312SOL    HW221396   3.127   3.548   2.721  2.1126 -0.2970  1.4807
 3313SOL     OW21397   1.674   4.378   5.977  0.5159 -0.0637  0.1064
 3313SOL    HW121398   1.628   4.384   5.893  0.1123 -1.5185  0.2135
 3313SOL    HW221399   1.620   4.450   6.011 -0.9515 -0.3458 -1.6060
 3314SOL     OW21400   1.600   0.873  13.028 -0.0861  0.0131 -0.2242
 3314SOL    HW121401   1.576   0.799  13.083 -2.0096  1.6874  1.1530
 3314SOL    HW221402   1.511   0.907  13.024 -1.1588 -2.5097  1.9388
 3315SOL     OW21403   2.041   0.342   8.128 -0.6527  0.1327  0.0575
 3315SOL    HW121404   2.096   0.420   8.125  1.0241 -1.0273  0.4551
 3315SOL    HW221405   1.981   0.352   8.053  2.4367 -0.7641 -2.5220
 3316SOL     OW21406   2.274   4.027   4.628 -0.2923 -0.4660  0.0342
 3316SOL    HW121407   2.301   4.089   4.560 -1.0746  0.8688  0.9610
 3316SOL    HW221408   2.227   3.961   4.577 -3.1467  0.8957  0.9437
 3317SOL     OW21409   2.762   3.056   7.847 -0.4267  0.4689  0.4595
 3317SOL    HW121410   2.732   3.083   7.934  1.2160  0.2212  1.1097
 3317SOL    HW221411   2.823   2.984   7.866  1.7104  2.0533 -0.3706
 3318SOL     OW21412   3.093   2.941   7.242  0.3363  0.1871  0.4624
 3318SOL    HW121413   3.109   3.007   7.175  3.3198 -1.8778 -0.9068
 3318SOL    HW221414   3.148   2.866   7.218  0.0213 -0.3277  1.3313
 3319SOL     OW21415   3.281   0.666   4.438 -0.0159  0.0541  0.2994
 3319SOL    HW121416   3.244   0.738   4.489 -1.0362 -0.6170  0.5171
 3319SOL    HW221417   3.374   0.686   4.445 -0.0065  0.6389 -1.5749
 3320SOL     OW21418   0.828   4.700   3.877 -0.3019 -0.3359 -0.4065
 3320SOL    HW121419   0.783   0.025   3.948 -0.8345 -0.2840 -0.7834
 3320SOL    HW221420   0.781   4.617   3.881  1.1969 -1.2118 -0.5626
 3321SOL     OW21421   2.774   1.177   3.979  0.0268 -0.2160  0.1888
 3321SOL    HW121422   2.727   1.127   4.045 -0.6430  0.4771  0.2314
 3321SOL    HW221423   2.714   1.186   3.905 -0.1046  1.8298  0.5420
 3322SOL     OW21424   4.526   1.008   1.837  0.1571 -0.5243 -0.0269
 3322SOL    HW121425   4.578   1.054   1.903 -0.1906 -1.3771  0.8495
 3322SOL    HW221426   4.597   0.986   1.777 -1.0129 -1.6963 -0.9699
 3323SOL     OW21427   0.937   1.958  15.228 -0.9558  0.3983 -0.6422
 3323SOL    HW121428   0.991   1.969  15.306 -1.6923  1.0174 -0.2171
 3323SOL    HW221429   0.981   1.877  15.201 -0.0618  0.3293  1.0646
 3324SOL     OW21430   0.041   4.203   6.337  0.1178  0.3281 -0.3291
 3324SOL    HW121431   4.690   4.177   6.279 -1.3443 -1.7472  2.3882
 3324SOL    HW221432   0.025   4.153   6.417 -0.6920  1.1101  0.0016
 3325SOL     OW21433   4.537   3.017  11.637 -0.2585  0.1528  0.3207
 3325SOL    HW121434   4.455   2.966  11.636 -0.6525  0.7918  0.2029
 3325SOL    HW221435   4.580   2.977  11.561  1.5185 -0.9256  1.8952
 3326SOL     OW21436   4.117   2.372   1.638  0.2628 -0.2809 -0.3581
 3326SOL    HW121437   4.132   2.290   1.686 -0.2715 -0.0362  0.2246
 3326SOL    HW221438   4.186   2.429   1.673 -2.7120  2.2025  1.4987
 3327SOL     OW21439   1.521   0.793   0.226  0.1338 -0.3386 -0.2248
 3327SOL    HW121440   1.535   0.888   0.216 -1.9779  0.0635  0.6164
 3327SOL    HW221441   1.467   0.776   0.303  1.2572 -2.0336  0.1825
 3328SOL     OW21442   2.704   4.182   1.722 -0.6391 -0.7808  0.1227
 3328SOL    HW121443   2.627   4.182   1.665 -0.8911 -0.1058  0.4646
 3328SOL    HW221444   2.773   4.133   1.676  0.1093 -0.0182  0.4261
 3329SOL     OW21445   1.662   1.578   0.583 -0.0555 -0.0756  0.0521
 3329SOL    HW121446   1.585   1.547   0.535 -1.3291  0.3453  1.8260
 3329SOL    HW221447   1.713   1.620   0.514  0.3044  1.8009  1.4511
 3330SOL     OW21448   1.782   1.613   7.044 -0.7685  0.6151  0.0974
 3330SOL    HW121449   1.715   1.670   7.006 -1.1054 -0.6986 -1.2791
 3330SOL    HW221450   1.860   1.669   7.056 -1.0340  1.0974 -0.4097
 3331SOL     OW21451   1.148   4.501   3.049  0.0940  0.4199  0.3547
 3331SOL    HW121452   1.163   4.553   2.970  1.9651 -0.8703 -0.1303
 3331SOL    HW221453   1.196   4.422   3.025  1.2413  1.3166 -0.3263
 3332SOL     OW21454   2.242   1.860  15.165 -0.2641 -0.1593  0.3495
 3332SOL    HW121455   2.263   1.866  15.072 -0.0855  0.3632  0.4243
 3332SOL    HW221456   2.252   1.766  15.181  0.8902  0.1295  1.2852
 3333SOL     OW21457   1.110   0.956   3.694  0.2104 -0.0815  0.4813
 3333SOL    HW121458   1.157   0.989   3.770  2.0294  1.7876 -1.4526
 3333SOL    HW221459   1.120   1.024   3.627 -1.1210  0.2799  0.6465
 3334SOL     OW21460   1.278   1.869   1.954  0.1518  0.5077 -0.2215
 3334SOL    HW121461   1.353   1.914   1.916  1.5414 -1.3958  0.2539
 3334SOL    HW221462   1.231   1.837   1.877 -2.4552  0.5682  1.3178
 3335SOL     OW21463   2.227   1.308   1.813 -0.2294  0.3446 -0.3302
 3335SOL    HW121464   2.282   1.383   1.793  1.0077 -0.7483 -1.0261
 3335SOL    HW221465   2.260   1.278   1.898 -0.6754 -0.3818 -0.4057
 3336SOL     OW21466   0.796   3.968   8.273 -0.1414 -0.2237  0.0690
 3336SOL    HW121467   0.750   4.043   8.311 -0.8701 -1.2104  1.1352
 3336SOL    HW221468   0.835   4.017   8.200 -1.4211  0.5747 -0.0825
 3337SOL     OW21469   2.537   2.808   7.012  0.1040  0.0138 -0.2986
 3337SOL    HW121470   2.522   2.900   6.987  0.7508  0.2878  0.3135
 3337SOL    HW221471   2.632   2.797   7.010  0.0877 -0.1287 -0.2805
 3338SOL     OW21472   3.702   1.030   9.972 -0.3186  0.6464  0.3784
 3338SOL    HW121473   3.793   1.055   9.990  0.2689  0.2353 -1.9175
 3338SOL    HW221474   3.695   1.056   9.880  0.8792 -2.4580 -0.6016
 3339SOL     OW21475   1.541   2.948   8.272  0.3920 -0.0590  0.2845
 3339SOL    HW121476   1.535   2.901   8.189  1.1739  0.2888  0.0332
 3339SOL    HW221477   1.509   3.032   8.239  2.3246  0.5328 -0.0685
 3340SOL     OW21478   1.884   3.006   4.792 -0.1107  0.5949 -0.1644
 3340SOL    HW121479   1.893   2.980   4.700  0.1599 -4.2799  1.2318
 3340SOL    HW221480   1.961   2.960   4.823 -0.0071  0.0581 -1.2262
 3341SOL     OW21481   1.271   3.957   2.319  0.7032 -0.2761  0.3731
 3341SOL    HW121482   1.319   3.901   2.380  2.0852  0.1461 -0.3095
 3341SOL    HW221483   1.334   3.965   2.247 -0.1293 -0.4461 -0.3697
 3342SOL     OW21484   0.203   0.097   5.979  0.3428 -0.5134 -0.4136
 3342SOL    HW121485   0.140   0.133   5.916 -2.3317  0.5137  2.8419
 3342SOL    HW221486   0.147   0.119   6.053 -0.1389 -0.3427 -0.8306
 3343SOL     OW21487   1.733   1.841  12.377  0.1607  0.3852  0.5030
 3343SOL    HW121488   1.750   1.911  12.314 -0.5932 -1.5196 -1.8205
 3343SOL    HW221489   1.799   1.852  12.445  0.5438 -1.9536  0.4901
 3344SOL     OW21490   3.227   1.853   9.347  0.3934 -0.5046 -0.0451
 3344SOL    HW121491   3.300   1.839   9.286 -0.1959  0.5122 -0.9773
 3344SOL    HW221492   3.194   1.765   9.367  1.4278 -0.9750 -0.4075
 3345SOL     OW21493   0.410   3.651   5.990 -0.1160 -0.1378 -0.3590
 3345SOL    HW121494   0.427   3.572   5.939  0.2181  0.7913 -1.6769
 3345SOL    HW221495   0.399   3.712   5.918  0.5382  1.1238  0.6063
 3346SOL     OW21496   3.561   2.744   3.979  0.4051  0.4376  0.1000
 3346SOL    HW121497   3.594   2.808   3.915  2.6533  1.0730  1.9129
 3346SOL    HW221498   3.638   2.689   3.991  0.4558  0.2589 -0.9908
 3347SOL     OW21499   1.727   3.547   3.098  0.4869  0.3722  0.1480
 3347SOL    HW121500   1.784   3.507   3.032 -0.5951  0.0420 -0.5914
 3347SOL    HW221501   1.651   3.555   3.040 -0.4584  1.1975  1.5098
 3348SOL     OW21502   4.475   0.514  12.757  0.0325  0.0046 -0.1649
 3348SOL    HW121503   4.515   0.431  12.782  0.3248 -0.8247 -3.3141
 3348SOL    HW221504   4.440   0.492  12.670 -0.0386  1.5071 -0.5145
 3349SOL     OW21505   3.386   0.073   9.270  0.0588  0.5045  0.1839
 3349SOL    HW121506   3.331   0.150   9.258 -0.7804  0.1544  1.7286
 3349SOL    HW221507   3.348   0.024   9.343  1.7007  2.1095  2.1332
 3350SOL     OW21508   1.911   1.637  14.672  0.2927  0.2262 -0.3439
 3350SOL    HW121509   1.945   1.550  14.691  0.2628 -0.0246 -1.4481
 3350SOL    HW221510   1.818   1.623  14.691  0.4291  1.0372  0.9730
 3351SOL     OW21511   1.519   1.452   1.913 -0.2363  0.5206  0.5816
 3351SOL    HW121512   1.454   1.383   1.898 -0.3343  0.1889  2.5080
 3351SOL    HW221513   1.463   1.509   1.965 -0.4408  0.5548  0.3223
 3352SOL     OW21514   4.236   0.639   4.033  0.4615  0.6555 -0.0784
 3352SOL    HW121515   4.243   0.563   4.092 -2.6097  1.0510  0.7952
 3352SOL    HW221516   4.173   0.602   3.971  0.6373 -0.0511  0.1566
 3353SOL     OW21517   2.849   0.488   2.765  0.2909 -0.2133  0.3607
 3353SOL    HW121518   2.821   0.413   2.818  0.5165 -1.8825 -1.8715
 3353SOL    HW221519   2.862   0.553   2.834  0.1974 -0.3340  0.4923
 3354SOL     OW21520   0.357   1.432   9.968 -0.2381  0.0545  0.0761
 3354SOL    HW121521   0.378   1.422  10.061  1.1823 -0.8265 -0.3602
 3354SOL    HW221522   0.439   1.471   9.939  0.7102  0.4712  3.2286
 3355SOL     OW21523   3.854   2.951   3.638 -0.3116 -0.6250  0.0350
 3355SOL    HW121524   3.764   2.940   3.669  0.1981 -0.0789  1.7224
 3355SOL    HW221525   3.858   2.862   3.602  0.6927 -1.5977  2.5539
 3356SOL     OW21526   1.404   4.251   5.608  0.3873  0.0280  0.3309
 3356SOL    HW121527   1.432   4.188   5.674 -0.2827 -0.1578  0.4426
 3356SOL    HW221528   1.311   4.258   5.630  0.0732 -2.6785 -0.1419
 3357SOL     OW21529   0.050   0.405   4.365 -0.1663 -0.8910  0.4652
 3357SOL    HW121530   0.013   0.373   4.448 -0.4344  0.6928  0.9502
 3357SOL    HW221531   0.132   0.448   4.387 -1.6099  1.8880  0.3977
 3358SOL     OW21532   0.064   1.549   5.629 -0.1380 -0.2924 -0.2568
 3358SOL    HW121533   0.126   1.495   5.679 -1.7929 -2.3114 -0.3584
 3358SOL    HW221534   0.013   1.480   5.587 -1.0474  0.0557  0.2830
 3359SOL     OW21535   1.771   2.539   5.314  0.0315 -0.9158  0.3290
 3359SOL    HW121536   1.791   2.448   5.334 -0.4323 -1.7456 -2.9616
 3359SOL    HW221537   1.678   2.524   5.329 -0.0750 -0.6857 -0.0870
 3360SOL     OW21538   2.888   1.276   6.327  0.2246 -0.5341  0.2165
 3360SOL    HW121539   2.809   1.288   6.275 -0.3489 -0.2798  1.1377
 3360SOL    HW221540   2.963   1.264   6.269  0.1554 -1.6344  0.3464
 3361SOL     OW21541   0.391   2.117   1.060  0.0391  0.3517  0.4934
 3361SOL    HW121542   0.398   2.150   1.149 -0.4486  1.9605 -0.0692
 3361SOL    HW221543   0.374   2.193   1.004 -2.2980 -1.3398 -1.1409
 3362SOL     OW21544   3.539   1.204   1.776 -0.1666  0.5689  0.1110
 3362SOL    HW121545   3.454   1.160   1.785  0.6597 -0.8059  1.2657
 3362SOL    HW221546   3.594   1.126   1.769  1.4426  1.8657 -1.4817
 3363SOL     OW21547   0.754   0.660   2.507  0.1186 -0.2087 -0.2758
 3363SOL    HW121548   0.691   0.637   2.439 -2.4659  1.8373  1.4471
 3363SOL    HW221549   0.790   0.735   2.459  0.8060 -0.9453 -0.9189
 3364SOL     OW21550   1.000   1.603  10.662 -0.1346  0.2557  0.2775
 3364SOL    HW121551   1.033   1.687  10.630 -1.1992  0.3385 -0.5933
 3364SOL    HW221552   1.055   1.543  10.612 -0.8142  1.4296 -1.8875
 3365SOL     OW21553   4.542   0.458   0.798  0.3393 -0.2090 -0.3300
 3365SOL    HW121554   4.614   0.452   0.861  0.4226  0.6813 -0.3393
 3365SOL    HW221555   4.482   0.390   0.829 -0.4514  0.8084  0.3239
 3366SOL     OW21556   2.840   4.549   0.264 -0.1309  0.3350 -0.1719
 3366SOL    HW121557   2.833   4.463   0.306 -0.5557 -1.0961 -3.1213
 3366SOL    HW221558   2.750   4.550   0.231 -0.4346 -2.0150  0.5923
 3367SOL     OW21559   3.872   0.469   5.851  0.6811 -0.1778 -0.0800
 3367SOL    HW121560   3.797   0.526   5.869 -0.0894 -1.8914  2.1588
 3367SOL    HW221561   3.851   0.424   5.769 -0.2777 -0.3208  0.2433
 3368SOL     OW21562   3.887   3.394   9.236 -1.4158 -0.1161 -0.2227
 3368SOL    HW121563   3.885   3.393   9.141  0.1432 -1.2461 -0.2329
 3368SOL    HW221564   3.796   3.370   9.254 -1.6358  0.2389 -0.8640
 3369SOL     OW21565   3.273   0.260  11.933 -0.4400 -0.9271 -0.2930
 3369SOL    HW121566   3.179   0.268  11.913 -0.4641 -0.0269  0.1582
 3369SOL    HW221567   3.297   0.353  11.939 -0.0431 -1.0102 -0.6416
 3370SOL     OW21568   3.619   4.268   5.466 -0.2913  0.8478 -0.2928
 3370SOL    HW121569   3.568   4.324   5.408 -1.4183  0.3759  0.2498
 3370SOL    HW221570   3.685   4.333   5.488  1.1255 -0.4768 -0.6431
 3371SOL     OW21571   4.242   0.047   4.352  0.4045 -0.4511 -0.2733
 3371SOL    HW121572   4.256   0.014   4.264  1.7925 -2.2430  0.6183
 3371SOL    HW221573   4.158   0.007   4.375  0.8447  1.2206  4.2174
 3372SOL     OW21574   1.062   0.440  10.652  0.0590  0.0283  0.2132
 3372SOL    HW121575   1.089   0.349  10.640 -0.9173 -0.2625  0.2355
 3372SOL    HW221576   1.027   0.426  10.740  1.4927 -1.3870  0.5645
 3373SOL     OW21577   3.497   0.786   9.486  0.3472  0.0915  0.4900
 3373SOL    HW121578   3.538   0.733   9.554  1.1201  0.4049  0.2634
 3373SOL    HW221579   3.474   0.869   9.528 -0.6054  1.2552 -2.2943
 3374SOL     OW21580   1.112   0.507  14.376  0.4056 -0.3802 -0.4554
 3374SOL    HW121581   1.039   0.556  14.339  0.7572  1.9346  1.9271
 3374SOL    HW221582   1.127   0.455  14.297 -1.0417  0.1169 -1.0590
 3375SOL     OW21583   1.219   2.662   6.630 -0.3294  0.4882 -0.0985
 3375SOL    HW121584   1.255   2.673   6.542 -2.8256  1.6112 -0.9572
 3375SOL    HW221585   1.238   2.568   6.631 -0.7461  0.4277  2.1029
 3376SOL     OW21586   2.158   0.424   2.348 -0.0241 -0.4694  0.4115
 3376SOL    HW121587   2.155   0.338   2.389  0.0946 -0.7285 -0.1235
 3376SOL    HW221588   2.244   0.435   2.307 -1.3729  1.0297 -2.0385
 3377SOL     OW21589   2.421   3.322   6.626  0.0349 -0.1927 -0.0435
 3377SOL    HW121590   2.335   3.349   6.658 -1.0499 -2.6375 -0.8922
 3377SOL    HW221591   2.483   3.355   6.691 -0.1041 -1.2566  0.6248
 3378SOL     OW21592   4.286   0.620   8.331  0.5104 -0.1746  0.4093
 3378SOL    HW121593   4.215   0.650   8.386 -1.2484 -0.4637 -1.6863
 3378SOL    HW221594   4.229   0.582   8.263  1.7724 -1.7954  0.2399
 3379SOL     OW21595   3.556   1.284  16.722 -0.1075 -0.5560 -0.3486
 3379SOL    HW121596   3.601   1.285  16.806  0.9247  2.5310 -0.9511
 3379SOL    HW221597   3.595   1.202  16.690 -0.9747 -0.7938 -0.8002
 3380SOL     OW21598   2.505   4.346   2.826 -0.2593 -0.6301  0.1089
 3380SOL    HW121599   2.493   4.281   2.757 -0.7061  0.3447 -0.7303
 3380SOL    HW221600   2.573   4.300   2.875 -0.0780 -0.0587  0.3998
 3381SOL     OW21601   2.527   0.444   5.366  0.4410  0.4514  0.7005
 3381SOL    HW121602   2.573   0.375   5.319  0.3045  1.0193 -0.2844
 3381SOL    HW221603   2.533   0.412   5.456 -0.8424  1.6987  1.2287
 3382SOL     OW21604   0.809   2.430   3.316  0.1884  0.1123  0.1251
 3382SOL    HW121605   0.894   2.393   3.337  1.0128  1.4310 -0.8961
 3382SOL    HW221606   0.761   2.348   3.303 -1.2090  0.8564  0.5165
 3383SOL     OW21607   3.246   0.037  17.169  0.1328 -0.2051 -0.4810
 3383SOL    HW121608   3.239   0.093  17.247  0.5513 -1.0350  0.1539
 3383SOL    HW221609   3.151   0.038  17.162  0.1853 -2.3112 -1.4086
 3384SOL     OW21610   0.596   4.035   5.651  0.2685 -0.2703  0.6727
 3384SOL    HW121611   0.596   4.105   5.586  0.2141  0.1054  1.0755
 3384SOL    HW221612   0.534   3.971   5.615 -0.3353  1.0650 -0.5990
 3385SOL     OW21613   1.471   1.635  11.555  0.2168 -0.4168  0.2637
 3385SOL    HW121614   1.513   1.569  11.500 -1.5850 -1.5629  0.2627
 3385SOL    HW221615   1.520   1.632  11.637 -1.0549  0.3523  1.0647
 3386SOL     OW21616   0.245   4.549  16.272 -0.1035  0.3736 -0.1767
 3386SOL    HW121617   0.248   4.454  16.270  3.0338  0.3932  2.7663
 3386SOL    HW221618   0.279   4.557  16.361 -0.1037 -0.8103 -0.0802
 3387SOL     OW21619   3.289   2.659   7.791 -0.3672  0.0012 -0.2240
 3387SOL    HW121620   3.367   2.713   7.795  0.1091 -0.7678  0.6491
 3387SOL    HW221621   3.247   2.686   7.709  1.7318  0.9983 -0.9458
 3388SOL     OW21622   3.278   4.086   7.715 -0.2515  0.2137 -0.2116
 3388SOL    HW121623   3.369   4.064   7.736 -0.7749  0.0719  1.9279
 3388SOL    HW221624   3.242   4.008   7.674  0.9846 -1.9507  2.8080
 3389SOL     OW21625   3.152   0.212  12.770  0.0380  0.1715  0.2266
 3389SOL    HW121626   3.115   0.297  12.792  0.9468  0.7543 -0.4805
 3389SOL    HW221627   3.204   0.198  12.849 -1.9360 -0.1759  1.4435
 3390SOL     OW21628   0.549   3.162   2.544  0.4782  0.6494  0.2169
 3390SOL    HW121629   0.522   3.070   2.536  2.4819  0.2450 -2.0943
 3390SOL    HW221630   0.562   3.162   2.639  3.2625  0.7061 -0.1532
 3391SOL     OW21631   3.464   3.429  10.245 -0.0223 -0.7485 -0.0148
 3391SOL    HW121632   3.419   3.400  10.325  0.4069  1.8067  1.1783
 3391SOL    HW221633   3.421   3.508  10.210  0.2002  0.6593  2.8628
 3392SOL     OW21634   3.167   3.707   1.005 -0.4140 -0.0354  0.5054
 3392SOL    HW121635   3.104   3.749   1.063 -0.2096  0.2504  0.5213
 3392SOL    HW221636   3.251   3.730   1.045 -0.3928  0.5137  0.1492
 3393SOL     OW21637   2.083   3.515   8.336  0.3819 -0.2635  0.1608
 3393SOL    HW121638   2.118   3.426   8.342 -1.0716 -0.7208  1.7910
 3393SOL    HW221639   2.152   3.571   8.370  0.4221 -0.4969  0.4591
 3394SOL     OW21640   2.365   2.767   3.727  0.1431  0.4083  0.4892
 3394SOL    HW121641   2.422   2.821   3.783  1.8551 -1.9593  1.0331
 3394SOL    HW221642   2.387   2.683   3.766  1.1029  1.3795  2.0455
 3395SOL     OW21643   3.292   4.190   4.538 -0.3784 -0.5231  0.3802
 3395SOL    HW121644   3.220   4.253   4.542 -2.7728 -3.3581  2.1844
 3395SOL    HW221645   3.367   4.234   4.500 -0.5804 -1.1413 -0.7499
 3396SOL     OW21646   3.068   0.066  10.859  0.4480 -0.3250 -0.1626
 3396SOL    HW121647   3.088   4.697  10.887  0.2244 -1.1064 -2.4753
 3396SOL    HW221648   3.090   0.117  10.937  0.1262 -1.5647  0.7312
 3397SOL     OW21649   0.548   4.238  10.672  0.7106  0.2128 -0.1464
 3397SOL    HW121650   0.499   4.223  10.753  1.2617  0.1100  0.1701
 3397SOL    HW221651   0.472   4.210  10.621  0.8954 -0.0326 -0.2855
 3398SOL     OW21652   4.300   0.996   9.033  0.0809  0.8349 -0.0525
 3398SOL    HW121653   4.391   1.007   9.007 -0.3030  1.2155 -1.2512
 3398SOL    HW221654   4.301   0.984   9.128 -2.0559  1.8776  0.0844
 3399SOL     OW21655   1.626   0.928  14.482  0.1500 -0.3706  0.2810
 3399SOL    HW121656   1.552   0.953  14.427  0.6870 -0.8257 -0.6569
 3399SOL    HW221657   1.690   0.985  14.439  0.0570 -1.4669 -1.2918
 3400SOL     OW21658   0.754   4.612   4.584  0.3721  0.2870  0.1308
 3400SOL    HW121659   0.695   4.589   4.513  1.8403 -0.0571 -0.9679
 3400SOL    HW221660   0.784   4.530   4.622 -2.6387 -0.9608 -0.1894
 3401SOL     OW21661   3.804   0.343   6.874  0.2096 -0.1888  0.7334
 3401SOL    HW121662   3.828   0.260   6.832 -0.8062 -0.4268  0.6458
 3401SOL    HW221663   3.721   0.366   6.832  0.7967 -3.0811 -2.0554
 3402SOL     OW21664   2.355   3.881   4.811 -0.1174  0.2157 -0.2889
 3402SOL    HW121665   2.334   3.954   4.753 -0.0534  0.6880  0.2794
 3402SOL    HW221666   2.348   3.814   4.744  1.4731 -0.2760  0.0238
 3403SOL     OW21667   0.502   0.020   3.566 -0.4783  0.1952 -0.1919
 3403SOL    HW121668   0.481   4.691   3.645  2.3169  0.3568  0.6399
 3403SOL    HW221669   0.594   4.717   3.558 -0.9482 -1.3771 -1.1328
 3404SOL     OW21670   4.046   1.873   7.843 -0.5463  0.0197  0.1529
 3404SOL    HW121671   3.962   1.919   7.846 -0.3779  0.3855 -0.7221
 3404SOL    HW221672   4.105   1.940   7.809  0.4961 -1.9867 -1.9782
 3405SOL     OW21673   0.459   1.595   7.464  0.3566 -0.4637 -0.0773
 3405SOL    HW121674   0.515   1.533   7.511  2.6856  1.8227  0.1653
 3405SOL    HW221675   0.394   1.532   7.434 -3.1788  2.9244  0.4550
 3406SOL     OW21676   3.413   1.445  15.924  0.0001 -0.3899  0.3449
 3406SOL    HW121677   3.389   1.517  15.865 -0.8254 -1.7614 -0.9799
 3406SOL    HW221678   3.509   1.449  15.925  0.0221 -0.6680 -1.5935
 3407SOL     OW21679   0.041   1.818   2.589 -0.2727 -0.4182 -0.4467
 3407SOL    HW121680   0.108   1.856   2.646 -3.2669  4.2633 -0.0359
 3407SOL    HW221681   0.027   1.732   2.628  1.5413  0.0089  1.1874
 3408SOL     OW21682   1.866   2.223   6.309  0.0632 -0.6788 -0.2504
 3408SOL    HW121683   1.855   2.304   6.359 -1.6616 -2.3238  2.0507
 3408SOL    HW221684   1.906   2.164   6.374  2.5198 -0.0458 -1.1995
 3409SOL     OW21685   0.347   0.541   6.728  0.3761 -0.5307 -0.1556
 3409SOL    HW121686   0.265   0.503   6.760 -0.6870  1.3492 -0.6232
 3409SOL    HW221687   0.400   0.461   6.718  0.4295 -0.4992 -0.1201
 3410SOL     OW21688   2.823   1.420   2.671  0.7407  0.0519 -0.3501
 3410SOL    HW121689   2.859   1.451   2.755 -2.4588  1.2922  0.5635
 3410SOL    HW221690   2.896   1.434   2.611  0.9610  1.3861  0.2244
 3411SOL     OW21691   0.113   2.701  12.558 -0.2622  0.2955  0.0339
 3411SOL    HW121692   0.125   2.697  12.653  0.0452 -0.1119 -0.0168
 3411SOL    HW221693   0.192   2.750  12.536 -0.1216 -1.3916 -3.1128
 3412SOL     OW21694   0.819   2.325   5.432  0.2538 -0.3874 -0.1048
 3412SOL    HW121695   0.815   2.240   5.475 -2.3645 -0.2665 -0.0998
 3412SOL    HW221696   0.731   2.347   5.401  0.0496 -2.4613 -0.9679
 3413SOL     OW21697   0.781   4.021   7.498  0.2702 -0.1959  0.1231
 3413SOL    HW121698   0.829   3.941   7.518  0.3567 -0.4689 -1.1797
 3413SOL    HW221699   0.716   3.983   7.439 -1.6232 -0.8421  2.6266
 3414SOL     OW21700   2.167   0.780   3.417  0.2837 -0.0265 -0.2618
 3414SOL    HW121701   2.228   0.779   3.343  2.1461  2.1432  1.2648
 3414SOL    HW221702   2.213   0.718   3.474 -0.1620  1.8406  2.1168
 3415SOL     OW21703   1.069   0.265   6.633 -0.7267  0.2925 -0.1832
 3415SOL    HW121704   1.148   0.215   6.653  0.7254  2.2898 -0.9807
 3415SOL    HW221705   1.042   0.216   6.555  0.9052  0.0559 -0.5851
 3416SOL     OW21706   4.219   0.038   2.133 -0.3097 -0.2261 -0.1855
 3416SOL    HW121707   4.137   4.715   2.108 -0.5540  0.0104  0.2117
 3416SOL    HW221708   4.282   4.700   2.091  0.8305 -0.0358  1.2586
 3417SOL     OW21709   1.780   0.779  13.305 -0.9266  0.9108 -0.5985
 3417SOL    HW121710   1.834   0.847  13.264  1.2008 -0.4551 -0.0787
 3417SOL    HW221711   1.820   0.786  13.391  0.3442 -0.2942 -1.1004
 3418SOL     OW21712   4.018   0.718   3.433  0.1370  0.2251  0.4727
 3418SOL    HW121713   4.096   0.666   3.451  1.1003  1.6377  0.3194
 3418SOL    HW221714   4.053   0.804   3.455 -1.7446  0.6520  1.7726
 3419SOL     OW21715   1.507   1.151   1.641 -0.0443 -0.7692  0.4547
 3419SOL    HW121716   1.509   1.061   1.674  2.3871  0.0754  2.6508
 3419SOL    HW221717   1.458   1.200   1.707 -0.9245  1.1958 -1.6348
 3420SOL     OW21718   0.362   4.005  12.178  1.0972  1.1266  0.4168
 3420SOL    HW121719   0.386   3.973  12.265  0.3104  2.5519  1.1487
 3420SOL    HW221720   0.302   3.936  12.147  2.1503  0.4714 -0.1599
 3421SOL     OW21721   4.364   4.464  16.242 -0.0418  0.4520 -0.0659
 3421SOL    HW121722   4.356   4.369  16.253 -1.7645  0.5613 -0.4828
 3421SOL    HW221723   4.387   4.478  16.151  1.4191 -1.9340 -0.0549
 3422SOL     OW21724   1.984   2.583   9.146  0.1255  0.0806  0.0750
 3422SOL    HW121725   1.984   2.666   9.098 -2.9828 -1.9888 -3.5468
 3422SOL    HW221726   1.996   2.612   9.236 -1.8411  0.1229  0.3049
 3423SOL     OW21727   4.654   2.792   8.560 -0.4539 -0.0306  0.6585
 3423SOL    HW121728   0.028   2.798   8.543 -0.9742 -1.7461 -2.6288
 3423SOL    HW221729   4.631   2.873   8.607  0.7567 -0.0193  1.2316
 3424SOL     OW21730   0.081   2.930   9.633  0.1306  0.1926  0.1204
 3424SOL    HW121731   4.707   2.936   9.616  0.5385  4.2501 -0.7052
 3424SOL    HW221732   0.104   3.022   9.649  2.0635 -0.1339 -0.8869
 3425SOL     OW21733   1.552   1.572  13.946  0.3405 -0.0074  0.1429
 3425SOL    HW121734   1.462   1.550  13.970  0.7184 -3.6395 -1.7976
 3425SOL    HW221735   1.576   1.482  13.923  0.3442  0.5960 -2.1647
 3426SOL     OW21736   2.433   2.389   7.098  0.6365 -0.2339  0.3367
 3426SOL    HW121737   2.446   2.327   7.170  0.8047 -0.1954  0.3385
 3426SOL    HW221738   2.462   2.334   7.025  2.0609  2.4178 -1.0657
 3427SOL     OW21739   3.493   0.813   1.845  1.0100 -0.4514  0.1602
 3427SOL    HW121740   3.511   0.748   1.777  0.8003 -1.7663  1.3627
 3427SOL    HW221741   3.556   0.873   1.805 -0.8447  0.7510 -0.9670
 3428SOL     OW21742   3.653   0.211   8.299 -0.3995  0.3480 -0.2283
 3428SOL    HW121743   3.576   0.159   8.322  0.4083 -0.6404  0.2548
 3428SOL    HW221744   3.696   0.207   8.384  0.6065  0.7219 -0.7251
 3429SOL     OW21745   2.621   3.763  17.287 -0.1203 -0.4237  0.4435
 3429SOL    HW121746   2.660   3.735  17.370  0.3115 -2.6507 -0.5181
 3429SOL    HW221747   2.541   3.710  17.289 -0.1001 -0.4379  0.7772
 3430SOL     OW21748   4.606   2.114   4.036 -0.5656 -0.7190 -0.0727
 3430SOL    HW121749   4.582   2.193   4.084  1.6193 -0.7675  1.0729
 3430SOL    HW221750   4.541   2.048   4.062 -1.6818  0.1805 -0.5451
 3431SOL     OW21751   0.778   4.024   9.339  0.0513 -0.3563  0.2539
 3431SOL    HW121752   0.855   4.060   9.295 -0.6113 -0.8437 -1.2813
 3431SOL    HW221753   0.700   4.031   9.284  1.0570 -0.6748 -1.2138
 3432SOL     OW21754   3.566   4.367   3.585 -0.5413 -0.1901  0.5490
 3432SOL    HW121755   3.489   4.360   3.529 -0.1106 -2.5077  0.2307
 3432SOL    HW221756   3.626   4.432   3.547  0.7735 -1.5901  0.2238
 3433SOL     OW21757   4.325   0.231   8.493  0.2390  0.1474  1.0085
 3433SOL    HW121758   4.302   0.231   8.400 -0.3312 -2.5384  1.1508
 3433SOL    HW221759   4.267   0.157   8.510 -0.5945  1.0371  2.0057
 3434SOL     OW21760   2.087   4.638   9.597 -0.5805  0.1461 -0.6367
 3434SOL    HW121761   2.001   4.632   9.638 -0.3051  1.0844  0.0735
 3434SOL    HW221762   2.076   4.566   9.535  1.3107  0.1557 -0.9986
 3435SOL     OW21763   3.915   4.224  13.066 -0.3145 -0.0739 -0.2236
 3435SOL    HW121764   3.840   4.253  13.013 -0.4123  0.2719  0.1095
 3435SOL    HW221765   3.907   4.129  13.054 -2.0279 -0.2572  2.4240
 3436SOL     OW21766   1.100   2.217  10.696  0.5084 -0.5032  0.7263
 3436SOL    HW121767   1.032   2.268  10.741 -1.2167 -0.7063 -1.6425
 3436SOL    HW221768   1.089   2.137  10.747  0.8441 -2.2878 -2.0000
 3437SOL     OW21769   2.342   2.675   5.422 -0.2164  0.5245 -0.3071
 3437SOL    HW121770   2.257   2.640   5.447 -0.0401  0.5253  0.2814
 3437SOL    HW221771   2.356   2.738   5.492  1.0502 -2.3758  2.0502
 3438SOL     OW21772   4.054   0.674   7.514  0.5324 -0.5945 -0.2974
 3438SOL    HW121773   4.095   0.696   7.430  1.3574 -1.2492 -0.0624
 3438SOL    HW221774   3.993   0.746   7.531  0.1741 -1.0730  0.4258
 3439SOL     OW21775   1.666   0.972   6.596  0.2510 -0.5016 -0.1832
 3439SOL    HW121776   1.672   0.909   6.524  0.3511  0.0445 -0.6565
 3439SOL    HW221777   1.706   1.050   6.557 -1.9570  1.4530  1.4981
 3440SOL     OW21778   2.750   0.740   2.554 -0.7779 -0.7997  0.0282
 3440SOL    HW121779   2.692   0.726   2.629 -1.3333  0.4187 -0.1844
 3440SOL    HW221780   2.716   0.825   2.527  0.9230 -0.5541 -1.2908
 3441SOL     OW21781   0.464   0.876   7.970  0.0321  0.1566 -0.5054
 3441SOL    HW121782   0.400   0.919   7.914 -2.9667 -2.1592  1.1689
 3441SOL    HW221783   0.434   0.906   8.056 -0.1191  1.6261 -1.0694
 3442SOL     OW21784   3.059   1.835   5.289  0.1851  0.1481  0.0749
 3442SOL    HW121785   2.969   1.867   5.296  1.0592  2.4052  1.1725
 3442SOL    HW221786   3.047   1.761   5.229  0.5085 -0.1900  0.4278
 3443SOL     OW21787   1.834   4.056   8.528  0.4165  0.4226  0.2807
 3443SOL    HW121788   1.864   3.995   8.461 -1.1724 -0.9324  0.8093
 3443SOL    HW221789   1.835   4.142   8.486  0.8244  1.6028  2.6614
 3444SOL     OW21790   1.835   1.853   6.695 -0.4802 -0.3553 -0.3024
 3444SOL    HW121791   1.853   1.761   6.714 -1.4904 -0.5853 -0.5043
 3444SOL    HW221792   1.740   1.853   6.706 -0.3050 -0.0432  1.2286
 3445SOL     OW21793   4.578   0.239  14.027 -0.3374  0.8128  0.1687
 3445SOL    HW121794   4.545   0.273  14.111  0.2440 -1.0665  1.1765
 3445SOL    HW221795   4.648   0.300  14.005  0.6215  0.3951  2.0285
 3446SOL     OW21796   1.823   3.890  10.810 -0.0552 -0.0027  0.1035
 3446SOL    HW121797   1.781   3.923  10.731  0.2865  1.9627  0.7569
 3446SOL    HW221798   1.853   3.805  10.778 -2.4237 -0.5694 -0.6432
 3447SOL     OW21799   2.106   1.234  14.983 -0.4981 -0.0079 -0.1040
 3447SOL    HW121800   2.178   1.260  15.041 -0.9891 -1.0062  0.9576
 3447SOL    HW221801   2.096   1.325  14.954 -0.3663 -0.0650 -0.3230
 3448SOL     OW21802   1.424   1.118   5.323 -0.5972 -0.5485 -0.2321
 3448SOL    HW121803   1.400   1.136   5.414  0.6563  1.8603 -0.3746
 3448SOL    HW221804   1.350   1.080   5.277 -1.2395 -0.6157  0.8608
 3449SOL     OW21805   1.885   0.877  13.058  0.5190 -0.5758 -0.1667
 3449SOL    HW121806   1.796   0.858  13.029  0.2363  1.8557 -0.8851
 3449SOL    HW221807   1.922   0.789  13.059  1.1409 -0.3154 -0.4653
 3450SOL     OW21808   4.104   4.379   8.187 -0.0557 -0.2267  0.5936
 3450SOL    HW121809   4.104   4.291   8.149 -0.6987  0.1714 -0.3251
 3450SOL    HW221810   4.012   4.394   8.210 -0.4323  0.1736 -1.2186
 3451SOL     OW21811   0.606   1.496   0.845 -0.4281 -0.0966  0.1333
 3451SOL    HW121812   0.574   1.577   0.805  0.1944  0.7734  1.4213
 3451SOL    HW221813   0.570   1.504   0.933  1.2223 -1.3685  0.9242
 3452SOL     OW21814   0.246   3.992  14.370  0.0222  0.5695 -0.3711
 3452SOL    HW121815   0.195   3.972  14.291  0.6606 -0.9062 -0.4191
 3452SOL    HW221816   0.244   3.906  14.412  0.8419 -0.0604 -1.6318
 3453SOL     OW21817   0.092   1.439   5.058  0.5868 -0.0218  0.0061
 3453SOL    HW121818   0.045   1.356   5.066 -1.2868  1.1554  1.0813
 3453SOL    HW221819   0.094   1.467   5.150 -1.4877  1.0598 -0.2885
 3454SOL     OW21820   1.614   1.208   5.568 -0.1842 -0.0195  0.2651
 3454SOL    HW121821   1.526   1.225   5.602 -0.3462 -1.4756  0.5955
 3454SOL    HW221822   1.620   1.283   5.509  1.6685 -1.5421 -1.5082
 3455SOL     OW21823   2.950   1.084   3.346 -0.2999  0.1096  0.3934
 3455SOL    HW121824   2.914   1.149   3.406 -1.0740  0.8656 -0.8871
 3455SOL    HW221825   3.036   1.085   3.387 -1.4650  0.7674  2.7778
 3456SOL     OW21826   0.391   3.078  11.201 -0.2722  0.5109 -0.0336
 3456SOL    HW121827   0.404   3.116  11.288 -0.9992 -0.3656  0.4596
 3456SOL    HW221828   0.475   3.035  11.185 -1.5965 -1.9875 -0.3610
 3457SOL     OW21829   0.799   0.700   8.561 -1.1086  0.2510 -0.6576
 3457SOL    HW121830   0.880   0.665   8.523 -0.9856  0.7323 -0.8292
 3457SOL    HW221831   0.766   0.752   8.488 -3.6056 -1.0251 -0.4566
 3458SOL     OW21832   3.183   0.574  12.260 -0.2993 -0.4307  0.6051
 3458SOL    HW121833   3.272   0.548  12.233 -0.0578 -0.8953  1.8765
 3458SOL    HW221834   3.208   0.665  12.276 -0.4361 -0.7256  2.4510
 3459SOL     OW21835   0.799   0.229   6.023  0.8426  0.3082 -0.3815
 3459SOL    HW121836   0.812   0.309   5.972  1.9946  0.7045  0.5314
 3459SOL    HW221837   0.705   0.238   6.036  0.7544 -0.5651 -0.4033
 3460SOL     OW21838   0.028   4.537  16.782  0.4348 -0.4240  0.2279
 3460SOL    HW121839   4.701   4.591  16.717 -0.3252 -0.0434  1.0918
 3460SOL    HW221840   4.704   4.572  16.859  2.2639 -0.0127  1.0862
 3461SOL     OW21841   3.592   1.295   4.167  0.2190 -0.2132 -0.5204
 3461SOL    HW121842   3.578   1.371   4.110  1.5642  1.3823  1.2678
 3461SOL    HW221843   3.684   1.308   4.191 -0.2346  1.1312  0.5216
 3462SOL     OW21844   4.248   4.256   5.116  0.4371  0.1763  0.2650
 3462SOL    HW121845   4.176   4.245   5.178 -0.6988  2.3985 -0.6549
 3462SOL    HW221846   4.291   4.172   5.134 -1.5711 -0.9165 -0.0337
 3463SOL     OW21847   1.961   2.465   8.714 -0.1883  0.0527  0.1098
 3463SOL    HW121848   2.011   2.530   8.764  0.6356 -0.4743 -0.0237
 3463SOL    HW221849   1.898   2.441   8.782  1.7768  1.2672  2.3462
 3464SOL     OW21850   0.166   1.150   3.923  0.3808 -0.2598 -0.4048
 3464SOL    HW121851   0.224   1.159   3.999 -0.5990  0.7020  0.2307
 3464SOL    HW221852   0.105   1.087   3.961 -0.4749  0.8826  0.1222
 3465SOL     OW21853   3.150   0.144   8.023  0.0361  0.3871 -0.0690
 3465SOL    HW121854   3.097   0.067   8.044 -1.3632  1.7112  1.2294
 3465SOL    HW221855   3.186   0.167   8.109  1.4691 -0.1382 -0.5168
 3466SOL     OW21856   3.518   1.511   4.020  0.0877  0.0957 -0.1228
 3466SOL    HW121857   3.466   1.590   4.033 -1.8746 -1.3595  0.9454
 3466SOL    HW221858   3.454   1.448   3.985  0.7928 -0.2874 -0.7243
 3467SOL     OW21859   2.195   4.072   3.285 -0.3407  0.1487 -0.0118
 3467SOL    HW121860   2.168   4.155   3.244  1.5200  1.7734  2.0242
 3467SOL    HW221861   2.236   4.012   3.222  0.3281 -0.7708  1.3035
 3468SOL     OW21862   2.525   0.185  16.214  0.3763 -0.7583  0.5741
 3468SOL    HW121863   2.525   0.262  16.158 -1.0662 -2.4987 -1.8403
 3468SOL    HW221864   2.572   0.121  16.161 -1.1913  0.6579 -2.5213
 3469SOL     OW21865   3.227   2.871   1.226 -0.2550  0.2426  0.1700
 3469SOL    HW121866   3.223   2.825   1.142 -1.9070 -1.7123  1.3085
 3469SOL    HW221867   3.272   2.947   1.190 -1.1833  0.9599  0.5497
 3470SOL     OW21868   4.518   4.652   1.220  0.1018 -0.6493 -0.0559
 3470SOL    HW121869   4.588   4.694   1.270  0.8668 -0.7461 -1.0413
 3470SOL    HW221870   4.498   4.575   1.273  0.3788 -0.2457  0.6291
 3471SOL     OW21871   1.293   0.302   7.175 -0.2180  0.0987  0.0492
 3471SOL    HW121872   1.386   0.319   7.160  0.2603 -2.6620 -0.1465
 3471SOL    HW221873   1.258   0.390   7.188  1.1418  0.9255 -1.9320
 3472SOL     OW21874   3.637   0.448   5.012 -0.3288  0.4805  0.0074
 3472SOL    HW121875   3.639   0.544   5.009 -2.0527  0.4667 -1.3339
 3472SOL    HW221876   3.596   0.424   5.095  1.0266  1.9318  1.1076
 3473SOL     OW21877   0.379   1.605   2.015 -0.1658 -0.1083 -0.3127
 3473SOL    HW121878   0.308   1.618   1.953  0.0429 -3.5466 -1.2613
 3473SOL    HW221879   0.457   1.644   1.976 -1.5420  1.6728 -1.2722
 3474SOL     OW21880   0.520   1.042  12.038  0.6049  0.1862 -0.1631
 3474SOL    HW121881   0.442   0.991  12.058  1.1580 -0.3589  0.5740
 3474SOL    HW221882   0.541   1.071  12.126 -0.6516  1.8807 -0.4269
 3475SOL     OW21883   2.044   4.397  17.325  0.4919 -0.2897  0.2271
 3475SOL    HW121884   2.090   4.361  17.401  1.0854 -0.5643 -0.2616
 3475SOL    HW221885   1.956   4.412  17.360  1.4821  0.2908  2.4701
 3476SOL     OW21886   2.147   3.788   4.498 -0.3933  0.0417  0.3389
 3476SOL    HW121887   2.144   3.836   4.416 -0.1649  1.5152  1.2005
 3476SOL    HW221888   2.071   3.731   4.484 -0.6469  0.4514  0.0819
 3477SOL     OW21889   2.407   4.493   7.632  0.8919  0.1112  0.4969
 3477SOL    HW121890   2.361   4.434   7.693  2.6389 -0.6536  1.0864
 3477SOL    HW221891   2.430   4.440   7.556  0.3565 -0.6107  0.8308
 3478SOL     OW21892   4.187   1.745   3.584  0.4498 -0.2119  0.6102
 3478SOL    HW121893   4.264   1.692   3.602  1.0770  0.8037  0.9118
 3478SOL    HW221894   4.164   1.795   3.662 -1.9481  0.4513 -0.4932
 3479SOL     OW21895   1.062   1.436  17.601  0.0640  0.5153 -0.5693
 3479SOL    HW121896   0.982   1.410  17.646 -0.8219  1.5805 -1.5246
 3479SOL    HW221897   1.123   1.369  17.633 -0.3739  1.1606  1.6482
 3480SOL     OW21898   0.835   3.770  15.718  0.6605  1.0005 -0.7894
 3480SOL    HW121899   0.766   3.835  15.727 -0.5737 -0.3354 -0.7696
 3480SOL    HW221900   0.812   3.727  15.635 -1.0272 -0.1255  0.2789
 3481SOL     OW21901   4.455   4.573  12.430  0.3091  0.0836  0.2004
 3481SOL    HW121902   4.500   4.593  12.512  2.2119 -0.3174 -0.7587
 3481SOL    HW221903   4.531   4.532  12.388 -1.1018 -1.1587 -1.1509
 3482SOL     OW21904   0.631   0.487   4.962  0.0126 -0.8374  0.3087
 3482SOL    HW121905   0.606   0.486   4.869 -3.3764  1.1107  1.2112
 3482SOL    HW221906   0.630   0.392   4.966  1.2641 -0.7712  1.9201
 3483SOL     OW21907   0.718   0.216   4.687 -0.3045 -0.9558  0.1157
 3483SOL    HW121908   0.653   0.216   4.757 -0.3610 -0.8890  0.0630
 3483SOL    HW221909   0.779   0.147   4.711 -2.1948 -2.0140  1.8381
 3484SOL     OW21910   0.252   4.184   5.496 -0.3534  0.5882  0.0159
 3484SOL    HW121911   0.263   4.154   5.406 -2.8118  0.5184 -0.2395
 3484SOL    HW221912   0.315   4.257   5.495  0.3030  0.0226 -0.2087
 3485SOL     OW21913   0.456   4.527   7.031 -0.0742  0.1803  0.4768
 3485SOL    HW121914   0.545   4.503   7.005  0.2234  0.5242  1.1722
 3485SOL    HW221915   0.425   4.442   7.062  0.7659 -0.2509  0.1373
 3486SOL     OW21916   0.849   3.867   5.703  0.1840  0.0819 -0.4912
 3486SOL    HW121917   0.761   3.900   5.690  1.5266  3.3382 -1.2378
 3486SOL    HW221918   0.837   3.861   5.797 -1.7681 -0.8842 -0.8066
 3487SOL     OW21919   1.751   0.752   8.009 -0.0565 -0.4181 -0.0869
 3487SOL    HW121920   1.733   0.732   8.101 -0.9933 -1.4120 -0.4869
 3487SOL    HW221921   1.839   0.715   8.000  0.7889  1.3950  0.8358
 3488SOL     OW21922   0.049   3.680  14.637 -0.4141  0.4848  0.0878
 3488SOL    HW121923   0.118   3.689  14.703 -0.7065 -1.7094  0.6588
 3488SOL    HW221924   0.065   3.592  14.604  0.5419  0.3099  1.0291
 3489SOL     OW21925   2.206   0.813   4.415 -0.1368  0.4129 -0.0273
 3489SOL    HW121926   2.127   0.788   4.367 -0.6316  0.6808  0.6455
 3489SOL    HW221927   2.234   0.727   4.447 -2.1461 -0.6646 -1.1681
 3490SOL     OW21928   4.617   3.607   2.724  0.1154  0.0428 -0.1774
 3490SOL    HW121929   4.593   3.584   2.635  0.2679 -0.4589 -0.0902
 3490SOL    HW221930   4.681   3.539   2.744  3.0533  2.2199 -2.1450
 3491SOL     OW21931   1.056   2.891   2.704  0.1579  0.0635  0.0402
 3491SOL    HW121932   1.119   2.952   2.742  0.8433 -1.6970  1.7608
 3491SOL    HW221933   1.043   2.919   2.614  1.7130 -0.8352 -0.4645
 3492SOL     OW21934   3.042   3.743   6.433  0.2841  0.6058  0.3857
 3492SOL    HW121935   3.054   3.669   6.373  1.1887  0.1524  1.1291
 3492SOL    HW221936   3.136   3.746   6.452  0.1230 -1.9680  1.5956
 3493SOL     OW21937   0.515   3.934   9.480 -0.2637 -0.2403  0.6179
 3493SOL    HW121938   0.475   3.981   9.407  0.6090 -1.5201 -0.6690
 3493SOL    HW221939   0.605   3.966   9.475 -1.3920  2.7919 -0.2955
 3494SOL     OW21940   1.853   0.536   5.150  0.1968  0.4954 -0.2615
 3494SOL    HW121941   1.777   0.555   5.204  0.4364  0.1010  0.2164
 3494SOL    HW221942   1.922   0.502   5.208 -0.7202 -0.0130  0.5297
 3495SOL     OW21943   0.808   1.432   5.999 -0.2353 -0.5273 -0.5923
 3495SOL    HW121944   0.895   1.463   5.973 -0.5511  1.6266  0.9284
 3495SOL    HW221945   0.816   1.340   5.974 -0.5033 -0.6530 -0.2205
 3496SOL     OW21946   1.758   3.799   3.667  0.0399  0.0330  0.1372
 3496SOL    HW121947   1.726   3.829   3.753  1.5050 -0.9495  1.0271
 3496SOL    HW221948   1.852   3.805   3.682  0.1843 -1.0126 -0.3308
 3497SOL     OW21949   2.732   3.454   5.935 -0.1462 -0.3528 -0.4449
 3497SOL    HW121950   2.823   3.426   5.943  0.3883  1.7652  0.9595
 3497SOL    HW221951   2.702   3.405   5.859 -0.9847  1.0850 -1.0390
 3498SOL     OW21952   1.309   0.610  14.544 -0.0548 -0.0316  0.1784
 3498SOL    HW121953   1.400   0.627  14.521  0.0264 -0.6219  0.0594
 3498SOL    HW221954   1.275   0.592  14.456  0.6613 -1.7564  0.2582
 3499SOL     OW21955   1.253   4.201   4.881  0.4037  0.0858  0.0039
 3499SOL    HW121956   1.255   4.287   4.840  1.3190 -0.9675 -2.1730
 3499SOL    HW221957   1.312   4.210   4.956  0.5935  2.1649 -0.4007
 3500SOL     OW21958   2.459   3.854   7.717 -0.2401  0.6527  0.6669
 3500SOL    HW121959   2.513   3.794   7.769 -2.1373 -1.6806 -0.0571
 3500SOL    HW221960   2.498   3.937   7.745 -1.4831  1.0803  1.1229
 3501SOL     OW21961   0.976   0.840   5.253 -0.1828  0.3498 -0.4021
 3501SOL    HW121962   0.943   0.899   5.321  1.1302  2.5007 -1.6520
 3501SOL    HW221963   0.904   0.777   5.246  1.9914 -2.2466  0.4529
 3502SOL     OW21964   0.763   1.210   8.097 -0.0833  0.2388 -0.3709
 3502SOL    HW121965   0.731   1.208   8.007 -0.6269  1.2797 -0.1999
 3502SOL    HW221966   0.817   1.289   8.096 -0.4154  0.4705  0.2716
 3503SOL     OW21967   1.434   4.457  11.638  0.3116  0.1339  0.1333
 3503SOL    HW121968   1.358   4.512  11.655  0.7639  1.2936 -1.5690
 3503SOL    HW221969   1.454   4.487  11.549  1.0394 -1.7809 -0.3346
 3504SOL     OW21970   4.245   4.265   4.390 -0.5881  0.1966  0.2201
 3504SOL    HW121971   4.280   4.177   4.380 -0.2866  0.4547 -0.9919
 3504SOL    HW221972   4.275   4.288   4.478 -0.2521  0.8096 -0.0492
 3505SOL     OW21973   4.567   0.213   6.393 -0.5583  0.0542  0.2095
 3505SOL    HW121974   4.503   0.158   6.348  0.9906 -0.4856 -1.3734
 3505SOL    HW221975   4.509   0.282   6.424 -0.4116  0.0093  0.5856
 3506SOL     OW21976   3.027   0.055  12.600  0.4800 -0.0994 -0.0997
 3506SOL    HW121977   3.032   0.106  12.681  0.1256 -2.2429  1.2733
 3506SOL    HW221978   3.108   0.004  12.600  1.4186  1.3818 -1.7709
 3507SOL     OW21979   4.073   4.508   3.947 -0.0486 -0.3654 -0.3067
 3507SOL    HW121980   3.998   4.449   3.935 -1.3931  1.6259 -1.7147
 3507SOL    HW221981   4.145   4.455   3.913  0.8199  1.0790 -0.7051
 3508SOL     OW21982   3.117   4.152   5.333  0.1811 -0.0071  0.4510
 3508SOL    HW121983   3.025   4.174   5.349 -0.8764 -3.1236 -1.2246
 3508SOL    HW221984   3.108   4.058   5.349  3.8700 -0.6474 -1.1451
 3509SOL     OW21985   4.199   0.424   9.083 -0.0554  0.3725 -0.3907
 3509SOL    HW121986   4.265   0.380   9.137 -1.3660 -3.3951 -1.8200
 3509SOL    HW221987   4.200   0.366   9.007 -2.3223  0.7746 -0.7448
 3510SOL     OW21988   4.576   0.855   2.554  0.5857 -0.2335 -0.2715
 3510SOL    HW121989   4.664   0.852   2.518 -0.5528  1.2607 -3.2023
 3510SOL    HW221990   4.573   0.948   2.576 -2.0345 -0.5721  0.8516
 3511SOL     OW21991   1.397   3.342  16.124  0.4774 -0.0911 -0.1121
 3511SOL    HW121992   1.419   3.422  16.171 -0.5186 -1.1356  2.1606
 3511SOL    HW221993   1.486   3.312  16.105  0.6854  0.2233  0.3827
 3512SOL     OW21994   3.188   2.199   6.927 -0.1330  0.6161  0.3743
 3512SOL    HW121995   3.175   2.110   6.893 -0.2769  0.5833  0.5118
 3512SOL    HW221996   3.182   2.172   7.019 -0.1080  2.4816  0.9127
 3513SOL     OW21997   4.331   1.777   5.317  0.1537 -0.5524  0.0547
 3513SOL    HW121998   4.257   1.830   5.345 -0.3069 -0.2619 -1.6813
 3513SOL    HW221999   4.358   1.726   5.393 -2.5116  0.2057  1.4807
 3514SOL     OW22000   4.190   0.508   0.141  0.2228 -0.2651  0.1659
 3514SOL    HW122001   4.244   0.431   0.127 -0.5668 -0.9625  0.9661
 3514SOL    HW222002   4.253   0.578   0.154  1.0051 -0.9971  0.3102
 3515SOL     OW22003   3.362   0.323   6.064 -0.6620 -0.2800 -0.0713
 3515SOL    HW122004   3.404   0.244   6.099  1.7709  0.5353 -1.1285
 3515SOL    HW222005   3.373   0.318   5.969  1.8360 -2.2470  0.3233
 3516SOL     OW22006   0.374   2.655   5.844 -0.6240 -0.0855  0.6279
 3516SOL    HW122007   0.351   2.747   5.830  1.3824  0.3135 -0.1120
 3516SOL    HW222008   0.467   2.672   5.861 -0.4906 -0.3247  0.1229
 3517SOL     OW22009   3.710   4.191   7.564 -0.1784  0.0514 -0.5905
 3517SOL    HW122010   3.653   4.263   7.592 -0.6747 -0.8051  0.6013
 3517SOL    HW222011   3.782   4.184   7.625  0.8890  0.1886 -1.8384
 3518SOL     OW22012   2.785   2.051   6.983 -0.4255 -0.2674  0.3957
 3518SOL    HW122013   2.833   2.001   7.048  0.0151 -2.0944 -1.3294
 3518SOL    HW222014   2.780   1.999   6.902  0.7442  1.8957 -1.0597
 3519SOL     OW22015   3.262   1.446   0.147  0.6382  0.1408 -0.4175
 3519SOL    HW122016   3.213   1.497   0.212 -0.5342 -1.0758 -0.3589
 3519SOL    HW222017   3.231   1.481   0.063  0.7748 -0.5603 -0.7548
 3520SOL     OW22018   3.472   2.134   2.312 -0.1849  0.2026 -0.0590
 3520SOL    HW122019   3.486   2.158   2.220 -1.9479 -1.1191 -0.6913
 3520SOL    HW222020   3.379   2.114   2.303  0.3787 -2.1078 -0.7521
 3521SOL     OW22021   3.326   4.028   1.106 -0.1404  0.3496  0.6327
 3521SOL    HW122022   3.356   3.945   1.145  1.7836  1.1965  0.9400
 3521SOL    HW222023   3.315   4.003   1.015 -0.5207 -0.3671  0.8735
 3522SOL     OW22024   0.082   3.089   2.443  0.3291  0.1008  0.5143
 3522SOL    HW122025   0.142   3.160   2.468 -0.3322  0.7659  0.1988
 3522SOL    HW222026   0.023   3.132   2.380  0.8313 -0.9665 -0.6844
 3523SOL     OW22027   2.779   0.002   3.597 -0.5679 -0.4814 -0.7732
 3523SOL    HW122028   2.835   4.653   3.633 -1.2397 -0.4992  0.2357
 3523SOL    HW222029   2.762   4.692   3.508 -0.6234  1.1776 -1.3256
 3524SOL     OW22030   0.447   0.769   9.686 -0.6760 -0.3334  0.3350
 3524SOL    HW122031   0.457   0.682   9.724  0.4105  0.0366  0.8810
 3524SOL    HW222032   0.397   0.750   9.607 -0.0055 -2.0075  0.3173
 3525SOL     OW22033   3.567   2.229  14.071  0.0865 -0.9714  0.1849
 3525SOL    HW122034   3.658   2.212  14.047 -0.4280 -2.7599 -0.5053
 3525SOL    HW222035   3.549   2.153  14.126 -1.7217 -0.8750 -0.2760
 3526SOL     OW22036   4.343   0.116   2.399  0.2114 -0.1752 -0.4873
 3526SOL    HW122037   4.299   0.084   2.320 -0.6006  0.4592 -0.2962
 3526SOL    HW222038   4.286   0.111   2.476  0.3351  0.7613 -0.3336
 3527SOL     OW22039   1.651   1.362  14.823  0.0311 -0.1737 -0.5658
 3527SOL    HW122040   1.724   1.412  14.861 -0.0592 -0.1730 -0.3930
 3527SOL    HW222041   1.649   1.408  14.739  0.5148  0.7240 -0.0885
 3528SOL     OW22042   0.766   2.518   9.413 -0.2686 -0.7416 -0.0516
 3528SOL    HW122043   0.699   2.578   9.380 -0.1238 -0.6189 -0.1237
 3528SOL    HW222044   0.807   2.564   9.486 -1.3075 -0.2116  0.1915
 3529SOL     OW22045   1.318   3.394   6.947  0.3964 -0.2606  0.9259
 3529SOL    HW122046   1.369   3.374   6.868  1.2801 -0.1381  1.4574
 3529SOL    HW222047   1.233   3.363   6.919 -0.0572  1.3250  0.5398
 3530SOL     OW22048   0.957   2.196  14.331 -0.4751  0.2389 -0.2122
 3530SOL    HW122049   0.935   2.245  14.410 -1.4790  1.3421 -1.1728
 3530SOL    HW222050   1.035   2.147  14.357  0.6472  1.8871 -0.4360
 3531SOL     OW22051   2.766   2.807   4.867 -0.0534  0.0657  0.6291
 3531SOL    HW122052   2.790   2.830   4.957 -0.2348  2.1825  0.1306
 3531SOL    HW222053   2.706   2.737   4.894  0.4047 -0.9788 -1.0004
 3532SOL     OW22054   1.476   4.409   4.339  0.0670  0.3645 -0.1983
 3532SOL    HW122055   1.409   4.347   4.311  1.5128 -0.6771 -1.3920
 3532SOL    HW222056   1.476   4.480   4.275  0.3315  1.1341  0.6600
 3533SOL     OW22057   1.522   3.060  13.604  0.1782  0.3068 -0.1588
 3533SOL    HW122058   1.567   3.113  13.537  0.4629 -0.9640 -0.9746
 3533SOL    HW222059   1.595   3.017  13.648 -0.9150 -0.4707  0.8884
 3534SOL     OW22060   3.924   1.679   2.941  0.4817  0.1417 -0.1187
 3534SOL    HW122061   3.859   1.624   2.986  1.6344  1.0085  2.6460
 3534SOL    HW222062   3.999   1.640   2.985 -0.7030 -0.8617  1.0241
 3535SOL     OW22063   4.614   1.322  17.434 -0.0060  0.2631 -0.0303
 3535SOL    HW122064   4.664   1.330  17.353 -3.3465 -1.4288 -2.2430
 3535SOL    HW222065   4.588   1.413  17.441  0.0340  0.1992  0.9247
 3536SOL     OW22066   3.453   1.182   3.191  0.2762 -0.5006  0.5480
 3536SOL    HW122067   3.374   1.234   3.197  0.9736  0.4039  2.0436
 3536SOL    HW222068   3.501   1.244   3.137 -0.5385  1.3720  1.9712
 3537SOL     OW22069   3.816   1.123   5.109  0.8487 -0.3001 -0.0068
 3537SOL    HW122070   3.868   1.088   5.037 -3.3353 -0.3940 -2.9746
 3537SOL    HW222071   3.849   1.213   5.107 -1.4223  0.5050 -1.1410
 3538SOL     OW22072   1.223   2.234   0.219  0.3165 -0.1333 -0.3852
 3538SOL    HW122073   1.163   2.162   0.203  1.3001 -0.5859 -2.0489
 3538SOL    HW222074   1.271   2.186   0.286 -0.9887 -0.6763  0.1567
 3539SOL     OW22075   1.042   3.659  12.306  0.3759 -0.3187  0.3512
 3539SOL    HW122076   1.126   3.671  12.261  1.3464 -1.2144  1.9460
 3539SOL    HW222077   0.989   3.713  12.247  0.0228 -1.4597 -0.3784
 3540SOL     OW22078   0.715   1.919   7.473 -0.5377 -0.1526  0.0862
 3540SOL    HW122079   0.754   1.986   7.416  3.6431 -1.4124  1.4941
 3540SOL    HW222080   0.638   1.897   7.420 -0.2099  0.6533 -0.7194
 3541SOL     OW22081   1.499   1.556  14.988 -0.3888  0.1814  0.0701
 3541SOL    HW122082   1.567   1.513  14.936  0.0290  1.3825 -0.3857
 3541SOL    HW222083   1.486   1.488  15.054 -2.1716  0.7840  0.3426
 3542SOL     OW22084   3.892   4.252   6.093 -0.3672 -0.2922 -0.2220
 3542SOL    HW122085   3.839   4.307   6.151 -0.7566 -1.3713  0.4515
 3542SOL    HW222086   3.840   4.174   6.113 -0.2469 -0.2899  0.0995
 3543SOL     OW22087   0.938   2.196   7.662 -0.0432 -0.0452  0.6385
 3543SOL    HW122088   0.926   2.147   7.744 -1.3649 -0.4291  0.2229
 3543SOL    HW222089   0.846   2.221   7.649  0.1527  0.3568  0.0493
 3544SOL     OW22090   1.287   3.139   3.277  0.1226 -0.3696 -0.2098
 3544SOL    HW122091   1.320   3.084   3.348  0.8057 -1.0399 -1.0434
 3544SOL    HW222092   1.193   3.124   3.286  0.0424 -0.5948 -1.4383
 3545SOL     OW22093   0.667   4.306   4.616 -0.1558 -0.1847  0.3844
 3545SOL    HW122094   0.596   4.257   4.658 -0.7400  0.2596 -0.0776
 3545SOL    HW222095   0.609   4.328   4.543  0.7165  0.9880  0.0452
 3546SOL     OW22096   1.819   0.862   0.692 -0.4817  0.1906  0.2607
 3546SOL    HW122097   1.792   0.947   0.727  0.3963  1.7181 -2.7792
 3546SOL    HW222098   1.872   0.822   0.761 -0.0526  0.4297  0.0643
 3547SOL     OW22099   4.654   1.130   2.355  0.2187  0.6191  0.3116
 3547SOL    HW122100   0.018   1.176   2.360  0.9888 -0.3541 -3.5158
 3547SOL    HW222101   4.601   1.160   2.429 -1.0045  1.5393 -0.9516
 3548SOL     OW22102   4.249   2.673  16.510  0.1056  0.3896  0.2618
 3548SOL    HW122103   4.274   2.765  16.499 -1.8464  0.9408  0.4810
 3548SOL    HW222104   4.310   2.656  16.582 -1.9787 -0.1669  1.9065
 3549SOL     OW22105   4.120   0.953   3.582 -0.4722  0.4852 -0.2394
 3549SOL    HW122106   4.205   0.981   3.617 -0.1991 -2.4426  1.4319
 3549SOL    HW222107   4.100   0.890   3.652 -0.5080  2.8689  1.8793
 3550SOL     OW22108   4.469   3.139   8.926 -0.4130  0.5209  0.0208
 3550SOL    HW122109   4.516   3.222   8.931 -0.2487  0.4976 -1.3307
 3550SOL    HW222110   4.514   3.078   8.985 -2.0506  0.2014  0.9448
 3551SOL     OW22111   0.807   2.521   1.099 -0.2267 -0.0375  0.1735
 3551SOL    HW122112   0.741   2.452   1.094 -2.2238  1.7543  1.7735
 3551SOL    HW222113   0.845   2.520   1.187  0.3983 -1.2992 -0.1092
 3552SOL     OW22114   2.357   4.220   5.472 -0.0215 -0.3124 -0.5790
 3552SOL    HW122115   2.413   4.162   5.522  1.3197  1.4273 -0.0774
 3552SOL    HW222116   2.398   4.207   5.386  1.4993  1.1552 -0.0767
 3553SOL     OW22117   2.224   4.094  12.294  0.4625  0.1718  0.3477
 3553SOL    HW122118   2.171   4.047  12.358 -0.1543  0.3084 -0.0560
 3553SOL    HW222119   2.207   4.029  12.225  2.0838  1.7025 -1.4827
 3554SOL     OW22120   1.289   2.454  10.942  0.3546 -0.5398 -0.3553
 3554SOL    HW122121   1.352   2.458  11.015 -1.8679  3.4116  1.3640
 3554SOL    HW222122   1.224   2.389  10.969  1.8159 -1.5302  0.7908
 3555SOL     OW22123   3.789   0.883  17.530  0.2675 -0.3048 -0.3178
 3555SOL    HW122124   3.729   0.925  17.469 -2.4968 -1.9315  1.2579
 3555SOL    HW222125   3.759   0.792  17.532 -1.9466  0.4050 -1.1138
 3556SOL     OW22126   1.012   1.364   4.769 -0.0718 -0.7674  0.2714
 3556SOL    HW122127   0.945   1.377   4.701  0.2359  2.5200  0.6229
 3556SOL    HW222128   0.972   1.410   4.843 -1.3333  1.6231 -1.9130
 3557SOL     OW22129   1.994   0.666   7.915  0.2249 -0.2801 -0.0372
 3557SOL    HW122130   2.009   0.580   7.876 -0.5867 -1.1836  1.6531
 3557SOL    HW222131   2.073   0.718   7.901  0.4315 -0.9412 -1.2775
 3558SOL     OW22132   3.659   4.565  10.902 -1.1414  0.4351  0.1583
 3558SOL    HW122133   3.601   4.554  10.978  0.6133 -0.6711  1.3304
 3558SOL    HW222134   3.738   4.582  10.952 -1.3137  0.3728  0.4530
 3559SOL     OW22135   1.302   2.417   2.449 -0.3681 -0.6358  0.2328
 3559SOL    HW122136   1.258   2.490   2.492  0.5609  0.2594 -0.3377
 3559SOL    HW222137   1.342   2.380   2.528 -0.2883 -3.2590 -1.0550
 3560SOL     OW22138   3.676   0.232   9.425 -0.1058 -0.4436  0.3018
 3560SOL    HW122139   3.597   0.185   9.452  0.6776 -1.5920  0.5958
 3560SOL    HW222140   3.663   0.320   9.461 -2.7673 -0.1959 -1.1987
 3561SOL     OW22141   4.577   3.585   1.793  0.0401  0.1388 -0.1972
 3561SOL    HW122142   4.560   3.678   1.781 -2.4306 -0.4011 -1.1286
 3561SOL    HW222143   4.538   3.569   1.879  1.6012 -0.7164  0.3541
 3562SOL     OW22144   2.364   4.700   7.036 -0.1728  0.0866  0.1389
 3562SOL    HW122145   2.321   4.623   6.998  1.1646 -0.2606 -0.6572
 3562SOL    HW222146   2.371   4.670   7.127  1.3088 -1.6708 -0.5646
 3563SOL     OW22147   1.782   0.990  14.704 -0.2016 -0.3406  0.5515
 3563SOL    HW122148   1.854   0.974  14.642  1.1634 -0.1232  2.0852
 3563SOL    HW222149   1.704   0.978  14.650 -0.2839  1.4158  0.2785
 3564SOL     OW22150   3.986   1.973   8.947 -0.0447  0.4610  0.1548
 3564SOL    HW122151   4.011   1.967   9.039 -1.2730 -1.0320  0.3741
 3564SOL    HW222152   4.050   2.039   8.917 -0.8138  0.6031 -1.1479
 3565SOL     OW22153   3.521   1.464   6.605 -0.0513  0.0501 -0.0873
 3565SOL    HW122154   3.491   1.373   6.614 -0.8432  0.3581  0.3434
 3565SOL    HW222155   3.553   1.465   6.515 -0.4707  0.0359 -0.2382
 3566SOL     OW22156   2.413   4.125  16.697  0.3278 -0.1525 -0.3953
 3566SOL    HW122157   2.473   4.155  16.629  0.0354  0.1831 -0.5039
 3566SOL    HW222158   2.378   4.044  16.661  0.9276  0.3751 -2.1604
 3567SOL     OW22159   3.004   3.735  15.651  0.1299 -0.2468 -0.0410
 3567SOL    HW122160   2.969   3.653  15.617 -2.8045  1.1324 -0.3120
 3567SOL    HW222161   2.951   3.807  15.617 -1.0745 -1.1662 -0.1063
 3568SOL     OW22162   3.236   2.760   4.278  0.4682 -0.6297  0.2336
 3568SOL    HW122163   3.244   2.722   4.366  0.3071 -2.9099 -0.7544
 3568SOL    HW222164   3.167   2.825   4.291  0.5400 -0.9394  2.1619
 3569SOL     OW22165   1.414   4.415  16.735  0.3353 -0.1544  0.1760
 3569SOL    HW122166   1.397   4.351  16.804 -2.0751  1.4097  1.0349
 3569SOL    HW222167   1.343   4.405  16.672 -0.4428 -1.1578  1.2115
 3570SOL     OW22168   4.361   3.548  10.039 -0.2698  0.1167  0.1833
 3570SOL    HW122169   4.371   3.455  10.058  0.2693  0.0307 -0.5076
 3570SOL    HW222170   4.402   3.581  10.119 -0.0805 -2.2180  1.0306
 3571SOL     OW22171   4.392   0.795   5.128 -0.2158 -0.2259  0.3478
 3571SOL    HW122172   4.484   0.822   5.128  0.2429 -1.7751 -0.2494
 3571SOL    HW222173   4.360   0.835   5.209  2.2006  0.5162  0.9319
 3572SOL     OW22174   4.486   4.183   2.431 -0.2147 -0.3165 -0.0018
 3572SOL    HW122175   4.576   4.155   2.446 -0.0934 -0.1388 -0.3928
 3572SOL    HW222176   4.436   4.141   2.502  1.1196 -1.4024  0.2817
 3573SOL     OW22177   1.878   0.614   3.063 -0.2510 -0.1155  0.0199
 3573SOL    HW122178   1.803   0.592   3.008 -0.5474  0.0152  0.3799
 3573SOL    HW222179   1.952   0.600   3.003  0.3884  3.3522 -0.0047
 3574SOL     OW22180   0.611   2.610  17.101 -0.3730  0.2314 -0.0845
 3574SOL    HW122181   0.678   2.662  17.057  0.3890  0.3990  1.2805
 3574SOL    HW222182   0.581   2.672  17.168 -0.4144  1.7020 -1.4755
 3575SOL     OW22183   0.498   0.288   6.668 -0.4353 -0.3099  0.0320
 3575SOL    HW122184   0.517   0.197   6.692 -1.2389 -1.0200 -2.0060
 3575SOL    HW222185   0.579   0.324   6.632  0.3699 -1.0956  1.0561
 3576SOL     OW22186   2.596   2.024   7.249 -0.3352  0.1665  0.2747
 3576SOL    HW122187   2.525   1.963   7.267  0.1786 -0.1687  1.1495
 3576SOL    HW222188   2.560   2.102   7.291 -2.6326  0.4768 -2.2955
 3577SOL     OW22189   4.514   3.055   2.336 -0.0214 -0.0412  0.0205
 3577SOL    HW122190   4.481   3.056   2.426  0.9696 -0.2595  0.3825
 3577SOL    HW222191   4.521   2.960   2.326  0.1755 -0.0050 -0.1609
 3578SOL     OW22192   0.798   3.536   8.913 -0.2251  0.0570 -0.2430
 3578SOL    HW122193   0.853   3.486   8.854  2.0652  0.2484  1.7043
 3578SOL    HW222194   0.746   3.573   8.842  0.3853  1.2994 -0.0529
 3579SOL     OW22195   0.839   0.256   5.518  0.0690 -0.6755  0.7325
 3579SOL    HW122196   0.850   0.177   5.465  0.0160 -1.0539  1.2938
 3579SOL    HW222197   0.747   0.261   5.543  0.5360  1.1320  2.1006
 3580SOL     OW22198   0.043   2.364  17.329 -0.0848  0.8001 -0.6379
 3580SOL    HW122199   4.701   2.292  17.342  0.5800  0.9192  3.3066
 3580SOL    HW222200   0.122   2.336  17.375  0.0400  0.5178 -1.0229
 3581SOL     OW22201   2.761   3.914  13.725  0.1594 -0.2554  0.6226
 3581SOL    HW122202   2.730   4.005  13.720  0.0785 -0.2437  1.2761
 3581SOL    HW222203   2.734   3.891  13.814 -0.4404 -0.7684  0.3037
 3582SOL     OW22204   4.270   2.921  10.062  0.3741 -0.0350  0.2974
 3582SOL    HW122205   4.232   2.974  10.131 -1.7675 -0.4433 -0.5571
 3582SOL    HW222206   4.356   2.918  10.103  0.9328  1.7799 -0.7218
 3583SOL     OW22207   2.018   0.863  13.451 -0.4883 -0.0425 -0.0063
 3583SOL    HW122208   2.099   0.900  13.416 -0.2570 -2.7169 -2.3290
 3583SOL    HW222209   2.043   0.834  13.539 -1.2010  2.6559  1.0582
 3584SOL     OW22210   2.107   3.594   2.448  0.0326  0.4308  0.3289
 3584SOL    HW122211   2.194   3.562   2.470  0.7533  1.8303 -0.4577
 3584SOL    HW222212   2.084   3.541   2.371  0.1894 -1.6930  1.7671
 3585SOL     OW22213   3.226   0.422   5.061 -0.0611 -0.0701 -0.3448
 3585SOL    HW122214   3.147   0.445   5.109  0.9535  0.8527  0.8755
 3585SOL    HW222215   3.214   0.480   4.985  2.6631 -0.6078 -1.1754
 3586SOL     OW22216   0.318   0.293   7.534  0.0894 -0.2296  0.3219
 3586SOL    HW122217   0.383   0.253   7.592 -1.6244 -2.3191  0.7854
 3586SOL    HW222218   0.359   0.260   7.453  1.0495  0.2751  0.6053
 3587SOL     OW22219   4.527   3.852   7.842  0.0881  0.8063  0.4145
 3587SOL    HW122220   4.599   3.847   7.780 -2.1512  1.6453 -2.2537
 3587SOL    HW222221   4.463   3.833   7.773  0.6647  1.1135 -0.2004
 3588SOL     OW22222   0.137   3.865   3.420  0.3835 -0.2059  0.0877
 3588SOL    HW122223   0.073   3.912   3.367  1.7804 -0.1995 -1.5789
 3588SOL    HW222224   0.084   3.789   3.444  0.9039 -0.1068  1.5217
 3589SOL     OW22225   0.045   3.087   6.210 -0.3058 -0.3629  0.1667
 3589SOL    HW122226   4.678   3.088   6.249  0.0203 -1.8706  0.9297
 3589SOL    HW222227   0.103   3.068   6.283  1.8637 -2.4663 -2.0694
 3590SOL     OW22228   4.000   0.965   9.949  0.4981 -0.3450 -0.1342
 3590SOL    HW122229   4.057   1.039   9.969 -1.5866  1.5408 -1.1159
 3590SOL    HW222230   3.962   0.935  10.032  0.6410  0.6524  0.3015
 3591SOL     OW22231   3.154   3.318   7.772 -0.2471  0.0588  0.3147
 3591SOL    HW122232   3.104   3.330   7.853  1.4700 -0.5588  1.4515
 3591SOL    HW222233   3.185   3.407   7.758 -0.6077  0.1633  0.1795
 3592SOL     OW22234   2.738   3.453   2.924  0.5096 -0.2141  0.1036
 3592SOL    HW122235   2.743   3.472   3.018 -2.2083  0.6889  0.0762
 3592SOL    HW222236   2.659   3.499   2.896  0.0693 -1.0931 -0.0932
 3593SOL     OW22237   0.538   1.686   8.863  0.0269  0.2576  0.2452
 3593SOL    HW122238   0.603   1.756   8.874  1.4414 -0.8858 -0.7722
 3593SOL    HW222239   0.500   1.668   8.949 -0.4532 -1.8811 -0.4191
 3594SOL     OW22240   3.164   1.674   3.874 -0.3632 -0.3959  0.2048
 3594SOL    HW122241   3.221   1.617   3.822 -1.5773 -4.4946  3.4548
 3594SOL    HW222242   3.222   1.743   3.907 -0.4213 -0.4542  0.4259
 3595SOL     OW22243   0.648   2.596   2.929 -0.2930 -0.1035  0.2260
 3595SOL    HW122244   0.662   2.637   3.014  0.2909  0.6927 -0.2475
 3595SOL    HW222245   0.651   2.501   2.940 -1.4011 -0.0725  0.7331
 3596SOL     OW22246   2.096   4.057  16.155 -0.1145 -0.0937  0.1161
 3596SOL    HW122247   2.046   4.068  16.236 -3.2681  1.6809 -2.0431
 3596SOL    HW222248   2.091   4.148  16.125 -2.3799 -0.8243 -1.7580
 3597SOL     OW22249   3.686   1.641   0.160 -0.8768 -0.3091  0.2230
 3597SOL    HW122250   3.702   1.699   0.235  1.7326 -0.7158 -0.0345
 3597SOL    HW222251   3.776   1.637   0.129 -0.5528  2.2233  0.8309
 3598SOL     OW22252   0.109   1.586   0.556 -0.2980  0.1552  0.3957
 3598SOL    HW122253   0.168   1.577   0.481  0.7903  2.3110  1.0037
 3598SOL    HW222254   0.112   1.499   0.597  0.5837  0.2126  0.4532
 3599SOL     OW22255   2.923   1.458   7.238  0.5511  1.4653 -0.1471
 3599SOL    HW122256   2.965   1.423   7.160  2.2789 -1.1698  1.9530
 3599SOL    HW222257   2.848   1.509   7.209 -0.9938 -0.0290  1.2257
 3600SOL     OW22258   4.510   0.345   4.922  0.0150  0.5128 -0.5279
 3600SOL    HW122259   4.558   0.313   4.999  0.3134 -1.1215 -1.3744
 3600SOL    HW222260   4.461   0.421   4.953  0.3085  0.0196  1.1722
 3601SOL     OW22261   0.309   0.979   8.899 -0.3459 -0.2019 -0.1122
 3601SOL    HW122262   0.353   1.014   8.976 -2.2910  0.9524  0.4853
 3601SOL    HW222263   0.272   1.056   8.856  0.3930  0.8271  1.0679
 3602SOL     OW22264   2.838   4.357  11.701 -0.2949 -0.7029  0.1899
 3602SOL    HW122265   2.872   4.441  11.731  0.3662 -0.9511  0.1242
 3602SOL    HW222266   2.747   4.384  11.691 -0.3027 -0.4679  0.8889
 3603SOL     OW22267   1.801   2.851   8.316  0.1997 -0.1008 -0.1558
 3603SOL    HW122268   1.854   2.922   8.280 -0.5436  0.5699  0.0755
 3603SOL    HW222269   1.712   2.885   8.315 -0.2044 -1.2097 -1.6689
 3604SOL     OW22270   3.163   3.543   8.236  0.2083  0.5578  0.2518
 3604SOL    HW122271   3.086   3.520   8.184  0.0453  1.3416  0.1584
 3604SOL    HW222272   3.170   3.456   8.276  0.1374  1.0153  1.2792
 3605SOL     OW22273   1.246   2.998   8.694  0.6510  0.3746 -0.2215
 3605SOL    HW122274   1.250   2.909   8.731 -1.6332  0.1979 -0.3982
 3605SOL    HW222275   1.327   2.997   8.642  0.9144  2.8362  0.1543
 3606SOL     OW22276   2.927   3.472   7.192 -0.4516  0.2762 -0.0931
 3606SOL    HW122277   2.891   3.541   7.248 -0.4725 -0.1470  0.4207
 3606SOL    HW222278   2.882   3.396   7.228 -1.8175  1.2569  0.2714
 3607SOL     OW22279   1.226   2.985  10.528  0.2565  0.0442  0.1775
 3607SOL    HW122280   1.305   2.970  10.476 -0.8085 -1.4095 -1.0131
 3607SOL    HW222281   1.223   3.080  10.527 -2.2083 -0.0439  0.2972
 3608SOL     OW22282   4.221   3.491   2.146  0.0659  0.5321  0.2842
 3608SOL    HW122283   4.137   3.482   2.100  0.5968  0.6736 -0.7275
 3608SOL    HW222284   4.255   3.402   2.134  0.8536  0.7490  0.9969
 3609SOL     OW22285   1.852   1.853   4.572 -0.0717  0.5283 -0.0229
 3609SOL    HW122286   1.781   1.891   4.520  0.7983 -0.6402 -2.0689
 3609SOL    HW222287   1.854   1.767   4.530 -1.7868  1.7080 -2.5677
 3610SOL     OW22288   2.443   0.019   6.203  0.3875  0.0436  0.1408
 3610SOL    HW122289   2.359   4.704   6.176 -0.3977  0.6468  1.8009
 3610SOL    HW222290   2.503   4.668   6.182 -1.7764 -1.4763 -0.8604
 3611SOL     OW22291   0.308   1.341  12.149  0.3638  0.4311  0.2020
 3611SOL    HW122292   0.359   1.380  12.220  1.0939 -0.6409  0.2757
 3611SOL    HW222293   0.374   1.341  12.080  0.7199 -0.4142  0.5402
 3612SOL     OW22294   3.186   2.932   7.983  0.5592 -0.2536 -0.4557
 3612SOL    HW122295   3.280   2.931   7.996  0.8586 -1.6777 -2.6882
 3612SOL    HW222296   3.167   2.863   8.048 -0.8987  1.4700  0.9480
 3613SOL     OW22297   3.661   4.032  11.820  0.4577 -0.0505  0.4991
 3613SOL    HW122298   3.660   4.058  11.912  1.1188  1.9625 -0.0576
 3613SOL    HW222299   3.713   3.952  11.823  0.1775 -0.2768 -0.8758
 3614SOL     OW22300   1.956   1.303   8.908 -0.2030 -0.4389  0.2777
 3614SOL    HW122301   1.984   1.254   8.986 -0.5044  0.1265  0.7412
 3614SOL    HW222302   1.862   1.303   8.924  0.1301  1.9308  2.2480
 3615SOL     OW22303   2.422   1.215   4.946  0.0037  0.7192  0.5442
 3615SOL    HW122304   2.457   1.212   4.857  0.8132  0.6621  0.8672
 3615SOL    HW222305   2.428   1.310   4.955  3.4639  0.5052  0.2501
 3616SOL     OW22306   0.868   4.266   5.100 -0.1018  0.5314 -0.3735
 3616SOL    HW122307   0.936   4.274   5.166  0.6097  0.5118 -1.1079
 3616SOL    HW222308   0.796   4.269   5.163 -0.6782 -2.2221 -0.8694
 3617SOL     OW22309   1.856   3.223   4.427 -0.1624  0.0631  0.3034
 3617SOL    HW122310   1.829   3.308   4.462 -0.0992  0.9289 -1.7436
 3617SOL    HW222311   1.795   3.225   4.353  1.0801  0.3305 -0.7093
 3618SOL     OW22312   0.711   2.540   0.152  0.3619  0.3468 -0.5020
 3618SOL    HW122313   0.630   2.583   0.179 -0.1767  0.5234 -2.3915
 3618SOL    HW222314   0.679   2.459   0.110 -2.6940  1.6520 -0.7390
 3619SOL     OW22315   2.849   1.281   8.071  0.0475  0.0320  0.4334
 3619SOL    HW122316   2.831   1.192   8.101 -0.9207 -0.0129 -0.2990
 3619SOL    HW222317   2.911   1.323   8.131 -0.4213 -0.1606  1.0568
 3620SOL     OW22318   0.935   1.504   6.718 -0.3008  0.0501 -0.4082
 3620SOL    HW122319   0.960   1.437   6.782 -0.6392  0.0899 -0.2348
 3620SOL    HW222320   0.861   1.539   6.768  0.0989  0.5393 -0.1556
 3621SOL     OW22321   3.015   0.806  14.793  0.0382  0.1364  0.1816
 3621SOL    HW122322   2.934   0.765  14.763 -1.6358  2.5909  1.3161
 3621SOL    HW222323   3.084   0.752  14.755  0.4460 -0.9308  2.4412
 3622SOL     OW22324   2.456   1.997  14.148 -0.0870 -0.6171 -0.1881
 3622SOL    HW122325   2.386   2.062  14.139 -0.1280 -0.7153 -0.5461
 3622SOL    HW222326   2.520   2.055  14.191 -1.2930  1.4960 -1.2270
 3623SOL     OW22327   3.406   0.916   2.142 -0.0953 -0.0131 -0.2843
 3623SOL    HW122328   3.498   0.905   2.162  0.1107 -1.9071 -2.2233
 3623SOL    HW222329   3.379   0.984   2.204  0.5536 -1.2141  1.2941
 3624SOL     OW22330   4.058   4.386  13.243  0.0376 -0.0308  0.2702
 3624SOL    HW122331   4.001   4.380  13.166  0.0562  0.9484  0.1790
 3624SOL    HW222332   4.011   4.442  13.305 -0.3572 -0.5120  0.3947
 3625SOL     OW22333   1.813   0.017   3.469  0.2564 -0.0288 -0.5190
 3625SOL    HW122334   1.886   0.080   3.466 -1.2282  1.6434 -1.3696
 3625SOL    HW222335   1.742   0.077   3.492 -0.4905 -0.6698 -1.1786
 3626SOL     OW22336   3.697   3.760  11.191  0.2976  0.1110 -0.0008
 3626SOL    HW122337   3.751   3.691  11.152  1.8866  0.8004  0.9730
 3626SOL    HW222338   3.755   3.834  11.172 -0.1274 -0.0255 -1.9242
 3627SOL     OW22339   4.278   1.058   1.922  0.4168 -0.2188  0.0509
 3627SOL    HW122340   4.221   1.071   1.846 -0.2420 -1.1707  0.3707
 3627SOL    HW222341   4.366   1.041   1.889  0.7982  1.4201  0.2128
 3628SOL     OW22342   4.509   2.641   3.107 -0.4627 -0.3017 -0.0164
 3628SOL    HW122343   4.581   2.696   3.077 -1.4615  1.4644  0.8706
 3628SOL    HW222344   4.449   2.713   3.126 -1.2281 -0.4200 -1.9105
 3629SOL     OW22345   3.391   4.654   2.814 -0.0024  0.2854  0.2682
 3629SOL    HW122346   3.484   4.659   2.836  0.2886 -1.1244 -0.6733
 3629SOL    HW222347   3.387   0.001   2.746 -0.1153  1.2120  1.1847
 3630SOL     OW22348   4.654   2.128   3.639 -0.3021  0.1641 -0.5436
 3630SOL    HW122349   4.650   2.195   3.706  0.4818 -0.2159 -0.1241
 3630SOL    HW222350   0.026   2.105   3.652  0.1077  1.7614 -0.6486
 3631SOL     OW22351   1.063   3.802   5.546 -0.2359 -0.0893  0.6266
 3631SOL    HW122352   1.005   3.826   5.618 -0.0725  0.3756  0.6055
 3631SOL    HW222353   1.137   3.759   5.589 -0.0575 -0.5125 -0.0963
 3632SOL     OW22354   2.976   0.686   9.550 -1.6127 -0.6733 -0.0951
 3632SOL    HW122355   3.059   0.652   9.518 -2.0157 -2.1119  0.3493
 3632SOL    HW222356   2.979   0.773   9.512 -2.9079 -1.6455 -2.4526
 3633SOL     OW22357   0.457   1.886  13.614  0.4557  0.3953  0.0997
 3633SOL    HW122358   0.424   1.873  13.702 -0.3183 -0.7331 -0.3645
 3633SOL    HW222359   0.510   1.807  13.600  0.9126  0.9634 -1.4666
 3634SOL     OW22360   2.069   2.354  15.472  0.1915  0.2256  0.5764
 3634SOL    HW122361   2.083   2.313  15.557 -0.6906 -0.7186  0.2672
 3634SOL    HW222362   2.101   2.440  15.499 -1.2483  0.7417  0.6743
 3635SOL     OW22363   2.763   1.236   6.929 -0.2105 -0.1281 -0.1223
 3635SOL    HW122364   2.829   1.181   6.887 -0.8500 -0.6210 -0.4816
 3635SOL    HW222365   2.810   1.242   7.013 -0.9274 -0.2090  0.2818
 3636SOL     OW22366   2.140   1.539   4.945  0.0097 -0.0420 -0.2987
 3636SOL    HW122367   2.216   1.540   5.003  0.4895  3.3464 -1.0054
 3636SOL    HW222368   2.073   1.583   4.997  0.4362 -0.4155  0.5624
 3637SOL     OW22369   3.306   3.154  14.124 -0.7023 -0.5726  0.6198
 3637SOL    HW122370   3.294   3.216  14.197  1.7542  0.0933  0.4315
 3637SOL    HW222371   3.401   3.147  14.126 -0.6806 -0.9209 -1.4812
 3638SOL     OW22372   1.800   0.507  11.839  0.4278 -0.4501 -0.2578
 3638SOL    HW122373   1.731   0.546  11.785  0.6760  0.4423  0.0852
 3638SOL    HW222374   1.760   0.493  11.925 -2.2151  1.3679 -1.2023
 3639SOL     OW22375   3.254   1.354   3.186  0.0210  0.1497  0.0086
 3639SOL    HW122376   3.207   1.294   3.128 -0.6420  0.5522  0.1228
 3639SOL    HW222377   3.188   1.402   3.237  0.1598  1.2588 -0.8472
 3640SOL     OW22378   1.696   0.282   8.204 -0.4980 -0.5481 -0.2953
 3640SOL    HW122379   1.729   0.318   8.122 -0.0122 -0.4552 -0.0570
 3640SOL    HW222380   1.615   0.238   8.176 -0.7064 -0.2712 -0.1214
 3641SOL     OW22381   4.658   4.514   8.715  0.7146  0.2219 -0.2775
 3641SOL    HW122382   0.029   4.487   8.723  0.4504 -0.3422  0.8088
 3641SOL    HW222383   4.618   4.445   8.662 -1.7108 -0.5938  2.6517
 3642SOL     OW22384   0.179   4.217   3.043  0.0356 -0.2273 -0.2758
 3642SOL    HW122385   0.161   4.296   2.990 -0.7684 -1.1359 -1.3699
 3642SOL    HW222386   0.266   4.200   3.006 -0.2590  0.2702 -1.2156
 3643SOL     OW22387   3.330   3.542   8.527  0.9483 -0.2724 -0.5887
 3643SOL    HW122388   3.289   3.468   8.482  0.9067 -0.2127 -0.6489
 3643SOL    HW222389   3.308   3.521   8.618  3.4167  0.5490  0.2110
 3644SOL     OW22390   1.005   2.271  14.073  0.0623 -0.2865 -0.3600
 3644SOL    HW122391   1.094   2.298  14.051  0.4197 -1.2562 -0.1078
 3644SOL    HW222392   1.009   2.272  14.169  1.6938 -2.2008 -0.3884
 3645SOL     OW22393   2.586   2.621   4.254 -0.4159 -0.0271  0.1956
 3645SOL    HW122394   2.501   2.664   4.243 -0.7790 -1.0000 -0.8029
 3645SOL    HW222395   2.639   2.637   4.176  1.9149 -2.4236  1.2741
 3646SOL     OW22396   1.292   2.009   6.939  0.2280  0.4528 -0.2440
 3646SOL    HW122397   1.329   1.952   7.007 -1.4501  0.3598  0.5883
 3646SOL    HW222398   1.367   2.064   6.919  0.7587  0.3195  1.3733
 3647SOL     OW22399   2.326   1.490   2.655  0.2708  0.6474  0.2175
 3647SOL    HW122400   2.394   1.446   2.605 -0.1468  0.9949 -0.6521
 3647SOL    HW222401   2.370   1.499   2.739  0.1238 -1.2163  0.4863
 3648SOL     OW22402   2.855   0.091  12.398  0.0722 -0.1544 -0.2567
 3648SOL    HW122403   2.916   0.092  12.471 -0.8068 -0.5929  0.4854
 3648SOL    HW222404   2.916   0.112  12.327 -0.2899  2.5905  0.2178
 3649SOL     OW22405   0.826   4.325   7.442  0.0903  0.0319  0.5299
 3649SOL    HW122406   0.815   4.235   7.470 -2.4048  1.0270  2.7599
 3649SOL    HW222407   0.881   4.359   7.514  2.9147 -0.9026 -1.1898
 3650SOL     OW22408   0.798   3.876   4.457 -0.4057  0.1182  0.0690
 3650SOL    HW122409   0.823   3.968   4.451 -1.0357  0.4016  1.8113
 3650SOL    HW222410   0.705   3.895   4.467 -0.4438  0.2607 -0.5938
 3651SOL     OW22411   0.401   3.401   1.804 -0.1734  0.6334 -0.0989
 3651SOL    HW122412   0.343   3.455   1.857 -0.9547  3.2080 -3.5560
 3651SOL    HW222413   0.370   3.426   1.717  0.2002  0.2783 -0.3325
 3652SOL     OW22414   3.347   1.285   1.068  0.5418 -0.5731  0.0322
 3652SOL    HW122415   3.392   1.265   0.985 -1.4615  2.0324 -1.6624
 3652SOL    HW222416   3.409   1.263   1.138 -0.8489  1.3649  1.8327
 3653SOL     OW22417   3.783   2.993  12.645  0.2239 -0.0676  0.6427
 3653SOL    HW122418   3.752   3.060  12.584 -0.0702  0.2267  1.1159
 3653SOL    HW222419   3.873   2.986  12.611  0.1258  1.4767  0.0847
 3654SOL     OW22420   3.601   4.441  11.993  0.1394  0.1170  0.0962
 3654SOL    HW122421   3.685   4.448  11.948  1.4485  2.4233  2.9032
 3654SOL    HW222422   3.586   4.347  12.006 -0.6559  0.3440  0.7578
 3655SOL     OW22423   0.415   2.426   4.049 -0.1953  0.5573  0.0924
 3655SOL    HW122424   0.427   2.494   4.115 -2.1119  0.0579  0.9526
 3655SOL    HW222425   0.386   2.481   3.977 -1.5062 -0.9601 -0.5526
 3656SOL     OW22426   3.523   2.880   7.176 -0.0652  0.3153  0.8499
 3656SOL    HW122427   3.469   2.906   7.251 -0.7527  1.2980  0.0268
 3656SOL    HW222428   3.610   2.867   7.213  0.9886  0.5448 -1.5704
 3657SOL     OW22429   3.157   0.162   9.456 -0.2102  1.0574 -0.2313
 3657SOL    HW122430   3.063   0.153   9.474  0.0928 -0.8972  0.3311
 3657SOL    HW222431   3.193   0.178   9.543  1.7049  0.1095 -0.8695
 3658SOL     OW22432   4.403   0.782   2.768  0.4313  0.7218  0.0078
 3658SOL    HW122433   4.466   0.768   2.839 -0.3034  1.9683  0.9230
 3658SOL    HW222434   4.463   0.830   2.711 -0.6584  2.0027 -0.0722
 3659SOL     OW22435   3.270   1.714   6.900  0.2212 -0.6755  0.1140
 3659SOL    HW122436   3.180   1.731   6.928  0.1256 -0.8137 -0.1134
 3659SOL    HW222437   3.295   1.663   6.977  2.7146  0.5715  0.1261
 3660SOL     OW22438   0.432   4.595   7.632  0.5624  0.2872 -0.2972
 3660SOL    HW122439   0.351   4.553   7.603 -0.9847  2.9949  0.0850
 3660SOL    HW222440   0.464   4.620   7.546 -0.2314  2.6245  0.0869
 3661SOL     OW22441   3.185   3.499   2.119 -1.1072  0.3668  0.5871
 3661SOL    HW122442   3.209   3.408   2.139  1.0133  0.5741 -0.9622
 3661SOL    HW222443   3.180   3.537   2.206 -1.0489 -0.0283  0.7627
 3662SOL     OW22444   3.916   0.954   9.169 -0.2445  0.1427  0.5935
 3662SOL    HW122445   3.983   0.892   9.198  0.4586  0.3923 -0.5018
 3662SOL    HW222446   3.836   0.914   9.201  0.0649 -0.3169  0.7919
 3663SOL     OW22447   0.080   4.161  10.910 -0.1693  0.4487  0.2475
 3663SOL    HW122448   0.012   4.095  10.897  0.4715  0.3181 -2.4752
 3663SOL    HW222449   0.022   4.235  10.931 -0.8106  0.9171 -3.2243
 3664SOL     OW22450   1.182   0.049   9.731  0.7781  0.3874 -0.3732
 3664SOL    HW122451   1.215   0.042   9.641 -3.3195  2.8804 -2.0689
 3664SOL    HW222452   1.164   4.679   9.756  0.1270  0.3729 -0.9098
 3665SOL     OW22453   1.333   2.417   5.695  0.5357  0.2352 -0.0452
 3665SOL    HW122454   1.255   2.364   5.709  1.4133 -0.9776  0.2515
 3665SOL    HW222455   1.299   2.500   5.660  3.2793  0.5316 -1.9760
 3666SOL     OW22456   1.848   3.092   5.370  0.8067  0.4739  0.0624
 3666SOL    HW122457   1.830   3.000   5.354  0.0775  0.2519  2.0555
 3666SOL    HW222458   1.829   3.127   5.283  1.5708 -0.4186 -0.4573
 3667SOL     OW22459   3.012   0.140   7.373  0.1498  0.1892 -0.2996
 3667SOL    HW122460   3.040   0.137   7.464 -0.1551 -2.9975 -0.2989
 3667SOL    HW222461   2.982   0.049   7.368 -1.6074  0.6871  1.4910
 3668SOL     OW22462   1.565   1.990   9.942 -0.1544 -0.7987 -0.5423
 3668SOL    HW122463   1.619   1.913   9.963  2.3378  0.8168 -0.9375
 3668SOL    HW222464   1.544   2.016  10.032  1.4872  1.5256 -0.8507
 3669SOL     OW22465   0.935   2.242   2.092  0.0772 -0.3149 -0.3235
 3669SOL    HW122466   0.990   2.238   2.170  0.2290  0.9555 -0.3730
 3669SOL    HW222467   0.963   2.160   2.051 -1.4107  0.0633 -2.0887
 3670SOL     OW22468   3.597   3.796   6.384 -0.0719  0.2492 -0.5957
 3670SOL    HW122469   3.636   3.869   6.431 -0.1232 -0.1787  0.0992
 3670SOL    HW222470   3.510   3.793   6.423 -0.9794 -3.4428 -2.8517
 3671SOL     OW22471   3.825   0.156   9.955  0.1469  0.3192  0.0367
 3671SOL    HW122472   3.911   0.197   9.960  2.1796 -3.8994 -0.0028
 3671SOL    HW222473   3.793   0.190   9.872 -1.0581 -3.4635 -1.0519
 3672SOL     OW22474   4.451   1.326   1.962  0.0244 -0.6118 -0.0271
 3672SOL    HW122475   4.516   1.261   1.988  0.1366 -0.2995  0.4674
 3672SOL    HW222476   4.371   1.279   1.985 -0.5574  1.5808  2.4784
 3673SOL     OW22477   4.333   1.154  12.347  0.7454  0.1439 -0.3023
 3673SOL    HW122478   4.420   1.170  12.309  0.9464 -0.8964 -0.2701
 3673SOL    HW222479   4.332   1.243  12.383 -0.8673 -1.1539  2.8166
 3674SOL     OW22480   1.243   4.606   2.797  0.0615  0.0512  0.5808
 3674SOL    HW122481   1.315   4.548   2.773 -1.2587 -1.6118  0.5677
 3674SOL    HW222482   1.214   4.617   2.706  0.2838  0.9104  0.6174
 3675SOL     OW22483   4.003   0.058  14.235 -0.4079 -0.1302 -0.0495
 3675SOL    HW122484   4.067   0.062  14.305 -0.7513  0.3263  0.2357
 3675SOL    HW222485   4.018   4.690  14.200 -0.5059 -0.5695  1.0219
 3676SOL     OW22486   0.855   1.253   0.013 -0.7671  0.0039  0.4410
 3676SOL    HW122487   0.786   1.318   0.029 -1.2034 -0.3592  0.0003
 3676SOL    HW222488   0.795   1.191  17.657 -0.1454 -0.2687 -0.0528
 3677SOL     OW22489   4.456   0.298   8.898 -0.0879  0.5368  0.0044
 3677SOL    HW122490   4.399   0.221   8.893  0.9061 -0.2748  1.3084
 3677SOL    HW222491   4.416   0.343   8.823 -0.4997 -2.1133 -1.3941
 3678SOL     OW22492   4.071   2.254  17.181 -0.0012  0.1367  0.1310
 3678SOL    HW122493   4.027   2.170  17.195  0.7335 -0.4526 -1.0669
 3678SOL    HW222494   3.996   2.313  17.192 -1.0453 -0.8287 -1.7773
 3679SOL     OW22495   4.103   2.547   2.405  0.7887  0.3835  0.3945
 3679SOL    HW122496   4.139   2.467   2.444  2.7015  0.6728 -0.7555
 3679SOL    HW222497   4.011   2.546   2.432 -0.0206  0.6123 -2.3388
 3680SOL     OW22498   4.663   0.131   6.865 -0.3412 -0.2348 -0.1584
 3680SOL    HW122499   4.589   0.102   6.917  0.2623  1.7622  1.8328
 3680SOL    HW222500   4.625   0.206   6.820  0.3925 -0.0484 -0.4785
 3681SOL     OW22501   2.601   2.859   1.638  0.5419 -0.0104  0.0681
 3681SOL    HW122502   2.696   2.847   1.640  0.6346  0.8699  1.3219
 3681SOL    HW222503   2.579   2.941   1.594  2.5067 -0.3727 -1.5669
 3682SOL     OW22504   2.491   1.673   6.135 -0.2678  0.2779  0.4167
 3682SOL    HW122505   2.477   1.768   6.132  1.0820  0.5034  1.2582
 3682SOL    HW222506   2.586   1.667   6.127 -0.2406  1.3268 -0.1230
 3683SOL     OW22507   2.781   3.120   4.878  0.2607 -0.1651 -0.4501
 3683SOL    HW122508   2.779   3.177   4.954  1.6699  1.8830 -1.9650
 3683SOL    HW222509   2.874   3.099   4.871  0.4735 -0.8014  4.6248
 3684SOL     OW22510   4.505   1.534   5.259  0.4719  0.2796  0.6228
 3684SOL    HW122511   4.470   1.466   5.202  0.1866  0.6866  0.3152
 3684SOL    HW222512   4.431   1.594   5.266 -0.1576 -0.5798  1.2484
 3685SOL     OW22513   3.850   2.025  16.594  0.3810 -0.2421 -0.1838
 3685SOL    HW122514   3.841   1.976  16.513  2.1395 -2.8863  1.2078
 3685SOL    HW222515   3.846   2.118  16.573 -0.9523  0.2987  2.3952
 3686SOL     OW22516   2.919   1.696   9.233 -0.0267 -0.4871 -0.1285
 3686SOL    HW122517   2.955   1.712   9.146  0.4616 -0.1262  0.1349
 3686SOL    HW222518   2.997   1.656   9.273 -0.1556 -0.0485  0.5661
 3687SOL     OW22519   2.435   2.099   9.050  0.3847 -0.0911 -0.0852
 3687SOL    HW122520   2.431   2.123   8.958  0.8190  0.1371 -0.0464
 3687SOL    HW222521   2.349   2.062   9.067  0.4976 -0.3184 -0.0073
 3688SOL     OW22522   0.390   3.035   9.399 -0.1183 -0.2560 -0.3093
 3688SOL    HW122523   0.351   3.059   9.483  1.6346 -3.1399  1.3179
 3688SOL    HW222524   0.320   2.983   9.361  0.0184 -0.0013 -0.9020
 3689SOL     OW22525   2.026   4.637   0.319  0.0332  0.6351  0.3626
 3689SOL    HW122526   1.931   4.635   0.329  0.0789  0.9049  0.8813
 3689SOL    HW222527   2.035   4.545   0.295 -1.1141  0.9889 -1.3564
 3690SOL     OW22528   2.769   0.613   8.870  0.3347 -0.1495  0.1493
 3690SOL    HW122529   2.839   0.576   8.923 -0.3272  0.3256  1.3664
 3690SOL    HW222530   2.717   0.535   8.850 -0.7497  0.6474 -0.1370
 3691SOL     OW22531   4.030   0.548   1.859  0.5273 -0.1339  0.4805
 3691SOL    HW122532   4.003   0.477   1.800 -0.1655 -0.3833  1.0991
 3691SOL    HW222533   4.112   0.523   1.900  1.0804 -1.2000 -1.2681
 3692SOL     OW22534   0.055   2.655   6.787 -0.5987 -0.3249  0.1324
 3692SOL    HW122535   0.013   2.603   6.718  0.8418 -0.3970 -0.7007
 3692SOL    HW222536   0.125   2.592   6.805  1.0992  1.0275 -1.7110
 3693SOL     OW22537   4.230   0.784   7.726  0.2097  0.1914  0.4421
 3693SOL    HW122538   4.167   0.745   7.665  1.6827 -0.9659 -0.3573
 3693SOL    HW222539   4.293   0.825   7.666  0.6735  0.4627  1.1204
 3694SOL     OW22540   0.227   3.471   8.763 -0.6622 -0.0485  0.1575
 3694SOL    HW122541   0.312   3.469   8.719 -1.0150  0.3416 -0.5466
 3694SOL    HW222542   0.239   3.503   8.852  2.4830  0.4432 -0.4479
 3695SOL     OW22543   0.673   0.573   6.130 -0.0633  0.1660  0.0629
 3695SOL    HW122544   0.732   0.566   6.056  0.2644  0.4167  0.3002
 3695SOL    HW222545   0.590   0.554   6.086 -0.6236 -1.0673  1.6556
 3696SOL     OW22546   2.651   0.983   4.119  0.7857 -0.5819  0.4305
 3696SOL    HW122547   2.627   0.899   4.079  3.8671 -1.0424 -0.4660
 3696SOL    HW222548   2.565   1.018   4.140  0.6349  0.1938 -1.4953
 3697SOL     OW22549   3.694   0.154   1.873  0.2351  0.0518 -0.0837
 3697SOL    HW122550   3.759   0.186   1.935  1.4270 -1.8031 -0.3887
 3697SOL    HW222551   3.686   0.063   1.901  4.8151 -0.0235  1.0178
 3698SOL     OW22552   1.606   3.580   2.472  0.0291  0.2175 -0.4908
 3698SOL    HW122553   1.558   3.529   2.538  1.9034  0.0276  0.7436
 3698SOL    HW222554   1.652   3.507   2.430 -0.6356  0.2807 -1.3150
 3699SOL     OW22555   0.728   4.245   3.873  0.5982 -0.5449  1.0013
 3699SOL    HW122556   0.650   4.191   3.860  1.2070 -0.6003 -2.5125
 3699SOL    HW222557   0.793   4.219   3.807 -0.3906  1.2482 -0.6857
 3700SOL     OW22558   1.054   4.648   7.434  0.5422  0.0960 -0.4295
 3700SOL    HW122559   1.114   0.002   7.437  0.3261  0.2033  1.1103
 3700SOL    HW222560   0.973   4.697   7.449 -0.4166 -1.3726 -0.7978
 3701SOL     OW22561   3.105   2.999   3.530  0.0102 -0.1666 -0.8204
 3701SOL    HW122562   3.032   3.048   3.568  0.3743  0.1513 -0.5241
 3701SOL    HW222563   3.070   2.931   3.472  0.8318 -2.8264  1.8283
 3702SOL     OW22564   2.134   0.416   1.978  0.2867 -0.1684  0.0480
 3702SOL    HW122565   2.114   0.438   1.887  0.4209 -2.8989 -0.6361
 3702SOL    HW222566   2.217   0.372   1.958 -0.0922 -0.1602 -1.5841
 3703SOL     OW22567   4.432   0.647   2.017  0.1429  0.5584  0.0368
 3703SOL    HW122568   4.511   0.690   2.050  1.1414 -1.1657 -0.1151
 3703SOL    HW222569   4.367   0.711   2.047 -0.4185 -0.1854  0.3852
 3704SOL     OW22570   2.558   0.214   3.501 -0.3144 -0.2234 -0.8010
 3704SOL    HW122571   2.572   0.162   3.422  1.8116 -2.8238  1.3429
 3704SOL    HW222572   2.502   0.274   3.452  1.9640  2.4765 -0.0718
 3705SOL     OW22573   2.214   1.528   2.345  0.5715  0.1548  0.1703
 3705SOL    HW122574   2.259   1.501   2.425 -0.0703 -1.1077  0.1015
 3705SOL    HW222575   2.200   1.445   2.299  1.1355 -0.2591  0.7434
 3706SOL     OW22576   2.677   2.811  14.082 -0.3140  0.4781  0.1530
 3706SOL    HW122577   2.688   2.728  14.035 -0.1794 -0.4058  1.7503
 3706SOL    HW222578   2.594   2.795  14.128 -0.7886  1.3510 -0.4015
 3707SOL     OW22579   3.220   2.672   9.226 -0.1132  0.0437  0.5810
 3707SOL    HW122580   3.146   2.613   9.239 -0.2440  0.5973  2.3391
 3707SOL    HW222581   3.274   2.624   9.163  0.0016 -1.7893  2.0912
 3708SOL     OW22582   0.984   2.246   1.433 -0.0200 -0.1999  0.0973
 3708SOL    HW122583   0.987   2.151   1.442 -3.4028  0.0546  3.6746
 3708SOL    HW222584   0.986   2.274   1.524  1.3086  0.3650 -0.1010
 3709SOL     OW22585   0.223   3.624   5.587 -0.4023  0.2270  0.2522
 3709SOL    HW122586   0.243   3.533   5.566 -3.7290 -0.7648  1.5554
 3709SOL    HW222587   0.260   3.629   5.675 -1.6448 -2.3489  0.9160
 3710SOL     OW22588   2.135   2.992   7.029 -0.1857  0.6759 -0.4689
 3710SOL    HW122589   2.223   3.016   6.999 -0.4008 -0.4247 -1.9251
 3710SOL    HW222590   2.152   2.902   7.056 -0.3568  0.4382 -1.1644
 3711SOL     OW22591   3.009   4.068   2.306  0.3158  0.3097  0.5160
 3711SOL    HW122592   2.985   3.980   2.336 -1.6086  1.4187  2.2752
 3711SOL    HW222593   2.934   4.122   2.329  0.1197  0.0010  0.6013
 3712SOL     OW22594   0.801   2.426   5.146 -0.3794  0.3603 -0.3565
 3712SOL    HW122595   0.823   2.365   5.216 -1.5737 -0.8471 -1.0532
 3712SOL    HW222596   0.708   2.437   5.164 -0.9009 -1.7943 -1.7937
 3713SOL     OW22597   3.514   0.622   7.338 -0.4791 -0.8755  0.4912
 3713SOL    HW122598   3.446   0.571   7.296 -2.5264  1.3972  1.0050
 3713SOL    HW222599   3.544   0.554   7.398 -1.4322 -2.2933 -0.6577
 3714SOL     OW22600   1.645   3.150   1.942  0.1370 -0.5130 -0.4288
 3714SOL    HW122601   1.731   3.134   1.980  1.0210  0.5173 -2.0140
 3714SOL    HW222602   1.657   3.244   1.929 -2.5382 -0.3514 -1.8643
 3715SOL     OW22603   3.670   1.619  15.865 -0.1469 -0.8471  0.0640
 3715SOL    HW122604   3.681   1.680  15.791  0.9849 -1.6153 -0.3948
 3715SOL    HW222605   3.712   1.672  15.932 -0.8156 -0.3356  0.0798
 3716SOL     OW22606   3.198   0.336   3.448 -0.5839  0.1730 -0.1730
 3716SOL    HW122607   3.161   0.386   3.521 -0.8860  1.5590 -1.3012
 3716SOL    HW222608   3.164   0.250   3.473  1.1701 -1.2848 -2.7508
 3717SOL     OW22609   2.185   1.010   5.177  0.4487 -0.2669  0.2589
 3717SOL    HW122610   2.093   0.982   5.181  0.6391 -0.9694 -0.3116
 3717SOL    HW222611   2.218   0.933   5.131  0.8182  0.6454 -1.0004
 3718SOL     OW22612   2.227   0.805  11.710  0.0052 -0.3885 -0.4183
 3718SOL    HW122613   2.143   0.763  11.693 -1.0626  1.5272  0.2118
 3718SOL    HW222614   2.279   0.775  11.635 -1.1934 -1.1136 -0.9538
 3719SOL     OW22615   3.920   1.769   4.632 -0.2971 -0.0296 -0.6357
 3719SOL    HW122616   3.944   1.719   4.554 -1.0703  0.8066 -1.4029
 3719SOL    HW222617   3.892   1.852   4.595 -1.2047 -1.6497 -3.5760
 3720SOL     OW22618   4.679   0.810   2.084 -0.0494 -0.1729 -0.1068
 3720SOL    HW122619   4.630   0.877   2.130 -1.2131 -1.7773  0.9949
 3720SOL    HW222620   0.040   0.855   2.060  1.7202 -1.2947  3.7839
 3721SOL     OW22621   3.258   2.328  16.323 -0.1908 -0.1987 -0.2438
 3721SOL    HW122622   3.258   2.232  16.324  2.4959 -0.1764  0.9440
 3721SOL    HW222623   3.169   2.335  16.289 -0.8459  1.8537  1.8885
 3722SOL     OW22624   1.428   1.411   8.252  0.0352  0.0856 -0.0195
 3722SOL    HW122625   1.398   1.458   8.173  1.6122  0.2776 -0.5019
 3722SOL    HW222626   1.352   1.428   8.308  1.5476 -0.1608  2.0764
 3723SOL     OW22627   0.491   1.752   1.260  0.1135  0.4195 -0.0781
 3723SOL    HW122628   0.437   1.692   1.208 -0.7579 -0.5462  1.9291
 3723SOL    HW222629   0.506   1.695   1.336 -2.0741 -2.6091 -1.9074
 3724SOL     OW22630   0.124   1.184   6.731 -0.5842 -0.2098  0.7905
 3724SOL    HW122631   0.095   1.097   6.758  1.0653 -0.0574  3.0099
 3724SOL    HW222632   0.211   1.179   6.771  0.4654  4.3154 -0.8261
 3725SOL     OW22633   3.206   2.625  17.617 -0.1738 -0.5138  0.4761
 3725SOL    HW122634   3.132   2.681  17.640  0.4312  1.1883 -1.6665
 3725SOL    HW222635   3.236   2.608   0.023 -0.4856 -3.2341  0.0430
 3726SOL     OW22636   2.731   1.622   7.534 -0.5670  0.6404  0.7400
 3726SOL    HW122637   2.806   1.655   7.584  0.3111 -0.1620 -0.0527
 3726SOL    HW222638   2.677   1.592   7.607 -1.3138  1.7863  0.6560
 3727SOL     OW22639   3.923   0.497   9.110 -0.2039 -0.3465  0.6001
 3727SOL    HW122640   3.881   0.554   9.046 -1.3642 -1.6848  0.1482
 3727SOL    HW222641   4.014   0.514   9.085 -1.3190 -0.1448 -3.3770
 3728SOL     OW22642   4.409   3.909   6.451 -0.3258  0.0363 -0.0825
 3728SOL    HW122643   4.378   3.995   6.422  1.6012  1.3603  1.7302
 3728SOL    HW222644   4.399   3.920   6.545  2.7917  1.8452  0.0523
 3729SOL     OW22645   0.820   0.625   8.218  0.1261  0.4047 -0.0060
 3729SOL    HW122646   0.747   0.616   8.157 -0.3765  1.0693  0.4969
 3729SOL    HW222647   0.890   0.619   8.152 -0.4002 -1.2260 -0.4138
 3730SOL     OW22648   1.479   3.476   8.578 -0.2392 -0.0255 -0.2875
 3730SOL    HW122649   1.403   3.534   8.581  0.0783  0.3703  0.0839
 3730SOL    HW222650   1.529   3.497   8.657  0.3364 -2.7200  0.0616
 3731SOL     OW22651   3.049   1.154   5.241 -0.4255 -0.3431 -0.3225
 3731SOL    HW122652   3.069   1.066   5.210  1.2599 -1.1134  2.8875
 3731SOL    HW222653   2.968   1.166   5.191 -0.7192  0.1801  0.2669
 3732SOL     OW22654   4.713   2.390   9.384  0.8362  0.1983  0.2216
 3732SOL    HW122655   0.027   2.352   9.465  0.1559 -2.1996 -0.6334
 3732SOL    HW222656   4.664   2.315   9.354  1.0910  0.0029  0.2938
 3733SOL     OW22657   0.761   2.752   3.647  0.2155 -0.4198  0.3292
 3733SOL    HW122658   0.730   2.757   3.738  2.5306 -0.9208  1.1577
 3733SOL    HW222659   0.730   2.669   3.612 -1.6236  0.4323 -0.0509
 3734SOL     OW22660   0.581   4.647   5.054 -0.1692  0.2786  0.4875
 3734SOL    HW122661   0.575   4.596   5.135  0.3630 -0.6056 -0.0266
 3734SOL    HW222662   0.488   4.655   5.036  0.1540 -0.5644 -1.5489
 3735SOL     OW22663   2.555   1.257  17.105 -0.7568  0.0682  0.8013
 3735SOL    HW122664   2.525   1.273  17.016  0.6817  1.7597  0.6036
 3735SOL    HW222665   2.511   1.179  17.138  1.7440 -0.5689  2.6015
 3736SOL     OW22666   3.656   2.113   7.415  0.6818 -0.1986 -0.1850
 3736SOL    HW122667   3.725   2.054   7.384  0.2678  0.5299 -2.4467
 3736SOL    HW222668   3.693   2.133   7.501  0.6144 -2.1989  0.3067
 3737SOL     OW22669   3.143   2.084   0.333  0.4062  0.2082 -0.0145
 3737SOL    HW122670   3.165   2.095   0.426 -0.5158 -0.3958  0.2751
 3737SOL    HW222671   3.144   1.989   0.327 -1.2417  0.1034  1.0904
 3738SOL     OW22672   3.704   4.182   9.304 -0.6476  0.5754 -0.3507
 3738SOL    HW122673   3.777   4.201   9.245 -0.3486 -1.0538 -0.4891
 3738SOL    HW222674   3.729   4.250   9.367  2.9965 -0.4707 -0.6282
 3739SOL     OW22675   1.733   4.026  14.205  0.1160 -0.0652  0.1931
 3739SOL    HW122676   1.715   3.934  14.224  1.9145 -0.2185  1.1005
 3739SOL    HW222677   1.696   4.033  14.116  0.4768 -1.7310 -0.0923
 3740SOL     OW22678   0.545   1.835  16.328 -0.6412 -0.1212 -0.1304
 3740SOL    HW122679   0.518   1.834  16.236 -1.9755 -0.0763  0.2503
 3740SOL    HW222680   0.550   1.929  16.341  0.0905 -0.2094  0.2624
 3741SOL     OW22681   1.867   3.963   4.893  0.2387 -0.2922 -0.7100
 3741SOL    HW122682   1.788   4.018   4.889  0.6111  0.3610  0.8852
 3741SOL    HW222683   1.943   4.021   4.892  0.3766 -0.4993 -2.1565
 3742SOL     OW22684   0.803   3.390  16.002  0.3443 -0.0854  0.3447
 3742SOL    HW122685   0.850   3.393  16.086 -0.4704 -0.9337  0.8194
 3742SOL    HW222686   0.759   3.306  16.010 -0.3789  0.1293 -1.4213
 3743SOL     OW22687   4.003   3.883  15.818 -0.0073  0.6998 -0.1080
 3743SOL    HW122688   3.914   3.906  15.790  0.4250  1.0614 -1.1578
 3743SOL    HW222689   4.018   3.941  15.893 -1.8460  1.5255 -0.3817
 3744SOL     OW22690   4.120   1.194  11.992  0.8069  0.3670 -0.2923
 3744SOL    HW122691   4.029   1.213  12.016  1.2941  2.3243 -0.0219
 3744SOL    HW222692   4.115   1.169  11.900  2.1608 -0.2357 -0.1992
 3745SOL     OW22693   4.204   1.702   8.863 -0.2150 -0.5550  0.2443
 3745SOL    HW122694   4.299   1.697   8.853 -0.2171 -0.4829  0.1926
 3745SOL    HW222695   4.187   1.627   8.920  0.8748 -0.0868  1.1876
 3746SOL     OW22696   4.471   4.501   3.928 -0.6074  0.1148 -0.0624
 3746SOL    HW122697   4.469   4.451   4.009  2.1722 -2.1274 -1.3911
 3746SOL    HW222698   4.479   4.429   3.866  1.0030  0.5370 -0.3539
 3747SOL     OW22699   3.961   2.146  15.407 -0.3647 -0.1864 -0.2565
 3747SOL    HW122700   3.908   2.195  15.469  0.5463 -0.3042  0.6177
 3747SOL    HW222701   4.037   2.202  15.392  0.0777 -0.7507 -0.1475
 3748SOL     OW22702   4.480   3.235   5.424  0.1473 -0.2757 -0.4112
 3748SOL    HW122703   4.565   3.273   5.447 -0.1821 -2.0022  3.5567
 3748SOL    HW222704   4.458   3.297   5.355  0.1964  2.1222  1.7098
 3749SOL     OW22705   1.851   0.751  10.018 -0.7124 -0.5578  0.2105
 3749SOL    HW122706   1.872   0.831  10.067 -1.8089 -0.7495  0.9974
 3749SOL    HW222707   1.755   0.747  10.026 -0.5917  0.7134  2.2175
 3750SOL     OW22708   3.303   2.871   7.037  0.4012 -0.3039  0.3486
 3750SOL    HW122709   3.391   2.862   7.075  0.1729 -0.2323  0.8913
 3750SOL    HW222710   3.272   2.781   7.032 -2.0606  0.6879 -2.1224
 3751SOL     OW22711   4.120   2.357  15.312 -0.5293 -0.6021 -0.0071
 3751SOL    HW122712   4.160   2.341  15.226 -0.6892  0.5670 -0.3070
 3751SOL    HW222713   4.072   2.436  15.289 -0.4235  0.2042  2.5124
 3752SOL     OW22714   3.270   0.660   5.850 -0.0608 -0.0898 -0.1924
 3752SOL    HW122715   3.310   0.596   5.790 -0.6792 -0.1503 -0.5373
 3752SOL    HW222716   3.180   0.663   5.817  1.0176 -0.1974 -3.1438
 3753SOL     OW22717   0.890   2.123   2.423 -0.4511 -0.2940 -0.3476
 3753SOL    HW122718   0.941   2.183   2.369  0.0360 -0.8472 -0.5049
 3753SOL    HW222719   0.934   2.138   2.506  0.1101 -1.1632 -0.4870
 3754SOL     OW22720   4.439   1.460   3.006  0.2718 -0.0688 -0.2119
 3754SOL    HW122721   4.383   1.526   3.047 -2.0180 -1.0832 -1.7471
 3754SOL    HW222722   4.524   1.497   3.030 -0.3831 -0.1393  2.2363
 3755SOL     OW22723   3.448   3.298   6.046  0.1670  0.1127  0.1971
 3755SOL    HW122724   3.435   3.273   6.138 -0.1526  0.4395  0.2394
 3755SOL    HW222725   3.540   3.316   6.028  0.5422 -2.0130 -0.0738
 3756SOL     OW22726   0.547   3.599   6.378 -0.4278 -0.5602 -0.4148
 3756SOL    HW122727   0.600   3.632   6.305 -1.9070 -0.6321 -1.5220
 3756SOL    HW222728   0.461   3.595   6.336 -0.9237 -0.8512  0.6331
 3757SOL     OW22729   1.048   1.421  11.151  0.3676 -0.2552  0.0030
 3757SOL    HW122730   1.041   1.478  11.075  0.5126  1.2053  1.0696
 3757SOL    HW222731   1.129   1.463  11.180  0.2102 -1.0231  1.6031
 3758SOL     OW22732   2.181   4.095   2.573 -0.5380  0.0522  0.1961
 3758SOL    HW122733   2.224   4.058   2.650 -0.4716  0.0273  0.1471
 3758SOL    HW222734   2.129   4.168   2.607  0.1039  0.4372  0.3524
 3759SOL     OW22735   2.219   2.931   6.059 -0.5826 -0.2329 -0.2125
 3759SOL    HW122736   2.212   2.886   6.142  0.4262  1.5764  0.8554
 3759SOL    HW222737   2.313   2.927   6.043 -0.8178 -1.7231 -1.1918
 3760SOL     OW22738   1.232   0.265   4.724  0.2768 -0.2136  0.3036
 3760SOL    HW122739   1.325   0.288   4.728 -0.5978  3.4283 -0.9287
 3760SOL    HW222740   1.201   0.310   4.802  4.0865 -0.4082  1.9574
 3761SOL     OW22741   0.263   3.531   2.838 -0.5121 -0.6437  1.3189
 3761SOL    HW122742   0.190   3.479   2.804  0.2653 -0.2379 -0.9888
 3761SOL    HW222743   0.293   3.576   2.759 -1.8986 -1.4978  0.3025
 3762SOL     OW22744   4.355   3.303   9.877 -0.2817 -0.6631 -0.0171
 3762SOL    HW122745   4.405   3.370   9.830  0.8939  0.1382  2.3193
 3762SOL    HW222746   4.409   3.299   9.956 -0.4318 -0.1986  0.1121
 3763SOL     OW22747   2.907   2.859   5.081 -0.2609 -0.4804 -0.0329
 3763SOL    HW122748   2.919   2.951   5.104  1.2213 -0.5898 -0.3571
 3763SOL    HW222749   2.999   2.831   5.080 -0.2229 -0.3391 -1.2448
 3764SOL     OW22750   0.273   1.153  10.361  0.4464 -0.0085  0.4505
 3764SOL    HW122751   0.281   1.095  10.286  0.8340 -0.6485  0.9922
 3764SOL    HW222752   0.262   1.240  10.321 -0.9390 -0.4237 -0.0652
 3765SOL     OW22753   2.063   0.586   2.855  0.2167 -0.1437 -0.4667
 3765SOL    HW122754   2.066   0.657   2.791  3.0057  0.3485  0.1733
 3765SOL    HW222755   2.022   0.517   2.804  1.6188 -0.7316 -0.8004
 3766SOL     OW22756   2.431   2.635   0.729 -0.1881  0.1128  0.2561
 3766SOL    HW122757   2.392   2.723   0.722 -3.4412 -1.4499 -0.9927
 3766SOL    HW222758   2.500   2.652   0.794 -1.1935 -1.0674  1.6246
 3767SOL     OW22759   0.066   0.153   7.467  0.5179 -0.4344  0.5308
 3767SOL    HW122760   0.130   0.090   7.434 -0.6195 -1.0490 -0.5337
 3767SOL    HW222761   0.126   0.222   7.496 -0.6268  0.3219  1.1128
 3768SOL     OW22762   1.763   2.544   7.629  0.2195  0.1817  0.1933
 3768SOL    HW122763   1.721   2.569   7.546  0.8777 -0.7289 -0.4023
 3768SOL    HW222764   1.851   2.517   7.602 -0.0306 -0.0357 -0.4216
 3769SOL     OW22765   2.918   1.588   4.392 -0.0225 -0.1943 -0.3367
 3769SOL    HW122766   2.882   1.613   4.307 -0.8476 -0.3381 -0.0328
 3769SOL    HW222767   3.011   1.609   4.382 -0.3952  1.3450 -0.6174
 3770SOL     OW22768   1.298   2.912   3.440  0.0621 -0.3843  0.7882
 3770SOL    HW122769   1.311   2.868   3.356 -1.2027 -0.8805  0.8487
 3770SOL    HW222770   1.203   2.899   3.444 -0.2372  1.3566 -0.5325
 3771SOL     OW22771   1.919   1.850  17.507 -0.0231  0.1072  0.0955
 3771SOL    HW122772   1.957   1.938  17.504  0.6397 -0.1459  1.2860
 3771SOL    HW222773   1.845   1.870  17.565 -2.4795 -2.2077 -2.2078
 3772SOL     OW22774   3.585   2.595   4.812 -0.1789 -1.1078  0.5016
 3772SOL    HW122775   3.662   2.593   4.755  0.2885 -0.9898  1.1180
 3772SOL    HW222776   3.513   2.618   4.753  0.2356 -1.2412 -0.0568
 3773SOL     OW22777   2.506   1.800   5.830  0.2805  0.0559 -0.1400
 3773SOL    HW122778   2.576   1.775   5.890  1.3014  0.1552 -1.3117
 3773SOL    HW222779   2.539   1.888   5.814  2.2501 -0.5406  0.6650
 3774SOL     OW22780   2.425   0.475  15.802 -0.8204 -0.5383 -0.5297
 3774SOL    HW122781   2.468   0.533  15.740 -1.5962 -0.3322 -0.8792
 3774SOL    HW222782   2.401   0.398  15.751  0.0290 -0.4676 -1.0293
 3775SOL     OW22783   4.055   0.919  12.968  0.4881 -0.4589 -0.3107
 3775SOL    HW122784   4.061   1.003  12.922 -2.2075  0.5090  1.1267
 3775SOL    HW222785   4.044   0.853  12.899 -2.2475  0.9236 -1.1825
 3776SOL     OW22786   1.224   2.711   3.729 -0.5944  0.5979  0.7870
 3776SOL    HW122787   1.282   2.647   3.687 -0.9877  0.9280 -0.2516
 3776SOL    HW222788   1.144   2.660   3.726  0.3204 -0.8989  1.7366
 3777SOL     OW22789   3.080   3.802   8.330  0.1221 -0.0344 -0.3348
 3777SOL    HW122790   2.991   3.774   8.309  1.0734 -3.3708  0.2270
 3777SOL    HW222791   3.123   3.719   8.312  1.4688  0.4779  0.5407
 3778SOL     OW22792   1.585   0.117   5.709 -0.0640  0.2653 -0.6639
 3778SOL    HW122793   1.539   0.068   5.778  0.6971 -0.2458 -0.5167
 3778SOL    HW222794   1.574   0.205   5.743  2.3067  0.1040  0.5619
 3779SOL     OW22795   2.611   1.508   5.784  0.1469  0.2265 -0.3217
 3779SOL    HW122796   2.659   1.588   5.809  2.0107 -0.6587 -1.0913
 3779SOL    HW222797   2.665   1.475   5.713  0.5409 -0.7075  0.4175
 3780SOL     OW22798   1.851   2.892   2.698 -0.2220  0.0739  0.3540
 3780SOL    HW122799   1.880   2.897   2.789 -1.7902  1.1504  0.7915
 3780SOL    HW222800   1.813   2.804   2.702  1.1944 -0.4590  2.0925
 3781SOL     OW22801   2.703   0.554   0.749 -0.3161  0.7062 -0.3519
 3781SOL    HW122802   2.657   0.569   0.832  0.0976 -0.0364  0.0143
 3781SOL    HW222803   2.706   0.644   0.718  0.8425  0.8095  0.0474
 3782SOL     OW22804   3.155   3.180   8.727 -0.3878  0.0308  0.4566
 3782SOL    HW122805   3.085   3.127   8.689 -0.0386  0.3909 -0.6621
 3782SOL    HW222806   3.122   3.179   8.818 -2.0529  3.1571 -0.1243
 3783SOL     OW22807   3.902   0.348  13.501 -0.4222  0.1422  0.2322
 3783SOL    HW122808   3.907   0.429  13.552 -2.2322  0.0446  0.5610
 3783SOL    HW222809   3.996   0.329  13.500  0.1063  2.7977 -1.5692
 3784SOL     OW22810   2.327   0.741  12.406  0.4004  0.2416 -0.5705
 3784SOL    HW122811   2.343   0.835  12.406  2.4281 -0.1118  1.5933
 3784SOL    HW222812   2.281   0.740  12.490 -0.4548 -1.3378 -1.0536
 3785SOL     OW22813   0.092   2.368   4.893  0.1074 -0.1231 -0.2190
 3785SOL    HW122814   0.168   2.417   4.923 -0.9878  1.8574 -0.7258
 3785SOL    HW222815   0.108   2.374   4.799  2.0754 -2.2027 -0.0246
 3786SOL     OW22816   0.441   2.523   2.675 -0.8849  0.6100 -0.0173
 3786SOL    HW122817   0.499   2.452   2.648 -1.3259  0.8056 -1.5211
 3786SOL    HW222818   0.421   2.568   2.593 -0.6271 -0.1786 -0.5155
 3787SOL     OW22819   4.165   4.521   1.773 -0.2287 -0.0218  0.1691
 3787SOL    HW122820   4.124   4.607   1.759 -0.5866 -0.0814  0.8795
 3787SOL    HW222821   4.254   4.553   1.785  0.2118 -2.1737  2.7360
 3788SOL     OW22822   4.579   4.602   5.285  0.3773 -0.2117 -0.2778
 3788SOL    HW122823   4.501   4.567   5.241  2.3124 -1.1056 -2.9791
 3788SOL    HW222824   4.540   4.635   5.366 -0.0665  2.2842 -1.5182
 3789SOL     OW22825   4.090   3.285   1.491 -0.0493  0.1804 -0.1842
 3789SOL    HW122826   4.139   3.337   1.554  0.8357  2.1892 -2.5396
 3789SOL    HW222827   4.143   3.297   1.412  1.6154  0.6653  1.0226
 3790SOL     OW22828   4.203   3.112   1.873 -0.1080 -0.0140 -0.5419
 3790SOL    HW122829   4.127   3.154   1.833  0.6266  0.9253 -0.9310
 3790SOL    HW222830   4.173   3.077   1.957  0.5312 -2.0644 -1.1617
 3791SOL     OW22831   3.281   3.224   1.072 -0.0430 -0.4609 -0.6282
 3791SOL    HW122832   3.372   3.237   1.046 -0.4781  1.0349 -1.4365
 3791SOL    HW222833   3.241   3.300   1.029  1.7621  0.7779 -0.1342
 3792SOL     OW22834   2.134   2.825   7.692 -0.6072 -0.4267  0.2249
 3792SOL    HW122835   2.170   2.843   7.605  0.2540 -2.7968  0.0993
 3792SOL    HW222836   2.188   2.891   7.735  0.8905 -2.8765  2.1373
 3793SOL     OW22837   4.376   2.019   6.658  0.4299 -0.5110  0.0254
 3793SOL    HW122838   4.412   1.996   6.573  0.8239 -0.5084  0.1942
 3793SOL    HW222839   4.283   2.000   6.641  0.8996 -1.9217 -0.9593
 3794SOL     OW22840   2.611   3.952  15.685  0.2804  0.0475  0.6762
 3794SOL    HW122841   2.699   3.929  15.656 -0.0258 -1.6820  1.1695
 3794SOL    HW222842   2.635   4.045  15.690  1.1179 -0.0185 -2.1626
 3795SOL     OW22843   1.326   2.549  10.266  0.1235 -0.0577 -0.0729
 3795SOL    HW122844   1.328   2.638  10.232  0.5396  0.7785  2.1408
 3795SOL    HW222845   1.283   2.567  10.350  2.3481  0.0568  1.0372
 3796SOL     OW22846   4.057   0.302   1.048 -0.4777 -0.2579  0.2232
 3796SOL    HW122847   4.005   0.222   1.051 -0.1244 -0.4802  0.4226
 3796SOL    HW222848   3.992   0.369   1.027 -0.5988 -1.2406 -2.5940
 3797SOL     OW22849   2.902   1.276  10.636 -0.0654  0.1201  0.3473
 3797SOL    HW122850   2.969   1.225  10.591 -0.6738  1.0062 -1.5239
 3797SOL    HW222851   2.919   1.242  10.724  0.4700  0.3680  0.3408
 3798SOL     OW22852   1.115   4.320   6.926 -0.5252 -0.4373  0.3094
 3798SOL    HW122853   1.038   4.267   6.944 -0.9561  0.2145  0.3886
 3798SOL    HW222854   1.089   4.408   6.954 -2.5689 -1.1946  0.7791
 3799SOL     OW22855   1.999   1.471   4.736 -0.6047  0.2544  0.4696
 3799SOL    HW122856   2.040   1.547   4.693 -1.4483 -0.4392 -1.5648
 3799SOL    HW222857   2.064   1.467   4.806  2.2589  2.3004 -1.9871
 3800SOL     OW22858   0.371   3.621  10.568  0.4708  0.4201  0.2356
 3800SOL    HW122859   0.408   3.534  10.552  0.0037 -0.1558  2.2723
 3800SOL    HW222860   0.444   3.680  10.589  0.4784  1.4829 -2.8883
 3801SOL     OW22861   3.824   2.148   8.516  0.5591  0.3624  0.1039
 3801SOL    HW122862   3.766   2.144   8.592  0.4407 -0.1721 -0.0093
 3801SOL    HW222863   3.777   2.218   8.470 -0.3682 -1.2854 -1.4661
 3802SOL     OW22864   4.714   2.429   4.281 -0.1701  0.7468 -0.4419
 3802SOL    HW122865   0.056   2.373   4.327 -1.2147 -1.0074 -1.1582
 3802SOL    HW222866   4.633   2.377   4.283  0.7230 -0.6236  0.3793
 3803SOL     OW22867   2.740   2.391   9.276 -0.0073 -0.4904 -0.4467
 3803SOL    HW122868   2.646   2.377   9.276 -0.0469 -0.2260 -0.2927
 3803SOL    HW222869   2.763   2.299   9.290 -0.5369 -0.2553  2.0677
 3804SOL     OW22870   2.015   4.554   2.027 -0.5797 -0.1147  0.9063
 3804SOL    HW122871   1.943   4.563   1.965  0.8975  2.7936 -0.4076
 3804SOL    HW222872   2.016   4.458   2.030 -2.8001 -0.1817 -0.9989
 3805SOL     OW22873   2.746   1.699   0.404 -0.3355  0.5018  0.1787
 3805SOL    HW122874   2.774   1.728   0.317  1.7551  0.6175  0.9115
 3805SOL    HW222875   2.831   1.668   0.432 -0.1360  0.8445 -0.0419
 3806SOL     OW22876   1.238   1.574   9.255  0.5896  0.0252  0.5351
 3806SOL    HW122877   1.231   1.583   9.350 -2.4768  1.2861  0.1823
 3806SOL    HW222878   1.192   1.656   9.234 -1.4340 -1.1992  0.2644
 3807SOL     OW22879   1.772   2.362   3.401 -0.1983  0.2667  0.7303
 3807SOL    HW122880   1.842   2.302   3.374 -0.0177  0.9219 -0.2856
 3807SOL    HW222881   1.743   2.385   3.313  2.1911 -2.4944 -0.8042
 3808SOL     OW22882   4.297   4.128   6.746  0.1472 -0.4203 -0.5024
 3808SOL    HW122883   4.366   4.126   6.813  1.2271  0.3833 -1.5780
 3808SOL    HW222884   4.275   4.037   6.729  1.2036 -0.6660 -0.6025
 3809SOL     OW22885   1.696   3.411   1.890 -0.4142  0.5925  0.0674
 3809SOL    HW122886   1.700   3.450   1.977  1.2959 -0.3196  0.3867
 3809SOL    HW222887   1.742   3.479   1.839  2.1867 -1.5674 -0.4771
 3810SOL     OW22888   1.198   3.919  16.088 -0.0456  0.2505 -0.4185
 3810SOL    HW122889   1.256   3.847  16.064 -1.0341 -0.1347 -1.6330
 3810SOL    HW222890   1.122   3.883  16.043 -1.4799  0.6661  1.6351
 3811SOL     OW22891   0.030   3.266   0.364 -0.1338  0.8337 -0.8139
 3811SOL    HW122892   0.037   3.249   0.458  0.3570 -1.1022 -1.2096
 3811SOL    HW222893   4.659   3.293   0.356 -0.0819  1.3090  0.1815
 3812SOL     OW22894   1.934   0.754   1.263 -0.5617 -0.0373 -0.2969
 3812SOL    HW122895   1.845   0.763   1.296 -0.7458  2.1985 -1.4632
 3812SOL    HW222896   1.947   0.848   1.271 -1.3666  0.1578 -1.4726
 3813SOL     OW22897   1.602   3.833   0.617  0.5365 -1.3960 -0.0040
 3813SOL    HW122898   1.616   3.856   0.709 -0.9749 -1.5704  0.2676
 3813SOL    HW222899   1.682   3.784   0.599  0.7382 -0.8220 -0.6325
 3814SOL     OW22900   0.974   4.211   8.885  0.2893  0.3737  0.0721
 3814SOL    HW122901   1.066   4.201   8.861  0.4617  1.6309  0.2200
 3814SOL    HW222902   0.962   4.297   8.846 -0.5264  1.1103  1.9262
 3815SOL     OW22903   3.322   3.684   3.247  0.1469  0.2070 -0.3344
 3815SOL    HW122904   3.324   3.589   3.240 -2.6562 -0.0484  2.3653
 3815SOL    HW222905   3.411   3.701   3.217  0.7615 -2.4406  0.0180
 3816SOL     OW22906   1.827   1.096   2.969  0.4986  0.5013 -0.6375
 3816SOL    HW122907   1.854   1.020   3.020 -0.7244 -1.0728 -2.3540
 3816SOL    HW222908   1.854   1.066   2.883 -0.6779 -0.9870 -0.4819
 3817SOL     OW22909   1.046   1.223   0.485 -0.3798 -0.1556 -0.1528
 3817SOL    HW122910   1.020   1.143   0.440 -0.4176 -0.1350 -0.1680
 3817SOL    HW222911   1.088   1.267   0.411  0.8998 -0.1655  0.5847
 3818SOL     OW22912   4.351   3.995  13.628  0.3269 -0.2052  0.8562
 3818SOL    HW122913   4.393   3.910  13.643  0.3699 -0.3671 -0.1585
 3818SOL    HW222914   4.262   3.960  13.625  0.2285  0.3072 -2.1799
 3819SOL     OW22915   0.756   0.585   7.581 -0.1107  0.3371  0.0830
 3819SOL    HW122916   0.794   0.516   7.636 -0.4936 -0.0503 -0.1374
 3819SOL    HW222917   0.679   0.612   7.631  0.8660  1.2133  1.1262
 3820SOL     OW22918   1.158   4.143   3.931 -0.3657  0.4765  0.2127
 3820SOL    HW122919   1.228   4.144   3.995 -0.4020 -2.4697  0.3065
 3820SOL    HW222920   1.097   4.211   3.960 -1.1775  0.1102 -0.6213
 3821SOL     OW22921   2.636   1.974   3.947  0.0538 -0.1449  0.5363
 3821SOL    HW122922   2.574   1.902   3.944 -0.6697  0.6433 -2.8404
 3821SOL    HW222923   2.667   1.977   3.857 -2.9645  0.1265 -0.4942
 3822SOL     OW22924   4.538   3.520   5.905 -0.3032 -0.2177  0.2485
 3822SOL    HW122925   4.536   3.432   5.944  0.2013 -0.3244  0.0335
 3822SOL    HW222926   4.446   3.539   5.923 -0.2728 -0.0375  0.2125
 3823SOL     OW22927   3.493   0.645  12.217  0.0937 -0.0241 -0.4383
 3823SOL    HW122928   3.517   0.595  12.139 -0.6302  1.3799 -1.5572
 3823SOL    HW222929   3.553   0.717  12.203  0.7955 -0.5875 -0.3326
 3824SOL     OW22930   3.130   2.666   1.040 -0.4334  0.1420  0.0585
 3824SOL    HW122931   3.147   2.624   1.124 -0.7544  0.7128  0.4126
 3824SOL    HW222932   3.191   2.624   0.980 -1.7606  0.1073 -1.2590
 3825SOL     OW22933   1.007   4.014   6.472  0.6630  0.1379  0.2883
 3825SOL    HW122934   0.954   4.091   6.455  0.2923 -0.6279 -1.9476
 3825SOL    HW222935   1.071   4.014   6.400 -0.3065  2.0767 -0.5546
 3826SOL     OW22936   2.941   3.507  12.307  0.6274 -0.1514  0.1005
 3826SOL    HW122937   3.024   3.485  12.265 -0.0607 -3.6569  0.5984
 3826SOL    HW222938   2.964   3.600  12.313  2.1048 -0.5435  0.4539
 3827SOL     OW22939   1.338   4.353  14.775  0.5333 -0.4911  0.4933
 3827SOL    HW122940   1.247   4.332  14.794  0.3020  0.9440  0.9632
 3827SOL    HW222941   1.326   4.434  14.727 -1.2984 -0.5562  0.8384
 3828SOL     OW22942   1.977   2.204   1.715  0.0131 -0.3467  0.0815
 3828SOL    HW122943   1.965   2.281   1.770 -2.0539  0.1029 -0.9617
 3828SOL    HW222944   2.018   2.235   1.634 -0.3001 -1.5368 -0.5494
 3829SOL     OW22945   0.709   2.914   5.692 -0.1939 -0.3663  0.2943
 3829SOL    HW122946   0.755   2.832   5.674 -1.5933 -0.4963 -2.7387
 3829SOL    HW222947   0.643   2.907   5.623  0.8531  1.7895 -0.9465
 3830SOL     OW22948   0.257   1.424  14.502 -0.3465 -0.3052 -0.1772
 3830SOL    HW122949   0.226   1.487  14.437  1.6602 -0.9234 -1.7487
 3830SOL    HW222950   0.273   1.481  14.576  1.8784 -2.6274  1.1302
 3831SOL     OW22951   2.032   3.866   3.424 -0.2830 -0.3318 -0.2034
 3831SOL    HW122952   2.019   3.860   3.519  1.0957  0.8561  0.0548
 3831SOL    HW222953   2.012   3.777   3.395  1.0529 -0.2545 -1.3656
 3832SOL     OW22954   2.278   1.300   8.305 -0.2101  0.1450  0.0176
 3832SOL    HW122955   2.243   1.231   8.249  1.2140 -0.0612 -0.6298
 3832SOL    HW222956   2.358   1.330   8.262  0.9348 -2.3763  0.4230
 3833SOL     OW22957   2.497   1.797   1.035 -0.1021  0.5509  0.0134
 3833SOL    HW122958   2.415   1.840   1.060  0.6544  0.7779  2.0968
 3833SOL    HW222959   2.498   1.726   1.098  2.7331 -0.9564 -1.7118
 3834SOL     OW22960   3.966   1.951   0.019 -0.4394 -0.4598 -0.4394
 3834SOL    HW122961   3.964   1.912  17.616 -0.1021  2.1475 -1.5954
 3834SOL    HW222962   4.056   1.983   0.030  0.0748 -1.7462 -0.8974
 3835SOL     OW22963   0.455   4.165   3.596  0.4073  0.0012 -0.8938
 3835SOL    HW122964   0.371   4.149   3.553  0.1805  0.7694 -0.7380
 3835SOL    HW222965   0.435   4.113   3.674 -1.1332  0.2101 -1.1400
 3836SOL     OW22966   4.678   4.019   3.738 -0.5147  0.3827  0.1655
 3836SOL    HW122967   0.004   4.102   3.752 -0.3405  0.1377  1.0756
 3836SOL    HW222968   0.037   3.966   3.730  0.5166  1.3965  3.4252
 3837SOL     OW22969   2.771   2.524   1.555  0.1458 -0.0411  0.6086
 3837SOL    HW122970   2.750   2.444   1.508 -0.4748  1.2085 -1.2034
 3837SOL    HW222971   2.718   2.583   1.502 -0.2171 -1.0997 -0.2042
 3838SOL     OW22972   1.234   0.431   7.610  0.1890 -0.7134 -0.1406
 3838SOL    HW122973   1.210   0.433   7.702  0.7840  1.2321 -0.0234
 3838SOL    HW222974   1.178   0.358   7.585 -2.1716  0.8119  0.6926
 3839SOL     OW22975   0.520   0.047   6.291 -0.4295  0.6150  0.4475
 3839SOL    HW122976   0.602   0.094   6.303  0.9157 -0.6700 -3.4879
 3839SOL    HW222977   0.550   4.691   6.241 -0.0013  0.1962  1.3441
 3840SOL     OW22978   4.388   1.404   6.424 -0.0637 -0.1521  0.4648
 3840SOL    HW122979   4.375   1.494   6.455  0.3246 -0.3041  1.0780
 3840SOL    HW222980   4.314   1.407   6.363 -0.2309  0.0678  0.6747
 3841SOL     OW22981   1.567   0.131  17.132  0.0096 -0.0756  0.2781
 3841SOL    HW122982   1.642   0.140  17.190  1.3138 -2.2318 -1.0502
 3841SOL    HW222983   1.523   0.056  17.173 -0.6516 -0.8497 -1.8341
 3842SOL     OW22984   0.559   0.278  15.635 -0.1017  0.8101  0.0597
 3842SOL    HW122985   0.574   0.273  15.541  2.3409  1.7746  0.3946
 3842SOL    HW222986   0.513   0.362  15.637 -2.7549 -0.7109  2.1323
 3843SOL     OW22987   0.472   4.680  15.844 -0.0214 -0.0639  0.5107
 3843SOL    HW122988   0.475   0.043  15.891 -0.0296  0.0932  0.2301
 3843SOL    HW222989   0.399   4.640  15.891  2.2243 -3.7812  0.8458
 3844SOL     OW22990   0.242   2.148   3.799 -0.0211  0.1078 -0.1851
 3844SOL    HW122991   0.237   2.244   3.797  1.7064  0.2513  1.8470
 3844SOL    HW222992   0.242   2.138   3.704 -0.0461  3.2801 -0.5414
 3845SOL     OW22993   1.676   1.583   7.325 -0.1368  0.2292 -0.0194
 3845SOL    HW122994   1.715   1.505   7.364  3.5158 -0.1640 -4.4211
 3845SOL    HW222995   1.710   1.579   7.235  0.4849  0.3358  0.2107
 3846SOL     OW22996   4.328   0.745   0.072 -0.1720  0.8625 -0.9068
 3846SOL    HW122997   4.402   0.805   0.082  0.6321 -0.2032 -0.4872
 3846SOL    HW222998   4.260   0.810   0.088 -1.1166  0.0263 -1.5922
 3847SOL     OW22999   0.852   4.352   0.153  0.3681 -0.2795 -0.3043
 3847SOL    HW123000   0.798   4.330   0.077 -0.5060  1.7705 -0.2811
 3847SOL    HW223001   0.811   4.303   0.224  0.1380 -0.6464 -0.6905
 3848SOL     OW23002   3.254   3.820  15.736 -0.1062  0.4669  0.3920
 3848SOL    HW123003   3.166   3.796  15.705  1.3757 -2.2274 -1.7073
 3848SOL    HW223004   3.246   3.912  15.761  2.0220  0.7247  0.1284
 3849SOL     OW23005   2.234   3.338  15.529 -0.4847 -0.1711 -0.0365
 3849SOL    HW123006   2.285   3.285  15.590  1.7357  0.5349 -1.2504
 3849SOL    HW223007   2.184   3.400  15.581 -1.4900 -0.5581 -0.5552
 3850SOL     OW23008   1.021   2.522   9.145  0.0936 -0.4725  0.1375
 3850SOL    HW123009   0.948   2.461   9.135  1.0240 -1.4668 -0.5759
 3850SOL    HW223010   0.988   2.600   9.101  0.4224 -2.0460 -2.8524
 3851SOL     OW23011   4.662   4.524   7.387 -0.1443  0.1411 -0.2917
 3851SOL    HW123012   4.591   4.512   7.324 -0.9272  1.1972  0.3955
 3851SOL    HW223013   4.613   4.543   7.467  1.9380 -2.4866  1.6178
 3852SOL     OW23014   2.913   4.160   7.022 -0.1713  0.2849 -0.0135
 3852SOL    HW123015   2.872   4.119   7.098 -0.0979 -0.4440 -0.3704
 3852SOL    HW223016   2.984   4.207   7.066 -0.0976  1.1579 -1.0648
 3853SOL     OW23017   1.396   1.332  11.058 -0.0888  0.2957  0.5022
 3853SOL    HW123018   1.355   1.418  11.062 -0.4416  0.1330  0.3774
 3853SOL    HW223019   1.423   1.318  11.149  3.7912  0.1439 -0.6783
 3854SOL     OW23020   1.009   1.062   2.084  0.4867  0.4583  0.1753
 3854SOL    HW123021   0.950   1.023   2.019 -0.1693  2.1687 -0.2469
 3854SOL    HW223022   1.071   0.989   2.086 -0.3620 -0.3177 -2.2176
 3855SOL     OW23023   3.913   1.478  14.741  0.1406 -0.0078  0.0153
 3855SOL    HW123024   3.920   1.547  14.675  0.9895  1.1983  1.3481
 3855SOL    HW223025   4.006   1.462  14.756  0.2878  1.3623  0.6382
 3856SOL     OW23026   3.814   0.939  14.068  0.1162  0.0539 -0.7419
 3856SOL    HW123027   3.815   0.984  14.153  0.1994  1.2995 -1.4055
 3856SOL    HW223028   3.864   1.002  14.016 -0.5323  1.5786  0.4411
 3857SOL     OW23029   2.561   2.608   4.528  0.2103 -0.2610  0.1551
 3857SOL    HW123030   2.468   2.597   4.548  0.0321  2.6556  0.9084
 3857SOL    HW223031   2.568   2.603   4.433  0.5596 -2.0906  0.2793
 3858SOL     OW23032   3.444   2.914  12.078 -0.5207 -0.3880 -0.6143
 3858SOL    HW123033   3.362   2.903  12.030 -1.5607  1.5216  0.7727
 3858SOL    HW223034   3.504   2.868  12.019  1.0770  3.0830 -1.7100
 3859SOL     OW23035   3.875   2.224   7.841 -0.0786 -0.4689 -0.8957
 3859SOL    HW123036   3.939   2.208   7.910  0.6231  1.6374 -1.0387
 3859SOL    HW223037   3.794   2.193   7.883  0.2518  1.3185  1.0811
 3860SOL     OW23038   3.200   2.325   5.436 -0.2731 -0.2698 -0.5718
 3860SOL    HW123039   3.138   2.356   5.502 -0.3428 -0.8978 -0.3385
 3860SOL    HW223040   3.139   2.305   5.366 -3.2105  2.0746  1.2883
 3861SOL     OW23041   1.820   4.643   5.758 -0.0559 -0.1397 -0.0176
 3861SOL    HW123042   1.728   4.626   5.736 -0.1623 -0.0644  0.3629
 3861SOL    HW223043   1.812   4.707   5.829 -0.4877  0.9335 -1.0175
 3862SOL     OW23044   1.532   2.363   2.224 -0.4896 -0.3314  0.5794
 3862SOL    HW123045   1.489   2.343   2.141  0.1084 -0.0117  0.1923
 3862SOL    HW223046   1.518   2.279   2.268 -1.0065 -0.7698 -0.4204
 3863SOL     OW23047   3.709   0.352   0.654  0.9399  0.1978  0.3625
 3863SOL    HW123048   3.708   0.342   0.559 -0.0687  1.6581  0.2174
 3863SOL    HW223049   3.693   0.259   0.664  3.0650  0.0478  2.3872
 3864SOL     OW23050   4.356   2.898   3.092  0.5201  0.3546 -0.0857
 3864SOL    HW123051   4.329   2.884   3.183 -2.2395  0.3901 -0.8881
 3864SOL    HW223052   4.274   2.858   3.064  1.4594 -2.9511  1.8233
 3865SOL     OW23053   3.237   0.621  13.072 -0.3763 -0.2267 -0.3951
 3865SOL    HW123054   3.183   0.696  13.094 -2.6731 -2.0036  0.0447
 3865SOL    HW223055   3.262   0.639  12.981  2.0930 -1.3120  0.0539
 3866SOL     OW23056   1.281   0.089   3.343 -0.1185  0.1045  0.5631
 3866SOL    HW123057   1.292   0.067   3.251 -0.4526 -0.7628  0.7329
 3866SOL    HW223058   1.191   0.119   3.338  0.0769  0.1012 -2.6939
 3867SOL     OW23059   3.936   0.112   6.746 -0.5786 -0.2278 -0.6848
 3867SOL    HW123060   3.918   0.110   6.652 -0.1005  2.9982 -0.8235
 3867SOL    HW223061   3.935   0.017   6.756 -0.1692 -0.3082 -1.4518
 3868SOL     OW23062   3.879   1.985   5.772 -0.1768  0.0863 -0.5903
 3868SOL    HW123063   3.925   1.905   5.796 -1.5443 -0.1890  1.1311
 3868SOL    HW223064   3.805   1.945   5.726 -1.3922 -0.2084  1.6455
 3869SOL     OW23065   2.017   2.491   7.929  0.7897 -0.1426  0.2210
 3869SOL    HW123066   1.978   2.405   7.914  3.3972 -1.1954 -0.5184
 3869SOL    HW223067   1.944   2.545   7.897 -0.2364 -1.7497 -0.1757
 3870SOL     OW23068   1.338   0.909   8.160  0.5162 -0.1746  0.4729
 3870SOL    HW123069   1.262   0.883   8.108  0.0660  1.3173  0.3861
 3870SOL    HW223070   1.327   0.863   8.243  2.4935  1.3403  1.5626
 3871SOL     OW23071   0.718   3.125  14.619  0.1273 -0.1989 -0.2745
 3871SOL    HW123072   0.790   3.123  14.557 -1.4242 -0.1087 -2.0844
 3871SOL    HW223073   0.767   3.111  14.699  0.1022  0.3603 -0.1604
 3872SOL     OW23074   1.759   4.238   2.556 -0.0354  0.3025  0.4130
 3872SOL    HW123075   1.801   4.276   2.479  0.4673 -0.2716  0.3961
 3872SOL    HW223076   1.667   4.257   2.539 -0.6304 -1.2801  1.7898
 3873SOL     OW23077   2.485   4.096  13.627 -0.3082 -0.2411  0.3265
 3873SOL    HW123078   2.487   4.067  13.719 -2.4533  1.1981  0.8355
 3873SOL    HW223079   2.444   4.021  13.584 -0.7599 -0.6082  1.3941
 3874SOL     OW23080   0.775   2.620   4.465 -0.2698 -0.1608  0.2297
 3874SOL    HW123081   0.786   2.642   4.373 -1.2344 -2.5044 -0.4591
 3874SOL    HW223082   0.681   2.628   4.481  0.1398  0.6158  2.3074
 3875SOL     OW23083   4.565   2.733  11.641  0.1217 -0.4547  0.6392
 3875SOL    HW123084   4.581   2.751  11.548  2.9485 -0.4326  1.1209
 3875SOL    HW223085   4.470   2.737  11.641  0.1113 -0.6321  0.2752
 3876SOL     OW23086   2.202   2.411   9.345  0.3769  0.2842 -0.3444
 3876SOL    HW123087   2.130   2.378   9.398 -0.0150  0.4048 -0.7924
 3876SOL    HW223088   2.195   2.502   9.372  1.9315  0.5854 -0.9825
 3877SOL     OW23089   0.623   4.418   6.454  0.2436  1.0727  0.1084
 3877SOL    HW123090   0.604   4.421   6.547 -0.0858  1.7442  0.0175
 3877SOL    HW223091   0.683   4.490   6.434  1.0419 -0.1644 -1.9846
 3878SOL     OW23092   4.583   0.145   8.630  0.5286 -0.2648 -0.1357
 3878SOL    HW123093   4.612   0.236   8.629 -2.5068  0.6703 -2.5880
 3878SOL    HW223094   4.507   0.143   8.572  0.4063 -0.0934  0.0171
 3879SOL     OW23095   3.924   0.750   3.183  0.4255 -0.3501  0.0168
 3879SOL    HW123096   3.959   0.769   3.270  0.2209  0.5443 -0.0974
 3879SOL    HW223097   3.972   0.818   3.135 -0.4098  0.2661  0.0518
 3880SOL     OW23098   0.841   3.602  13.572  0.2406 -0.0930  0.0056
 3880SOL    HW123099   0.873   3.691  13.584 -1.1564  0.5966 -1.4339
 3880SOL    HW223100   0.754   3.595  13.611  0.9486  1.7529  1.8404
 3881SOL     OW23101   3.152   1.544  10.618  0.2187 -0.2294 -0.7489
 3881SOL    HW123102   3.154   1.450  10.601 -0.5154 -0.2634 -0.6251
 3881SOL    HW223103   3.247   1.552  10.603  0.1688  0.5466 -0.6756
 3882SOL     OW23104   4.441   1.415   4.364 -0.3194 -0.0389 -0.2053
 3882SOL    HW123105   4.431   1.510   4.368 -0.6633  0.1186 -4.3589
 3882SOL    HW223106   4.526   1.415   4.318 -1.2324  1.2464 -1.9255
 3883SOL     OW23107   2.802   0.134   4.090  0.2896 -0.5037  0.5702
 3883SOL    HW123108   2.884   0.167   4.054 -1.0600 -0.3975 -2.4872
 3883SOL    HW223109   2.759   0.110   4.008  1.9069  1.6861 -0.9389
 3884SOL     OW23110   0.210   4.642   9.924 -0.1153 -0.3113  0.6055
 3884SOL    HW123111   0.162   4.561   9.908 -0.4712 -0.2410  1.2952
 3884SOL    HW223112   0.163   4.683   9.997 -0.0898  0.0125  0.4419
 3885SOL     OW23113   0.724   4.458   7.238  0.4504 -0.2018 -0.0554
 3885SOL    HW123114   0.750   4.425   7.324  2.2951 -0.6158 -0.7633
 3885SOL    HW223115   0.675   4.380   7.215  1.0961  0.0875 -2.3609
 3886SOL     OW23116   3.149   2.180   7.536  0.2198 -0.6566 -0.4572
 3886SOL    HW123117   3.152   2.178   7.441  0.9073  0.3293 -0.4539
 3886SOL    HW223118   3.065   2.141   7.558  0.5697 -0.2580  1.6379
 3887SOL     OW23119   0.048   0.889   6.743  0.4853  0.6232  0.5862
 3887SOL    HW123120   4.688   0.839   6.730 -0.3423  2.0402  0.2172
 3887SOL    HW223121   0.092   0.844   6.814  3.2534  2.1677 -0.1271
 3888SOL     OW23122   1.807   3.746  12.081  0.1391 -0.5147 -0.0756
 3888SOL    HW123123   1.765   3.687  12.018 -0.1289 -0.8011  0.3678
 3888SOL    HW223124   1.870   3.694  12.130  0.6458  1.3908  1.2952
 3889SOL     OW23125   0.923   1.434  16.775  0.0148  0.3857  0.1530
 3889SOL    HW123126   0.948   1.386  16.696 -1.5695  0.5064 -0.4314
 3889SOL    HW223127   0.920   1.524  16.742  0.2350  0.6780  0.9270
 3890SOL     OW23128   1.208   3.913   3.445 -0.0023  0.1411 -0.3571
 3890SOL    HW123129   1.198   3.943   3.535  1.2491 -0.2322 -0.0931
 3890SOL    HW223130   1.139   3.848   3.446 -2.4455  2.6873 -3.1256
 3891SOL     OW23131   1.404   3.067  15.951 -0.1634  0.6012  0.1678
 3891SOL    HW123132   1.383   3.160  15.938  3.0168  1.1670 -0.8495
 3891SOL    HW223133   1.328   3.036  16.000 -1.2118  2.4378 -0.3081
 3892SOL     OW23134   2.430   0.592   0.540  0.5874  0.1609 -0.6810
 3892SOL    HW123135   2.431   0.509   0.492 -0.2358  0.2037 -0.7687
 3892SOL    HW223136   2.440   0.559   0.629  2.2930 -0.2101 -1.0146
 3893SOL     OW23137   2.382   1.055   6.703 -0.0751  0.5590 -0.4496
 3893SOL    HW123138   2.342   1.109   6.635 -0.0226 -1.6699 -2.2845
 3893SOL    HW223139   2.475   1.063   6.682 -0.0859 -0.0476 -0.7606
 3894SOL     OW23140   1.887   0.446  16.797  0.3457 -0.4406  0.5010
 3894SOL    HW123141   1.860   0.399  16.875 -2.4152 -0.9572 -0.7651
 3894SOL    HW223142   1.815   0.453  16.735  0.4105  0.2105  0.4991
 3895SOL     OW23143   2.990   0.825   3.270 -0.1145  0.7068 -0.1324
 3895SOL    HW123144   2.975   0.915   3.298 -1.8061  0.2286  0.5246
 3895SOL    HW223145   2.901   0.802   3.245  0.5619  0.7193 -2.5583
 3896SOL     OW23146   0.690   3.292   2.176  0.1456  0.0871 -0.0519
 3896SOL    HW123147   0.683   3.292   2.080 -0.0614 -1.0994 -0.0343
 3896SOL    HW223148   0.741   3.213   2.196  0.7204  0.5555  0.3476
 3897SOL     OW23149   0.963   3.724   1.608 -0.0228 -0.2900  0.4936
 3897SOL    HW123150   1.031   3.703   1.544  0.9383  1.4218  0.9444
 3897SOL    HW223151   0.952   3.640   1.652  0.0656 -0.0500  0.9839
 3898SOL     OW23152   4.252   1.597   2.796 -0.0123 -0.1714  0.1991
 3898SOL    HW123153   4.183   1.575   2.859 -0.1521 -0.3638 -0.0198
 3898SOL    HW223154   4.325   1.555   2.842  0.5499  0.7301  0.1371
 3899SOL     OW23155   2.690   3.740  11.304  0.3776 -0.0300  0.2457
 3899SOL    HW123156   2.712   3.796  11.229 -0.2836 -0.2282 -0.1003
 3899SOL    HW223157   2.741   3.770  11.379 -0.0663  2.4662 -0.4711
 3900SOL     OW23158   2.435   2.391  13.192  0.7630 -0.3399 -0.1381
 3900SOL    HW123159   2.356   2.388  13.246  1.5615 -2.2429  0.9441
 3900SOL    HW223160   2.496   2.434  13.252  1.2258 -0.9816 -0.1398
 3901SOL     OW23161   3.784   1.313  14.569  0.3724  0.5686  0.4258
 3901SOL    HW123162   3.695   1.334  14.595 -0.2267 -1.4190 -0.0362
 3901SOL    HW223163   3.822   1.336  14.653 -1.9178  0.5970  1.4579
 3902SOL     OW23164   4.495   2.800   6.338 -0.2921 -0.0437 -0.0046
 3902SOL    HW123165   4.509   2.771   6.428  0.0739  0.2468  0.0313
 3902SOL    HW223166   4.460   2.721   6.295 -1.9729  0.2681  0.7741
 3903SOL     OW23167   0.663   2.401  17.529  0.4303  0.2558 -0.0151
 3903SOL    HW123168   0.758   2.408  17.523  0.4638 -0.6193 -0.4612
 3903SOL    HW223169   0.632   2.489  17.508  0.2542 -0.0433 -1.0119
 3904SOL     OW23170   0.242   0.563   7.606 -0.2931 -0.1681  0.1909
 3904SOL    HW123171   0.152   0.550   7.635 -0.3341 -0.4867 -0.0783
 3904SOL    HW223172   0.280   0.475   7.608 -0.0628 -0.0768 -0.1981
 3905SOL     OW23173   4.591   3.976   6.031 -0.6336 -0.1579  0.0685
 3905SOL    HW123174   4.610   3.947   5.941  0.6957 -0.2412  0.3835
 3905SOL    HW223175   4.572   3.891   6.071  0.2942 -0.1753  0.4523
 3906SOL     OW23176   1.524   4.175   3.451  0.1543  0.2615 -0.1403
 3906SOL    HW123177   1.604   4.124   3.443  0.1646  0.3407 -0.5342
 3906SOL    HW223178   1.466   4.140   3.382  1.1494  1.3209 -1.5144
 3907SOL     OW23179   3.781   3.890   3.112 -0.2434 -0.1674  0.3066
 3907SOL    HW123180   3.860   3.857   3.154 -0.0463  2.3703  1.9319
 3907SOL    HW223181   3.822   3.925   3.032 -0.2538 -0.2441  0.2675
 3908SOL     OW23182   0.044   4.301   4.493 -0.1131 -0.0544  0.6208
 3908SOL    HW123183   4.698   4.368   4.475 -0.2743 -0.0572  1.2086
 3908SOL    HW223184   0.017   4.234   4.430  0.5836 -1.0010  1.3320
 3909SOL     OW23185   2.399   0.323   1.891  0.8438 -0.0741  0.4896
 3909SOL    HW123186   2.449   0.404   1.881 -0.8706  0.7097 -1.8008
 3909SOL    HW223187   2.367   0.307   1.802  2.1022 -0.5504  0.1163
 3910SOL     OW23188   2.668   2.742  13.111 -1.1371  0.0777  0.9447
 3910SOL    HW123189   2.649   2.678  13.180 -1.7702  0.0352  0.7260
 3910SOL    HW223190   2.676   2.826  13.155  0.4802  0.9423 -0.9915
 3911SOL     OW23191   1.304   0.870  10.451 -0.2459  0.3344  0.3849
 3911SOL    HW123192   1.261   0.812  10.514  1.8863  1.1808  2.6083
 3911SOL    HW223193   1.383   0.896  10.499  0.6041 -0.3592 -0.6258
 3912SOL     OW23194   1.782   1.188   1.483  0.2911  0.1117 -0.1788
 3912SOL    HW123195   1.780   1.257   1.550  0.8540  1.3091 -1.3915
 3912SOL    HW223196   1.687   1.180   1.475  0.2185  1.5711 -0.8185
 3913SOL     OW23197   0.065   1.374  17.204 -0.4034 -0.3691 -1.2021
 3913SOL    HW123198   0.156   1.370  17.233 -1.0479  1.5586  1.0861
 3913SOL    HW223199   0.065   1.465  17.172  0.3784 -0.2795 -0.9396
 3914SOL     OW23200   4.257   4.240   3.556  0.0041  0.1527 -0.0896
 3914SOL    HW123201   4.340   4.210   3.521  0.8058 -0.4271  2.3202
 3914SOL    HW223202   4.204   4.233   3.476  1.7359 -0.9658 -1.1369
 3915SOL     OW23203   2.381   3.280   4.230  0.8176 -0.0697  0.0822
 3915SOL    HW123204   2.315   3.314   4.291 -0.6873 -1.1060 -0.9887
 3915SOL    HW223205   2.447   3.255   4.295  1.6461  2.0762  0.0522
 3916SOL     OW23206   2.115   2.028   4.442  1.1425 -0.5008 -0.5835
 3916SOL    HW123207   2.071   1.990   4.367 -0.0655  3.1676 -1.7185
 3916SOL    HW223208   2.129   1.950   4.496 -2.8325 -1.2254 -0.6165
 3917SOL     OW23209   3.458   0.296   1.329  0.0146  0.2388  0.5479
 3917SOL    HW123210   3.395   0.365   1.350  1.8876  2.3196 -0.6496
 3917SOL    HW223211   3.428   0.211   1.361  0.8334 -0.1755  0.2061
 3918SOL     OW23212   1.946   2.953  13.544 -0.6625  0.3595  0.1241
 3918SOL    HW123213   1.935   3.021  13.477 -0.9619  0.9812  0.8045
 3918SOL    HW223214   1.976   2.881  13.488  0.7179 -0.1126  1.4896
 3919SOL     OW23215   2.003   3.922   9.180 -0.1676 -0.1207  0.1751
 3919SOL    HW123216   1.969   3.855   9.121 -0.9365  2.1713 -1.9911
 3919SOL    HW223217   2.088   3.946   9.143 -1.0532  0.0185 -1.7839
 3920SOL     OW23218   1.075   3.548   8.380  0.2437  0.4602  0.6961
 3920SOL    HW123219   1.108   3.523   8.293 -2.0494 -1.6988  0.4287
 3920SOL    HW223220   1.025   3.469   8.400  0.5855  1.1478  4.1887
 3921SOL     OW23221   1.031   1.965   8.281  1.0569 -0.1875  0.2134
 3921SOL    HW123222   1.083   1.996   8.355  0.9463  1.7379 -0.5014
 3921SOL    HW223223   1.099   1.961   8.214  1.6196  0.6336  0.7383
 3922SOL     OW23224   2.124   1.025  13.091 -0.5325  0.5761  0.2496
 3922SOL    HW123225   2.169   0.943  13.113  1.0211  0.8374 -1.9817
 3922SOL    HW223226   2.050   0.985  13.046 -0.3720 -1.0032  1.3830
 3923SOL     OW23227   0.138   3.512   7.331  0.0266 -0.0154  0.5108
 3923SOL    HW123228   0.060   3.485   7.281 -0.4679  1.4857  0.4597
 3923SOL    HW223229   0.136   3.606   7.316 -0.8671  0.1170  1.3898
 3924SOL     OW23230   0.085   2.064   8.382 -0.1256  0.2835 -0.6933
 3924SOL    HW123231   0.175   2.051   8.352  0.3087 -0.7759  1.0594
 3924SOL    HW223232   0.081   1.978   8.424 -1.2403 -0.0284 -1.4514
 3925SOL     OW23233   4.219   3.076   9.803  0.2360  0.4179 -0.9053
 3925SOL    HW123234   4.272   3.156   9.795  1.8939 -0.6232 -0.3639
 3925SOL    HW223235   4.218   3.061   9.898  4.6713 -0.7682 -1.0457
 3926SOL     OW23236   0.471   0.834   3.614 -0.0365 -0.6547 -0.4545
 3926SOL    HW123237   0.447   0.742   3.599 -0.9568 -0.4987  0.0639
 3926SOL    HW223238   0.493   0.844   3.706 -0.2349 -1.4240 -0.3216
 3927SOL     OW23239   3.174   3.676   8.758 -0.3776  0.6122  0.3360
 3927SOL    HW123240   3.160   3.691   8.851  0.3853  2.0788  0.2010
 3927SOL    HW223241   3.198   3.583   8.759  0.1903  0.7769  1.4400
 3928SOL     OW23242   0.700   1.472   0.046 -0.1552 -0.5604 -0.3010
 3928SOL    HW123243   0.613   1.502   0.017 -0.1929 -2.1259 -1.8029
 3928SOL    HW223244   0.710   1.518   0.129 -1.1800 -1.3557  0.2635
 3929SOL     OW23245   2.771   3.753   7.573 -0.7698 -0.3089 -0.2626
 3929SOL    HW123246   2.745   3.845   7.578  2.3654  0.5255  0.9855
 3929SOL    HW223247   2.828   3.747   7.649  2.0343 -0.1397 -2.3276
 3930SOL     OW23248   3.882   2.373   3.632 -0.1174  0.3224  0.0930
 3930SOL    HW123249   3.962   2.397   3.680 -0.5968  1.2602  0.4167
 3930SOL    HW223250   3.913   2.349   3.545 -0.7682  1.2933 -0.4023
 3931SOL     OW23251   3.239   1.915   4.804 -0.0767  0.1598  0.6770
 3931SOL    HW123252   3.184   1.897   4.881 -0.3299 -1.6395  0.0827
 3931SOL    HW223253   3.175   1.898   4.735 -0.1127 -1.5678  1.1292
 3932SOL     OW23254   1.922   3.494   5.197 -0.2014 -0.1500  0.0138
 3932SOL    HW123255   1.904   3.580   5.160  1.4378  0.0486 -0.3408
 3932SOL    HW223256   1.862   3.480   5.270  0.0958  1.1438  0.4921
 3933SOL     OW23257   3.510   0.127   2.602  0.2884  0.2779 -0.1468
 3933SOL    HW123258   3.593   0.139   2.648  1.1845  1.0270 -1.9466
 3933SOL    HW223259   3.456   0.202   2.625 -1.5010 -0.3665 -2.2417
 3934SOL     OW23260   2.721   1.314   4.685 -0.0175  0.6673  0.5236
 3934SOL    HW123261   2.751   1.290   4.597  0.8358  2.9409  0.2039
 3934SOL    HW223262   2.701   1.226   4.718 -0.0130 -0.3612 -2.1783
 3935SOL     OW23263   0.801   0.281   3.697 -0.5197 -0.3009 -0.3644
 3935SOL    HW123264   0.883   0.284   3.747  0.2864 -0.5863 -1.6792
 3935SOL    HW223265   0.810   0.201   3.645  1.7697  0.7954 -1.6616
 3936SOL     OW23266   2.691   0.220   5.170  0.4173 -0.1076 -0.3262
 3936SOL    HW123267   2.730   0.169   5.241  0.0207 -1.2055 -0.9073
 3936SOL    HW223268   2.601   0.189   5.177  0.0036  1.4474  1.3886
 3937SOL     OW23269   0.499   1.961   7.985  0.3345  0.2169  0.0137
 3937SOL    HW123270   0.477   1.887   7.928  3.9947 -0.2217 -0.8061
 3937SOL    HW223271   0.422   2.018   7.992  1.4063  1.5509  1.0716
 3938SOL     OW23272   2.027   0.151   6.890 -0.2553  0.8301  0.1493
 3938SOL    HW123273   1.942   0.193   6.882 -1.1876 -1.0658  0.0392
 3938SOL    HW223274   2.082   0.222   6.923  1.5846 -0.7053  0.3697
 3939SOL     OW23275   0.990   3.298  16.247 -0.4793 -0.5609  0.3284
 3939SOL    HW123276   1.018   3.389  16.259  2.5439 -1.2656 -1.3958
 3939SOL    HW223277   0.954   3.276  16.332 -0.8299  1.8735  0.8008
 3940SOL     OW23278   2.092   1.638   1.537 -0.3040  1.1885  0.0685
 3940SOL    HW123279   2.072   1.728   1.560  2.3622  1.1103  2.6873
 3940SOL    HW223280   2.149   1.611   1.609  1.3819  1.0463 -1.3184
 3941SOL     OW23281   0.815   3.160   5.620  0.3175  0.1789  0.3389
 3941SOL    HW123282   0.905   3.128   5.618 -0.1163 -0.9768 -1.3291
 3941SOL    HW223283   0.776   3.090   5.673  0.0753 -0.1472 -0.2684
 3942SOL     OW23284   0.201   3.947  16.172  0.1060 -0.3504  0.6651
 3942SOL    HW123285   0.240   4.033  16.159  0.7661 -0.7772 -0.2569
 3942SOL    HW223286   0.186   3.947  16.266 -0.5715  0.8546  0.5575
 3943SOL     OW23287   2.079   1.631  17.441 -0.1171  0.2021  0.0925
 3943SOL    HW123288   2.041   1.594  17.521  1.5731 -3.0879 -0.6532
 3943SOL    HW223289   2.043   1.719  17.455 -1.2747 -0.2171 -0.2750
 3944SOL     OW23290   3.243   0.453   2.430 -0.5548  0.3308  0.0140
 3944SOL    HW123291   3.218   0.388   2.365 -3.7844 -1.0470  2.6564
 3944SOL    HW223292   3.165   0.458   2.486 -0.9947 -0.1636 -0.5615
 3945SOL     OW23293   3.962   2.695   4.377 -0.2409  0.3407  0.6207
 3945SOL    HW123294   3.870   2.714   4.390 -0.1881  1.2881 -0.4412
 3945SOL    HW223295   3.961   2.602   4.352 -1.9408  0.8996 -1.3874
 3946SOL     OW23296   1.478   0.801   3.990  0.1860  0.6294  0.0046
 3946SOL    HW123297   1.457   0.842   4.074  1.5538  0.3635  0.4696
 3946SOL    HW223298   1.494   0.880   3.939 -1.2241  1.2039  0.4583
 3947SOL     OW23299   1.979   2.076   2.366  0.4529  0.3686  0.2579
 3947SOL    HW123300   1.953   2.027   2.289 -1.8892  0.2856  1.1013
 3947SOL    HW223301   1.907   2.047   2.422  0.2841 -2.0377 -1.2559
 3948SOL     OW23302   3.665   0.508   0.022 -0.2359  0.6229 -0.3471
 3948SOL    HW123303   3.665   0.559  17.625  0.5849 -0.7762 -1.2491
 3948SOL    HW223304   3.733   0.549   0.076  1.5697 -1.1677 -1.2402
 3949SOL     OW23305   3.437   3.800   4.122  0.6052  0.2343 -0.6439
 3949SOL    HW123306   3.370   3.794   4.191  0.2301  1.2918 -0.9087
 3949SOL    HW223307   3.423   3.716   4.079  1.7765 -0.1531 -0.2707
 3950SOL     OW23308   1.614   3.132   4.319 -0.2304  0.2750 -0.4473
 3950SOL    HW123309   1.584   3.041   4.319  1.2314 -0.1986 -1.1986
 3950SOL    HW223310   1.535   3.174   4.354 -1.4116 -0.2362 -2.4701
 3951SOL     OW23311   0.004   2.070   7.278  0.3171 -0.1576 -0.6914
 3951SOL    HW123312   4.640   2.027   7.264 -0.7311  1.7278 -0.1183
 3951SOL    HW223313   0.052   2.012   7.338  1.6655  0.3815 -1.2664
 3952SOL     OW23314   0.065   1.049  13.152 -0.2653  0.0946  0.2161
 3952SOL    HW123315   0.125   1.017  13.220 -1.7835 -1.3082  0.8881
 3952SOL    HW223316   4.704   1.002  13.166 -1.4353  1.0876 -3.1878
 3953SOL     OW23317   1.532   0.547   9.842  0.0575 -0.3078  0.0179
 3953SOL    HW123318   1.501   0.482   9.779 -2.2480  0.7321  0.0881
 3953SOL    HW223319   1.597   0.594   9.789 -1.0099  1.8881  0.6619
 3954SOL     OW23320   1.866   0.347   8.685  0.5086  0.0796 -0.1033
 3954SOL    HW123321   1.804   0.377   8.618 -0.1221 -1.0510 -0.0290
 3954SOL    HW223322   1.908   0.271   8.644  1.2409 -0.0308  0.8460
 3955SOL     OW23323   3.174   4.595   1.028 -0.3792 -0.0135  0.4584
 3955SOL    HW123324   3.142   4.505   1.042  0.2950 -0.2165  0.7211
 3955SOL    HW223325   3.095   4.641   1.057  0.7031  1.1911  1.4771
 3956SOL     OW23326   0.007   4.620   4.124 -0.3759  0.0350 -0.8342
 3956SOL    HW123327   4.667   4.662   4.185 -0.7968 -1.6628 -0.0680
 3956SOL    HW223328   0.066   4.688   4.092 -1.9836  2.1195  0.6441
 3957SOL     OW23329   1.377   2.158  17.130  0.2409 -0.3887 -0.8588
 3957SOL    HW123330   1.385   2.125  17.219  2.0526  0.1190 -0.8365
 3957SOL    HW223331   1.463   2.198  17.121 -0.6444  1.9567  0.9656
 3958SOL     OW23332   0.893   4.162   8.089 -0.6566 -0.5278  0.8165
 3958SOL    HW123333   0.947   4.192   8.016 -0.5908  0.1315  1.1383
 3958SOL    HW223334   0.968   4.131   8.141  0.9849 -1.4676 -2.0959
 3959SOL     OW23335   1.790   2.113   1.394  0.1073 -0.5377  1.0758
 3959SOL    HW123336   1.719   2.049   1.392 -1.1802  0.9340 -0.2381
 3959SOL    HW223337   1.857   2.064   1.441  0.6621  0.9364  1.8208
 3960SOL     OW23338   0.941   1.064   6.928  0.9251  0.0314 -0.0159
 3960SOL    HW123339   1.002   1.005   6.973  3.1873  1.6584 -0.9498
 3960SOL    HW223340   0.909   1.120   6.998  0.4585 -0.8204  0.4605
 3961SOL     OW23341   2.297   3.909   8.890 -0.1348  0.9089 -0.4403
 3961SOL    HW123342   2.269   3.879   8.803 -2.7885  1.8173  0.0802
 3961SOL    HW223343   2.389   3.885   8.895 -0.0684  1.5528  1.3475
 3962SOL     OW23344   3.903   2.839   1.976  0.3122  0.1262  0.0763
 3962SOL    HW123345   3.868   2.926   1.954  0.4649  0.0461 -0.4720
 3962SOL    HW223346   3.828   2.786   2.002  0.6002 -0.7872 -0.9939
 3963SOL     OW23347   3.509   1.370  11.820  0.1807 -0.3436 -0.3404
 3963SOL    HW123348   3.466   1.391  11.737  0.2086 -1.0434 -0.5295
 3963SOL    HW223349   3.562   1.447  11.842 -0.3074  0.2629 -1.2680
 3964SOL     OW23350   2.331   2.479   1.475 -0.3205 -0.2974  0.0337
 3964SOL    HW123351   2.377   2.522   1.547 -0.7389  0.0148  0.1187
 3964SOL    HW223352   2.327   2.547   1.408 -0.9609 -0.3720 -0.0063
 3965SOL     OW23353   3.213   1.972   2.984  0.3016  0.4982  0.0915
 3965SOL    HW123354   3.143   2.017   3.031  0.3182  0.1866  0.4164
 3965SOL    HW223355   3.170   1.973   2.899  0.1336 -2.8288  0.1303
 3966SOL     OW23356   0.234   4.674   2.693  0.3219 -0.2402  0.1680
 3966SOL    HW123357   0.268   0.042   2.678 -1.2095  0.2576 -0.3519
 3966SOL    HW223358   0.161   4.699   2.749  0.6184 -0.0427  0.4641
 3967SOL     OW23359   1.216   3.097   3.967 -0.4501 -0.2479  0.2947
 3967SOL    HW123360   1.196   3.050   4.049  0.6408 -1.7449 -0.3092
 3967SOL    HW223361   1.174   3.047   3.897  2.1824 -0.8954 -0.8000
 3968SOL     OW23362   2.865   4.018   6.334  0.0251  0.0299  0.2476
 3968SOL    HW123363   2.857   3.925   6.314 -0.7569  0.8264 -3.1540
 3968SOL    HW223364   2.788   4.025   6.390 -0.4634 -1.0652 -0.3020
 3969SOL     OW23365   0.586   2.210   2.776 -0.7674 -0.3067  0.1054
 3969SOL    HW123366   0.528   2.138   2.801 -0.6184 -0.8051 -0.9815
 3969SOL    HW223367   0.547   2.229   2.691 -0.7021  0.2034  0.1857
 3970SOL     OW23368   1.927   4.156   4.581  0.1914  0.3610 -0.2370
 3970SOL    HW123369   1.987   4.157   4.655 -0.1571 -0.7742  0.0679
 3970SOL    HW223370   1.874   4.078   4.598  1.1733  0.7478  4.4341
 3971SOL     OW23371   4.333   0.610   7.316 -0.0130 -0.7608 -0.5227
 3971SOL    HW123372   4.410   0.650   7.358  0.3992 -4.1264  1.8845
 3971SOL    HW223373   4.280   0.687   7.296  1.6645  0.8570  1.3403
 3972SOL     OW23374   4.434   2.246   0.409  0.1832 -0.4923 -0.0103
 3972SOL    HW123375   4.523   2.226   0.381  0.6433  0.6272  0.6708
 3972SOL    HW223376   4.423   2.200   0.492 -0.9356 -0.8921 -0.3885
 3973SOL     OW23377   2.472   1.756   7.399 -0.0364  0.2351 -0.3900
 3973SOL    HW123378   2.554   1.714   7.373  0.1996  2.3028 -2.9646
 3973SOL    HW223379   2.409   1.686   7.380  0.5073  0.0510 -1.4922
 3974SOL     OW23380   1.241   2.495   3.975 -0.0751  0.1859 -0.1830
 3974SOL    HW123381   1.146   2.493   3.960  0.1668 -0.6901 -1.5929
 3974SOL    HW223382   1.250   2.504   4.069  1.5329  1.0849 -0.4181
 3975SOL     OW23383   4.079   3.774   3.176 -0.3120 -0.0074  0.6143
 3975SOL    HW123384   4.141   3.701   3.173 -1.4502 -0.9868  0.8654
 3975SOL    HW223385   4.082   3.784   3.271  1.0529  1.5090  0.4077
 3976SOL     OW23386   1.330   2.027   6.635  0.4263  0.1238  0.2598
 3976SOL    HW123387   1.236   2.019   6.618  0.3626  0.6390  0.3850
 3976SOL    HW223388   1.318   2.013   6.729  0.6343  0.6635  0.3630
 3977SOL     OW23389   3.732   4.460   5.181 -0.4340 -0.2364  0.0223
 3977SOL    HW123390   3.666   4.519   5.144  1.2611  1.9390  0.4914
 3977SOL    HW223391   3.686   4.376   5.182 -1.9019  0.5417 -0.7830
 3978SOL     OW23392   4.632   3.858   8.325 -0.3436 -0.4314  0.4924
 3978SOL    HW123393   4.591   3.773   8.338 -1.1887 -0.3736 -1.8106
 3978SOL    HW223394   4.671   3.882   8.409  2.9523 -0.6749 -0.9880
 3979SOL     OW23395   2.685   1.547   4.536  0.1896 -0.0523 -0.2448
 3979SOL    HW123396   2.688   1.463   4.581  0.0589 -1.4890 -2.9122
 3979SOL    HW223397   2.773   1.558   4.500  1.0080  1.4556  2.1723
 3980SOL     OW23398   4.183   4.531   6.047  0.4535  0.6710 -0.2877
 3980SOL    HW123399   4.178   4.441   6.016 -0.3589  0.3688  0.7106
 3980SOL    HW223400   4.134   4.579   5.980 -0.8606 -0.9953 -0.5078
 3981SOL     OW23401   3.102   2.356   8.269 -0.0926 -0.1300  0.1955
 3981SOL    HW123402   3.152   2.370   8.188  0.9399 -2.6542  0.3904
 3981SOL    HW223403   3.100   2.449   8.290  2.0785 -0.6179  2.5121
 3982SOL     OW23404   0.796   2.056   8.495 -0.0633  0.4808 -0.3013
 3982SOL    HW123405   0.845   2.129   8.535 -0.8591  0.0190  1.5130
 3982SOL    HW223406   0.829   2.056   8.405 -0.2247  1.5094 -0.3643
 3983SOL     OW23407   1.623   0.437   4.240 -0.0051 -0.0226  0.1260
 3983SOL    HW123408   1.620   0.530   4.263 -0.8540 -0.3688  1.3853
 3983SOL    HW223409   1.717   0.438   4.221 -0.1818 -0.0684 -0.7555
 3984SOL     OW23410   0.459   0.547   1.848  0.0153  0.5640  0.0382
 3984SOL    HW123411   0.456   0.467   1.900  0.3460 -0.0363 -0.8778
 3984SOL    HW223412   0.422   0.532   1.762 -0.0710  0.2193  0.1379
 3985SOL     OW23413   4.531   1.612   0.810  0.3944 -0.3709  0.5368
 3985SOL    HW123414   4.475   1.564   0.871  2.7474 -1.0824  2.1468
 3985SOL    HW223415   4.535   1.551   0.737  1.1925  2.0321 -1.4182
 3986SOL     OW23416   2.366   2.561   7.357  0.3276  0.0099  0.4015
 3986SOL    HW123417   2.433   2.619   7.393  0.5814 -1.3640  2.1341
 3986SOL    HW223418   2.391   2.540   7.267  1.9331 -0.7264  1.0170
 3987SOL     OW23419   1.009   2.569   3.516 -0.6555 -0.0641  0.0851
 3987SOL    HW123420   1.031   2.500   3.453 -0.1410  1.6781 -1.6603
 3987SOL    HW223421   1.004   2.511   3.591  0.9926 -0.6514 -0.2482
 3988SOL     OW23422   3.239   3.026  17.235 -0.0938  0.1230 -0.7441
 3988SOL    HW123423   3.221   3.070  17.318 -0.4391  0.9819 -1.2719
 3988SOL    HW223424   3.218   3.095  17.171  0.8519  1.5162  0.4389
 3989SOL     OW23425   1.781   1.566  11.438  0.0469  0.0098 -0.3395
 3989SOL    HW123426   1.862   1.517  11.451  0.2289  0.4454  0.1421
 3989SOL    HW223427   1.762   1.560  11.344  0.5791 -0.8746 -0.3906
 3990SOL     OW23428   4.017   3.253   0.918 -0.0377 -0.1455  0.1577
 3990SOL    HW123429   4.075   3.267   0.993  1.8460 -1.8594 -0.9515
 3990SOL    HW223430   4.023   3.158   0.908  1.7376  0.0852 -0.9603
 3991SOL     OW23431   1.245   4.100   9.266 -0.0672  0.0692  0.7270
 3991SOL    HW123432   1.280   4.148   9.341 -0.3097 -1.0300  1.5327
 3991SOL    HW223433   1.300   4.022   9.270 -1.7596 -1.1555 -0.3422
 3992SOL     OW23434   2.301   0.426   9.623  0.1669 -0.2087  0.4408
 3992SOL    HW123435   2.348   0.461   9.698  0.1964  2.7357 -0.9309
 3992SOL    HW223436   2.242   0.356   9.652  2.1878 -2.9250 -2.0394
 3993SOL     OW23437   3.649   2.247   0.212 -0.0116  0.3193  0.2725
 3993SOL    HW123438   3.587   2.223   0.281 -0.2460 -0.4208 -0.1966
 3993SOL    HW223439   3.602   2.301   0.148  1.6567  1.0889 -0.2966
 3994SOL     OW23440   4.148   1.508  12.259  0.4503  0.2219  0.6483
 3994SOL    HW123441   4.195   1.524  12.177 -0.6053 -0.0801 -0.0182
 3994SOL    HW223442   4.059   1.512  12.222 -0.4952 -0.9826  2.8177
 3995SOL     OW23443   0.089   0.214  11.196  0.7206 -0.2139  0.1221
 3995SOL    HW123444   0.065   0.276  11.127  0.2939 -1.0082 -0.4486
 3995SOL    HW223445   0.104   0.269  11.272 -0.6027 -1.3723  1.2222
 3996SOL     OW23446   0.127   0.284   5.603  0.0452  0.4149 -0.0941
 3996SOL    HW123447   0.060   0.295   5.670 -1.3122  3.2765 -1.8876
 3996SOL    HW223448   0.100   0.355   5.544  0.7642  0.8118  0.0458
 3997SOL     OW23449   0.670   1.082  17.578 -0.1564  0.0909 -0.4825
 3997SOL    HW123450   0.647   1.005  17.630 -1.5511  0.8447  0.0142
 3997SOL    HW223451   0.708   1.044  17.499 -2.8671  2.0255 -2.7356
 3998SOL     OW23452   3.788   1.245   3.252 -0.6329  0.4510 -0.1959
 3998SOL    HW123453   3.714   1.285   3.206 -0.5624 -0.8854 -1.4978
 3998SOL    HW223454   3.855   1.312   3.260 -0.7632  0.3756  1.5336
 3999SOL     OW23455   0.012   1.836   3.161  0.0968  0.3803  0.4159
 3999SOL    HW123456   0.082   1.897   3.183  1.8820 -1.6333  0.3236
 3999SOL    HW223457   4.659   1.894   3.140 -0.4068 -0.4629 -0.1949
 4000SOL     OW23458   4.269   3.354   8.687  0.7302  0.2164  0.1515
 4000SOL    HW123459   4.365   3.360   8.678  0.9370 -1.1447  1.3134
 4000SOL    HW223460   4.260   3.264   8.657 -0.4763 -0.2556  1.9081
 4001SOL     OW23461   1.532   1.386  11.435 -0.2457 -0.2353  0.3313
 4001SOL    HW123462   1.571   1.349  11.515 -2.8974 -1.5192  1.0126
 4001SOL    HW223463   1.476   1.317  11.400  0.3774 -0.9352  0.7157
 4002SOL     OW23464   4.465   0.218   3.660 -0.3503  0.0864  0.1368
 4002SOL    HW123465   4.531   0.248   3.722 -0.0323 -2.4427  1.0158
 4002SOL    HW223466   4.508   0.140   3.624  0.3298 -0.1204  1.4079
 4003SOL     OW23467   3.574   3.656   3.109 -0.3541  0.1005  0.6559
 4003SOL    HW123468   3.627   3.732   3.085 -1.5063  0.4549 -0.7452
 4003SOL    HW223469   3.506   3.664   3.042 -0.3005  2.3617  0.8779
 4004SOL     OW23470   2.332   2.594  13.403 -0.1200 -0.4156  0.0127
 4004SOL    HW123471   2.406   2.545  13.440 -1.6853 -2.1033  0.9086
 4004SOL    HW223472   2.285   2.525  13.356  0.4223 -0.4327 -0.4905
 4005SOL     OW23473   2.521   4.048  14.351  0.0584  0.0550 -0.3728
 4005SOL    HW123474   2.464   4.088  14.417 -0.8250 -0.6152 -0.7266
 4005SOL    HW223475   2.544   3.971  14.402  1.7671  1.0292  0.3373
 4006SOL     OW23476   0.364   2.578   2.038  0.3080 -0.2199 -0.2425
 4006SOL    HW123477   0.363   2.527   2.119 -0.3453  0.6685  0.3081
 4006SOL    HW223478   0.411   2.523   1.975 -1.3041  0.0021 -1.6248
 4007SOL     OW23479   2.770   0.626  15.839  0.1709 -0.8805  0.0520
 4007SOL    HW123480   2.861   0.657  15.841 -0.7996  1.9753 -0.6196
 4007SOL    HW223481   2.781   0.589  15.752  0.0049 -1.3017  0.2098
 4008SOL     OW23482   2.090   3.505   6.170 -0.6153 -0.1928 -0.3546
 4008SOL    HW123483   2.054   3.577   6.117 -0.1304 -0.4685 -1.0540
 4008SOL    HW223484   2.161   3.475   6.113  1.7846  0.6187  2.2616
 4009SOL     OW23485   4.575   4.209   5.858 -0.3841  0.0761  0.0065
 4009SOL    HW123486   4.596   4.217   5.765  1.1722  0.3272  0.3902
 4009SOL    HW223487   4.594   4.117   5.880  2.9314  0.9327  0.7038
 4010SOL     OW23488   1.325   1.375   1.007  0.7778 -0.2112  0.3638
 4010SOL    HW123489   1.278   1.420   1.078 -1.2357 -0.4728 -0.8169
 4010SOL    HW223490   1.382   1.318   1.059 -0.1995 -2.1377 -0.6963
 4011SOL     OW23491   0.877   0.057   5.736 -0.3944 -0.0233  0.0793
 4011SOL    HW123492   0.969   0.064   5.764 -0.8232  0.3591  1.3972
 4011SOL    HW223493   0.858   0.148   5.715  1.7056 -0.0081 -1.7558
 4012SOL     OW23494   1.960   0.756   3.733 -0.4210  0.4706 -0.1003
 4012SOL    HW123495   1.864   0.754   3.730 -0.4175  0.9310 -0.4630
 4012SOL    HW223496   1.983   0.676   3.687  1.6012  0.3552  1.0949
 4013SOL     OW23497   4.314   1.167   7.410  0.4630  0.8675 -0.1959
 4013SOL    HW123498   4.228   1.197   7.438  1.2036 -0.2661  3.2635
 4013SOL    HW223499   4.360   1.247   7.386 -0.0320  1.0787 -0.4417
 4014SOL     OW23500   1.001   3.432   3.644 -0.1045  0.0475 -0.0841
 4014SOL    HW123501   0.969   3.345   3.620  1.0502 -1.8504  5.4780
 4014SOL    HW223502   1.096   3.419   3.646 -0.2308 -0.3058  3.6655
 4015SOL     OW23503   4.079   1.538   5.366 -0.1541  0.7176  0.1618
 4015SOL    HW123504   4.071   1.530   5.461  1.7885  1.2692  0.3800
 4015SOL    HW223505   4.091   1.633   5.358 -0.6737  0.7526 -0.1515
 4016SOL     OW23506   2.887   2.156   6.504  0.4840  0.3292  0.3819
 4016SOL    HW123507   2.862   2.166   6.595 -0.3999 -0.1251  0.1833
 4016SOL    HW223508   2.823   2.092   6.475  3.0483 -1.1755 -2.0556
 4017SOL     OW23509   2.143   3.185   3.909 -0.7790 -0.2901  0.2608
 4017SOL    HW123510   2.093   3.104   3.921  0.3359 -0.7654  1.6718
 4017SOL    HW223511   2.094   3.225   3.837  0.5867  1.2594  0.1934
 4018SOL     OW23512   3.800   3.894   8.040 -0.3235  0.0395  0.2341
 4018SOL    HW123513   3.834   3.816   7.997 -0.1085  0.2228  0.0727
 4018SOL    HW223514   3.728   3.865   8.097  0.4319 -1.6479  0.3457
 4019SOL     OW23515   4.659   3.804  16.098  0.1475 -0.3166 -0.5591
 4019SOL    HW123516   0.032   3.824  16.105  0.1220 -1.0504  1.9556
 4019SOL    HW223517   4.655   3.711  16.120  0.5119 -0.2558 -0.2396
 4020SOL     OW23518   3.374   2.846   0.773 -0.2576  0.2077  0.0626
 4020SOL    HW123519   3.349   2.909   0.704  2.9031  1.1515 -0.2216
 4020SOL    HW223520   3.401   2.890   0.853  1.5257  0.0481 -0.4600
 4021SOL     OW23521   4.674   2.636   7.306 -0.0963  0.1004  0.4288
 4021SOL    HW123522   4.614   2.681   7.365  0.6503  1.4733  0.1417
 4021SOL    HW223523   4.672   2.548   7.343  3.5284 -1.1625 -2.3865
 4022SOL     OW23524   1.291   3.345   3.646 -0.6529 -0.2372 -0.0422
 4022SOL    HW123525   1.298   3.405   3.572  0.4103  0.5140  0.6634
 4022SOL    HW223526   1.372   3.293   3.644 -0.9157 -0.7654  2.3179
 4023SOL     OW23527   4.423   2.374   3.054  0.1987  0.7010  0.3737
 4023SOL    HW123528   4.439   2.467   3.072  0.6731  0.3915  1.5411
 4023SOL    HW223529   4.355   2.353   3.117 -0.5710 -1.9786 -1.3685
 4024SOL     OW23530   2.254   1.432   9.372 -0.3448  0.1217 -0.2985
 4024SOL    HW123531   2.176   1.389   9.408 -0.2076 -0.0445 -0.2013
 4024SOL    HW223532   2.283   1.491   9.442  1.6141  0.5393 -1.4708
 4025SOL     OW23533   0.833   2.260   6.516 -0.5029  0.4748 -0.0815
 4025SOL    HW123534   0.844   2.341   6.467 -0.5640  0.0710 -0.7644
 4025SOL    HW223535   0.850   2.289   6.606 -0.1113 -0.3553  0.1199
 4026SOL     OW23536   4.668   0.147   9.132 -0.4161 -1.2809  0.2934
 4026SOL    HW123537   4.657   0.054   9.148 -3.5354 -0.7639  0.9629
 4026SOL    HW223538   4.636   0.143   9.042  0.5077 -1.0554 -0.0464
 4027SOL     OW23539   1.730   1.642   1.824 -0.6217  0.4038 -0.0841
 4027SOL    HW123540   1.768   1.667   1.908 -0.3578 -1.9613  0.4896
 4027SOL    HW223541   1.669   1.572   1.847 -2.1142  1.0220 -2.1194
 4028SOL     OW23542   1.258   1.363   7.278 -0.5264  0.1374  0.2374
 4028SOL    HW123543   1.212   1.435   7.234 -2.5973 -2.0129 -1.1320
 4028SOL    HW223544   1.274   1.300   7.208  1.2579 -0.4147  1.1550
 4029SOL     OW23545   2.398   2.604   6.899 -0.1748 -0.6276 -0.2114
 4029SOL    HW123546   2.441   2.682   6.933 -2.1126  1.0813 -1.7389
 4029SOL    HW223547   2.393   2.552   6.980 -0.4529  0.4417  0.4531
 4030SOL     OW23548   3.912   4.393   7.317  0.2259  0.3044  0.1319
 4030SOL    HW123549   3.870   4.321   7.269  0.0066  0.5997 -0.1226
 4030SOL    HW223550   3.847   4.458   7.344  0.5656  0.4791  0.5307
 4031SOL     OW23551   1.970   0.260   6.532 -0.2037 -0.1386 -0.0516
 4031SOL    HW123552   1.907   0.236   6.600  0.8915 -0.8042  0.7294
 4031SOL    HW223553   1.921   0.332   6.494 -0.8702 -0.4449  0.2387
 4032SOL     OW23554   4.185   0.689   2.905  0.5595 -0.2912  0.2491
 4032SOL    HW123555   4.117   0.653   2.848  1.6613 -2.3894  0.2590
 4032SOL    HW223556   4.255   0.699   2.841  2.0758  0.6994  2.0627
 4033SOL     OW23557   3.535   2.732   0.018  0.0704 -0.2095 -0.0239
 4033SOL    HW123558   3.611   2.776   0.056 -0.3257  1.0822 -0.7187
 4033SOL    HW223559   3.590   2.681  17.643 -0.3164 -1.2076  0.4828
 4034SOL     OW23560   0.525   1.630   6.603  0.1870 -1.0556  0.4829
 4034SOL    HW123561   0.575   1.637   6.521  1.3783 -1.1912  1.1993
 4034SOL    HW223562   0.597   1.603   6.658 -0.6621 -0.8865  1.6682
 4035SOL     OW23563   1.741   1.956   0.296  0.1788  0.3392 -0.4915
 4035SOL    HW123564   1.757   1.956   0.201 -0.0543  0.1870 -0.5318
 4035SOL    HW223565   1.666   1.897   0.289  1.3319 -1.0778 -1.0778
 4036SOL     OW23566   1.112   2.824   4.668  0.1791 -0.4248 -0.1218
 4036SOL    HW123567   1.136   2.864   4.584  1.7038 -0.4097  0.3257
 4036SOL    HW223568   1.035   2.874   4.695  1.1062  0.2365  1.3458
 4037SOL     OW23569   1.964   1.734   0.574 -0.0841  0.7277 -0.3078
 4037SOL    HW123570   1.921   1.689   0.501 -0.9260  0.4504  0.3623
 4037SOL    HW223571   2.041   1.681   0.592 -0.9781 -1.0066 -1.5394
 4038SOL     OW23572   0.483   3.524   7.740 -0.0939 -0.3045  0.3672
 4038SOL    HW123573   0.403   3.522   7.793  0.2179 -0.8356  0.8189
 4038SOL    HW223574   0.518   3.612   7.751  2.8357 -1.7348  2.4036
 4039SOL     OW23575   3.672   2.965   2.283 -0.1299 -0.7254 -0.6086
 4039SOL    HW123576   3.663   2.885   2.230 -0.7722 -0.5101 -0.8183
 4039SOL    HW223577   3.767   2.966   2.299 -0.2686  0.4563  0.1271
 4040SOL     OW23578   3.362   2.305   9.002 -0.3322  0.7681 -0.1356
 4040SOL    HW123579   3.274   2.277   9.028 -0.2355  0.7319  0.1551
 4040SOL    HW223580   3.416   2.227   9.018 -1.7232 -0.1799 -0.0803
 4041SOL     OW23581   0.238   0.615  10.997 -0.2778 -0.8143 -0.1461
 4041SOL    HW123582   0.276   0.674  10.932 -2.6132  0.1038 -0.6632
 4041SOL    HW223583   0.177   0.571  10.939 -0.2628 -1.0137 -0.0116
 4042SOL     OW23584   3.466   2.140  16.306 -0.1109  0.1228  0.4158
 4042SOL    HW123585   3.507   2.077  16.247 -2.6757 -0.1784 -1.0447
 4042SOL    HW223586   3.390   2.088  16.334  1.0857 -2.8242 -1.8138
 4043SOL     OW23587   0.932   1.185   5.936 -0.4502  0.0868  0.9088
 4043SOL    HW123588   1.016   1.140   5.927 -0.3543  0.6096 -0.9050
 4043SOL    HW223589   0.875   1.120   5.977  0.5131 -1.0890  0.3826
 4044SOL     OW23590   2.364   0.612   3.582  0.3127  0.0608 -0.8710
 4044SOL    HW123591   2.416   0.567   3.516  0.4405 -1.2794  0.1446
 4044SOL    HW223592   2.301   0.546   3.611  1.3452 -0.3895  0.3401
 4045SOL     OW23593   3.479   2.134   5.755 -0.4536  0.2327 -0.0713
 4045SOL    HW123594   3.524   2.209   5.716  0.3787 -0.1307  0.1850
 4045SOL    HW223595   3.465   2.159   5.847 -0.2016  2.5128 -0.6601
 4046SOL     OW23596   0.146   4.103   7.002 -0.1818  0.1853 -0.6297
 4046SOL    HW123597   0.139   4.096   7.097 -0.8576 -0.7823 -0.7431
 4046SOL    HW223598   0.068   4.051   6.984 -0.8453  0.9639  0.0272
 4047SOL     OW23599   2.830   0.880   4.317 -0.6496  0.5241  0.6282
 4047SOL    HW123600   2.774   0.923   4.252  0.8178  0.8145 -0.4690
 4047SOL    HW223601   2.844   0.794   4.277  1.3569  1.2722 -0.2878
 4048SOL     OW23602   2.864   0.731  14.468  0.7688 -0.4712 -0.8635
 4048SOL    HW123603   2.929   0.679  14.421  0.6868 -1.6808  0.3847
 4048SOL    HW223604   2.905   0.817  14.459  0.2838 -0.2051 -0.5194
 4049SOL     OW23605   2.403   0.471   0.803 -0.5103  0.0429 -0.3824
 4049SOL    HW123606   2.323   0.502   0.845  0.0453  0.1037  0.6330
 4049SOL    HW223607   2.462   0.511   0.867 -0.3394 -1.8129  0.6243
 4050SOL     OW23608   2.071   0.394  17.047  0.1768  0.2416  0.1243
 4050SOL    HW123609   2.020   0.411  16.968  0.8114  2.2902  0.1506
 4050SOL    HW223610   2.054   0.301  17.062  2.9733 -0.1945  0.4893
 4051SOL     OW23611   4.014   3.616   6.771  0.1558  0.1757  0.2215
 4051SOL    HW123612   3.922   3.598   6.792  0.5793  0.9586  2.7718
 4051SOL    HW223613   4.014   3.593   6.678  2.5359  3.7516 -0.6393
 4052SOL     OW23614   2.497   2.902   6.095  0.0335 -0.2413  0.3301
 4052SOL    HW123615   2.474   2.832   6.155  1.4771  1.2577  2.6148
 4052SOL    HW223616   2.577   2.923   6.144 -0.4409 -1.9663  1.8631
 4053SOL     OW23617   0.288   2.137   3.013  0.3523  0.5239 -0.0065
 4053SOL    HW123618   0.325   2.225   3.008 -1.1025  1.1566  0.1192
 4053SOL    HW223619   0.355   2.082   2.972  0.7367  0.6747  0.4245
 4054SOL     OW23620   3.332   4.545  17.385  0.0113  0.3363  0.1347
 4054SOL    HW123621   3.426   4.562  17.379 -0.2961  1.8373 -0.5566
 4054SOL    HW223622   3.283   4.627  17.374 -0.3956  0.6574  4.1759
 4055SOL     OW23623   3.165   0.482   6.402 -0.4149  0.1429 -0.5406
 4055SOL    HW123624   3.070   0.480   6.392 -0.1973 -0.5508 -2.4322
 4055SOL    HW223625   3.178   0.567   6.360  1.2107  0.2190  0.1239
 4056SOL     OW23626   1.874   2.578   1.515  0.5192  0.6292  0.4217
 4056SOL    HW123627   1.953   2.619   1.479 -0.2654  0.6556 -1.2748
 4056SOL    HW223628   1.894   2.486   1.497  2.5094  0.9503  0.9947
 4057SOL     OW23629   4.519   2.183   5.157  0.4432 -0.2325 -0.1174
 4057SOL    HW123630   4.590   2.167   5.219  1.1298  0.4216 -0.7231
 4057SOL    HW223631   4.513   2.100   5.110  0.5991  0.4537 -1.3597
 4058SOL     OW23632   3.944   2.803   9.271  0.0098 -0.0351  0.2055
 4058SOL    HW123633   4.015   2.747   9.304  1.8726  1.8826 -0.5305
 4058SOL    HW223634   3.953   2.874   9.334  0.4936 -0.1923  0.3170
 4059SOL     OW23635   1.389   0.629   5.553  0.5704  0.0795  0.5370
 4059SOL    HW123636   1.341   0.700   5.510  1.8054  1.1772  0.9698
 4059SOL    HW223637   1.382   0.658   5.644 -3.1032 -0.9938  0.5980
 4060SOL     OW23638   1.180   0.133  15.839 -0.0074 -0.4064  0.4884
 4060SOL    HW123639   1.092   0.163  15.861  0.4186  1.0404  0.2444
 4060SOL    HW223640   1.206   0.080  15.914  0.0302 -0.1344  0.6691
 4061SOL     OW23641   3.490   0.855   6.216 -0.3798 -0.1287 -0.2260
 4061SOL    HW123642   3.432   0.919   6.176  1.6798  1.3293 -0.8971
 4061SOL    HW223643   3.554   0.850   6.145 -2.0835 -0.2012 -1.7517
 4062SOL     OW23644   0.619   1.026  16.012 -0.0656  0.6914  0.0301
 4062SOL    HW123645   0.629   0.949  15.956  0.7116  0.7788  0.0403
 4062SOL    HW223646   0.543   1.000  16.063  0.0780  0.9891  0.4065
 4063SOL     OW23647   3.343   0.688   8.060 -0.4547  0.4724 -0.1910
 4063SOL    HW123648   3.347   0.726   8.148 -1.8587 -1.3801  0.6871
 4063SOL    HW223649   3.382   0.600   8.066 -1.8895 -0.0429  1.7119
 4064SOL     OW23650   3.530   0.707  13.774 -0.8174  0.4475  0.1583
 4064SOL    HW123651   3.492   0.731  13.690 -0.0732 -0.4374 -0.4346
 4064SOL    HW223652   3.606   0.762  13.792 -0.2923 -0.8238  1.8622
 4065SOL     OW23653   4.070   4.483   3.647  0.2292  0.0119 -0.4372
 4065SOL    HW123654   4.134   4.443   3.706 -1.7054  0.2818  1.8149
 4065SOL    HW223655   4.098   4.461   3.558  0.5228 -1.9551  0.1498
 4066SOL     OW23656   2.264   2.126  17.608 -0.0296 -0.3896  0.6369
 4066SOL    HW123657   2.241   2.193  17.672 -0.0619 -0.6485  0.9000
 4066SOL    HW223658   2.325   2.178  17.556  0.5078 -1.8854 -0.2285
 4067SOL     OW23659   0.649   1.037  17.155  0.2814 -0.1814 -0.1321
 4067SOL    HW123660   0.649   0.978  17.230  0.0375  1.1515  0.9203
 4067SOL    HW223661   0.562   1.025  17.118  0.6285 -0.0641 -0.9933
 4068SOL     OW23662   2.490   1.669   3.974 -0.0894 -0.9083 -0.2370
 4068SOL    HW123663   2.426   1.657   3.904  0.5386  2.7388 -1.4426
 4068SOL    HW223664   2.521   1.579   3.977 -4.0963 -2.3277 -0.5806
 4069SOL     OW23665   3.285   4.679   8.893  0.0753 -0.1088 -0.5159
 4069SOL    HW123666   3.271   4.586   8.911  0.1209 -0.1090 -0.4801
 4069SOL    HW223667   3.348   4.706   8.959 -0.2609  0.6398 -0.5107
 4070SOL     OW23668   1.251   2.750   7.185 -0.0241  0.0256  0.1038
 4070SOL    HW123669   1.269   2.755   7.091  0.8120  1.6119  0.3497
 4070SOL    HW223670   1.322   2.692   7.209 -0.7286 -0.2843  1.3949
 4071SOL     OW23671   0.050   1.340   4.799 -0.3287  0.0619 -0.0960
 4071SOL    HW123672   0.061   1.389   4.880  0.9956 -0.7367  0.1957
 4071SOL    HW223673   0.013   1.258   4.832 -0.6561  0.7195  1.1503
 4072SOL     OW23674   1.325   2.497  12.377 -0.1664 -0.6239 -0.1773
 4072SOL    HW123675   1.293   2.537  12.458  0.1058 -0.7646  0.0012
 4072SOL    HW223676   1.410   2.461  12.402 -0.3202 -0.1587  0.9801
 4073SOL     OW23677   2.555   0.870  15.344 -0.6858  0.7747  0.4580
 4073SOL    HW123678   2.579   0.778  15.333  2.8257  1.9144 -1.5917
 4073SOL    HW223679   2.468   0.856  15.382 -0.9886 -1.2338 -0.9788
 4074SOL     OW23680   0.627   2.271   0.074 -0.5102  0.0357 -0.1027
 4074SOL    HW123681   0.619   2.316  17.674 -2.1269  0.6995  0.4055
 4074SOL    HW223682   0.685   2.201   0.043  1.4991  1.6113  0.1405
 4075SOL     OW23683   4.597   0.177   2.199  0.3791 -0.4753 -0.3243
 4075SOL    HW123684   4.581   0.194   2.107  1.9775  2.4970 -0.0707
 4075SOL    HW223685   4.689   0.204   2.201  0.2843 -0.2887  1.9979
 4076SOL     OW23686   3.400   0.188   3.641  0.5959 -0.0704  0.1856
 4076SOL    HW123687   3.371   0.206   3.730  0.3701 -0.1256  0.1221
 4076SOL    HW223688   3.402   0.280   3.615  1.8551 -0.0612  0.2950
 4077SOL     OW23689   0.052   1.532   5.304 -0.3265 -0.0026 -0.6746
 4077SOL    HW123690   0.064   1.598   5.372 -2.2852 -0.7487  0.3814
 4077SOL    HW223691   4.678   1.530   5.288 -0.1875 -1.6615 -1.2303
 4078SOL     OW23692   2.357   0.166   5.681  0.0189 -0.1669 -0.8065
 4078SOL    HW123693   2.279   0.212   5.649 -1.3653 -1.5300  0.5976
 4078SOL    HW223694   2.312   0.130   5.758 -1.9799 -0.8015 -2.2587
 4079SOL     OW23695   2.563   2.412   8.928 -0.4210  0.5140  0.6602
 4079SOL    HW123696   2.644   2.363   8.940 -1.3506 -1.1729  0.0363
 4079SOL    HW223697   2.542   2.437   9.018 -0.8071 -0.8077  0.9403
 4080SOL     OW23698   4.048   3.368   4.705 -0.8803 -0.7363 -0.3452
 4080SOL    HW123699   3.969   3.421   4.715 -0.9499 -0.8688 -0.2000
 4080SOL    HW223700   4.029   3.316   4.627 -0.6110 -0.5960 -0.5027
 4081SOL     OW23701   1.503   2.530  17.675 -0.1853  0.7553 -0.1392
 4081SOL    HW123702   1.462   2.485   0.066  1.1582 -1.2592 -0.6116
 4081SOL    HW223703   1.485   2.624  17.681  1.7729  0.8701  3.5089
 4082SOL     OW23704   0.787   4.668  15.590  0.5048 -0.2394  0.0480
 4082SOL    HW123705   0.872   4.629  15.607  0.2680  0.1224  2.0607
 4082SOL    HW223706   0.812   0.032  15.553  0.8790 -0.8693 -1.1139
 4083SOL     OW23707   0.105   3.480   6.327 -0.3204  0.2431 -0.4115
 4083SOL    HW123708   0.055   3.450   6.403 -0.4871  0.7924 -0.3066
 4083SOL    HW223709   0.043   3.544   6.295 -0.3784  1.0343  1.2788
 4084SOL     OW23710   0.871   2.122   3.395 -0.0588 -0.4218 -0.8257
 4084SOL    HW123711   0.946   2.124   3.335 -1.7550 -1.5186 -2.9867
 4084SOL    HW223712   0.910   2.152   3.477 -0.0961  1.7453 -1.5911
 4085SOL     OW23713   0.575   2.273   9.739  0.0796 -0.0679 -0.2579
 4085SOL    HW123714   0.533   2.352   9.773  0.0194 -1.0359  1.9419
 4085SOL    HW223715   0.656   2.259   9.788 -0.8653  0.9400  1.5768
 4086SOL     OW23716   3.330   0.994   3.026 -0.0098 -0.1270  0.7637
 4086SOL    HW123717   3.252   1.050   3.032  0.8252  0.9231  1.7651
 4086SOL    HW223718   3.385   1.041   3.089  1.4773  0.3414 -0.9109
 4087SOL     OW23719   1.394   1.475  14.364 -0.7363 -0.1304 -0.3611
 4087SOL    HW123720   1.382   1.554  14.312  1.1726 -1.0838 -2.2434
 4087SOL    HW223721   1.369   1.499  14.453  0.9114  1.0526 -0.2099
 4088SOL     OW23722   3.664   0.052   1.571 -0.3175 -0.1904  0.4817
 4088SOL    HW123723   3.700   0.082   1.654  2.3884  0.1256 -0.8103
 4088SOL    HW223724   3.665   4.677   1.577  1.7334 -0.1940  0.1194
 4089SOL     OW23725   1.489   0.891   5.134 -0.0949 -0.4820  0.1885
 4089SOL    HW123726   1.475   0.955   5.203  0.6611 -0.9596  0.7768
 4089SOL    HW223727   1.553   0.828   5.165  0.2979 -0.2217 -0.1018
 4090SOL     OW23728   1.417   4.444   7.590 -0.1845 -0.0284 -0.3864
 4090SOL    HW123729   1.348   4.434   7.524 -1.2571 -0.5427  0.8216
 4090SOL    HW223730   1.480   4.495   7.539  0.7688 -0.9482 -0.1112
 4091SOL     OW23731   4.171   2.970   4.954  0.0215 -0.4028 -0.0667
 4091SOL    HW123732   4.121   3.051   4.952  0.3983 -0.2165 -2.3236
 4091SOL    HW223733   4.185   2.950   5.046  1.1528 -1.2762 -0.4187
 4092SOL     OW23734   2.511   1.853   2.084 -0.5175  0.2638 -0.6488
 4092SOL    HW123735   2.498   1.922   2.148  0.3108  0.9627 -1.2333
 4092SOL    HW223736   2.600   1.820   2.098 -0.7251 -0.5633 -1.2731
 4093SOL     OW23737   0.945   0.450   2.142 -0.2662  0.3284 -0.0470
 4093SOL    HW123738   0.937   0.465   2.047 -1.0371  0.2050 -0.0037
 4093SOL    HW223739   0.852   0.429   2.154 -0.3089  0.1181 -0.7510
 4094SOL     OW23740   1.742   2.023  13.560  0.6484 -0.6969 -0.1686
 4094SOL    HW123741   1.810   2.050  13.498  0.3372 -0.6948 -0.5056
 4094SOL    HW223742   1.673   2.020  13.494 -2.3497 -1.5748  3.0092
 4095SOL     OW23743   3.998   3.238   1.745  0.2118 -0.1114  0.7758
 4095SOL    HW123744   4.036   3.225   1.659  0.4586  1.1952  0.6942
 4095SOL    HW223745   3.976   3.331   1.748 -1.9709 -0.6081  0.7504
 4096SOL     OW23746   4.293   4.694   4.874  0.0825  0.0137  0.2016
 4096SOL    HW123747   4.224   4.627   4.876  1.1480 -1.0342  1.5905
 4096SOL    HW223748   4.274   0.014   4.790 -0.8283 -0.3695  0.2208
 4097SOL     OW23749   0.862   2.773   2.261  0.3202  0.6481 -0.2822
 4097SOL    HW123750   0.846   2.680   2.278 -0.4773  0.8729  0.2203
 4097SOL    HW223751   0.892   2.793   2.350 -0.2855  2.2325 -0.4302
 4098SOL     OW23752   4.564   0.512  13.356  0.1512 -0.0576 -0.3482
 4098SOL    HW123753   4.470   0.528  13.361 -0.0638 -1.8686  1.7727
 4098SOL    HW223754   4.571   0.437  13.416  1.7507  2.6025  2.7414
 4099SOL     OW23755   3.037   3.578   6.206  0.0972  0.0605  0.3254
 4099SOL    HW123756   3.109   3.519   6.232 -1.4528 -1.3765  1.3508
 4099SOL    HW223757   2.993   3.551   6.126  1.1456 -1.2971  0.2037
 4100SOL     OW23758   0.529   4.386   3.332 -0.2048  0.0748  0.5818
 4100SOL    HW123759   0.596   4.317   3.326 -1.0891 -0.7757  0.4703
 4100SOL    HW223760   0.515   4.374   3.426  2.1699 -1.4055  0.7636
 4101SOL     OW23761   0.828   0.521   1.229  0.0901  0.3392 -0.2264
 4101SOL    HW123762   0.799   0.597   1.178 -0.6579 -1.1841 -2.0449
 4101SOL    HW223763   0.866   0.468   1.160  1.8172  2.5590 -0.9882
 4102SOL     OW23764   0.618   2.712   0.545 -0.7118 -0.2149 -0.9331
 4102SOL    HW123765   0.607   2.778   0.476 -1.4947  2.4849  1.7347
 4102SOL    HW223766   0.630   2.776   0.615 -0.4034 -2.1402  0.7736
 4103SOL     OW23767   1.009   2.445   3.804 -0.1175 -0.1627 -0.2963
 4103SOL    HW123768   0.934   2.468   3.859 -0.1047 -1.5201  0.2847
 4103SOL    HW223769   0.966   2.382   3.745  1.4354  2.5156 -4.3229
 4104SOL     OW23770   2.749   0.620  17.104  0.3758 -0.1619 -0.5249
 4104SOL    HW123771   2.656   0.607  17.122  0.1541  3.2289  0.8022
 4104SOL    HW223772   2.776   0.605  17.194  2.5654 -1.7108 -1.4353
 4105SOL     OW23773   4.697   1.846  15.103  0.5206 -0.0833 -0.1441
 4105SOL    HW123774   4.642   1.818  15.177  0.9427 -1.2891 -0.2823
 4105SOL    HW223775   0.027   1.766  15.087  0.0740 -0.4946  0.4888
 4106SOL     OW23776   0.277   4.585  15.999  0.3494 -0.6633 -0.1624
 4106SOL    HW123777   0.261   4.562  16.090 -1.3010 -1.9749 -0.7794
 4106SOL    HW223778   0.188   4.590  15.965 -0.2238  1.0941  1.6049
 4107SOL     OW23779   4.345   3.439  12.911 -0.7737 -0.3754 -0.3347
 4107SOL    HW123780   4.297   3.396  12.840 -0.2823  1.5525 -1.8193
 4107SOL    HW223781   4.404   3.367  12.932 -1.0460 -0.0243  1.5998
 4108SOL     OW23782   0.175   0.755   4.463 -0.4398 -0.3733 -0.0187
 4108SOL    HW123783   0.219   0.672   4.485  1.4058  0.0162 -2.1904
 4108SOL    HW223784   0.239   0.804   4.411 -1.0241  1.4263  0.9488
 4109SOL     OW23785   0.706   1.951  16.777  0.4121  0.1446 -0.4282
 4109SOL    HW123786   0.764   1.935  16.852 -1.0391  1.4205  0.9726
 4109SOL    HW223787   0.690   2.045  16.777 -2.9149 -0.4077  3.1767
 4110SOL     OW23788   2.215   2.992  12.569  0.4636  0.2477  0.3204
 4110SOL    HW123789   2.139   2.936  12.551 -1.6492  2.2856  2.8914
 4110SOL    HW223790   2.285   2.929  12.555  0.9055  1.0194 -0.9650
 4111SOL     OW23791   1.135   1.680   5.849 -0.1289  0.1192  0.0542
 4111SOL    HW123792   1.164   1.608   5.793  0.0378 -0.2400  0.6124
 4111SOL    HW223793   1.042   1.679   5.824 -0.9079  1.7213  2.8229
 4112SOL     OW23794   2.223   0.553  17.191  0.0498  0.4093 -0.1610
 4112SOL    HW123795   2.220   0.498  17.270  1.3264 -0.5779 -0.8066
 4112SOL    HW223796   2.161   0.505  17.137  1.9225 -0.7097 -1.3238
 4113SOL     OW23797   1.400   1.271  14.154  0.2601  0.0208  0.3235
 4113SOL    HW123798   1.412   1.326  14.231  0.8887 -0.4327  0.5549
 4113SOL    HW223799   1.380   1.334  14.085 -0.0550  0.3442  0.7118
 4114SOL     OW23800   1.689   0.335   7.378 -0.3392 -0.3287 -0.3654
 4114SOL    HW123801   1.752   0.308   7.445 -0.5553  0.5879  0.2191
 4114SOL    HW223802   1.607   0.312   7.422  0.7128 -1.0810  1.1845
 4115SOL     OW23803   1.585   3.873   6.157  0.2930 -0.4598 -0.3441
 4115SOL    HW123804   1.548   3.839   6.238 -0.7838  1.4075 -0.0540
 4115SOL    HW223805   1.577   3.801   6.095  1.0734 -0.2893 -0.6444
 4116SOL     OW23806   0.344   1.338  15.241  0.3088 -0.0372  0.1203
 4116SOL    HW123807   0.396   1.395  15.298  0.9315  0.8107 -1.2742
 4116SOL    HW223808   0.253   1.361  15.259  0.1488 -1.6999  1.3490
 4117SOL     OW23809   2.113   1.282   4.178  0.3019 -0.0528  0.8618
 4117SOL    HW123810   2.171   1.328   4.117  0.1674  0.7776  1.3617
 4117SOL    HW223811   2.118   1.196   4.136  0.6058  0.1889  0.4082
 4118SOL     OW23812   3.611   0.874   5.982 -0.5820 -0.4314  0.6769
 4118SOL    HW123813   3.575   0.951   5.938  0.9363  0.5115  1.0704
 4118SOL    HW223814   3.701   0.908   5.986 -0.5510 -0.4136 -0.3095
 4119SOL     OW23815   0.348   0.696   9.992  0.0376  0.4431 -0.2322
 4119SOL    HW123816   0.268   0.668   9.948  0.5937 -2.3914  0.5531
 4119SOL    HW223817   0.381   0.615  10.030 -3.8888 -0.0333  2.2095
 4120SOL     OW23818   3.440   0.245  14.315 -0.2555 -0.3434  0.0047
 4120SOL    HW123819   3.374   0.275  14.253 -0.3346 -1.9087 -0.6498
 4120SOL    HW223820   3.511   0.225  14.254 -0.4434  1.0852 -0.6826
 4121SOL     OW23821   1.854   2.958   4.476 -0.0501  0.0796 -0.1313
 4121SOL    HW123822   1.859   3.052   4.492  0.1375 -0.0953  0.8508
 4121SOL    HW223823   1.906   2.947   4.397 -2.4224  0.0883 -1.6812
 4122SOL     OW23824   2.724   3.901   2.093 -0.2127  0.4620  0.0849
 4122SOL    HW123825   2.644   3.870   2.051  0.9658 -3.0195  0.3974
 4122SOL    HW223826   2.739   3.984   2.048 -2.3893  1.0842  0.5115
 4123SOL     OW23827   2.647   2.804   8.875  0.5795 -0.0050  0.6282
 4123SOL    HW123828   2.577   2.777   8.935  0.2978  0.0230  0.3125
 4123SOL    HW223829   2.711   2.830   8.941  0.1961 -0.9748  1.3882
 4124SOL     OW23830   2.951   2.419   3.661  0.4125 -0.0196 -0.2358
 4124SOL    HW123831   2.970   2.486   3.594  1.4606  1.6403  1.7112
 4124SOL    HW223832   3.012   2.455   3.726  0.1619 -0.3267  0.1675
 4125SOL     OW23833   3.361   0.100  16.233  0.0805  0.2405 -0.1822
 4125SOL    HW123834   3.379   0.167  16.168 -0.9368  1.8786  1.2395
 4125SOL    HW223835   3.357   0.024  16.174 -2.8435 -0.1409  0.4866
 4126SOL     OW23836   3.271   3.437   8.791 -0.1867 -1.0826 -0.6957
 4126SOL    HW123837   3.212   3.361   8.794 -2.0886  0.2947 -3.4465
 4126SOL    HW223838   3.356   3.393   8.786  1.0793  1.2937 -0.0676
 4127SOL     OW23839   4.472   3.325  14.329 -0.2526 -0.3958 -0.2495
 4127SOL    HW123840   4.481   3.408  14.374 -3.7558  0.1723 -0.6363
 4127SOL    HW223841   4.500   3.349  14.240 -3.8054 -0.2630 -1.3198
 4128SOL     OW23842   1.209   3.563   5.234  0.2650 -0.3380  0.3793
 4128SOL    HW123843   1.295   3.528   5.258  0.9251  1.9555  1.3721
 4128SOL    HW223844   1.147   3.491   5.244 -0.0106 -0.0698  0.5918
 4129SOL     OW23845   2.114   2.653   8.863 -0.0520  0.1104  0.0898
 4129SOL    HW123846   2.084   2.729   8.913 -2.2394 -1.4652  1.1739
 4129SOL    HW223847   2.154   2.597   8.929 -1.1817  0.8874  1.4474
 4130SOL     OW23848   3.925   1.107   7.558  0.2450 -0.1823  0.6063
 4130SOL    HW123849   3.972   1.186   7.585 -0.9340  1.1300 -1.1901
 4130SOL    HW223850   3.841   1.132   7.596 -1.1571 -0.8107 -2.1150
 4131SOL     OW23851   1.132   2.426   8.750  0.1293  0.0986  0.5168
 4131SOL    HW123852   1.203   2.378   8.707  1.1016  0.9734  1.1504
 4131SOL    HW223853   1.124   2.379   8.833  0.0039 -3.3035 -1.3809
 4132SOL     OW23854   1.307   1.254   7.981  0.0233  0.0509  0.5328
 4132SOL    HW123855   1.304   1.345   8.009 -0.0267  0.7687 -1.8165
 4132SOL    HW223856   1.216   1.227   7.994 -1.0733  2.3016 -2.3951
 4133SOL     OW23857   0.506   1.108   5.672 -0.4528 -0.4007 -0.3259
 4133SOL    HW123858   0.467   1.086   5.756  1.8424 -3.2935  0.0127
 4133SOL    HW223859   0.430   1.086   5.618 -0.3168  2.5478 -1.6977
 4134SOL     OW23860   1.746   2.507   6.945 -0.7282  0.3072  0.4267
 4134SOL    HW123861   1.819   2.552   6.988 -0.6512  0.1422  0.4697
 4134SOL    HW223862   1.768   2.419   6.975  0.1958  0.2636 -0.3580
 4135SOL     OW23863   3.094   3.861   4.848  0.3257  0.0780  0.3326
 4135SOL    HW123864   3.061   3.943   4.883 -0.7113  0.3428 -1.2516
 4135SOL    HW223865   3.175   3.860   4.898  1.5654  0.4920 -1.6610
 4136SOL     OW23866   2.189   4.596   4.300  0.5157  0.0957  0.8371
 4136SOL    HW123867   2.114   4.556   4.255  0.1046 -0.1490  1.7482
 4136SOL    HW223868   2.139   4.655   4.357  1.7836 -0.9722  3.0318
 4137SOL     OW23869   1.914   3.994   4.127  0.2382  0.2353  0.5344
 4137SOL    HW123870   1.831   3.975   4.172 -1.5159  1.9833 -1.9454
 4137SOL    HW223871   1.983   3.997   4.194  1.8683 -1.6574 -1.0896
 4138SOL     OW23872   0.927   1.433   1.215 -0.0063  0.3262 -1.3184
 4138SOL    HW123873   0.962   1.485   1.288 -0.2053 -1.1369 -0.1784
 4138SOL    HW223874   0.834   1.450   1.224 -0.3559 -2.1233 -0.3469
 4139SOL     OW23875   4.533   4.329   8.480  0.1577 -0.0712 -0.1433
 4139SOL    HW123876   4.529   4.233   8.477 -2.1033 -0.1017  3.5103
 4139SOL    HW223877   4.487   4.363   8.403 -2.4219 -2.2283  0.4152
 4140SOL     OW23878   2.540   0.925   1.217  0.3554  0.3452  0.1497
 4140SOL    HW123879   2.547   0.831   1.200  0.3673  0.7519 -2.2079
 4140SOL    HW223880   2.461   0.937   1.165 -0.2213  1.7343  1.3649
 4141SOL     OW23881   3.590   0.370   1.569 -0.0434 -0.2588 -0.3375
 4141SOL    HW123882   3.683   0.348   1.563 -0.5083 -1.9361 -1.4880
 4141SOL    HW223883   3.572   0.369   1.475  0.8362 -1.0309 -0.5057
 4142SOL     OW23884   3.751   1.607   8.609 -0.4838 -0.4692 -0.2496
 4142SOL    HW123885   3.766   1.591   8.516 -0.2859  1.2523 -0.5072
 4142SOL    HW223886   3.841   1.619   8.639 -0.1201 -2.1122 -0.6704
 4143SOL     OW23887   0.744   2.621   7.001  0.5402  0.3334 -0.7515
 4143SOL    HW123888   0.826   2.608   6.953 -0.0251 -0.6514 -1.4551
 4143SOL    HW223889   0.778   2.630   7.090 -0.2636  2.0467 -0.6362
 4144SOL     OW23890   1.903   3.932  10.181 -0.1301 -0.2437 -0.2432
 4144SOL    HW123891   1.884   3.861  10.242 -0.8591 -0.1878 -0.4055
 4144SOL    HW223892   1.817   3.971  10.168  0.1369  0.5028  0.1828
 4145SOL     OW23893   2.422   0.162   2.287  0.1715 -0.5882 -0.3468
 4145SOL    HW123894   2.420   0.125   2.199  1.7147  0.2768 -0.7482
 4145SOL    HW223895   2.439   0.255   2.272 -2.3702  0.0828  0.9324
 4146SOL     OW23896   4.545   0.179   5.407 -0.0563 -1.2416 -0.4301
 4146SOL    HW123897   4.543   0.262   5.455  2.4550 -0.7173 -1.2014
 4146SOL    HW223898   4.570   0.125   5.482  2.9223  0.1357 -0.4263
 4147SOL     OW23899   1.269   4.695   6.496  0.0259 -0.0416 -0.0766
 4147SOL    HW123900   1.292   0.005   6.583 -0.5514  0.7076 -0.1903
 4147SOL    HW223901   1.230   4.608   6.511  1.3558 -0.8308 -1.1329
 4148SOL     OW23902   1.407   0.765  10.231  0.8446  0.4597 -0.6000
 4148SOL    HW123903   1.445   0.687  10.271  0.6774  0.3351 -0.6873
 4148SOL    HW223904   1.364   0.802  10.308  2.5872  0.3993  0.4018
 4149SOL     OW23905   4.287   3.260   9.333  0.3228 -0.4868  0.3806
 4149SOL    HW123906   4.365   3.305   9.300 -0.2105 -0.7125 -1.2108
 4149SOL    HW223907   4.302   3.166   9.321 -0.1377 -0.1925 -2.4216
 4150SOL     OW23908   2.378   3.979   2.756  0.1607  0.4241  0.4549
 4150SOL    HW123909   2.422   4.062   2.770 -1.1922  1.0983  0.6512
 4150SOL    HW223910   2.401   3.948   2.668  0.3043  0.6636  0.4104
 4151SOL     OW23911   3.329   2.662   0.180  0.0757 -0.0790  0.3161
 4151SOL    HW123912   3.411   2.685   0.134 -0.5619  0.7936 -0.3787
 4151SOL    HW223913   3.328   2.742   0.233 -1.8302  0.5908 -0.7216
 4152SOL     OW23914   0.339   1.236   1.367 -0.0803 -0.3135 -0.5368
 4152SOL    HW123915   0.331   1.323   1.406 -2.5751 -0.2200 -1.2495
 4152SOL    HW223916   0.347   1.184   1.447 -1.4913 -1.5478 -1.1904
 4153SOL     OW23917   1.517   2.335   8.902  0.6014  0.0319  0.0679
 4153SOL    HW123918   1.483   2.295   8.982 -0.0160 -1.1480 -0.7727
 4153SOL    HW223919   1.484   2.424   8.918 -0.2181  0.0234 -1.5332
 4154SOL     OW23920   0.281   4.637   6.349 -0.5135  0.7490  0.1676
 4154SOL    HW123921   0.257   4.674   6.434  1.4762  0.8610  0.6841
 4154SOL    HW223922   0.377   4.647   6.351 -0.2392 -1.3995 -1.7539
 4155SOL     OW23923   2.188   0.637   2.105 -0.0506 -0.2618 -0.2518
 4155SOL    HW123924   2.201   0.557   2.054  2.8915 -0.4834  0.8414
 4155SOL    HW223925   2.094   0.632   2.126  0.1699  0.8711  1.0229
 4156SOL     OW23926   3.706   0.168   1.311 -0.0007  0.2303  0.5162
 4156SOL    HW123927   3.628   0.221   1.328 -1.4867 -1.6693 -0.3632
 4156SOL    HW223928   3.691   0.105   1.381 -0.0948  0.3979  0.6487
 4157SOL     OW23929   3.990   0.475   7.079 -0.2651  0.3604  0.1054
 4157SOL    HW123930   3.971   0.563   7.110 -0.9243  0.4528 -0.5616
 4157SOL    HW223931   3.934   0.465   7.003  0.1378 -1.8557  0.0785
 4158SOL     OW23932   1.679   1.565  14.333  0.0976 -0.1984 -0.6539
 4158SOL    HW123933   1.666   1.634  14.268 -0.3540  3.0239  2.8856
 4158SOL    HW223934   1.599   1.513  14.344 -0.7257  1.5937  1.5175
 4159SOL     OW23935   1.159   1.436   5.714 -0.1904 -0.2068 -0.7759
 4159SOL    HW123936   1.106   1.389   5.778  2.1805 -1.5317  0.1661
 4159SOL    HW223937   1.243   1.396   5.732 -0.2314  0.7787  1.6001
 4160SOL     OW23938   3.786   1.110   3.667 -0.0243 -0.7452  0.5770
 4160SOL    HW123939   3.879   1.119   3.650 -0.1447  0.9954  0.7821
 4160SOL    HW223940   3.765   1.196   3.630  4.1096  0.3709  0.8347
 4161SOL     OW23941   3.427   0.316   3.298 -0.2312  0.1197  0.2999
 4161SOL    HW123942   3.459   0.363   3.376 -0.5391  0.4058  0.2546
 4161SOL    HW223943   3.342   0.301   3.340  0.0407 -0.0385  0.8010
 4162SOL     OW23944   4.168   0.352   5.001  0.8286 -0.2194 -0.2837
 4162SOL    HW123945   4.241   0.405   4.969 -0.7687  2.2259  0.1588
 4162SOL    HW223946   4.137   0.327   4.914  0.5793  1.0335 -0.5503
 4163SOL     OW23947   3.536   0.416   6.761  0.5083  0.3590  0.1140
 4163SOL    HW123948   3.527   0.506   6.728 -0.8893  0.3530  0.5087
 4163SOL    HW223949   3.549   0.375   6.675 -1.1099 -0.1963  0.1291
 4164SOL     OW23950   4.036   1.680   1.496 -0.2555 -0.1835  0.0917
 4164SOL    HW123951   4.115   1.727   1.522  0.1152  0.1070 -1.5441
 4164SOL    HW223952   4.075   1.615   1.438  1.0949  0.2617  0.5173
 4165SOL     OW23953   4.084   3.785  15.572 -0.4689 -0.0375 -0.1773
 4165SOL    HW123954   4.011   3.741  15.529 -0.7771 -0.6394  0.9559
 4165SOL    HW223955   4.043   3.822  15.650 -0.0392 -0.0281  0.0468
 4166SOL     OW23956   4.258   0.442   1.988 -0.1320  0.4428 -0.2550
 4166SOL    HW123957   4.327   0.507   1.997 -0.8354  1.3508 -1.3631
 4166SOL    HW223958   4.280   0.389   2.064  1.9725  0.9786 -0.4840
 4167SOL     OW23959   3.440   1.371  16.280  0.3072 -0.0061  0.8656
 4167SOL    HW123960   3.488   1.411  16.353 -0.7294 -0.6516  1.9041
 4167SOL    HW223961   3.514   1.370  16.220 -1.3556  0.6738 -1.1845
 4168SOL     OW23962   0.354   1.700   7.015 -0.0008 -0.3796 -0.4928
 4168SOL    HW123963   0.287   1.641   6.982 -0.2609 -0.9377  1.0098
 4168SOL    HW223964   0.327   1.788   6.991  0.7522  0.6493  2.3559
 4169SOL     OW23965   0.519   3.586   7.281  0.2051 -0.2078  0.1777
 4169SOL    HW123966   0.603   3.558   7.315  1.3820  3.2351  0.1234
 4169SOL    HW223967   0.533   3.680   7.295  1.3523  0.0021 -2.3419
 4170SOL     OW23968   0.513   2.859   3.549 -0.5416 -0.5193 -0.2522
 4170SOL    HW123969   0.598   2.830   3.581 -0.3377 -0.3490 -0.6274
 4170SOL    HW223970   0.480   2.776   3.514  1.1065 -0.2538 -2.4445
 4171SOL     OW23971   3.308   4.063   5.015 -0.1267 -0.0005 -0.0297
 4171SOL    HW123972   3.216   4.068   5.039 -0.2346  0.4175 -0.5394
 4171SOL    HW223973   3.350   4.044   5.099  0.5742  2.4469  0.1700
 4172SOL     OW23974   2.025   0.038   2.875 -0.1651  0.2046 -0.9773
 4172SOL    HW123975   2.078   0.085   2.939 -0.3157 -0.5436 -0.2960
 4172SOL    HW223976   2.041   0.093   2.798 -0.9759  1.5367 -0.1938
 4173SOL     OW23977   1.275   1.664   0.674 -0.2476 -0.3423 -0.8679
 4173SOL    HW123978   1.226   1.601   0.621 -0.7595  0.5022 -1.4109
 4173SOL    HW223979   1.245   1.631   0.759  0.6775 -1.0404 -0.8158
 4174SOL     OW23980   0.816   2.228   8.831  0.4453 -0.3177  0.2219
 4174SOL    HW123981   0.728   2.226   8.793  0.5315  0.1096  0.0020
 4174SOL    HW223982   0.867   2.252   8.754 -0.5078  1.1179  0.0508
 4175SOL     OW23983   3.578   3.358   8.188 -0.3077  0.2083  0.0871
 4175SOL    HW123984   3.568   3.449   8.159 -2.4603 -0.9163 -2.6506
 4175SOL    HW223985   3.633   3.378   8.264  0.3710  1.6508 -0.7640
 4176SOL     OW23986   4.599   1.829   4.554 -0.0937  0.3856 -0.5735
 4176SOL    HW123987   4.647   1.910   4.535 -2.7123  2.0022 -0.2271
 4176SOL    HW223988   4.653   1.800   4.628  1.2579 -1.8689 -2.4474
 4177SOL     OW23989   2.758   2.764   8.129  0.3160 -0.1109 -0.4242
 4177SOL    HW123990   2.715   2.695   8.181 -4.7326  0.9827 -3.1499
 4177SOL    HW223991   2.687   2.776   8.066 -0.6459  1.0086  0.8819
 4178SOL     OW23992   2.627   2.695   5.779  0.1145 -0.6177 -0.5833
 4178SOL    HW123993   2.634   2.642   5.858  1.9606  0.7954  0.2013
 4178SOL    HW223994   2.647   2.785   5.805 -2.5120  0.4454 -2.3140
 4179SOL     OW23995   2.757   3.998   0.441  0.1890 -0.2209  0.2492
 4179SOL    HW123996   2.730   3.948   0.518  0.2636  1.4680  1.3933
 4179SOL    HW223997   2.851   3.984   0.452  0.7837  1.8694 -2.1639
 4180SOL     OW23998   2.857   0.865   7.551  0.1455  0.1703  0.4880
 4180SOL    HW123999   2.907   0.946   7.557 -0.9816  0.8008  1.4880
 4180SOL    HW224000   2.842   0.849   7.644 -0.1952 -0.7198  0.2779
 4181SOL     OW24001   2.732   2.835   4.544  0.0322  0.0597  0.6517
 4181SOL    HW124002   2.811   2.782   4.549  0.8365  1.3788  2.1767
 4181SOL    HW224003   2.667   2.768   4.565 -0.4300  0.5493  0.7933
 4182SOL     OW24004   0.103   3.717   6.684 -0.2770 -0.3938 -0.1280
 4182SOL    HW124005   0.042   3.781   6.721  0.8508  0.5317  0.1268
 4182SOL    HW224006   0.093   3.734   6.591 -3.2537 -2.2394 -0.1498
 4183SOL     OW24007   3.927   3.641  16.098 -0.2545 -0.5872 -0.5464
 4183SOL    HW124008   3.941   3.633  16.193 -0.6337  2.9266 -0.1690
 4183SOL    HW224009   3.833   3.630  16.104 -0.1194 -1.1031  0.5819
 4184SOL     OW24010   1.958   1.456   7.650 -0.5083  1.0236 -0.5448
 4184SOL    HW124011   2.016   1.529   7.626  0.9394  0.1243  0.2163
 4184SOL    HW224012   1.954   1.466   7.745 -2.3946  1.8828 -0.7201
 4185SOL     OW24013   1.883   2.700   0.466 -0.1532  0.5105  0.5776
 4185SOL    HW124014   1.803   2.650   0.483 -0.3419  0.8261  0.6432
 4185SOL    HW224015   1.929   2.711   0.549  0.7944  1.2965 -0.0589
 4186SOL     OW24016   3.761   1.204   4.714  0.4611 -0.4673 -0.0992
 4186SOL    HW124017   3.748   1.130   4.773  1.3101 -0.3998  0.1735
 4186SOL    HW224018   3.833   1.244   4.761 -0.7954  1.4079  0.2389
 4187SOL     OW24019   1.452   0.702   5.833 -0.2065  0.4341 -0.5765
 4187SOL    HW124020   1.437   0.757   5.910 -0.8051 -1.8288  0.9401
 4187SOL    HW224021   1.404   0.626   5.866  0.5504 -0.3802 -1.3596
 4188SOL     OW24022   4.274   3.733   5.710 -0.1555 -0.0130  0.0664
 4188SOL    HW124023   4.257   3.766   5.622 -1.5781  0.0684  0.3768
 4188SOL    HW224024   4.263   3.807   5.768  2.0467  1.0555 -0.8598
 4189SOL     OW24025   3.943   2.047   5.448 -0.0991  0.0073  0.5048
 4189SOL    HW124026   4.005   2.050   5.520 -0.0939  0.7849  0.4672
 4189SOL    HW224027   3.860   2.064   5.492  0.9955  0.1096  2.5338
 4190SOL     OW24028   1.926   2.876  14.311  0.1318 -0.5616 -0.8524
 4190SOL    HW124029   2.004   2.929  14.295 -0.3142  0.8159  1.4224
 4190SOL    HW224030   1.903   2.848  14.223 -0.9267 -0.5265 -0.5875
 4191SOL     OW24031   1.889   4.545   7.168  0.0159  0.4779  0.0914
 4191SOL    HW124032   1.887   4.622   7.111  0.8425 -0.0348 -0.6244
 4191SOL    HW224033   1.932   4.583   7.245  0.1488  0.0882  0.2067
 4192SOL     OW24034   2.387   0.602  11.205  0.2648  0.4764 -0.1244
 4192SOL    HW124035   2.423   0.690  11.201 -1.2924  1.1992  1.5576
 4192SOL    HW224036   2.439   0.556  11.139 -0.7760 -0.7217 -0.1066
 4193SOL     OW24037   1.697   2.486  17.136  0.2733  0.3806  0.1439
 4193SOL    HW124038   1.732   2.508  17.222  0.9646 -2.2726  0.5436
 4193SOL    HW224039   1.760   2.517  17.071  1.9606 -0.8541  1.1955
 4194SOL     OW24040   1.215   0.212  13.788  0.3501 -0.1173 -0.6033
 4194SOL    HW124041   1.176   0.172  13.711 -1.9860  0.8411  0.0756
 4194SOL    HW224042   1.252   0.132  13.825  0.1692 -0.0378 -0.2453
 4195SOL     OW24043   2.354   1.045  15.193 -0.1900  0.6359 -0.4818
 4195SOL    HW124044   2.379   0.960  15.156  1.7937  1.2579 -0.5862
 4195SOL    HW224045   2.273   1.025  15.239  1.2467 -0.3678  1.6446
 4196SOL     OW24046   0.636   0.705   2.057  0.0242 -0.2642  0.4302
 4196SOL    HW124047   0.596   0.659   1.983 -0.0921 -0.2347  0.4757
 4196SOL    HW224048   0.651   0.788   2.011  2.1842 -1.2855 -0.7339
 4197SOL     OW24049   4.030   2.920   5.445 -0.2498  0.1593  0.1485
 4197SOL    HW124050   3.946   2.881   5.422 -0.4254  1.2860 -1.1815
 4197SOL    HW224051   3.995   2.974   5.516  2.0776  1.0381  0.6313
 4198SOL     OW24052   4.359   3.844   7.308  0.6122  0.5045 -0.3870
 4198SOL    HW124053   4.292   3.860   7.375 -1.7869  0.5857 -2.8061
 4198SOL    HW224054   4.426   3.903   7.342 -1.1583  0.5551  2.9992
 4199SOL     OW24055   4.425   3.390  11.766 -0.1411 -0.5005 -0.1256
 4199SOL    HW124056   4.404   3.446  11.841  1.1109  0.6414 -0.6253
 4199SOL    HW224057   4.349   3.405  11.710 -1.9186  1.1371  2.7364
 4200SOL     OW24058   4.098   1.494   3.035  0.3521  0.3516  0.2300
 4200SOL    HW124059   4.032   1.497   3.104 -0.6672  0.3626 -0.7366
 4200SOL    HW224060   4.162   1.442   3.084  2.1925  4.0576  1.7027
 4201SOL     OW24061   2.192   1.266   7.089 -0.0095  0.4116  0.5707
 4201SOL    HW124062   2.102   1.240   7.068  0.1062  0.3678  0.1482
 4201SOL    HW224063   2.193   1.361   7.092  0.4344  0.4219  0.0908
 4202SOL     OW24064   1.689   0.023   3.040  0.4440  0.6845 -0.3716
 4202SOL    HW124065   1.737   4.669   3.004 -2.7396 -1.4058 -0.2781
 4202SOL    HW224066   1.637   0.048   2.963 -1.4015 -0.3438  0.5454
 4203SOL     OW24067   2.266   2.177   0.847 -0.2943 -0.1216  0.1951
 4203SOL    HW124068   2.360   2.160   0.838  0.3137  2.3084  2.1123
 4203SOL    HW224069   2.247   2.265   0.878 -0.6563  0.3803 -1.4220
 4204SOL     OW24070   0.136   2.664  12.188 -0.2962 -0.2726  0.2934
 4204SOL    HW124071   0.208   2.725  12.207  0.5032 -0.9062 -0.7359
 4204SOL    HW224072   0.175   2.589  12.232  1.2910 -0.4003 -1.3524
 4205SOL     OW24073   3.253   3.421   6.338  0.3396 -0.7105  0.1286
 4205SOL    HW124074   3.182   3.391   6.396  1.9554 -1.0554  1.9315
 4205SOL    HW224075   3.330   3.418   6.395  0.5846  3.0673 -0.0129
 4206SOL     OW24076   4.411   0.540   9.736  0.2221  0.2746  0.2302
 4206SOL    HW124077   4.387   0.510   9.648 -0.1441  0.0979  0.3892
 4206SOL    HW224078   4.495   0.495   9.742 -1.0100 -2.0798 -0.0790
 4207SOL     OW24079   4.287   2.602   0.508 -0.8133  0.8797  0.5060
 4207SOL    HW124080   4.283   2.530   0.571  1.5886  0.2915 -0.0195
 4207SOL    HW224081   4.205   2.593   0.460  0.4265 -0.5282 -1.3420
 4208SOL     OW24082   3.986   3.183  13.630 -0.5239 -0.5883  0.4077
 4208SOL    HW124083   3.994   3.108  13.570  0.5016 -0.1325 -0.0271
 4208SOL    HW224084   3.992   3.251  13.563  0.7196 -1.1570 -0.0590
 4209SOL     OW24085   0.439   4.148   4.731 -0.7277 -0.0338 -0.1226
 4209SOL    HW124086   0.370   4.215   4.729  1.0083  1.7389  0.0755
 4209SOL    HW224087   0.379   4.076   4.709 -0.8262  0.5662 -1.8226
 4210SOL     OW24088   3.311   3.268   2.597  0.1954 -0.3030 -0.8801
 4210SOL    HW124089   3.258   3.347   2.605  1.0288  0.2526 -0.7888
 4210SOL    HW224090   3.381   3.280   2.661 -1.2453  0.7941  0.4575
 4211SOL     OW24091   0.256   1.316   4.634 -0.2285 -0.1873  0.0690
 4211SOL    HW124092   0.273   1.226   4.664 -2.1757  0.1827  2.3076
 4211SOL    HW224093   0.186   1.347   4.690  0.5343  2.1127 -0.2711
 4212SOL     OW24094   4.493   4.427   1.377 -0.1750  0.0290  0.5457
 4212SOL    HW124095   4.403   4.430   1.409 -0.6875 -0.8579 -0.7908
 4212SOL    HW224096   4.506   4.333   1.368 -0.2602  0.1349 -0.7348
 4213SOL     OW24097   3.474   0.250   3.906  0.2845 -0.1767  0.4359
 4213SOL    HW124098   3.511   0.311   3.970  1.4652 -0.5004  0.0739
 4213SOL    HW224099   3.387   0.286   3.892  0.2475 -0.4730 -0.0654
 4214SOL     OW24100   1.213   1.972  15.032 -0.8313 -0.2224 -0.0598
 4214SOL    HW124101   1.304   1.949  15.017 -0.8619 -0.2839 -0.1501
 4214SOL    HW224102   1.184   1.894  15.077 -2.5454  1.1993  1.2962
 4215SOL     OW24103   2.561   3.434   9.950  0.2745 -0.1135  0.8468
 4215SOL    HW124104   2.593   3.512   9.996  1.4734  0.6213 -1.2363
 4215SOL    HW224105   2.502   3.476   9.887  2.5651  0.1084 -1.1531
 4216SOL     OW24106   0.990   3.976  12.867 -0.3321 -0.5049 -0.0296
 4216SOL    HW124107   0.959   3.984  12.776  1.0066  1.5778 -0.3062
 4216SOL    HW224108   0.998   3.882  12.880  0.3062 -0.1688  2.0023
 4217SOL     OW24109   4.630   4.693  16.329  0.0913 -0.1375  0.3363
 4217SOL    HW124110   4.536   4.678  16.339  0.0679 -0.0546  0.2410
 4217SOL    HW224111   4.651   4.684  16.236  1.2363  1.7133  0.4104
 4218SOL     OW24112   3.979   0.471   3.208  0.0428  0.4450 -0.2823
 4218SOL    HW124113   3.954   0.563   3.213 -1.3213 -0.0091  1.2327
 4218SOL    HW224114   3.897   0.432   3.239  0.3379  0.4418  0.4716
 4219SOL     OW24115   1.426   3.718   3.891  0.1980  0.4072  0.2229
 4219SOL    HW124116   1.430   3.703   3.985 -0.8855 -0.2900  0.1651
 4219SOL    HW224117   1.357   3.654   3.871  1.1666 -0.5245 -0.0979
 4220SOL     OW24118   3.612   0.523  12.601 -0.0342 -0.0143  0.3305
 4220SOL    HW124119   3.689   0.570  12.569 -1.8794  0.7266 -2.9196
 4220SOL    HW224120   3.551   0.596  12.615 -2.8026 -1.6222 -3.4457
 4221SOL     OW24121   0.107   2.112   4.982 -0.1841  0.0728  0.1317
 4221SOL    HW124122   0.076   2.199   4.957  1.9775  0.6261 -0.5565
 4221SOL    HW224123   0.093   2.119   5.076 -0.4272 -1.4517  0.2079
 4222SOL     OW24124   4.426   4.080   9.185  0.2003  0.7395 -0.4070
 4222SOL    HW124125   4.486   4.114   9.251  1.6631  0.4280 -1.5853
 4222SOL    HW224126   4.436   4.153   9.124 -1.7194 -0.3291 -2.0029
 4223SOL     OW24127   0.892   0.503   9.073  0.2360 -0.0332 -0.2517
 4223SOL    HW124128   0.824   0.547   9.124  1.5511 -0.6613  2.0372
 4223SOL    HW224129   0.928   0.455   9.147  2.0019 -0.3933 -1.3538
 4224SOL     OW24130   0.902   3.019   9.633  0.1298 -0.0447 -0.2650
 4224SOL    HW124131   0.959   2.942   9.636  0.4828  0.2585  0.7065
 4224SOL    HW224132   0.966   3.085   9.607 -0.6152  0.3254 -1.1640
 4225SOL     OW24133   1.985   1.317   1.959  0.4137  0.1651  0.2495
 4225SOL    HW124134   2.007   1.409   1.965  0.8117  0.1079 -0.3881
 4225SOL    HW224135   2.053   1.297   1.895  1.3899  0.1908  1.2679
 4226SOL     OW24136   4.550   3.336  17.676 -0.4518 -0.6424 -0.1078
 4226SOL    HW124137   4.545   3.420  17.631 -0.8872 -0.0823  1.0159
 4226SOL    HW224138   4.645   3.331  17.664 -0.3772 -2.0063  1.0360
 4227SOL     OW24139   1.195   0.599   1.501 -0.9158 -0.9147 -0.2480
 4227SOL    HW124140   1.135   0.526   1.494 -1.5971 -0.3590 -0.1890
 4227SOL    HW224141   1.132   0.660   1.463 -0.7121 -0.6701 -0.1994
 4228SOL     OW24142   0.508   0.410   4.394 -0.2951  0.5574  0.4800
 4228SOL    HW124143   0.522   0.319   4.420  0.2632  1.4002  3.1044
 4228SOL    HW224144   0.461   0.399   4.311  0.0133  1.8508  0.1436
 4229SOL     OW24145   1.063   3.215   9.556 -0.8186 -0.2801 -0.2710
 4229SOL    HW124146   1.126   3.286   9.571  0.0517 -0.4812 -3.0646
 4229SOL    HW224147   1.090   3.193   9.467  1.8036 -1.2299  0.7569
 4230SOL     OW24148   3.918   3.840  11.576 -0.4740 -0.0856  0.1798
 4230SOL    HW124149   3.854   3.911  11.566  0.1717  0.7098  1.6271
 4230SOL    HW224150   3.954   3.860  11.663 -1.1222  1.4060  0.1160
 4231SOL     OW24151   4.366   0.369   6.479 -0.0348  0.1304  0.5511
 4231SOL    HW124152   4.354   0.415   6.563 -1.2482  2.2267 -0.7757
 4231SOL    HW224153   4.277   0.338   6.462  1.0551 -2.5751 -0.1623
 4232SOL     OW24154   1.927   2.114   4.743 -0.0620 -0.1150 -0.2387
 4232SOL    HW124155   1.915   2.111   4.648  0.4540 -0.6321 -0.2892
 4232SOL    HW224156   1.886   2.029   4.759 -0.5395 -0.2801 -2.3365
 4233SOL     OW24157   3.402   4.451  12.702  0.3571  0.3973 -0.6617
 4233SOL    HW124158   3.496   4.458  12.719 -0.1367  0.0659  2.1895
 4233SOL    HW224159   3.388   4.529  12.647  0.5251  0.3777 -0.7324
 4234SOL     OW24160   2.819   3.879   6.076  0.0906 -0.4359  0.1251
 4234SOL    HW124161   2.798   3.972   6.068 -1.3251 -0.7059  0.6425
 4234SOL    HW224162   2.914   3.883   6.083 -0.0098  2.2771  0.2741
 4235SOL     OW24163   4.147   3.808   4.041 -0.5800 -0.7100 -0.4078
 4235SOL    HW124164   4.089   3.743   4.079 -2.2162  0.1429 -1.3943
 4235SOL    HW224165   4.089   3.884   4.033 -0.1455 -0.2910  0.5028
 4236SOL     OW24166   4.052   3.609  15.838  0.0057 -0.1145 -0.1682
 4236SOL    HW124167   4.026   3.697  15.811 -3.0142 -0.6381  1.0752
 4236SOL    HW224168   4.012   3.610  15.925  1.2367 -1.4752  0.4221
 4237SOL     OW24169   0.098   3.738  10.905 -0.8476  0.2225  0.2393
 4237SOL    HW124170   0.119   3.678  10.834 -1.2401  0.5475 -0.1539
 4237SOL    HW224171   0.185   3.739  10.945 -0.0157 -1.2440 -1.5350
 4238SOL     OW24172   2.566   2.633   4.960  0.2258  0.2617  0.1606
 4238SOL    HW124173   2.573   2.624   5.055 -0.8362  2.1451  0.4155
 4238SOL    HW224174   2.491   2.689   4.941 -0.9647 -1.4923 -0.2617
 4239SOL     OW24175   0.876   2.079   9.113  0.0743  0.4042  0.5219
 4239SOL    HW124176   0.885   2.104   9.021 -0.3039  0.5877  0.5364
 4239SOL    HW224177   0.897   1.986   9.116  2.6147  0.9775  0.9132
 4240SOL     OW24178   4.245   3.283   5.196  0.0232 -0.2865 -0.0193
 4240SOL    HW124179   4.205   3.213   5.248  0.2429  0.3964  1.0514
 4240SOL    HW224180   4.193   3.276   5.116 -1.6223 -1.1808  1.1264
 4241SOL     OW24181   0.084   0.878  17.602  0.6713  0.3706  0.0568
 4241SOL    HW124182   0.165   0.893  17.652  0.8137  0.8855 -0.3364
 4241SOL    HW224183   0.113   0.831  17.523 -1.2760  0.3068 -0.6118
 4242SOL     OW24184   4.131   0.715   6.804  0.0831 -0.3359 -0.1771
 4242SOL    HW124185   4.138   0.810   6.792 -0.3901 -0.4869 -1.6593
 4242SOL    HW224186   4.113   0.718   6.898 -0.0924  1.5766 -0.2756
 4243SOL     OW24187   3.004   2.315  12.087 -0.1565 -0.2055  0.0365
 4243SOL    HW124188   2.975   2.245  12.029 -1.2997  0.8554 -0.6850
 4243SOL    HW224189   2.962   2.290  12.169  1.7354 -2.0306  0.4438
 4244SOL     OW24190   2.389   2.767   8.296 -0.0083 -0.8308 -0.2076
 4244SOL    HW124191   2.308   2.726   8.266  0.6985 -1.1420 -1.6615
 4244SOL    HW224192   2.461   2.709   8.275  0.4857  0.1959 -1.3490
 4245SOL     OW24193   1.221   0.158   8.893  0.2975 -0.3368  0.0855
 4245SOL    HW124194   1.140   0.170   8.844  0.4771 -0.6922 -0.3057
 4245SOL    HW224195   1.284   0.179   8.824  0.3848 -0.9317 -0.0223
 4246SOL     OW24196   0.447   2.605  10.445 -0.1237 -0.4120 -0.0877
 4246SOL    HW124197   0.526   2.629  10.397  0.1599  0.8228  0.9931
 4246SOL    HW224198   0.483   2.574  10.528 -2.1286  0.7669  1.2446
 4247SOL     OW24199   3.773   4.015   6.464 -0.1940 -0.2493 -0.9906
 4247SOL    HW124200   3.868   4.030   6.469 -0.0759 -0.4736 -2.4139
 4247SOL    HW224201   3.761   3.957   6.539 -1.7528 -0.3957 -1.3660
 4248SOL     OW24202   0.099   0.398   2.119  0.3331 -0.0168 -0.0341
 4248SOL    HW124203   0.095   0.485   2.158 -0.1480  0.2364 -0.6596
 4248SOL    HW224204   0.148   0.347   2.184 -0.8840  0.4383  1.2457
 4249SOL     OW24205   1.099   3.495   8.039  0.3033 -0.3806  0.0520
 4249SOL    HW124206   1.130   3.504   7.949  0.2125 -1.7728 -0.1142
 4249SOL    HW224207   1.177   3.456   8.077  0.0118  1.3363  2.3650
 4250SOL     OW24208   2.619   2.016  14.732 -0.0529  0.0695  0.2523
 4250SOL    HW124209   2.605   1.977  14.819  2.0159  0.7618  0.8938
 4250SOL    HW224210   2.703   1.979  14.705  0.1798  0.0609  0.9887
 4251SOL     OW24211   0.548   3.049   4.673  0.4008  0.5679 -0.1097
 4251SOL    HW124212   0.576   3.126   4.625  0.1967  0.6694 -0.0665
 4251SOL    HW224213   0.633   3.005   4.667  0.4452  0.7236 -0.6433
 4252SOL     OW24214   0.106   0.664   5.337 -0.0209  0.3579 -0.1098
 4252SOL    HW124215   0.189   0.618   5.351 -1.0472 -1.5059 -0.2798
 4252SOL    HW224216   0.051   0.636   5.410  2.4919 -4.2461  0.0126
 4253SOL     OW24217   2.595   0.763   3.942  0.7394  0.1497  0.1675
 4253SOL    HW124218   2.526   0.784   3.879  0.8884 -0.0264 -0.0524
 4253SOL    HW224219   2.650   0.713   3.882 -0.3741  1.1667 -1.6983
 4254SOL     OW24220   2.926   3.233   4.081  0.1330 -0.6495 -0.2265
 4254SOL    HW124221   2.851   3.291   4.093  0.8053  0.8366 -3.1455
 4254SOL    HW224222   2.928   3.237   3.985  2.3881 -1.3714 -0.2250
 4255SOL     OW24223   3.692   1.397  14.174 -0.0217  0.1680 -0.3883
 4255SOL    HW124224   3.685   1.409  14.080  0.5394  2.6849 -0.0943
 4255SOL    HW224225   3.783   1.373  14.190 -0.3236  0.7113  2.1266
 4256SOL     OW24226   1.512   1.001   4.522  0.5635 -0.1783 -0.0986
 4256SOL    HW124227   1.590   0.994   4.467  1.4395 -1.5658  1.3099
 4256SOL    HW224228   1.476   0.914   4.537 -0.7751  0.4171  0.1971
 4257SOL     OW24229   1.564   2.196   0.233 -0.3918  0.1864  0.0131
 4257SOL    HW124230   1.532   2.263   0.294 -0.8943  0.9991 -1.1283
 4257SOL    HW224231   1.588   2.124   0.290  0.1899  0.5979  0.2900
 4258SOL     OW24232   2.164   4.150   2.983 -0.4317  0.0336  0.5298
 4258SOL    HW124233   2.108   4.201   2.924 -0.4393 -1.4479 -0.7466
 4258SOL    HW224234   2.149   4.064   2.944  0.8056 -0.2748  0.7343
 4259SOL     OW24235   1.298   0.048   7.507 -0.0150 -0.1298 -0.1109
 4259SOL    HW124236   1.374   0.017   7.460  0.2765 -1.1017  0.9931
 4259SOL    HW224237   1.329   0.026   7.595 -0.3563  0.4450  0.1524
 4260SOL     OW24238   2.477   3.769   2.015 -0.1169 -0.0865  0.1651
 4260SOL    HW124239   2.388   3.749   2.043 -0.4980  1.3704 -0.0036
 4260SOL    HW224240   2.460   3.806   1.928 -2.4872 -0.9552  0.2643
 4261SOL     OW24241   0.682   0.627   3.083 -0.3262 -0.6985 -0.3218
 4261SOL    HW124242   0.751   0.693   3.083 -0.5488 -0.4520  2.3292
 4261SOL    HW224243   0.714   0.571   3.013  2.2592 -0.0052  0.2972
 4262SOL     OW24244   3.963   2.358   6.551 -0.0293  0.2811 -0.4700
 4262SOL    HW124245   3.909   2.308   6.490 -1.0720  2.1232 -1.0865
 4262SOL    HW224246   3.904   2.377   6.625  0.3261  1.3909 -0.4701
 4263SOL     OW24247   4.236   3.556   4.605 -0.6291  0.5103  0.6226
 4263SOL    HW124248   4.192   3.529   4.524  1.8063 -0.1757 -0.4752
 4263SOL    HW224249   4.160   3.563   4.664 -0.0415 -0.7097  1.5337
 4264SOL     OW24250   2.868   0.602   6.506 -0.0081 -0.5095  0.6411
 4264SOL    HW124251   2.795   0.547   6.535 -0.7316 -1.0164 -2.2351
 4264SOL    HW224252   2.849   0.618   6.414  1.2661  1.8672  0.7924
 4265SOL     OW24253   3.443   0.801   8.296  0.1017  0.2431  0.7734
 4265SOL    HW124254   3.379   0.805   8.367 -0.0824 -0.9412  0.6801
 4265SOL    HW224255   3.461   0.890   8.266 -0.2965  0.8357  2.3224
 4266SOL     OW24256   0.929   4.016   4.982 -0.4261  0.5230 -0.5264
 4266SOL    HW124257   0.889   4.100   5.006  1.3661  0.8947  1.1066
 4266SOL    HW224258   1.020   4.042   4.998 -0.1241 -0.6599 -0.3317
 4267SOL     OW24259   1.879   2.707   6.136  0.5624 -0.0730  0.1317
 4267SOL    HW124260   1.966   2.696   6.174  0.1129 -0.3779  1.0884
 4267SOL    HW224261   1.839   2.743   6.216 -0.3885  3.3741 -1.8834
 4268SOL     OW24262   3.358   2.740   6.359 -0.8390 -0.1197  0.3567
 4268SOL    HW124263   3.428   2.683   6.391  0.1159  1.8212  1.7389
 4268SOL    HW224264   3.344   2.688   6.280  0.6809 -0.4695  0.3044
 4269SOL     OW24265   3.694   3.991   4.669 -0.2609 -0.0917 -0.2018
 4269SOL    HW124266   3.678   3.993   4.574 -1.4463  0.8597  0.0119
 4269SOL    HW224267   3.690   3.896   4.680 -0.2806 -0.1209 -0.4426
 4270SOL     OW24268   0.006   3.963   8.555  0.5571  0.0716 -0.1442
 4270SOL    HW124269   0.021   4.058   8.553  2.1114 -0.1335  1.9488
 4270SOL    HW224270   4.650   3.955   8.612  0.1190  1.3630 -0.5475
 4271SOL     OW24271   2.777   1.719   6.609  0.1886  0.2533 -0.8995
 4271SOL    HW124272   2.851   1.677   6.565  2.0661  0.4465  2.0200
 4271SOL    HW224273   2.720   1.708   6.534 -0.0093  0.4608 -0.7813
 4272SOL     OW24274   1.276   3.961   4.161  0.3598  0.4108 -0.1177
 4272SOL    HW124275   1.324   3.883   4.135  0.4334 -0.1305  1.6455
 4272SOL    HW224276   1.197   3.919   4.195 -0.3143  1.8493  0.1191
 4273SOL     OW24277   0.694   2.147   5.009 -0.1566  0.0973 -0.2760
 4273SOL    HW124278   0.754   2.165   4.937  0.2336 -1.8541 -0.4306
 4273SOL    HW224279   0.714   2.055   5.029  1.3695  0.9314  2.0573
 4274SOL     OW24280   0.188   0.691  13.136 -0.1164 -0.0085 -0.4536
 4274SOL    HW124281   0.282   0.698  13.148 -0.2704  0.5249  0.4253
 4274SOL    HW224282   0.184   0.690  13.040  0.0121 -1.7587 -0.4363
 4275SOL     OW24283   2.129   1.137   7.385 -0.2758  0.5548 -0.1168
 4275SOL    HW124284   2.161   1.062   7.336 -0.0781  0.4872  0.1199
 4275SOL    HW224285   2.047   1.144   7.335 -0.3400 -1.4968 -0.3048
 4276SOL     OW24286   0.310   1.040   3.105  0.6395 -0.3779 -0.4313
 4276SOL    HW124287   0.350   1.017   3.189  1.4005  0.9349 -0.4452
 4276SOL    HW224288   0.231   1.084   3.136  1.3299 -0.2352  1.1375
 4277SOL     OW24289   3.721   4.037   6.173 -0.3125  0.1734  0.2832
 4277SOL    HW124290   3.625   4.032   6.181 -0.3753  0.7847 -0.0847
 4277SOL    HW224291   3.736   4.033   6.268 -0.5194 -0.3093  0.2951
 4278SOL     OW24292   1.838   1.931   5.820 -0.8163  0.0732 -0.0388
 4278SOL    HW124293   1.868   2.018   5.796  0.2359 -0.4800 -0.7117
 4278SOL    HW224294   1.756   1.946   5.868 -1.7393  2.7313 -2.4652
 4279SOL     OW24295   1.073   0.876  14.784  0.3088 -0.7146 -0.4702
 4279SOL    HW124296   1.031   0.870  14.870  1.3478 -2.7358 -0.0985
 4279SOL    HW224297   1.032   0.955  14.748  0.3629  0.3293  1.7363
 4280SOL     OW24298   3.382   2.250   6.589 -0.7110  0.4198 -0.3965
 4280SOL    HW124299   3.415   2.163   6.565 -2.5026  0.2911 -2.3304
 4280SOL    HW224300   3.422   2.264   6.675 -2.3641  0.7750  0.3084
 4281SOL     OW24301   3.588   0.162   7.389  0.3430  0.2041 -0.3865
 4281SOL    HW124302   3.578   0.220   7.464 -0.3949 -2.7668  1.8320
 4281SOL    HW224303   3.512   0.103   7.388 -1.3351  2.3837 -0.3101
 4282SOL     OW24304   3.478   3.690   7.673 -0.5006  0.1940 -0.2437
 4282SOL    HW124305   3.555   3.664   7.623 -0.0209  3.2361 -1.1294
 4282SOL    HW224306   3.410   3.632   7.639  0.3904 -0.3778 -1.0356
 4283SOL     OW24307   0.305   4.691   4.707  0.1608  0.4092  0.1941
 4283SOL    HW124308   0.324   4.629   4.777 -1.2892  0.6792  0.8337
 4283SOL    HW224309   0.213   4.666   4.702 -0.3322  2.2232  0.1651
 4284SOL     OW24310   0.396   3.094   7.947  0.1519  0.5906 -0.2828
 4284SOL    HW124311   0.321   3.146   7.917 -0.0923  0.8587  0.8068
 4284SOL    HW224312   0.459   3.159   7.914  2.3611 -1.8261 -0.8190
 4285SOL     OW24313   0.799   1.904   5.099  0.5888  0.2638  0.3683
 4285SOL    HW124314   0.732   1.844   5.065  1.1867 -0.5865  0.7020
 4285SOL    HW224315   0.877   1.848   5.093  0.2131 -0.3896  1.5089
 4286SOL     OW24316   1.789   1.816   1.185  0.6743 -0.5571  0.1519
 4286SOL    HW124317   1.811   1.773   1.267 -1.5659  1.4510  1.7949
 4286SOL    HW224318   1.746   1.747   1.133  3.1223 -0.4689 -1.9955
 4287SOL     OW24319   2.956   0.059  17.095  0.0718  0.2219 -0.2322
 4287SOL    HW124320   3.010   0.130  17.061  0.3486  0.4732  0.7286
 4287SOL    HW224321   2.874   0.052  17.046  1.4466  1.1988 -2.6797
 4288SOL     OW24322   3.179   1.126   3.473 -0.1940  0.4478 -0.2222
 4288SOL    HW124323   3.201   1.210   3.513 -1.7191  1.2540 -1.0706
 4288SOL    HW224324   3.268   1.090   3.470 -0.1898  0.2930  1.8757
 4289SOL     OW24325   0.594   2.497   0.726  0.1733  0.0930  0.3609
 4289SOL    HW124326   0.598   2.562   0.656 -0.5592  0.6804  0.8526
 4289SOL    HW224327   0.556   2.547   0.798  0.5346 -0.0040  0.6137
 4290SOL     OW24328   1.325   2.308   4.999 -0.4430 -0.4214 -0.0897
 4290SOL    HW124329   1.233   2.333   4.990  0.1151  1.4454 -0.5091
 4290SOL    HW224330   1.375   2.373   4.950 -0.2134  0.0088  0.7053
 4291SOL     OW24331   1.210   0.917  14.151  0.0113  0.3654  0.0517
 4291SOL    HW124332   1.200   0.842  14.092  0.8738 -0.2561  0.6941
 4291SOL    HW224333   1.150   0.898  14.223  0.6432  1.3641  0.8540
 4292SOL     OW24334   0.122   1.194   4.394  0.7572 -0.2457  0.4283
 4292SOL    HW124335   0.170   1.226   4.470 -1.0831 -1.3576  2.0619
 4292SOL    HW224336   0.169   1.114   4.373  1.6633  0.8025 -1.5307
 4293SOL     OW24337   2.092   3.251   6.848 -0.5056  0.0400 -0.1757
 4293SOL    HW124338   1.996   3.248   6.847 -0.5114  0.0836  0.3518
 4293SOL    HW224339   2.108   3.327   6.791 -4.0778 -0.1573 -1.4655
 4294SOL     OW24340   2.596   1.504   7.747 -0.7356 -0.0123 -0.7976
 4294SOL    HW124341   2.604   1.458   7.830  0.7218 -0.0965 -0.9914
 4294SOL    HW224342   2.501   1.505   7.732 -0.4985 -2.2451 -2.4545
 4295SOL     OW24343   1.616   1.066   0.155 -0.1120 -0.0012 -0.0820
 4295SOL    HW124344   1.678   1.045   0.085 -0.7878  0.4868 -0.8229
 4295SOL    HW224345   1.591   1.157   0.136  1.7893  0.1753 -1.7766
 4296SOL     OW24346   4.628   2.576  12.867  0.1052  0.1096  0.7273
 4296SOL    HW124347   4.623   2.658  12.916 -2.2935 -0.0491  0.7333
 4296SOL    HW224348   4.567   2.526  12.921  0.0828 -0.9226 -0.2604
 4297SOL     OW24349   2.894   1.583   3.861  0.3012  0.3500  0.8831
 4297SOL    HW124350   2.918   1.490   3.860  0.5398  0.4521 -2.0086
 4297SOL    HW224351   2.979   1.623   3.844  0.9630 -0.9447  1.1297
 4298SOL     OW24352   3.875   0.615   5.224 -0.0799 -0.6427  0.1115
 4298SOL    HW124353   3.966   0.638   5.243 -0.0786  0.2833 -0.9999
 4298SOL    HW224354   3.821   0.663   5.288 -0.9196  0.3799 -1.3532
 4299SOL     OW24355   2.890   1.031   2.455  0.9763 -0.5559 -0.2475
 4299SOL    HW124356   2.917   1.091   2.525 -0.0618  1.2676 -1.4129
 4299SOL    HW224357   2.796   1.019   2.470  0.1562  3.7222 -1.9109
 4300SOL     OW24358   4.705   3.526   3.108  0.5330 -0.4029 -0.5982
 4300SOL    HW124359   0.053   3.586   3.136  1.9379 -1.4658 -1.7054
 4300SOL    HW224360   4.642   3.580   3.061  0.9109  0.5031 -0.0589
 4301SOL     OW24361   0.490   2.614   8.111 -0.2621  0.5187 -0.2131
 4301SOL    HW124362   0.555   2.599   8.042  0.4852 -4.6184  1.6139
 4301SOL    HW224363   0.487   2.710   8.106 -2.5618  0.3906 -1.4926
 4302SOL     OW24364   3.343   2.917   9.290 -0.3883 -0.3899 -0.2999
 4302SOL    HW124365   3.301   2.833   9.276  0.0811 -0.4810 -1.1583
 4302SOL    HW224366   3.296   2.976   9.230 -1.5575 -0.3009  0.7060
 4303SOL     OW24367   3.340   3.095   6.904 -0.1767 -0.1712  0.3419
 4303SOL    HW124368   3.389   3.131   6.978  1.5577 -0.6133 -0.5817
 4303SOL    HW224369   3.324   3.006   6.933 -0.0767 -0.7290 -1.2853
 4304SOL     OW24370   1.067   2.367   7.958  0.7552  0.2195 -0.8706
 4304SOL    HW124371   1.091   2.454   7.991  0.9400 -0.0038 -0.4151
 4304SOL    HW224372   1.099   2.371   7.868 -0.0190 -0.3357 -1.1671
 4305SOL     OW24373   1.091   3.712   3.990 -0.3929 -0.2760 -0.2742
 4305SOL    HW124374   1.156   3.655   3.950 -0.3119 -0.5394  0.2359
 4305SOL    HW224375   1.069   3.663   4.070 -0.1877  0.5031  0.2698
 4306SOL     OW24376   0.077   2.769   6.385  0.5049  0.2531 -0.2532
 4306SOL    HW124377   4.704   2.790   6.380  0.3759  0.3248  2.3034
 4306SOL    HW224378   0.100   2.801   6.472 -0.2805 -0.0420  0.0613
 4307SOL     OW24379   4.702   3.087   5.711 -0.5029  0.2998 -0.4030
 4307SOL    HW124380   4.675   3.038   5.633 -0.8355  0.1922 -0.2205
 4307SOL    HW224381   0.022   3.165   5.673  0.1769 -0.0682 -0.4593
 4308SOL     OW24382   4.090   3.700   6.503  0.0513 -0.7667  0.1428
 4308SOL    HW124383   4.011   3.661   6.464 -2.3684  4.4625 -0.1621
 4308SOL    HW224384   4.158   3.645   6.465  1.0437 -0.3024  1.2714
 4309SOL     OW24385   0.210   2.352  11.297  0.6041  0.4592  0.0605
 4309SOL    HW124386   0.224   2.385  11.385 -1.7575  4.0994 -0.8962
 4309SOL    HW224387   0.273   2.283  11.279  1.1463  0.9565  0.0617
 4310SOL     OW24388   2.048   4.243   6.819  0.3244 -0.3196  0.2605
 4310SOL    HW124389   2.076   4.303   6.888  0.3132  0.4191 -0.3749
 4310SOL    HW224390   1.955   4.233   6.842 -0.1885  0.6607 -1.3856
 4311SOL     OW24391   2.968   2.904  13.987  0.1066  0.3901 -0.3566
 4311SOL    HW124392   2.923   2.863  13.913 -1.0538 -0.7691  1.0027
 4311SOL    HW224393   2.954   2.836  14.053  0.1395 -1.1720 -1.9617
 4312SOL     OW24394   1.158   1.341   7.682  0.0471  0.4677  0.0695
 4312SOL    HW124395   1.151   1.388   7.765 -1.7019  1.6921 -0.7769
 4312SOL    HW224396   1.215   1.392   7.624  0.5077 -0.3880 -0.2262
 4313SOL     OW24397   1.700   1.680  13.619 -0.3837 -0.4180 -0.5473
 4313SOL    HW124398   1.786   1.686  13.660  0.4138 -1.0471 -2.1129
 4313SOL    HW224399   1.729   1.696  13.529 -1.4682 -0.0668 -0.8376
 4314SOL     OW24400   4.085   3.819  11.844  0.6899 -0.0317 -0.0406
 4314SOL    HW124401   3.992   3.794  11.843  0.1058  2.1631 -1.8306
 4314SOL    HW224402   4.089   3.880  11.917 -1.4115  0.2833 -0.1888
 4315SOL     OW24403   0.532   2.280   2.528  0.4233 -0.6687 -0.4564
 4315SOL    HW124404   0.442   2.276   2.495  0.7891  0.2780 -1.6102
 4315SOL    HW224405   0.580   2.240   2.455  2.7360 -1.8109  1.7136
 4316SOL     OW24406   1.260   1.016   1.820  0.3349 -0.4180 -0.8066
 4316SOL    HW124407   1.258   0.972   1.904 -0.2906  0.7502 -0.2149
 4316SOL    HW224408   1.279   0.940   1.765 -2.9439 -1.5819 -0.3325
 4317SOL     OW24409   4.713   4.644  11.146  0.3433  0.2470 -1.0287
 4317SOL    HW124410   0.049   0.000  11.157  1.1264 -0.7521  1.7338
 4317SOL    HW224411   4.630   4.686  11.166 -0.8735 -1.0951 -3.2880
 4318SOL     OW24412   3.821   1.347  11.290  0.3513  0.6133 -0.0002
 4318SOL    HW124413   3.862   1.432  11.274 -0.4092  0.4824 -2.6690
 4318SOL    HW224414   3.854   1.338  11.379  0.0808 -1.6253 -0.1114
 4319SOL     OW24415   1.328   4.097   0.891  0.4772  0.1032 -0.9448
 4319SOL    HW124416   1.363   4.091   0.802  0.8719  1.4910 -0.8928
 4319SOL    HW224417   1.267   4.024   0.895  3.3852 -2.2163  0.4219
 4320SOL     OW24418   3.578   2.164   4.928 -0.2742 -0.2964 -0.1266
 4320SOL    HW124419   3.513   2.108   4.970  1.3277 -1.5533  0.7075
 4320SOL    HW224420   3.552   2.254   4.949 -0.8802  0.1261 -2.6898
 4321SOL     OW24421   0.683   3.477   7.510 -0.3766 -0.4706  0.0766
 4321SOL    HW124422   0.715   3.386   7.516 -1.7132 -0.8905  0.7388
 4321SOL    HW224423   0.665   3.478   7.604  0.2051 -0.5720  0.1890
 4322SOL     OW24424   3.526   1.459   8.625 -0.4663  0.0695 -0.0569
 4322SOL    HW124425   3.607   1.508   8.641 -0.1648 -1.7385  3.9205
 4322SOL    HW224426   3.470   1.516   8.679  0.6496  0.4293  0.7327
 4323SOL     OW24427   3.031   0.240  17.604  0.2209  0.3741 -0.6050
 4323SOL    HW124428   3.072   0.318  17.642  1.0724  0.1946 -1.1485
 4323SOL    HW224429   3.094   0.212  17.537 -0.3767  0.2970 -1.1297
 4324SOL     OW24430   4.691   2.058   0.655 -0.4863 -0.7262  0.4678
 4324SOL    HW124431   4.715   1.967   0.675  1.2183 -1.0077 -2.8346
 4324SOL    HW224432   4.669   2.057   0.562  0.5496 -1.4631  0.2288
 4325SOL     OW24433   0.259   4.442   5.981  0.2430 -0.0805  0.1777
 4325SOL    HW124434   0.318   4.487   6.042  0.2540  0.7192 -0.4176
 4325SOL    HW224435   0.177   4.435   6.029  0.9322 -0.5750  1.2886
 4326SOL     OW24436   4.435   3.862  10.780 -0.3500 -0.1227  0.2868
 4326SOL    HW124437   4.429   3.796  10.712  1.2005  0.3069 -0.2815
 4326SOL    HW224438   4.345   3.864  10.813 -1.0043 -0.0563 -1.5068
 4327SOL     OW24439   2.518   2.554  12.203  0.1333 -0.5129  0.0646
 4327SOL    HW124440   2.595   2.513  12.244 -0.7903 -0.8611  1.4345
 4327SOL    HW224441   2.456   2.484  12.222  0.4375 -0.9324 -0.4576
 4328SOL     OW24442   4.241   3.331   2.916  0.2381 -0.4213 -0.0212
 4328SOL    HW124443   4.149   3.309   2.934  0.5422 -1.4059  0.3052
 4328SOL    HW224444   4.241   3.381   2.835 -1.4023 -0.3443  0.0314
 4329SOL     OW24445   3.052   2.662   4.786 -0.2260  0.2986 -0.1260
 4329SOL    HW124446   2.993   2.590   4.812 -2.2068  2.8273  2.4055
 4329SOL    HW224447   3.007   2.675   4.703 -3.1242 -0.3690  1.3214
 4330SOL     OW24448   0.200   0.120  16.762  0.4481 -0.1382  0.1528
 4330SOL    HW124449   0.137   0.157  16.824  2.6726  1.4511  1.4580
 4330SOL    HW224450   0.145   0.096  16.688 -1.2136  2.1206  0.6696
 4331SOL     OW24451   1.799   1.514   4.942  0.0469  0.1180 -0.5149
 4331SOL    HW124452   1.850   1.472   4.873  0.0466 -0.9891  0.1573
 4331SOL    HW224453   1.793   1.607   4.917  2.2644  0.8716  1.7205
 4332SOL     OW24454   2.807   2.548   6.396 -0.0376  0.1864 -0.3972
 4332SOL    HW124455   2.873   2.616   6.391  1.9637 -1.8376 -1.3667
 4332SOL    HW224456   2.811   2.506   6.481  0.2655  3.5456  1.2322
 4333SOL     OW24457   0.631   3.759   6.130  0.2360 -0.1297  0.0270
 4333SOL    HW124458   0.637   3.841   6.082 -0.8717 -1.4369 -2.3120
 4333SOL    HW224459   0.545   3.730   6.101  1.0544  0.4747 -2.9674
 4334SOL     OW24460   2.955   0.900  10.725  0.1481 -0.0149  0.4353
 4334SOL    HW124461   2.919   0.888  10.813  1.6041 -0.2360  1.0134
 4334SOL    HW224462   3.045   0.866  10.734  0.6576  0.7482 -1.7470
 4335SOL     OW24463   0.082   1.122   3.264  0.0362 -0.4141  0.2115
 4335SOL    HW124464   0.071   1.194   3.202 -0.6224  0.1618  0.9984
 4335SOL    HW224465   4.710   1.103   3.279 -0.2796 -1.0348 -2.4473
 4336SOL     OW24466   2.607   1.916   0.170  0.1093  0.2490 -0.2793
 4336SOL    HW124467   2.667   1.842   0.166  2.3418  2.1176 -1.0265
 4336SOL    HW224468   2.545   1.889   0.103 -1.1389  1.0471  0.5422
 4337SOL     OW24469   2.923   3.113   5.204  0.0598  0.6577  0.2111
 4337SOL    HW124470   2.980   3.137   5.277  0.6071 -0.6947  0.2340
 4337SOL    HW224471   2.918   3.194   5.154  3.1126 -0.2772 -1.6500
 4338SOL     OW24472   2.189   3.455   6.692  0.1746 -0.5906  0.1019
 4338SOL    HW124473   2.150   3.524   6.746  0.3092 -0.4630  0.0347
 4338SOL    HW224474   2.178   3.506   6.611  3.0616  0.8377  0.6332
 4339SOL     OW24475   4.531   1.181  16.369  0.5080 -0.0132  0.4126
 4339SOL    HW124476   4.466   1.188  16.439 -0.2262  2.6495 -0.5223
 4339SOL    HW224477   4.505   1.098  16.328 -0.0314  0.9721 -1.2587
 4340SOL     OW24478   4.312   0.645   0.715  0.4740 -0.5490  0.2915
 4340SOL    HW124479   4.355   0.563   0.692  1.3988  0.4218 -1.4770
 4340SOL    HW224480   4.223   0.657   0.683  1.0312  3.2640  0.1798
 4341SOL     OW24481   3.369   4.511   8.135  0.6601 -0.3635 -0.3641
 4341SOL    HW124482   3.294   4.571   8.133 -0.5488 -1.8315  0.5198
 4341SOL    HW224483   3.378   4.498   8.230 -2.9413  0.1840  0.0842
 4342SOL     OW24484   4.608   1.108   6.371 -0.0102 -0.5213  0.0729
 4342SOL    HW124485   4.692   1.153   6.377  0.5114 -1.6575  1.3842
 4342SOL    HW224486   4.575   1.152   6.293  0.3942  1.3990  0.9915
 4343SOL     OW24487   0.092   0.637   9.874  0.2407 -0.2581  0.0598
 4343SOL    HW124488   0.021   0.632   9.937  1.1447  1.7712  1.2316
 4343SOL    HW224489   0.062   0.710   9.818 -2.1110 -1.6181 -0.4527
 4344SOL     OW24490   0.735   3.653  17.334 -0.2024 -0.4918  0.5749
 4344SOL    HW124491   0.805   3.648  17.268 -0.0201  1.2695  0.6494
 4344SOL    HW224492   0.775   3.695  17.410 -0.5741  1.6444 -0.4281
 4345SOL     OW24493   3.557   1.105  11.922 -0.2234 -0.5750 -0.5403
 4345SOL    HW124494   3.534   1.131  12.011 -1.4340  2.4769 -1.7359
 4345SOL    HW224495   3.551   1.183  11.866 -0.1770 -0.1261  0.0732
 4346SOL     OW24496   1.204   1.767  11.548  0.1990 -0.0703  0.5697
 4346SOL    HW124497   1.182   1.697  11.608  0.1634  0.0445  0.6907
 4346SOL    HW224498   1.291   1.739  11.520 -0.5006 -2.2186  0.5704
 4347SOL     OW24499   1.558   0.829  10.006  0.3481 -0.0437  0.4087
 4347SOL    HW124500   1.518   0.783   9.933 -0.7509  1.7086 -0.0926
 4347SOL    HW224501   1.512   0.786  10.078  1.7593  0.0869  1.3836
 4348SOL     OW24502   1.594   1.569  10.284  0.5381  0.3030 -0.0688
 4348SOL    HW124503   1.570   1.506  10.216  2.2980 -0.6513  0.1912
 4348SOL    HW224504   1.612   1.653  10.243  3.2415 -1.1750 -1.8807
 4349SOL     OW24505   3.299   3.236  12.999  0.0909  0.3057 -0.4918
 4349SOL    HW124506   3.262   3.158  13.039  1.0764  0.2423  0.3081
 4349SOL    HW224507   3.359   3.208  12.930 -0.7620 -1.1776 -0.6175
 4350SOL     OW24508   0.035   0.451   9.137  0.9117  0.3558  0.0152
 4350SOL    HW124509   0.008   0.361   9.126  0.0073  0.7290 -0.7832
 4350SOL    HW224510   4.703   0.497   9.072  2.0595 -1.9154 -2.4813
 4351SOL     OW24511   2.080   3.529  17.160 -0.0153 -0.0046  0.5710
 4351SOL    HW124512   2.016   3.558  17.094  2.6333  1.5357 -1.3478
 4351SOL    HW224513   2.037   3.448  17.186 -0.3269 -0.3037 -0.8511
 4352SOL     OW24514   4.524   4.686   2.588 -0.0754 -0.2076  0.2793
 4352SOL    HW124515   4.566   4.625   2.649  1.1525  0.3642 -0.0112
 4352SOL    HW224516   4.433   4.671   2.615  0.5423 -3.3353  0.5859
 4353SOL     OW24517   2.374   2.581   2.570 -0.3122  0.3272  0.7091
 4353SOL    HW124518   2.367   2.540   2.484  0.6513 -0.2522  0.9107
 4353SOL    HW224519   2.339   2.507   2.620  0.3260 -0.8231 -0.5487
 4354SOL     OW24520   1.634   0.882   3.456  0.0031  0.2490  0.1296
 4354SOL    HW124521   1.557   0.939   3.454 -0.6961 -0.7857 -1.8087
 4354SOL    HW224522   1.606   0.818   3.522  0.3467  1.0304  1.0328
 4355SOL     OW24523   3.056   4.018   0.036  0.5011  0.3289  0.0076
 4355SOL    HW124524   3.076   3.981   0.122  1.2173  0.2675 -0.1813
 4355SOL    HW224525   3.124   3.995  17.656  1.7674  2.5280  0.5866
 4356SOL     OW24526   1.123   1.596   3.655 -0.0318  0.2165 -0.8070
 4356SOL    HW124527   1.032   1.613   3.680  0.0653 -0.7625  0.2304
 4356SOL    HW224528   1.145   1.516   3.702 -1.6722 -1.8168 -3.5324
 4357SOL     OW24529   4.571   2.728   8.953  0.0533  0.3224 -0.0201
 4357SOL    HW124530   4.611   2.661   9.009 -1.2291  0.2785  0.8445
 4357SOL    HW224531   4.583   2.804   9.011  1.2004 -0.3438  0.6159
 4358SOL     OW24532   0.815   0.928   5.463 -0.1224  1.0905  0.0990
 4358SOL    HW124533   0.809   0.867   5.537  0.9063 -0.1982 -0.8740
 4358SOL    HW224534   0.734   0.911   5.415  0.7433 -1.9037 -0.3620
 4359SOL     OW24535   3.438   3.185   5.103 -0.0895 -0.6754 -0.2544
 4359SOL    HW124536   3.429   3.242   5.180 -0.0066  0.4189 -1.0605
 4359SOL    HW224537   3.436   3.247   5.031  0.2976  0.2435  0.5295
 4360SOL     OW24538   1.320   2.806  10.214 -0.0761  0.2899  0.2775
 4360SOL    HW124539   1.246   2.832  10.159  0.0355  0.6598  0.3018
 4360SOL    HW224540   1.348   2.887  10.257 -0.3388 -0.2690  1.4946
 4361SOL     OW24541   2.842   4.140   1.990 -0.1650  0.2843 -0.2074
 4361SOL    HW124542   2.933   4.131   2.018  0.4571  2.3762 -1.5267
 4361SOL    HW224543   2.851   4.171   1.900  2.1750  0.3882  0.0617
 4362SOL     OW24544   2.079   1.188   7.639 -0.1495  0.1158  0.3729
 4362SOL    HW124545   2.100   1.169   7.548  1.2798 -1.1160  0.9473
 4362SOL    HW224546   2.011   1.254   7.626 -0.3149 -0.0451  0.4167
 4363SOL     OW24547   4.356   4.644   8.355 -0.1776 -0.2861 -0.2674
 4363SOL    HW124548   4.385   4.567   8.306  0.2251  0.2540 -0.8733
 4363SOL    HW224549   4.313   4.613   8.435 -0.2366 -1.1752 -0.6391
 4364SOL     OW24550   3.365   1.861   8.947 -0.1086  0.3700  0.1481
 4364SOL    HW124551   3.407   1.896   9.026 -0.3746  2.2770 -0.5547
 4364SOL    HW224552   3.441   1.864   8.888 -0.0589  1.7704  0.2840
 4365SOL     OW24553   3.445   0.923   7.977 -0.0668 -0.4529  0.3148
 4365SOL    HW124554   3.398   0.840   7.969 -2.8809  0.9775  1.8661
 4365SOL    HW224555   3.509   0.909   8.047 -0.0710 -0.3909  0.3314
 4366SOL     OW24556   1.710   2.638   7.904 -0.8574  0.3697  0.2925
 4366SOL    HW124557   1.721   2.601   7.816 -1.3327  3.8680 -1.2748
 4366SOL    HW224558   1.666   2.721   7.886 -0.6229  0.1866 -1.1362
 4367SOL     OW24559   0.249   1.139  16.662  0.2092  0.1979  0.0325
 4367SOL    HW124560   0.159   1.110  16.652  0.5594 -0.3327 -1.6643
 4367SOL    HW224561   0.255   1.221  16.614 -2.5951 -0.0887 -0.7668
 4368SOL     OW24562   1.704   1.313   8.212  0.2219 -0.6596  0.0032
 4368SOL    HW124563   1.633   1.254   8.186  1.8260 -2.0278 -1.3187
 4368SOL    HW224564   1.767   1.245   8.236  1.5988  0.3246 -0.8655
 4369SOL     OW24565   4.241   3.639  11.524 -0.2451 -0.6897  0.4985
 4369SOL    HW124566   4.219   3.546  11.525 -0.0371 -0.7455 -0.1230
 4369SOL    HW224567   4.259   3.648  11.618 -1.0908  2.5922  0.3627
 4370SOL     OW24568   3.117   4.496   1.798  0.0925  0.1469 -0.0809
 4370SOL    HW124569   3.135   4.580   1.840  0.0853  0.1631 -0.1110
 4370SOL    HW224570   3.169   4.433   1.848  1.5331 -1.3166 -3.4291
 4371SOL     OW24571   1.337   2.771   3.201 -0.2355  0.5218 -0.9428
 4371SOL    HW124572   1.283   2.695   3.181 -1.1373  0.6854  0.9118
 4371SOL    HW224573   1.397   2.778   3.126  3.0179 -0.4351  1.5561
 4372SOL     OW24574   4.135   0.907   4.068 -0.5421 -0.2180 -0.0958
 4372SOL    HW124575   4.040   0.909   4.083 -0.5736  1.1867 -0.4443
 4372SOL    HW224576   4.159   0.818   4.094  2.3061  0.6031  0.0369
 4373SOL     OW24577   4.449   2.971   5.416 -0.6007 -0.0718  0.1737
 4373SOL    HW124578   4.456   3.066   5.418  0.5775 -0.0616 -4.2699
 4373SOL    HW224579   4.409   2.958   5.330  0.5750 -1.1037 -0.2112
 4374SOL     OW24580   4.478   1.980   6.918 -0.1963  0.3703 -0.4883
 4374SOL    HW124581   4.573   1.981   6.908 -0.3169 -1.1350 -1.8239
 4374SOL    HW224582   4.449   1.965   6.828  0.4858  1.0446 -0.8162
 4375SOL     OW24583   3.768   1.103  14.257  0.3522 -0.0714 -0.3358
 4375SOL    HW124584   3.810   1.189  14.256  0.0572  0.0706 -0.4488
 4375SOL    HW224585   3.677   1.134  14.257  0.1971 -0.5279  0.1117
 4376SOL     OW24586   3.436   3.219  12.743 -0.2479  0.5334  0.4161
 4376SOL    HW124587   3.421   3.125  12.736 -1.5773  0.8441 -0.8613
 4376SOL    HW224588   3.361   3.260  12.701  0.7475 -1.1504 -3.0179
 4377SOL     OW24589   0.837   1.391   3.964  0.1771 -0.2108  0.3677
 4377SOL    HW124590   0.759   1.369   4.014  1.0827  0.3443  2.0183
 4377SOL    HW224591   0.860   1.306   3.925  0.8571 -0.2430  0.8324
 4378SOL     OW24592   1.285   3.584   1.641 -0.5036  0.4457  0.6063
 4378SOL    HW124593   1.313   3.556   1.729  1.3537 -1.6886 -0.6568
 4378SOL    HW224594   1.293   3.679   1.652 -0.5445  0.5015  0.1234
 4379SOL     OW24595   2.871   0.136   9.194 -0.6300 -0.6104 -0.8101
 4379SOL    HW124596   2.887   0.107   9.284  1.3338  0.5693 -0.7690
 4379SOL    HW224597   2.925   0.079   9.140  2.0279  1.2167 -0.1106
 4380SOL     OW24598   4.198   2.629   9.224 -0.0767 -0.1679 -0.2594
 4380SOL    HW124599   4.200   2.653   9.132 -0.9615 -0.1246 -0.2753
 4380SOL    HW224600   4.278   2.658   9.267 -1.1016  2.9506 -0.4886
 4381SOL     OW24601   3.969   4.476   4.277  0.1986  0.0929 -0.8860
 4381SOL    HW124602   3.976   4.382   4.295  2.5728  0.3696 -0.4073
 4381SOL    HW224603   4.032   4.485   4.206 -0.6004 -0.4928 -1.6725
 4382SOL     OW24604   4.682   0.309   3.794  0.2116  0.5860  0.7779
 4382SOL    HW124605   4.684   0.324   3.888  1.0779  2.7224  0.4072
 4382SOL    HW224606   4.712   0.393   3.758 -1.6176  1.1118  0.4676
 4383SOL     OW24607   3.089   1.803  16.337 -0.0314  0.1692 -0.3385
 4383SOL    HW124608   3.117   1.721  16.297  1.6200  1.3519 -1.6437
 4383SOL    HW224609   3.007   1.828  16.295 -0.6231  0.0329  0.7418
 4384SOL     OW24610   0.908   1.889   3.149  0.5157  0.2285 -0.0003
 4384SOL    HW124611   0.977   1.952   3.169 -1.2934  1.8789  0.9642
 4384SOL    HW224612   0.946   1.821   3.205  2.0418  1.5337  0.5408
 4385SOL     OW24613   2.234   1.096   3.905  0.3668  0.2835 -0.4789
 4385SOL    HW124614   2.152   1.074   3.861  0.5274 -2.2972  0.5562
 4385SOL    HW224615   2.229   1.041   3.983 -3.8540 -0.2187 -1.1487
 4386SOL     OW24616   3.903   3.394   3.727 -0.3185  1.0024  0.6564
 4386SOL    HW124617   3.955   3.473   3.738  1.2355 -0.0395  0.6764
 4386SOL    HW224618   3.863   3.420   3.644  1.2324 -3.5668 -1.5443
 4387SOL     OW24619   4.159   1.885   8.405  0.0031 -0.1978  0.0142
 4387SOL    HW124620   4.149   1.903   8.499 -1.6583 -0.6497 -0.0669
 4387SOL    HW224621   4.113   1.800   8.406  1.3105 -0.9069  0.0328
 4388SOL     OW24622   4.102   2.802   3.096  0.1325 -0.0051  1.1117
 4388SOL    HW124623   4.026   2.859   3.083  0.6598  0.7082  1.1685
 4388SOL    HW224624   4.081   2.736   3.030 -1.2318  0.4527  1.0923
 4389SOL     OW24625   1.343   0.130  16.064 -0.5501 -0.3159 -0.0015
 4389SOL    HW124626   1.422   0.123  16.010 -0.1011  2.2167  0.3588
 4389SOL    HW224627   1.348   0.219  16.099  0.5596  0.4052 -1.9786
 4390SOL     OW24628   2.302   3.242  12.586 -0.1757 -0.1019 -0.3362
 4390SOL    HW124629   2.258   3.157  12.576 -1.0184 -0.1000  3.4317
 4390SOL    HW224630   2.388   3.218  12.622 -0.9336  1.6540  2.5717
 4391SOL     OW24631   4.324   0.261   3.988 -0.2848 -0.5178  0.1472
 4391SOL    HW124632   4.362   0.177   3.963 -0.4295 -0.0409 -1.6758
 4391SOL    HW224633   4.295   0.303   3.908  0.7475 -0.1955 -0.0539
 4392SOL     OW24634   2.983   2.268   5.274  0.1228 -0.2864 -0.0667
 4392SOL    HW124635   2.938   2.345   5.239 -0.9101  0.1268  2.1630
 4392SOL    HW224636   2.920   2.246   5.342  1.2677 -1.7237  0.5213
 4393SOL     OW24637   1.220   0.927   3.114 -0.2115 -0.4816  0.9377
 4393SOL    HW124638   1.238   0.836   3.134  1.6745 -0.1821  0.5959
 4393SOL    HW224639   1.303   0.953   3.073  0.1981 -0.3493  1.8452
 4394SOL     OW24640   2.618   3.527  17.074 -0.7111 -0.1065  0.8185
 4394SOL    HW124641   2.552   3.535  17.143 -0.6172  1.8877  0.6755
 4394SOL    HW224642   2.660   3.612  17.090  1.1885 -0.6934 -0.9967
 4395SOL     OW24643   1.388   0.524   3.499  1.0095  0.1577 -0.4198
 4395SOL    HW124644   1.403   0.430   3.502 -1.5285 -0.2445 -1.1011
 4395SOL    HW224645   1.328   0.542   3.427 -1.6888 -1.0220  1.5402
 4396SOL     OW24646   0.966   1.954  11.781 -0.3039 -0.7860  0.2989
 4396SOL    HW124647   0.875   1.925  11.785 -1.1984  1.9255 -0.1573
 4396SOL    HW224648   0.973   2.014  11.856  0.7349 -0.8220  0.2281
 4397SOL     OW24649   1.783   3.209  11.479  0.6358  0.2607  0.0876
 4397SOL    HW124650   1.855   3.258  11.518 -1.0951  0.7820  2.6888
 4397SOL    HW224651   1.822   3.122  11.471  1.1391  0.3667  1.3787
 4398SOL     OW24652   3.588   3.112  16.787 -0.0222 -0.1288 -0.6248
 4398SOL    HW124653   3.514   3.160  16.826  1.5022  0.5580  1.4011
 4398SOL    HW224654   3.556   3.022  16.787 -0.2620 -0.0471  1.6474
 4399SOL     OW24655   2.916   4.611   2.632  0.1574  0.0086 -0.3329
 4399SOL    HW124656   2.864   4.534   2.656  0.4358 -0.2949 -0.6969
 4399SOL    HW224657   2.887   4.629   2.543 -2.6321 -1.5396  0.2605
 4400SOL     OW24658   0.451   4.105   1.948  0.1612  0.4640 -0.6228
 4400SOL    HW124659   0.410   4.107   1.862  1.1096 -0.8538 -1.1036
 4400SOL    HW224660   0.510   4.175   1.919  1.1935 -0.6676 -1.2390
 4401SOL     OW24661   2.082   2.466   7.276  0.2092 -0.2454 -0.5327
 4401SOL    HW124662   2.131   2.547   7.268 -0.6275  0.4751  1.7723
 4401SOL    HW224663   2.108   2.451   7.367 -0.5017  0.0142 -0.2884
 4402SOL     OW24664   2.123   2.103  15.182 -0.0929 -0.0293  0.1816
 4402SOL    HW124665   2.172   2.022  15.193  1.8890  1.3935  1.9880
 4402SOL    HW224666   2.149   2.141  15.098  0.2995  1.9211  1.1837
 4403SOL     OW24667   0.830   0.333   7.760 -0.1476 -0.0387  0.5097
 4403SOL    HW124668   0.830   0.369   7.848 -1.0979 -0.3779  0.6525
 4403SOL    HW224669   0.912   0.285   7.748  0.2974  0.8224  0.1533
 4404SOL     OW24670   2.551   2.746  16.926 -0.0818 -0.1122 -0.4550
 4404SOL    HW124671   2.458   2.725  16.927 -0.3074  1.1336  3.9583
 4404SOL    HW224672   2.584   2.736  16.837  0.9306  1.9401 -0.3143
 4405SOL     OW24673   2.734   1.444   8.404 -0.1569  0.6099  0.0546
 4405SOL    HW124674   2.768   1.501   8.336  0.7221 -0.4717 -0.4068
 4405SOL    HW224675   2.678   1.509   8.446 -0.1144  0.5946  0.1355
 4406SOL     OW24676   0.618   2.911  14.869 -0.0047  0.0818  0.3637
 4406SOL    HW124677   0.560   2.846  14.909  0.4282 -1.2491 -1.2119
 4406SOL    HW224678   0.553   2.978  14.845 -0.6106 -0.2804  0.9611
 4407SOL     OW24679   2.841   0.281   4.752 -0.4478 -0.2728  0.1936
 4407SOL    HW124680   2.758   0.233   4.745 -1.6855  1.5895  2.1578
 4407SOL    HW224681   2.866   0.303   4.662 -0.2535 -2.1030 -0.1952
 4408SOL     OW24682   0.144   1.290   5.956 -1.3334 -0.0192  0.1714
 4408SOL    HW124683   0.163   1.312   5.865  0.1109 -0.1273  0.4475
 4408SOL    HW224684   0.220   1.325   6.002 -3.4524  2.1373  2.0226
 4409SOL     OW24685   0.825   4.628  10.487  0.5853 -0.5969 -0.0048
 4409SOL    HW124686   0.784   4.562  10.543  0.0693  1.1294  1.6347
 4409SOL    HW224687   0.793   4.594  10.403  0.2980 -0.3953  0.0203
 4410SOL     OW24688   4.709   1.418  13.410  0.3157 -0.0375  0.5732
 4410SOL    HW124689   4.706   1.326  13.436  0.1875  0.2471  1.5420
 4410SOL    HW224690   4.619   1.443  13.433  0.0559  1.6298 -2.1498
 4411SOL     OW24691   1.029   2.091   6.937 -0.0663  0.2151  0.0892
 4411SOL    HW124692   1.121   2.073   6.919  0.2529  2.4190 -0.4943
 4411SOL    HW224693   1.022   2.035   7.014 -2.0442 -0.7651 -0.8077
 4412SOL     OW24694   1.989   0.519  15.204  0.6732  0.5013  0.1157
 4412SOL    HW124695   2.063   0.573  15.232  0.2410  0.4310  1.4091
 4412SOL    HW224696   1.979   0.467  15.284 -0.8037  3.5631  1.9320
 4413SOL     OW24697   1.886   4.065   6.445  0.0861 -0.0216 -0.2139
 4413SOL    HW124698   1.888   4.146   6.395  0.6825  0.3675  0.4494
 4413SOL    HW224699   1.978   4.045   6.429  0.7538  2.2434  0.8458
 4414SOL     OW24700   3.216   0.971  14.305  0.4456  0.3669  0.2141
 4414SOL    HW124701   3.296   0.999  14.349  1.6719  0.0612 -1.8270
 4414SOL    HW224702   3.154   0.994  14.374 -1.3968  1.1144 -1.7020
 4415SOL     OW24703   4.272   0.091   3.058 -0.0758 -0.3472  0.3683
 4415SOL    HW124704   4.214   0.089   3.134 -1.3484  2.7504 -0.5581
 4415SOL    HW224705   4.275   0.185   3.040  0.2229 -0.2247  1.0613
 4416SOL     OW24706   4.023   3.049  17.649  0.0785  0.0918 -0.5890
 4416SOL    HW124707   4.090   3.104  17.609 -1.4354  2.9933  0.9121
 4416SOL    HW224708   4.055   3.017   0.050 -0.7156 -1.1171 -0.7389
 4417SOL     OW24709   1.921   1.662   3.230 -0.1130 -0.2795  0.3799
 4417SOL    HW124710   1.997   1.606   3.246  1.3621  0.9501 -2.3594
 4417SOL    HW224711   1.889   1.634   3.144  0.7095 -0.0448  0.0083
 4418SOL     OW24712   0.697   3.265   5.089 -0.6097  0.1499 -0.2765
 4418SOL    HW124713   0.748   3.329   5.040 -1.2145  0.8714  0.0465
 4418SOL    HW224714   0.634   3.252   5.018 -1.2068 -2.7208  0.7828
 4419SOL     OW24715   3.980   0.066   6.220 -0.0188 -0.3406  0.0766
 4419SOL    HW124716   4.050   0.057   6.156 -1.7907 -2.2720 -1.6082
 4419SOL    HW224717   3.900   0.051   6.169  0.9121 -0.3059 -1.3799
 4420SOL     OW24718   0.124   3.620   9.428 -0.2665  0.1906 -0.6748
 4420SOL    HW124719   0.200   3.651   9.477  0.1076 -0.1983 -1.0050
 4420SOL    HW224720   0.054   3.675   9.462 -0.5682  0.0971 -1.1436
 4421SOL     OW24721   2.879   0.410   7.501  0.4406 -0.1980 -0.3149
 4421SOL    HW124722   2.851   0.335   7.448  0.8434 -2.3603  2.4882
 4421SOL    HW224723   2.911   0.362   7.578 -0.7875  0.0870  0.3730
 4422SOL     OW24724   1.949   0.429   2.516 -0.2202 -0.0073 -0.4894
 4422SOL    HW124725   1.967   0.518   2.546 -0.3963 -0.6808  1.5912
 4422SOL    HW224726   2.007   0.417   2.441  0.6267 -1.4016  0.3789
 4423SOL     OW24727   1.532   2.377   5.502 -0.7406  0.4900 -0.6879
 4423SOL    HW124728   1.494   2.423   5.576 -1.3674 -1.5105  0.2259
 4423SOL    HW224729   1.454   2.327   5.480 -1.3977  1.1059  0.2285
 4424SOL     OW24730   0.111   0.764   7.889  0.1233  0.2473 -0.5045
 4424SOL    HW124731   0.156   0.728   7.966  0.3415 -2.0242 -1.6938
 4424SOL    HW224732   0.181   0.823   7.860 -0.3798  0.6107 -0.9717
 4425SOL     OW24733   3.912   3.293   6.185 -0.1918 -0.1010 -0.2328
 4425SOL    HW124734   3.979   3.243   6.138 -0.5711 -1.6849  0.8688
 4425SOL    HW224735   3.948   3.372   6.225 -0.9467  0.4343 -0.6261
 4426SOL     OW24736   3.643   2.254   3.764  0.1120  0.0258 -0.3047
 4426SOL    HW124737   3.706   2.291   3.703  0.2344 -2.8707 -1.9304
 4426SOL    HW224738   3.691   2.244   3.846 -1.0568 -0.3601  0.3439
 4427SOL     OW24739   4.350   4.381   6.626 -0.1621 -0.4713  0.0721
 4427SOL    HW124740   4.294   4.384   6.548 -0.3588  0.2327  0.2371
 4427SOL    HW224741   4.337   4.291   6.655  0.5825 -0.3130  0.8795
 4428SOL     OW24742   1.177   0.749   0.679 -0.2022 -0.3194  0.0517
 4428SOL    HW124743   1.159   0.843   0.674  2.3515  0.2097  0.8543
 4428SOL    HW224744   1.162   0.734   0.585  0.6067  4.1746 -0.7887
 4429SOL     OW24745   2.266   4.650   8.349  0.4183  0.4132  0.0446
 4429SOL    HW124746   2.361   4.664   8.345  0.5093  0.1983  1.4767
 4429SOL    HW224747   2.249   4.582   8.285  0.0521 -0.7295  1.3726
 4430SOL     OW24748   4.197   3.626  13.035  0.4761 -0.0700 -0.1851
 4430SOL    HW124749   4.257   3.569  12.988  1.4316 -0.2562  1.2531
 4430SOL    HW224750   4.223   3.711  13.000  1.3302  0.6101  2.0701
 4431SOL     OW24751   2.764   0.646  10.020  0.3310 -0.0366 -0.0015
 4431SOL    HW124752   2.755   0.680   9.931 -0.2480  0.1244  0.1203
 4431SOL    HW224753   2.827   0.704  10.062  0.4465 -0.0926 -0.0981
 4432SOL     OW24754   0.312   3.121   9.646 -0.0664 -0.1441 -0.1109
 4432SOL    HW124755   0.253   3.195   9.629  0.0218 -0.2353 -0.8153
 4432SOL    HW224756   0.296   3.107   9.739  0.6367  2.7542  0.4476
 4433SOL     OW24757   3.891   4.390  10.727 -0.5611  0.2977 -0.4030
 4433SOL    HW124758   3.975   4.402  10.770 -0.3490  2.5954 -1.4717
 4433SOL    HW224759   3.837   4.460  10.762 -1.5043 -0.3210 -0.6224
 4434SOL     OW24760   2.287   2.508   4.585 -0.0086  0.1191 -0.0413
 4434SOL    HW124761   2.213   2.542   4.636  1.3612  0.5679  1.6441
 4434SOL    HW224762   2.290   2.414   4.603 -2.3713  0.2755  1.2192
 4435SOL     OW24763   4.486   0.338  13.574  1.0131  0.6585 -0.6613
 4435SOL    HW124764   4.507   0.304  13.661 -2.2318  1.1806  0.3269
 4435SOL    HW224765   4.412   0.396  13.590 -0.9225 -2.0256  0.1757
 4436SOL     OW24766   0.489   2.038   3.864  0.8168 -0.1051 -0.0028
 4436SOL    HW124767   0.406   2.082   3.845  0.4993  0.0495  1.8109
 4436SOL    HW224768   0.544   2.062   3.789  2.0806 -2.0836  0.2724
 4437SOL     OW24769   3.757   0.602   8.909 -0.1328  0.3364  0.0351
 4437SOL    HW124770   3.782   0.533   8.847  0.8531 -1.0913  2.0164
 4437SOL    HW224771   3.663   0.582   8.918  0.1098  0.4067  2.8416
 4438SOL     OW24772   1.169   2.217   8.949 -0.1168  0.5840 -0.5892
 4438SOL    HW124773   1.207   2.246   9.032  1.3721 -0.8980 -0.7472
 4438SOL    HW224774   1.156   2.123   8.963 -0.4394  0.4705 -1.6218
 4439SOL     OW24775   3.605   0.584  11.970  0.1725 -0.2032  0.3407
 4439SOL    HW124776   3.655   0.663  11.951  0.0009 -0.3134 -0.5596
 4439SOL    HW224777   3.665   0.514  11.948 -0.4397 -0.4530 -0.5056
 4440SOL     OW24778   3.826   4.377   8.714  0.6481 -0.3518 -0.3666
 4440SOL    HW124779   3.815   4.360   8.807 -1.6356 -2.0679 -0.9680
 4440SOL    HW224780   3.742   4.350   8.678  1.1255 -2.1066 -0.1662
 4441SOL     OW24781   4.035   4.712   2.821 -0.4699  0.2672  0.0975
 4441SOL    HW124782   4.046   0.082   2.850 -0.0768  0.5734 -1.0037
 4441SOL    HW224783   3.952   4.686   2.863  0.2460 -1.9216  0.1624
 4442SOL     OW24784   1.779   3.571   5.632  0.2889 -0.4010  0.7414
 4442SOL    HW124785   1.853   3.576   5.693 -0.7434  2.3247  1.7779
 4442SOL    HW224786   1.786   3.653   5.583  0.3582 -1.5196 -1.1197
 4443SOL     OW24787   3.338   0.215  12.989  0.4469  0.1089  0.1730
 4443SOL    HW124788   3.369   0.220  13.080  0.8423 -2.4205  0.1890
 4443SOL    HW224789   3.406   0.269  12.949  0.5781 -0.0611  0.1619
 4444SOL     OW24790   0.573   2.358   6.152  0.1617 -0.1726  0.8426
 4444SOL    HW124791   0.493   2.412   6.149  0.4775  0.0081 -3.6701
 4444SOL    HW224792   0.552   2.298   6.081  0.7207  1.5096 -0.7306
 4445SOL     OW24793   3.838   1.618   1.685  0.3523 -0.0389 -0.4237
 4445SOL    HW124794   3.779   1.568   1.628 -1.8698  2.5217 -0.3875
 4445SOL    HW224795   3.913   1.619   1.625  1.5787 -2.5576  1.0803
 4446SOL     OW24796   2.779   2.425   5.782  0.0399 -0.1895  0.2340
 4446SOL    HW124797   2.788   2.479   5.861  3.8063 -0.0866 -0.2660
 4446SOL    HW224798   2.690   2.395   5.803  0.7939 -1.0732  2.1523
 4447SOL     OW24799   2.518   4.597   9.012 -0.7126  0.0406 -0.1883
 4447SOL    HW124800   2.565   4.679   9.030  0.4444 -0.8912  1.0806
 4447SOL    HW224801   2.443   4.614   9.069  1.8603  1.7234  2.7122
 4448SOL     OW24802   3.255   0.666   1.614  0.3965  0.0693 -0.4208
 4448SOL    HW124803   3.189   0.735   1.611 -1.2325 -1.4379  0.3942
 4448SOL    HW224804   3.330   0.721   1.594  0.4880 -0.0343 -0.3645
 4449SOL     OW24805   2.919   2.380   5.535 -0.3541 -0.2897  0.7294
 4449SOL    HW124806   2.890   2.415   5.619  1.2668 -2.4632  2.2130
 4449SOL    HW224807   2.852   2.311   5.536 -0.6964  0.0390  0.3733
 4450SOL     OW24808   3.003   2.290   6.125  0.2550 -0.1139 -0.1307
 4450SOL    HW124809   3.076   2.275   6.064  1.1026  2.3329  0.2849
 4450SOL    HW224810   3.054   2.301   6.206  1.4569 -0.4909 -0.8364
 4451SOL     OW24811   3.135   4.668   2.936  0.5129 -0.5158  0.2460
 4451SOL    HW124812   3.091   4.603   2.881  1.6277 -1.7455  0.7951
 4451SOL    HW224813   3.226   4.641   2.921  0.8614  0.7492  0.0750
 4452SOL     OW24814   3.178   4.249  16.625  0.6082  0.3296  0.0559
 4452SOL    HW124815   3.234   4.317  16.663  1.0739 -0.4354  0.7171
 4452SOL    HW224816   3.126   4.214  16.698 -0.4487  1.2961 -0.2178
 4453SOL     OW24817   3.005   3.527   5.307  0.2499 -0.2191 -0.3800
 4453SOL    HW124818   3.058   3.608   5.308  1.7690 -1.1874 -1.3374
 4453SOL    HW224819   2.987   3.526   5.213 -0.6725 -1.0236 -0.1926
 4454SOL     OW24820   3.929   1.845  11.536 -0.1635  0.1445 -0.0396
 4454SOL    HW124821   4.004   1.787  11.528  1.0159  1.6096  0.3630
 4454SOL    HW224822   3.903   1.834  11.628 -1.0247 -1.2610 -0.4645
 4455SOL     OW24823   4.709   2.469   3.208  0.1710  0.1634 -0.1899
 4455SOL    HW124824   4.683   2.376   3.210 -0.4239  0.3725  1.9485
 4455SOL    HW224825   4.632   2.503   3.162 -1.1000 -0.8494  1.1826
 4456SOL     OW24826   0.004   0.006   7.180 -0.1008 -0.3667 -0.4775
 4456SOL    HW124827   4.709   0.016   7.274  1.4871  0.8635 -0.3558
 4456SOL    HW224828   4.644   0.024   7.130 -1.3063 -0.1614  1.4999
 4457SOL     OW24829   1.470   0.180  13.646  0.2166  0.6654  0.6920
 4457SOL    HW124830   1.457   0.225  13.563 -1.0858 -1.1350 -0.0795
 4457SOL    HW224831   1.462   0.249  13.711 -0.9019  0.4056  0.8318
 4458SOL     OW24832   1.369   0.098  14.874 -0.4566 -0.3234 -0.0464
 4458SOL    HW124833   1.354   0.192  14.869  0.0169 -0.2632 -0.3487
 4458SOL    HW224834   1.447   0.104  14.930 -2.4315  3.3840  2.3683
 4459SOL     OW24835   3.546   2.272   8.675  0.2336  0.2591 -0.0808
 4459SOL    HW124836   3.583   2.226   8.750 -0.8042  0.1429  0.3673
 4459SOL    HW224837   3.595   2.350   8.700 -0.3205  0.5349  0.1421
 4460SOL     OW24838   1.486   0.670   1.862 -0.0499  0.2666 -0.1277
 4460SOL    HW124839   1.446   0.676   1.948  0.4590  2.7452 -0.0616
 4460SOL    HW224840   1.414   0.699   1.807 -0.0277 -1.6699 -1.1970
 4461SOL     OW24841   1.335   1.162   0.318  0.7461  0.3506  0.3180
 4461SOL    HW124842   1.331   1.256   0.334 -1.4813  0.4474 -0.7324
 4461SOL    HW224843   1.409   1.128   0.369 -0.3038 -1.6416  0.5451
 4462SOL     OW24844   3.036   0.662   8.008 -0.0134 -0.4638  0.7121
 4462SOL    HW124845   3.106   0.675   8.072  1.5882 -0.9750 -0.9565
 4462SOL    HW224846   3.089   0.643   7.931 -1.1586 -3.8869  0.7700
 4463SOL     OW24847   0.993   2.071   9.344 -0.1829 -0.2243  0.4583
 4463SOL    HW124848   0.983   2.164   9.365  1.9997  0.4229 -1.2902
 4463SOL    HW224849   0.949   2.066   9.259 -0.3035  0.0114  0.5055
 4464SOL     OW24850   3.044   4.147  13.546  0.1046 -0.5419  0.1979
 4464SOL    HW124851   3.136   4.161  13.520 -0.8604  2.5857 -1.6142
 4464SOL    HW224852   2.998   4.180  13.469  0.2316 -2.9443 -0.8955
 4465SOL     OW24853   4.597   2.892  17.227  0.4091  0.1731  0.1779
 4465SOL    HW124854   4.558   2.807  17.208 -0.1963  0.6298 -0.6578
 4465SOL    HW224855   4.558   2.917  17.311  0.5140 -0.3833  0.3919
 4466SOL     OW24856   3.867   3.652   8.983 -0.3984 -0.4344  0.2263
 4466SOL    HW124857   3.949   3.663   9.030 -0.1496 -1.6477  0.0755
 4466SOL    HW224858   3.870   3.558   8.968  1.9726 -0.3713  0.3380
 4467SOL     OW24859   3.668   0.348  13.321  0.3404  0.3386 -0.0365
 4467SOL    HW124860   3.721   0.317  13.394  0.0284  0.1925  0.1304
 4467SOL    HW224861   3.726   0.421  13.298  0.0452  0.5555 -0.1015
 4468SOL     OW24862   3.128   3.377   2.980  0.9441  0.0869  0.0045
 4468SOL    HW124863   3.213   3.383   3.025 -0.7508  1.3214  2.9993
 4468SOL    HW224864   3.139   3.293   2.935  0.5152 -0.3044  0.6409
 4469SOL     OW24865   0.154   1.703   5.907 -0.1590  0.0822  0.6562
 4469SOL    HW124866   0.131   1.689   5.815 -0.1410  0.3862  0.6060
 4469SOL    HW224867   0.240   1.666   5.925  0.5316  0.9574 -0.8673
 4470SOL     OW24868   0.808   3.189   3.476 -0.2167  0.0410  0.8043
 4470SOL    HW124869   0.728   3.192   3.529  0.0201  0.6253  1.1274
 4470SOL    HW224870   0.847   3.106   3.506  0.1398 -0.2802 -0.5347
 4471SOL     OW24871   0.910   3.811   0.857 -0.7611 -0.0211 -0.5710
 4471SOL    HW124872   0.918   3.896   0.900  0.8143 -0.2333 -0.4379
 4471SOL    HW224873   0.998   3.798   0.822 -1.0757 -2.1180 -0.5744
 4472SOL     OW24874   3.332   4.279   6.874  0.2852 -0.0416  0.5431
 4472SOL    HW124875   3.411   4.279   6.929 -1.3381  0.8173  2.8869
 4472SOL    HW224876   3.341   4.364   6.830 -0.3543 -0.2195  0.0772
 4473SOL     OW24877   3.419   4.129   2.099  0.0225  0.6084  0.3464
 4473SOL    HW124878   3.434   4.166   2.012 -0.3931  0.8308  0.3666
 4473SOL    HW224879   3.489   4.066   2.111 -0.4081  0.0526 -0.0718
 4474SOL     OW24880   3.844   3.577   6.502 -0.4729  0.3225 -0.0241
 4474SOL    HW124881   3.801   3.655   6.538  1.0818  1.5804 -0.8841
 4474SOL    HW224882   3.763   3.530   6.484 -0.6137 -0.2772  2.1455
 4475SOL     OW24883   0.848   0.003   4.787  0.0063  0.4159 -0.6668
 4475SOL    HW124884   0.794   4.697   4.713  0.4647  0.6766 -1.0907
 4475SOL    HW224885   0.856   4.641   4.836  1.3003  0.3414 -1.0092
 4476SOL     OW24886   2.943   2.186  14.919  0.3838 -0.3425 -0.7304
 4476SOL    HW124887   2.996   2.236  14.982  0.9428 -0.4198 -1.1350
 4476SOL    HW224888   2.946   2.100  14.962 -0.6494 -0.3908 -0.7743
 4477SOL     OW24889   4.627   0.055  10.595 -0.2113 -0.8161 -0.5384
 4477SOL    HW124890   4.564   0.127  10.594  1.7451  0.8959 -1.8276
 4477SOL    HW224891   4.661   0.072  10.683  0.1474 -0.6540 -0.7063
 4478SOL     OW24892   3.163   3.932   5.507 -0.3057 -0.6707  0.0749
 4478SOL    HW124893   3.202   3.973   5.584  0.2843  1.6676 -1.4689
 4478SOL    HW224894   3.115   3.855   5.538  0.9021 -1.3023  0.3715
 4479SOL     OW24895   2.407   2.434   8.131  0.3369  0.4082  0.2193
 4479SOL    HW124896   2.367   2.369   8.190  1.7015 -1.7270 -1.1951
 4479SOL    HW224897   2.332   2.456   8.076 -0.8615 -1.8450  0.9296
 4480SOL     OW24898   1.492   1.646   6.063  0.2213  0.0336 -0.7263
 4480SOL    HW124899   1.505   1.705   6.138  0.6155  0.3756 -1.0601
 4480SOL    HW224900   1.426   1.695   6.014  1.0805  0.2336 -1.6740
 4481SOL     OW24901   3.897   2.861   6.097 -0.1629  0.6056  0.3716
 4481SOL    HW124902   3.972   2.836   6.151  0.1153 -1.6263 -1.0580
 4481SOL    HW224903   3.939   2.846   6.012 -1.9553  1.3731 -0.6337
 4482SOL     OW24904   0.268   2.527  13.003 -0.2999  0.0875  0.7620
 4482SOL    HW124905   0.211   2.508  12.929 -0.2983 -1.2520  1.1117
 4482SOL    HW224906   0.246   2.619  13.019  1.1023  0.8202 -1.5334
 4483SOL     OW24907   0.619   0.964  11.731 -0.2709 -0.3579 -0.3136
 4483SOL    HW124908   0.590   0.877  11.705  0.2144 -1.2558  2.2167
 4483SOL    HW224909   0.707   0.955  11.695 -1.1141 -0.0384 -2.4676
 4484SOL     OW24910   0.990   3.101   6.764 -0.4908 -0.2088  0.4689
 4484SOL    HW124911   0.901   3.070   6.782 -0.4905  0.4046  1.5052
 4484SOL    HW224912   1.030   3.027   6.717 -3.0500 -0.5514 -1.1489
 4485SOL     OW24913   0.109   3.602   1.444  0.3150  0.3149  0.3588
 4485SOL    HW124914   0.149   3.624   1.359  0.9790 -0.1491  0.5528
 4485SOL    HW224915   0.039   3.550   1.405  0.2728  1.4375 -1.0825
 4486SOL     OW24916   2.034   2.843   9.023 -0.0787  0.1848 -0.4642
 4486SOL    HW124917   2.033   2.934   8.996 -0.8044  0.8826  1.8596
 4486SOL    HW224918   2.034   2.855   9.118 -2.1382  0.6345 -0.5069
 4487SOL     OW24919   1.648   3.699   7.242 -0.2771  0.2973 -0.0353
 4487SOL    HW124920   1.653   3.794   7.248  0.3569  0.2604  0.0162
 4487SOL    HW224921   1.646   3.687   7.147  0.5447 -0.9498  0.1043
 4488SOL     OW24922   0.154   0.233   7.131  1.0986 -0.2284  0.3330
 4488SOL    HW124923   0.241   0.227   7.092 -0.2516 -2.0499 -2.4372
 4488SOL    HW224924   0.116   0.145   7.137 -0.4075  0.2954 -1.4241
 4489SOL     OW24925   3.221   1.572  16.193  0.0069 -0.5914  0.3402
 4489SOL    HW124926   3.288   1.526  16.244 -0.6775  0.8562  2.5398
 4489SOL    HW224927   3.184   1.499  16.145 -0.4383  0.6551 -1.1970
 4490SOL     OW24928   4.620   3.499   7.202 -0.0337 -0.0962  0.4299
 4490SOL    HW124929   4.544   3.469   7.253 -1.0803  0.6488 -0.6932
 4490SOL    HW224930   4.587   3.584   7.175  0.6751  0.5629  1.6179
 4491SOL     OW24931   2.365   3.537  12.672  0.5340 -0.2098 -0.6621
 4491SOL    HW124932   2.439   3.565  12.618  0.2411  2.0698  0.1196
 4491SOL    HW224933   2.355   3.445  12.652 -0.8283 -0.1545 -0.2521
 4492SOL     OW24934   3.398   3.145   4.446 -0.2765  0.2273 -0.4384
 4492SOL    HW124935   3.315   3.103   4.468  0.3073 -0.3897  0.6013
 4492SOL    HW224936   3.365   3.227   4.410  1.0017  0.6326 -0.6950
 4493SOL     OW24937   0.757   3.424   7.202 -0.1280 -0.4163 -0.4730
 4493SOL    HW124938   0.727   3.500   7.154  0.6244 -0.1199 -0.4804
 4493SOL    HW224939   0.704   3.355   7.163 -0.5759 -0.2414 -0.1730
 4494SOL     OW24940   1.654   1.384   0.749 -0.5538  0.1073 -0.0053
 4494SOL    HW124941   1.559   1.376   0.754 -0.5559  0.0367 -0.1548
 4494SOL    HW224942   1.667   1.469   0.706 -3.1889  0.5500  0.0792
 4495SOL     OW24943   2.290   0.947   7.560  0.0498 -0.2439  0.6949
 4495SOL    HW124944   2.379   0.974   7.584 -0.0312 -0.9499  1.7767
 4495SOL    HW224945   2.287   0.942   7.464 -0.8972  0.0303  0.7086
 4496SOL     OW24946   3.585   3.316   2.141  0.3828  0.4718 -0.2610
 4496SOL    HW124947   3.607   3.238   2.090 -0.9866 -0.3599  0.4240
 4496SOL    HW224948   3.520   3.276   2.200  0.9235 -1.0669 -0.7056
 4497SOL     OW24949   2.779   2.124   1.618  0.3346  0.2259 -0.4200
 4497SOL    HW124950   2.751   2.050   1.673 -2.8006  2.3514  0.8813
 4497SOL    HW224951   2.698   2.166   1.589  0.5297  1.9863  1.5383
 4498SOL     OW24952   4.485   1.793   2.337 -0.2622  0.4329  0.2026
 4498SOL    HW124953   4.461   1.780   2.245  0.4992  1.6005 -0.1662
 4498SOL    HW224954   4.536   1.718   2.366 -0.0598  0.7452  0.6609
 4499SOL     OW24955   3.970   2.130   0.596 -0.1585 -0.3204  0.0365
 4499SOL    HW124956   3.876   2.133   0.612 -0.5705  0.3916 -2.3753
 4499SOL    HW224957   4.003   2.168   0.677 -2.8565  2.3994 -0.1544
 4500SOL     OW24958   0.688   2.682   3.240 -0.1149 -0.5452  0.2170
 4500SOL    HW124959   0.778   2.711   3.258  0.0435 -2.3804  2.3333
 4500SOL    HW224960   0.692   2.587   3.245  1.0058 -0.5631 -0.9442
 4501SOL     OW24961   0.753   2.340   8.242  0.7320 -0.1226  0.3078
 4501SOL    HW124962   0.847   2.327   8.234  1.5212  5.0969  1.4971
 4501SOL    HW224963   0.734   2.397   8.167  1.0748 -1.3355 -0.7077
 4502SOL     OW24964   2.226   2.650   0.403 -0.2273  0.2652  0.1422
 4502SOL    HW124965   2.321   2.644   0.418 -0.3924  1.3067  1.5238
 4502SOL    HW224966   2.216   2.679   0.312  1.1661  1.3707  0.3517
 4503SOL     OW24967   1.671   2.902   2.237 -0.1060 -0.3767 -0.0498
 4503SOL    HW124968   1.660   2.930   2.328 -0.2770 -0.5812 -0.0084
 4503SOL    HW224969   1.725   2.972   2.200  1.1882 -0.8591  0.9120
 4504SOL     OW24970   3.214   0.227  14.032  0.0994  0.6327  0.4420
 4504SOL    HW124971   3.291   0.274  14.002  1.4441 -1.7935  0.0546
 4504SOL    HW224972   3.147   0.295  14.027 -0.7455 -0.1005  1.6870
 4505SOL     OW24973   3.877   0.301  14.209  0.6605 -0.2636  0.6847
 4505SOL    HW124974   3.941   0.357  14.166 -0.4121  0.0734 -0.4855
 4505SOL    HW224975   3.924   0.218  14.210 -0.1899 -0.7344  1.4548
 4506SOL     OW24976   0.492   3.999   4.197  0.7286  0.0859  0.1311
 4506SOL    HW124977   0.456   4.088   4.189  1.5867  0.4667  0.6067
 4506SOL    HW224978   0.570   4.005   4.142  0.0730 -1.9279 -1.0462
 4507SOL     OW24979   0.533   4.474   8.918 -0.6265 -0.2836  0.3204
 4507SOL    HW124980   0.603   4.539   8.929 -0.3098 -0.9818  2.4813
 4507SOL    HW224981   0.518   4.480   8.824  1.0352  2.3739  0.2130
 4508SOL     OW24982   1.626   1.889  10.491  0.0462  0.2888 -0.0361
 4508SOL    HW124983   1.667   1.873  10.406 -2.7608  2.3718 -1.7912
 4508SOL    HW224984   1.707   1.912  10.536 -0.1530 -1.0562  0.9861
 4509SOL     OW24985   4.318   3.860   9.088 -1.0317  0.1111 -0.1730
 4509SOL    HW124986   4.355   3.943   9.115 -0.6575 -0.0151 -0.2921
 4509SOL    HW224987   4.290   3.888   9.001 -0.7625 -0.9381 -0.6058
 4510SOL     OW24988   2.623   0.169   9.070  0.1260  0.0194  0.3230
 4510SOL    HW124989   2.679   0.215   9.131  0.6017  0.6276 -0.5754
 4510SOL    HW224990   2.545   0.224   9.068 -2.2934 -3.3899  0.6032
 4511SOL     OW24991   0.104   3.914   4.153  0.7853  0.3587  0.0467
 4511SOL    HW124992   0.167   3.845   4.168 -1.4943 -1.8584 -0.5456
 4511SOL    HW224993   0.059   3.880   4.075  0.4737 -0.4394  0.5730
 4512SOL     OW24994   4.593   3.428  17.298  0.0747 -0.2755 -0.3966
 4512SOL    HW124995   4.613   3.336  17.282 -1.3435 -0.6646  0.1041
 4512SOL    HW224996   4.646   3.441  17.377  0.4228  2.2948 -1.0506
 4513SOL     OW24997   3.594   0.086   6.724  0.2488  0.1782  0.1666
 4513SOL    HW124998   3.584   0.033   6.645  2.2631  0.6181 -0.3804
 4513SOL    HW224999   3.612   0.168   6.679 -1.8469  0.5018 -0.0818
 4514SOL     OW25000   0.121   2.183   5.237  0.2425 -0.0227 -0.2318
 4514SOL    HW125001   0.051   2.161   5.298  0.1071  1.2259  0.0620
 4514SOL    HW225002   0.198   2.168   5.291  0.2856  0.9928 -0.0075
 4515SOL     OW25003   4.284   2.256   9.026  0.8677 -0.7313 -0.3451
 4515SOL    HW125004   4.364   2.305   9.009  2.1105 -2.1049  1.5297
 4515SOL    HW225005   4.316   2.169   9.000  2.1331 -0.2584 -0.3768
 4516SOL     OW25006   0.843   0.727   1.057  0.4675  0.0023  0.5211
 4516SOL    HW125007   0.853   0.677   0.976  1.7284  0.5347  0.3593
 4516SOL    HW225008   0.876   0.809   1.020 -1.7725  0.4978 -0.4173
 4517SOL     OW25009   1.115   1.007  15.386 -0.1871 -0.4029  0.3465
 4517SOL    HW125010   1.189   0.965  15.342  0.9864  0.0622  1.8609
 4517SOL    HW225011   1.101   0.936  15.448  0.8367  2.0270  3.3883
 4518SOL     OW25012   1.202   3.707   7.563 -0.1762  0.1652 -0.2747
 4518SOL    HW125013   1.210   3.699   7.468  0.4669 -0.1254 -0.1981
 4518SOL    HW225014   1.110   3.731   7.577  0.0661  0.4565  0.8760
 4519SOL     OW25015   2.500   1.890   2.498  0.1337 -0.1420  0.2549
 4519SOL    HW125016   2.415   1.847   2.505 -0.8356  1.5241 -1.0829
 4519SOL    HW225017   2.548   1.827   2.552  0.6781 -0.7752 -0.9624
 4520SOL     OW25018   3.271   4.100   9.205 -0.1402 -0.1655 -0.0309
 4520SOL    HW125019   3.359   4.099   9.167  1.0065  1.2941  2.5627
 4520SOL    HW225020   3.284   4.165   9.274 -1.2129  1.1018 -1.0342
 4521SOL     OW25021   2.042   3.398   2.257  0.3581 -0.1995  0.0959
 4521SOL    HW125022   2.003   3.380   2.171  0.8959  2.1839 -0.6670
 4521SOL    HW225023   2.037   3.317   2.307  0.9117 -0.8364 -0.8739
 4522SOL     OW25024   1.288   4.497   0.016 -0.1441 -0.1875 -0.2760
 4522SOL    HW125025   1.278   4.502  17.605  1.0570  0.0763 -0.3941
 4522SOL    HW225026   1.376   4.459   0.022 -0.0178  0.2427  0.6934
 4523SOL     OW25027   0.440   1.058   8.333  0.4004 -0.2235  0.3711
 4523SOL    HW125028   0.486   0.975   8.318 -0.4402 -0.8831  1.4177
 4523SOL    HW225029   0.381   1.057   8.257  0.0638  0.6058  0.6289
 4524SOL     OW25030   2.010   2.540   3.640 -0.3421  0.5034 -0.6147
 4524SOL    HW125031   1.993   2.576   3.553 -0.4381 -0.3994 -0.9661
 4524SOL    HW225032   2.042   2.613   3.694 -3.2616 -0.4851  2.4282
 4525SOL     OW25033   2.094   4.505   7.812 -0.0496 -0.1324 -0.0302
 4525SOL    HW125034   2.158   4.433   7.818 -2.6029 -2.5951 -2.1271
 4525SOL    HW225035   2.007   4.470   7.830 -0.3154  1.1300  1.0738
 4526SOL     OW25036   4.078   0.836   7.041 -0.1554 -0.5850  0.1319
 4526SOL    HW125037   4.039   0.923   7.052  0.7295 -0.7355  4.3938
 4526SOL    HW225038   4.024   0.779   7.095 -0.8735  0.0191  0.0600
 4527SOL     OW25039   0.101   1.612   4.408  0.1098  0.0661 -0.1569
 4527SOL    HW125040   0.051   1.679   4.363  0.7831  0.0528 -0.9227
 4527SOL    HW225041   0.060   1.624   4.494  1.0874  1.3492  0.1268
 4528SOL     OW25042   1.033   4.402   3.308  0.7612  0.1653  0.6322
 4528SOL    HW125043   1.080   4.441   3.234  0.0740 -1.4308 -0.6535
 4528SOL    HW225044   1.070   4.315   3.289  1.7722  0.4979  1.0534
 4529SOL     OW25045   4.518   3.584   4.568 -0.6824  0.0298  0.6614
 4529SOL    HW125046   4.560   3.620   4.646  2.0272 -1.0263 -0.3115
 4529SOL    HW225047   4.424   3.597   4.578 -0.6507  1.2027 -0.6495
 4530SOL     OW25048   1.957   4.709   9.314 -0.4823 -0.5491  0.0767
 4530SOL    HW125049   2.020   0.031   9.372  0.7627 -0.7741 -1.1067
 4530SOL    HW225050   2.004   4.704   9.231 -1.3457  0.1118 -0.4599
 4531SOL     OW25051   1.966   2.926   4.185  0.1153 -0.4755 -0.0884
 4531SOL    HW125052   1.951   2.834   4.203 -0.5209 -0.4400 -0.4283
 4531SOL    HW225053   2.060   2.940   4.172 -0.0257  0.7444  0.1332
 4532SOL     OW25054   2.039   1.407  13.069 -0.6432  0.2039 -0.1449
 4532SOL    HW125055   2.019   1.360  12.988  0.6558  0.3205 -0.5347
 4532SOL    HW225056   1.972   1.475  13.071  0.0720  0.9125 -0.5095
 4533SOL     OW25057   3.926   3.394   8.960 -0.1496  0.1099 -0.5481
 4533SOL    HW125058   3.932   3.301   8.937  0.8705  0.0794 -0.1700
 4533SOL    HW225059   3.985   3.426   8.891 -1.2773 -0.1033 -1.5930
 4534SOL     OW25060   3.362   1.828   3.155  0.5469  0.3370 -0.4200
 4534SOL    HW125061   3.321   1.883   3.222  1.3770 -0.5113  0.7691
 4534SOL    HW225062   3.299   1.847   3.085 -0.3151  0.4686  0.3864
 4535SOL     OW25063   2.584   1.602   5.007 -0.3355 -0.4115  0.3428
 4535SOL    HW125064   2.657   1.551   4.970  0.1964  0.0455  0.7477
 4535SOL    HW225065   2.526   1.607   4.932  0.6691 -0.6674 -0.4546
 4536SOL     OW25066   2.552   0.885   0.181 -0.0675 -0.3164 -0.1918
 4536SOL    HW125067   2.547   0.955   0.247 -1.2059 -0.5852  0.0057
 4536SOL    HW225068   2.635   0.844   0.207 -0.9787 -3.2883 -1.9697
 4537SOL     OW25069   3.185   4.669   2.408 -0.0691  0.2716 -0.2200
 4537SOL    HW125070   3.265   4.634   2.447  1.2071  1.8205 -1.4292
 4537SOL    HW225071   3.228   0.019   2.358  0.9421 -0.7409 -0.7837
 4538SOL     OW25072   4.537   2.179  14.837  0.4246  0.2298 -0.6679
 4538SOL    HW125073   4.599   2.252  14.831  0.2828  0.5555  1.6861
 4538SOL    HW225074   4.453   2.223  14.850 -0.6437 -2.5531  1.8767
 4539SOL     OW25075   0.504   1.948  10.193  0.5915  0.3448 -0.0190
 4539SOL    HW125076   0.505   2.038  10.226 -0.4828  0.5051 -0.4422
 4539SOL    HW225077   0.411   1.931  10.201  0.3734  1.0104 -1.1061
 4540SOL     OW25078   3.265   1.313   4.634 -0.4597 -0.5623 -0.0480
 4540SOL    HW125079   3.240   1.317   4.541  0.9275  0.1594 -0.3885
 4540SOL    HW225080   3.356   1.289   4.620 -0.2350 -0.8207  1.9070
 4541SOL     OW25081   1.061   1.200   2.795  0.0457 -0.4473 -0.0578
 4541SOL    HW125082   1.041   1.108   2.810  2.2381 -1.1048 -1.1268
 4541SOL    HW225083   1.019   1.238   2.873 -1.7897 -1.7478 -0.4052
 4542SOL     OW25084   0.149   4.260   6.776  0.1696 -0.1930  0.1916
 4542SOL    HW125085   0.141   4.209   6.856 -0.8555 -2.5876 -1.4194
 4542SOL    HW225086   0.099   4.340   6.795 -0.8105 -0.5077 -1.0178
 4543SOL     OW25087   3.900   0.726   7.218  0.0356  0.3830 -0.2758
 4543SOL    HW125088   3.925   0.794   7.280 -0.3676 -0.3484  0.6960
 4543SOL    HW225089   3.806   0.737   7.229 -0.0042 -0.1103 -0.1044
 4544SOL     OW25090   3.606   2.566   6.933  0.8352 -0.4245 -0.7045
 4544SOL    HW125091   3.593   2.566   7.028 -0.4638 -1.5930 -0.8806
 4544SOL    HW225092   3.526   2.514   6.921 -0.1768  1.1142 -0.6621
 4545SOL     OW25093   3.932   3.601   6.196  1.1064 -0.6821  0.1393
 4545SOL    HW125094   3.846   3.636   6.221 -0.1377 -3.0986 -0.7510
 4545SOL    HW225095   3.931   3.633   6.106  0.1106 -2.0322 -0.3286
 4546SOL     OW25096   0.888   3.007   5.925  0.2993 -0.7902 -0.0199
 4546SOL    HW125097   0.814   3.029   5.981 -0.2142 -2.4780 -0.0417
 4546SOL    HW225098   0.857   2.955   5.851 -1.8187 -1.9095  1.6545
 4547SOL     OW25099   2.030   3.771   9.944 -0.7594  0.7237  0.0309
 4547SOL    HW125100   1.993   3.834   9.880  1.0503  0.3358 -1.3829
 4547SOL    HW225101   2.034   3.834  10.016 -2.2339  1.2775 -0.3506
 4548SOL     OW25102   2.875   3.948  15.535 -0.5492  0.2600 -0.5493
 4548SOL    HW125103   2.892   4.034  15.574  2.1910 -0.4849 -0.1529
 4548SOL    HW225104   2.831   3.975  15.455  1.2178  0.5169 -1.4261
 4549SOL     OW25105   0.488   0.082   5.970 -0.1228 -0.4216  0.8630
 4549SOL    HW125106   0.394   0.079   5.990 -0.2727  1.7996  0.5718
 4549SOL    HW225107   0.523   0.014   6.027  0.0365  0.2922  1.6220
 4550SOL     OW25108   1.023   2.434   4.232 -0.1338 -0.6655  0.4677
 4550SOL    HW125109   1.090   2.392   4.286  1.9345  1.4443 -0.4636
 4550SOL    HW225110   0.994   2.359   4.180 -0.3826  0.0045 -0.3632
 4551SOL     OW25111   0.845   1.259   7.523  0.2797 -0.0230  0.4833
 4551SOL    HW125112   0.934   1.268   7.555  0.9169 -0.3423 -1.1848
 4551SOL    HW225113   0.853   1.180   7.471  0.6186 -0.8413  1.7910
 4552SOL     OW25114   3.225   0.296   4.162 -0.1199 -0.2863 -0.0438
 4552SOL    HW125115   3.200   0.349   4.238 -0.7678 -0.1782 -0.3351
 4552SOL    HW225116   3.165   0.222   4.176  1.1484 -0.9291  2.0280
 4553SOL     OW25117   2.349   3.482   9.770  0.1852  0.3287 -0.1323
 4553SOL    HW125118   2.311   3.418   9.829  2.0838 -0.1490  0.5664
 4553SOL    HW225119   2.323   3.564   9.811 -2.7330 -1.6981  2.0151
 4554SOL     OW25120   2.223   1.564   0.721  0.4827  0.0498  0.2129
 4554SOL    HW125121   2.261   1.543   0.806 -0.6582  0.7436  0.9047
 4554SOL    HW225122   2.303   1.579   0.671  0.4993 -0.5562  0.0679
 4555SOL     OW25123   1.764   0.550   3.305  0.0192  1.0228  0.3082
 4555SOL    HW125124   1.709   0.490   3.256  1.0614  0.5346 -0.2619
 4555SOL    HW225125   1.811   0.585   3.230  1.8625  0.7280  1.3279
 4556SOL     OW25126   1.987   3.873   8.373  0.3737 -0.2042 -0.1961
 4556SOL    HW125127   2.037   3.842   8.448  1.8500  0.0152 -1.0794
 4556SOL    HW225128   2.048   3.892   8.301  0.2786 -0.3368 -0.3117
 4557SOL     OW25129   1.991   0.670  14.076  0.3230  0.3965 -0.8233
 4557SOL    HW125130   1.933   0.702  14.007  0.4861  4.1907  0.8327
 4557SOL    HW225131   1.942   0.693  14.155  2.4059 -1.0110  0.8639
 4558SOL     OW25132   2.416   0.771   9.895 -0.2165 -0.6859 -0.7484
 4558SOL    HW125133   2.324   0.763   9.918  0.1920 -1.6853  0.5307
 4558SOL    HW225134   2.449   0.816   9.972  0.7053  0.8904 -2.0594
 4559SOL     OW25135   2.526   2.397   4.833  0.2620 -0.1946  0.5800
 4559SOL    HW125136   2.447   2.407   4.886 -0.2399 -0.8365 -0.0506
 4559SOL    HW225137   2.574   2.472   4.869  0.1561  0.5883 -0.9175
 4560SOL     OW25138   4.551   4.454   6.000 -0.1474 -0.2523  0.3000
 4560SOL    HW125139   4.625   4.413   6.044  1.7936  0.8696 -1.8784
 4560SOL    HW225140   4.538   4.381   5.940  0.6931  1.6519 -2.2605
 4561SOL     OW25141   2.587   3.924   8.898  1.1449  0.0609 -0.7848
 4561SOL    HW125142   2.631   4.008   8.886 -0.6259  0.9935 -0.7333
 4561SOL    HW225143   2.646   3.866   8.848  0.5141  0.6417 -2.2063
 4562SOL     OW25144   1.297   3.110  16.242 -0.0104 -0.3058 -0.0737
 4562SOL    HW125145   1.302   3.190  16.189  0.6548 -1.2394 -1.4195
 4562SOL    HW225146   1.234   3.061  16.190  0.2872 -0.3382 -0.4030
 4563SOL     OW25147   0.048   3.775   1.644  0.3453  0.6436 -0.6205
 4563SOL    HW125148   0.137   3.791   1.678  0.4267  2.2585 -1.6014
 4563SOL    HW225149   0.078   3.711   1.580  0.9143  0.6054 -0.3203
 4564SOL     OW25150   2.201   1.007  15.466  0.2071 -0.3298 -0.0591
 4564SOL    HW125151   2.290   1.035  15.488 -0.1097  0.7437 -0.1813
 4564SOL    HW225152   2.147   1.066  15.518 -1.0331 -1.2224 -0.3334
 4565SOL     OW25153   4.712   4.035   2.551 -0.4379 -0.6082 -0.7563
 4565SOL    HW125154   4.715   3.985   2.469 -1.3556  1.0288 -1.8063
 4565SOL    HW225155   0.073   4.085   2.544 -2.2789  2.3375 -1.3646
 4566SOL     OW25156   0.099   3.245   7.562 -0.8058  0.1818 -0.3121
 4566SOL    HW125157   0.145   3.222   7.481  2.1268 -3.0398  2.3262
 4566SOL    HW225158   0.012   3.207   7.548 -0.8809  0.0531  0.5584
 4567SOL     OW25159   2.839   4.630   3.034 -0.4494  0.4638  0.0947
 4567SOL    HW125160   2.897   4.687   2.984 -0.6659 -2.2854 -3.2721
 4567SOL    HW225161   2.902   4.582   3.088 -1.6414 -0.4487  0.6683
 4568SOL     OW25162   4.696   1.818   0.352  0.1395 -0.0596  0.5509
 4568SOL    HW125163   0.051   1.878   0.351 -0.2098  0.3487 -2.2268
 4568SOL    HW225164   0.013   1.760   0.418  1.9952 -1.4171 -1.6904
 4569SOL     OW25165   0.793   3.830   3.434 -0.4405  0.0827  0.0603
 4569SOL    HW125166   0.750   3.913   3.453 -0.3813 -0.2415  1.6434
 4569SOL    HW225167   0.724   3.767   3.412 -1.0425  0.4948  0.7778
 4570SOL     OW25168   1.200   4.000   5.160 -0.0864 -0.3350 -0.5302
 4570SOL    HW125169   1.164   4.084   5.188  0.0929 -0.9396  1.5188
 4570SOL    HW225170   1.163   3.936   5.221  2.1361  0.7873  1.9507
 4571SOL     OW25171   1.667   2.656   1.664 -0.3034  0.3415 -0.0439
 4571SOL    HW125172   1.745   2.617   1.625 -0.5376  0.8451 -1.0250
 4571SOL    HW225173   1.669   2.749   1.639 -2.6699  0.4506  0.1276
 4572SOL     OW25174   2.154   3.242   8.503  0.7839 -0.5402 -0.1534
 4572SOL    HW125175   2.078   3.185   8.507  1.5973 -1.6796 -0.8203
 4572SOL    HW225176   2.224   3.188   8.540 -0.6083  0.1807  3.4818
 4573SOL     OW25177   3.288   0.208   9.703  0.4328  0.2210  0.6834
 4573SOL    HW125178   3.263   0.300   9.696  0.2958 -0.0169 -2.1120
 4573SOL    HW225179   3.304   0.212   9.797 -0.4445 -0.9261  0.8828
 4574SOL     OW25180   2.262   1.769   8.881 -0.3250  0.4093 -0.1947
 4574SOL    HW125181   2.218   1.688   8.909  0.7179 -0.2466 -0.4332
 4574SOL    HW225182   2.217   1.772   8.797  0.0952  2.4972 -0.3398
 4575SOL     OW25183   1.797   4.474   8.242  0.1916 -0.2215 -0.1826
 4575SOL    HW125184   1.764   4.497   8.155  0.0420  0.6469  0.1021
 4575SOL    HW225185   1.892   4.465   8.227  0.4228  1.0966  0.4375
 4576SOL     OW25186   1.612   0.554   7.131  0.3267 -0.4553 -0.1673
 4576SOL    HW125187   1.690   0.606   7.111  0.1956  0.0260  0.6014
 4576SOL    HW225188   1.576   0.607   7.202  0.9440  1.3513 -1.2166
 4577SOL     OW25189   0.838   2.366  13.860 -0.4652  0.6891 -0.0635
 4577SOL    HW125190   0.908   2.327  13.911  0.5075  0.4052 -1.6171
 4577SOL    HW225191   0.762   2.325  13.901  0.0551  0.8453  1.0541
 4578SOL     OW25192   3.862   3.796   3.576 -0.4573 -0.1561 -0.3393
 4578SOL    HW125193   3.849   3.816   3.668 -1.3259 -2.0102 -0.0538
 4578SOL    HW225194   3.772   3.793   3.544 -0.1778  2.2871 -1.3455
 4579SOL     OW25195   4.079   3.887   6.187 -0.1950 -0.2324  0.3233
 4579SOL    HW125196   4.013   3.871   6.119  0.1814 -1.0572  0.1467
 4579SOL    HW225197   4.132   3.807   6.189  1.0250  0.5279 -1.9109
 4580SOL     OW25198   3.413   2.001   5.064  0.3208  0.3502 -0.0852
 4580SOL    HW125199   3.338   2.061   5.059  0.0931  0.0034 -0.7324
 4580SOL    HW225200   3.411   1.974   5.156  0.6224  1.4214  0.2314
 4581SOL     OW25201   0.046   0.554   8.402  0.8808 -0.6031 -0.6613
 4581SOL    HW125202   4.680   0.593   8.416  1.7102  1.0626 -0.2320
 4581SOL    HW225203   0.092   0.638   8.407  1.8245 -1.2911  2.4383
 4582SOL     OW25204   1.567   2.357  14.899 -0.3892 -0.4452  0.3001
 4582SOL    HW125205   1.642   2.367  14.840  1.7880 -2.1655  2.7981
 4582SOL    HW225206   1.553   2.265  14.878  3.5355 -0.4877 -2.1353
 4583SOL     OW25207   0.321   0.769  10.801 -0.3733 -0.1483 -0.4081
 4583SOL    HW125208   0.295   0.860  10.812  1.4704  0.2546  0.4983
 4583SOL    HW225209   0.387   0.783  10.733 -1.3694 -1.0155 -1.5761
 4584SOL     OW25210   2.798   1.935   6.745  0.4501  0.3702  0.5376
 4584SOL    HW125211   2.710   1.965   6.722  0.1366 -1.2677 -0.4406
 4584SOL    HW225212   2.803   1.858   6.688  0.8417  0.5710  0.3034
 4585SOL     OW25213   1.567   2.620   8.868 -0.0860  0.2485 -0.3095
 4585SOL    HW125214   1.650   2.580   8.895 -0.2285  0.6935  0.7842
 4585SOL    HW225215   1.582   2.711   8.892 -0.2843  0.4560 -0.9643
 4586SOL     OW25216   1.142   4.647   2.548  0.1332 -0.2925 -0.7446
 4586SOL    HW125217   1.053   4.632   2.580 -0.0431  2.9678  0.2889
 4586SOL    HW225218   1.135   4.629   2.454 -0.3421  0.9245 -0.9470
 4587SOL     OW25219   1.591   1.225  17.606 -0.2443  0.1172  0.2438
 4587SOL    HW125220   1.681   1.203  17.580 -1.0645 -0.8758 -1.8338
 4587SOL    HW225221   1.559   1.233  17.516  1.0463 -3.5658 -0.5690
 4588SOL     OW25222   2.126   1.875   4.729  0.4662 -0.1305 -0.3457
 4588SOL    HW125223   2.184   1.943   4.762 -1.8758  1.5631  0.2916
 4588SOL    HW225224   2.086   1.849   4.812  1.4969 -1.5825 -0.3244
 4589SOL     OW25225   1.555   4.618   5.369 -0.0688  0.2659  0.1958
 4589SOL    HW125226   1.524   4.665   5.292  0.3433 -0.2476 -0.2819
 4589SOL    HW225227   1.503   4.662   5.438  0.1769 -2.6418  2.2479
 4590SOL     OW25228   1.594   0.505   1.669  0.0623  0.1979 -0.4751
 4590SOL    HW125229   1.653   0.447   1.716 -0.1702 -0.4810 -1.0245
 4590SOL    HW225230   1.566   0.560   1.742  0.8338 -3.3991  2.4689
 4591SOL     OW25231   3.935   1.767  14.337  0.2675 -0.3170 -0.0111
 4591SOL    HW125232   3.892   1.747  14.421 -0.0196 -3.9139 -1.0166
 4591SOL    HW225233   3.994   1.840  14.355 -2.0870  0.9398  2.7265
 4592SOL     OW25234   1.018   4.535   8.986 -0.0042 -0.6185  0.4212
 4592SOL    HW125235   1.070   4.601   9.032 -0.1328 -0.1450 -0.1147
 4592SOL    HW225236   1.057   4.539   8.899 -1.6986  1.6220 -0.2323
 4593SOL     OW25237   0.553   3.629  15.549  0.4073 -0.6316 -0.2476
 4593SOL    HW125238   0.537   3.708  15.601  0.2866 -0.8032 -0.0219
 4593SOL    HW225239   0.595   3.575  15.617  0.8992  1.5782  1.1881
 4594SOL     OW25240   3.983   0.085   7.930 -0.3449 -0.1206  0.0632
 4594SOL    HW125241   3.914   0.094   7.996  1.3763  1.3475  1.6496
 4594SOL    HW225242   4.036   0.021   7.977  0.0280  0.9270  1.0972
 4595SOL     OW25243   0.572   3.958  16.178  0.1764 -0.1562 -0.6971
 4595SOL    HW125244   0.593   4.052  16.177  0.8228 -0.2825  0.3660
 4595SOL    HW225245   0.662   3.925  16.186  0.3572 -0.2231 -3.0121
 4596SOL     OW25246   2.780   2.646   3.840 -0.3382  0.1727  0.4389
 4596SOL    HW125247   2.854   2.689   3.797  0.5725 -1.4579  0.3817
 4596SOL    HW225248   2.765   2.571   3.782 -0.5724  0.1467  0.5334
 4597SOL     OW25249   4.259   0.924   9.790 -0.6066 -0.1270 -0.1449
 4597SOL    HW125250   4.282   0.906   9.881 -1.0199 -1.1688 -0.2441
 4597SOL    HW225251   4.294   1.010   9.769 -0.1541  0.0129  1.1811
 4598SOL     OW25252   1.242   3.706   7.285 -0.3469 -0.2931  0.1999
 4598SOL    HW125253   1.184   3.676   7.215 -0.5215  1.6843 -0.5110
 4598SOL    HW225254   1.291   3.776   7.241 -0.3828  0.3044  1.1147
 4599SOL     OW25255   3.369   0.627   2.261  0.1378  0.1578  0.3600
 4599SOL    HW125256   3.337   0.583   2.341 -2.6485  1.1742 -0.2001
 4599SOL    HW225257   3.447   0.579   2.234  1.5497  2.1993  0.8227
 4600SOL     OW25258   3.690   0.874   2.265  0.5183 -0.4344  0.0888
 4600SOL    HW125259   3.767   0.931   2.266  1.6373 -1.9286 -0.0026
 4600SOL    HW225260   3.717   0.801   2.210 -0.0888  0.0945 -0.9009
 4601SOL     OW25261   3.361   3.947  16.053 -0.1470 -0.3284 -0.2535
 4601SOL    HW125262   3.281   3.918  16.097  0.3589 -1.6865 -0.2128
 4601SOL    HW225263   3.402   3.991  16.127 -3.1983 -1.0726  1.8820
 4602SOL     OW25264   4.330   0.919   6.391  0.3950  0.0894  0.4727
 4602SOL    HW125265   4.250   0.869   6.376 -1.1857  2.5856  0.5819
 4602SOL    HW225266   4.301   0.998   6.438  1.6322  0.0544  1.3137
 4603SOL     OW25267   3.691   4.012   1.994  0.1211 -0.6856 -0.1925
 4603SOL    HW125268   3.725   4.094   2.029 -1.2011  0.2793 -1.1331
 4603SOL    HW225269   3.725   4.016   1.905 -1.1624  1.2341 -0.5859
 4604SOL     OW25270   4.665   0.430   9.744  0.9492 -0.3605  0.3433
 4604SOL    HW125271   4.684   0.365   9.678  2.6805  0.0577  0.4443
 4604SOL    HW225272   0.022   0.485   9.736  1.2726 -0.6310  1.6231
 4605SOL     OW25273   1.406   3.484   7.187  0.5721  0.2281 -0.3709
 4605SOL    HW125274   1.352   3.449   7.117 -0.2360 -0.7712  0.7460
 4605SOL    HW225275   1.348   3.552   7.224  2.1458  0.8501  0.9464
 4606SOL     OW25276   1.379   2.655   2.770  0.1848  0.0884 -0.0463
 4606SOL    HW125277   1.372   2.562   2.788 -1.9512  0.6642  2.1627
 4606SOL    HW225278   1.433   2.656   2.691 -0.0413  1.9976 -0.1945
 4607SOL     OW25279   0.715   4.391  13.535  0.1467 -0.9540 -0.0472
 4607SOL    HW125280   0.800   4.351  13.552  0.1349 -0.9616 -0.0058
 4607SOL    HW225281   0.683   4.347  13.457 -2.1095  2.8762 -1.2929
 4608SOL     OW25282   2.963   2.337   6.820  0.1271  0.2579 -0.1787
 4608SOL    HW125283   2.927   2.257   6.857  0.9882  0.3373  0.8377
 4608SOL    HW225284   3.057   2.318   6.827  0.1220  0.0264 -0.8261
 4609SOL     OW25285   2.341   2.267   8.850  0.2975 -0.1600  0.0584
 4609SOL    HW125286   2.279   2.316   8.905  1.2465  0.9181  0.1652
 4609SOL    HW225287   2.423   2.316   8.853 -1.0237  2.1281 -1.0815
 4610SOL     OW25288   4.109   3.645   3.746  0.7538  0.3927  0.5474
 4610SOL    HW125289   4.192   3.598   3.758  1.7714  2.2901  1.0244
 4610SOL    HW225290   4.058   3.615   3.821  0.2154  1.0156  0.4248
 4611SOL     OW25291   3.356   0.836  12.985 -0.3344 -0.2228 -0.0126
 4611SOL    HW125292   3.445   0.863  13.008 -0.2940  0.7564 -1.2901
 4611SOL    HW225293   3.347   0.880  12.900 -2.4936 -0.6861 -0.0177
 4612SOL     OW25294   3.705   2.097   5.529 -0.2579 -0.4451  0.0900
 4612SOL    HW125295   3.737   2.177   5.570  1.5015 -0.6654 -0.8533
 4612SOL    HW225296   3.614   2.125   5.513 -0.7358 -2.5968 -0.9376
 4613SOL     OW25297   0.084   2.578  15.500  0.3177  0.2753  0.1569
 4613SOL    HW125298   0.173   2.590  15.468 -0.0163 -1.2171 -1.2988
 4613SOL    HW225299   0.039   2.649  15.454 -0.3149 -1.7534 -2.4080
 4614SOL     OW25300   3.901   0.438  17.418 -0.4334  0.5501  0.8213
 4614SOL    HW125301   3.949   0.355  17.422 -1.2823  0.0042 -0.1848
 4614SOL    HW225302   3.965   0.504  17.443 -0.0859  1.5845 -2.7978
 4615SOL     OW25303   3.229   4.372   7.885 -0.2265 -0.2377  0.6429
 4615SOL    HW125304   3.294   4.421   7.935 -1.0656  0.9723  0.5611
 4615SOL    HW225305   3.160   4.368   7.951 -0.1545  0.6648  0.7824
 4616SOL     OW25306   2.681   4.677   1.292  0.2074  0.0295 -0.0997
 4616SOL    HW125307   2.629   4.715   1.221 -0.4961  0.7610  0.8235
 4616SOL    HW225308   2.688   4.585   1.265 -0.3909 -0.5859  1.8697
 4617SOL     OW25309   3.333   2.378   7.267 -0.1225  0.1660  0.0318
 4617SOL    HW125310   3.415   2.423   7.249 -0.5667  1.0144  0.1335
 4617SOL    HW225311   3.357   2.355   7.357  1.7282 -0.2689 -0.5869
 4618SOL     OW25312   4.656   3.961   5.765 -0.3552 -0.5557  0.3391
 4618SOL    HW125313   4.629   3.899   5.697  0.2462 -0.4441 -0.0064
 4618SOL    HW225314   0.029   3.957   5.745 -0.5735  0.2002 -0.8511
 4619SOL     OW25315   0.276   1.311   3.697 -0.0260  0.3051  0.4674
 4619SOL    HW125316   0.258   1.258   3.775 -2.4809 -0.4848 -0.6217
 4619SOL    HW225317   0.195   1.353   3.668  0.1497  0.6912  0.5400
 4620SOL     OW25318   1.597   3.048  15.508  0.3614 -0.0431  0.7870
 4620SOL    HW125319   1.518   3.091  15.541  0.3569  0.5283  0.0497
 4620SOL    HW225320   1.643   3.117  15.459  1.3369 -0.9794  0.4032
 4621SOL     OW25321   1.079   1.125   8.414 -0.0356  0.4075  0.2530
 4621SOL    HW125322   1.046   1.039   8.386 -0.0943 -0.5086  3.1714
 4621SOL    HW225323   1.029   1.132   8.495 -0.0104  1.9531  0.1281
 4622SOL     OW25324   1.675   0.505   4.541 -0.4750  0.1990 -0.1324
 4622SOL    HW125325   1.762   0.499   4.582 -0.8728  1.2049  0.8554
 4622SOL    HW225326   1.626   0.562   4.600  1.4405 -0.0864  1.7539
 4623SOL     OW25327   0.845   1.540   4.910 -0.1783  0.3193 -0.3164
 4623SOL    HW125328   0.766   1.575   4.952 -1.6892 -1.9293 -1.2445
 4623SOL    HW225329   0.802   1.531   4.825 -1.8977  0.4526  0.5230
 4624SOL     OW25330   4.302   0.213   8.223  0.0601  0.5657 -0.4215
 4624SOL    HW125331   4.383   0.232   8.175  1.1517 -0.9306  0.8333
 4624SOL    HW225332   4.296   0.119   8.205  1.6102  0.6584 -1.4615
 4625SOL     OW25333   2.816   3.839   6.572  0.6971 -0.1461 -0.0628
 4625SOL    HW125334   2.855   3.917   6.611  0.5723 -0.8872  1.5315
 4625SOL    HW225335   2.893   3.802   6.528  2.0706  3.2924 -0.5156
 4626SOL     OW25336   1.164   1.668   6.913 -0.5799 -0.8063  0.6092
 4626SOL    HW125337   1.095   1.734   6.923  0.4626  0.5231 -0.8780
 4626SOL    HW225338   1.218   1.691   6.989  1.1895 -1.5318 -0.4436
 4627SOL     OW25339   0.438   0.491   9.766  0.0961  0.1507 -0.1900
 4627SOL    HW125340   0.529   0.506   9.792 -0.3776  3.8047 -0.6425
 4627SOL    HW225341   0.440   0.437   9.687 -0.2850  0.8692 -0.6899
 4628SOL     OW25342   1.786   4.058   2.773 -0.3013 -0.0404 -0.1965
 4628SOL    HW125343   1.693   4.037   2.784 -0.1473 -1.1514 -0.9645
 4628SOL    HW225344   1.784   4.133   2.713 -0.4322 -0.9877 -1.3692
 4629SOL     OW25345   1.767   1.390   7.467 -0.1191 -0.4131  0.0403
 4629SOL    HW125346   1.720   1.320   7.511  0.1785  0.1802  1.2959
 4629SOL    HW225347   1.848   1.410   7.514  2.7858 -1.5520 -4.5017
 4630SOL     OW25348   1.718   1.438   5.726 -0.4720 -0.2700  0.4196
 4630SOL    HW125349   1.641   1.461   5.778  0.9739  1.6016  1.7288
 4630SOL    HW225350   1.691   1.361   5.677  0.3600  1.2484 -2.4183
 4631SOL     OW25351   3.304   1.218   2.820 -0.4726 -0.0151  0.0680
 4631SOL    HW125352   3.387   1.230   2.774 -2.1737  1.2473 -2.7150
 4631SOL    HW225353   3.288   1.125   2.810 -0.2871 -0.1622  1.1952
 4632SOL     OW25354   1.148   0.862  11.677  0.1911 -0.2767  0.5522
 4632SOL    HW125355   1.208   0.870  11.752  0.8167 -2.6872  0.3063
 4632SOL    HW225356   1.103   0.780  11.699  0.9066 -0.8340 -0.0543
 4633SOL     OW25357   2.303   2.390  10.889 -0.1626 -0.0100 -0.1022
 4633SOL    HW125358   2.293   2.372  10.796  1.5234 -4.0585  0.4857
 4633SOL    HW225359   2.364   2.463  10.891 -2.7291  2.1617 -1.1948
 4634SOL     OW25360   2.899   4.384  16.606 -0.2440  0.5141 -0.0170
 4634SOL    HW125361   2.977   4.360  16.655 -0.0776  4.1377  1.5228
 4634SOL    HW225362   2.863   4.455  16.659 -1.2924  0.7185 -0.9967
 4635SOL     OW25363   2.396   0.797   7.985 -0.2034 -0.2647  0.3840
 4635SOL    HW125364   2.418   0.730   7.920 -1.5261  0.2305 -0.5629
 4635SOL    HW225365   2.330   0.850   7.942 -0.2909 -1.0671 -0.4642
 4636SOL     OW25366   2.931   1.334  17.244 -0.5354  0.1610 -0.0294
 4636SOL    HW125367   2.839   1.356  17.254 -0.0012  1.9259  0.8778
 4636SOL    HW225368   2.972   1.416  17.268  1.5653 -0.7332 -0.5074
 4637SOL     OW25369   1.018   0.337   8.068 -0.4816  0.5459  0.2442
 4637SOL    HW125370   1.025   0.242   8.075 -0.9519  0.5393  0.6288
 4637SOL    HW225371   0.928   0.348   8.037 -0.1099  1.5925 -0.4668
 4638SOL     OW25372   0.655   2.881   6.332 -0.3015 -0.2248  0.5805
 4638SOL    HW125373   0.667   2.937   6.409  1.7622 -0.6152  0.5187
 4638SOL    HW225374   0.681   2.950   6.270 -0.6825  0.9793  1.7410
 4639SOL     OW25375   2.124   4.023   6.360 -0.0307 -0.5321 -0.1336
 4639SOL    HW125376   2.166   3.993   6.280  0.7532  0.2946 -0.0342
 4639SOL    HW225377   2.198   4.038   6.420 -0.6226  2.0609 -0.0500
 4640SOL     OW25378   4.485   4.147   9.597 -0.0376 -0.0997 -0.4803
 4640SOL    HW125379   4.399   4.121   9.630  0.3604 -0.4344  0.2742
 4640SOL    HW225380   4.536   4.092   9.656 -0.0901 -0.7982 -1.0795
 4641SOL     OW25381   1.659   0.601   6.646  0.0671  0.3594  0.5480
 4641SOL    HW125382   1.593   0.532   6.642 -0.0566  0.6740 -2.6300
 4641SOL    HW225383   1.626   0.666   6.708  0.5496 -1.1677  2.3901
 4642SOL     OW25384   1.081   1.777   8.553  0.7356 -0.4286  0.5890
 4642SOL    HW125385   1.075   1.866   8.519 -0.0749 -0.4821  0.6001
 4642SOL    HW225386   0.991   1.762   8.580  0.6666 -0.4007  0.3763
 4643SOL     OW25387   3.479   2.291   4.442 -0.4804 -0.1081 -0.2527
 4643SOL    HW125388   3.532   2.307   4.364 -1.4536  2.4469 -0.3967
 4643SOL    HW225389   3.543   2.271   4.509  2.7896  2.7171 -2.5670
 4644SOL     OW25390   0.418   1.715   5.772 -0.2198 -0.5996 -0.1824
 4644SOL    HW125391   0.425   1.807   5.747 -3.2947 -0.9435 -2.3170
 4644SOL    HW225392   0.501   1.699   5.816  0.7709 -0.2343 -1.9234
 4645SOL     OW25393   1.043   3.019   3.230  0.3698  0.0084  0.5099
 4645SOL    HW125394   1.042   2.932   3.269  1.2576  0.2433  1.0515
 4645SOL    HW225395   1.067   3.000   3.139 -0.0289  1.3937  0.1141
 4646SOL     OW25396   1.149   4.533   8.759  0.1473  0.2519  0.0928
 4646SOL    HW125397   1.219   4.586   8.796  1.2087  0.3790 -2.0883
 4646SOL    HW225398   1.168   4.558   8.669  0.3091 -1.5548 -0.3752
 4647SOL     OW25399   3.959   2.467  15.551 -0.1061 -0.4364  0.1345
 4647SOL    HW125400   3.993   2.545  15.507  0.1005  0.2023  1.4369
 4647SOL    HW225401   4.043   2.431  15.580  1.0372  3.2631  1.4207
 4648SOL     OW25402   1.393   0.054   2.591  0.8713  0.3150 -0.3194
 4648SOL    HW125403   1.441   4.711   2.538 -1.4695 -1.5641 -0.1809
 4648SOL    HW225404   1.301   0.031   2.576  0.5194  0.5759  1.4499
 4649SOL     OW25405   3.562   4.631   7.124 -0.0841  0.1010 -0.2714
 4649SOL    HW125406   3.562   4.648   7.218 -0.4450 -0.3572 -0.1861
 4649SOL    HW225407   3.641   4.676   7.094 -0.3047  1.1345  0.6904
 4650SOL     OW25408   1.161   1.145   7.441 -0.5098  0.3086  0.5411
 4650SOL    HW125409   1.151   1.210   7.510 -0.3579  2.8407 -1.8332
 4650SOL    HW225410   1.225   1.187   7.384  1.3269 -0.9685  1.6463
 4651SOL     OW25411   0.888   1.857   4.796 -0.2171  0.7124 -0.3396
 4651SOL    HW125412   0.824   1.798   4.835  0.8385 -0.8080 -0.9334
 4651SOL    HW225413   0.888   1.828   4.705 -4.8094 -0.8819  0.1525
 4652SOL     OW25414   1.202   4.403  16.135 -0.1391  1.4142  0.3158
 4652SOL    HW125415   1.285   4.404  16.086 -1.0254 -0.3902 -1.2439
 4652SOL    HW225416   1.191   4.497  16.147 -2.1317  1.2008  0.2051
 4653SOL     OW25417   2.340   2.907   1.729 -0.0389  0.4217  0.5373
 4653SOL    HW125418   2.432   2.883   1.712  0.2495  0.7753  1.6225
 4653SOL    HW225419   2.332   2.858   1.810  0.1951 -0.3093  0.1214
 4654SOL     OW25420   1.778   4.710   6.622  0.7804  0.1449  0.2730
 4654SOL    HW125421   1.790   4.672   6.535 -0.7072  3.1466 -1.2621
 4654SOL    HW225422   1.816   4.641   6.675  1.3091  1.3444  1.4583
 4655SOL     OW25423   3.690   1.435  15.229 -0.8630  0.4454  0.1664
 4655SOL    HW125424   3.743   1.368  15.271  0.2920  0.8349 -0.6678
 4655SOL    HW225425   3.755   1.491  15.185 -0.8334  1.1587  1.1168
 4656SOL     OW25426   2.638   1.887  11.385 -0.2629 -0.2668  0.3544
 4656SOL    HW125427   2.609   1.853  11.300 -0.6768  1.9099 -0.3827
 4656SOL    HW225428   2.565   1.865  11.442 -0.5045  0.1594  0.2078
 4657SOL     OW25429   4.175   3.767   7.942  0.4577 -0.3667  0.1461
 4657SOL    HW125430   4.160   3.754   8.035 -1.7398 -0.6144 -0.2262
 4657SOL    HW225431   4.205   3.677   7.928  0.8248 -0.2558  0.2347
 4658SOL     OW25432   0.273   0.013   7.373 -0.6457  0.4419 -0.2262
 4658SOL    HW125433   0.318   0.094   7.347  0.8349 -0.9538 -1.9981
 4658SOL    HW225434   0.337   4.664   7.355 -1.9436 -0.8086 -0.0126
 4659SOL     OW25435   3.194   0.400   4.450 -0.0458  0.2269 -0.7880
 4659SOL    HW125436   3.193   0.389   4.545  1.1595 -1.5840 -0.9906
 4659SOL    HW225437   3.227   0.490   4.446 -1.5243  0.8016 -0.2479
 4660SOL     OW25438   1.293   2.806   8.944  0.6282 -0.7055 -0.0219
 4660SOL    HW125439   1.219   2.764   8.900 -0.4288  0.2733  0.8076
 4660SOL    HW225440   1.360   2.739   8.954  3.0724  1.7182  0.0069
 4661SOL     OW25441   2.958   3.450   5.583 -0.4487  0.8489 -0.2035
 4661SOL    HW125442   3.003   3.438   5.499 -0.6343  2.4048 -0.5330
 4661SOL    HW225443   2.900   3.374   5.578 -1.1428  1.3897 -0.3341
 4662SOL     OW25444   2.406   0.244   7.121 -0.0695  0.3373 -0.1520
 4662SOL    HW125445   2.333   0.263   7.179  1.4777 -2.4722  2.7293
 4662SOL    HW225446   2.411   0.152   7.096 -0.1896 -0.3487  2.3535
 4663SOL     OW25447   1.344   4.715  12.223  0.1934 -0.1174 -0.3490
 4663SOL    HW125448   1.415   4.651  12.233  0.9077  0.7440  0.0796
 4663SOL    HW225449   1.361   0.036  12.138  0.0026 -1.2262 -0.9306
 4664SOL     OW25450   3.165   3.823   7.175 -0.1755  0.1144 -0.5280
 4664SOL    HW125451   3.092   3.763   7.160 -1.7933  1.1261  3.1064
 4664SOL    HW225452   3.151   3.897   7.116 -2.9177  0.8077  0.9644
 4665SOL     OW25453   4.301   2.877   8.902 -0.1048  0.3989  0.0063
 4665SOL    HW125454   4.388   2.917   8.906  0.2897 -0.3913 -0.8313
 4665SOL    HW225455   4.253   2.925   8.970 -0.1268  0.1447  0.1694
 4666SOL     OW25456   0.448   1.250  14.546 -0.2550  0.0560 -0.1861
 4666SOL    HW125457   0.386   1.307  14.500 -0.6440 -2.3923 -2.6761
 4666SOL    HW225458   0.426   1.159  14.526 -1.5314 -0.0935  1.8761
 4667SOL     OW25459   0.539   1.000   6.712 -0.1442 -0.5024  0.5925
 4667SOL    HW125460   0.518   0.950   6.791 -1.4262  0.5319  0.9046
 4667SOL    HW225461   0.538   0.929   6.648  0.0313 -3.0192  3.4036
 4668SOL     OW25462   4.010   4.102   9.561  0.4480 -0.0725 -0.1139
 4668SOL    HW125463   3.918   4.086   9.582  0.5710  0.2476  0.6743
 4668SOL    HW225464   4.048   4.019   9.533 -0.4352 -0.5030 -0.0464
 4669SOL     OW25465   0.440   2.749   2.845 -0.0632  0.0654 -0.3032
 4669SOL    HW125466   0.407   2.669   2.804  0.1747 -0.5465  0.6857
 4669SOL    HW225467   0.524   2.711   2.871  0.3188  0.5899 -0.7685
 4670SOL     OW25468   2.277   1.911  16.664  0.6846  0.5191 -0.1574
 4670SOL    HW125469   2.253   1.987  16.717  0.8915  1.4174 -1.3289
 4670SOL    HW225470   2.323   1.856  16.727  1.3436  0.0506 -1.0435
 4671SOL     OW25471   1.434   2.373   8.535 -1.0815  0.7331 -0.5225
 4671SOL    HW125472   1.511   2.323   8.509 -0.7590  0.7302  0.4250
 4671SOL    HW225473   1.379   2.302   8.568  1.4712 -0.9876 -0.0103
 4672SOL     OW25474   2.201   0.740  10.537  0.1451  0.0735  0.3051
 4672SOL    HW125475   2.151   0.802  10.589  1.2517  0.5489  0.7931
 4672SOL    HW225476   2.139   0.667  10.543  1.0409 -0.5755  1.5987
 4673SOL     OW25477   3.531   4.164   6.538 -0.0779  0.2031  0.2879
 4673SOL    HW125478   3.586   4.197   6.609  0.3558 -1.7922  0.8845
 4673SOL    HW225479   3.598   4.129   6.479 -0.8840  1.8723 -1.6045
 4674SOL     OW25480   4.263   3.104   8.534 -0.0988 -0.1461 -0.1179
 4674SOL    HW125481   4.212   3.052   8.596  0.7400 -2.2244 -1.1690
 4674SOL    HW225482   4.261   3.049   8.455 -2.1353 -0.6687  0.2976
 4675SOL     OW25483   0.257   3.946  10.590  0.4318 -0.4369 -0.1791
 4675SOL    HW125484   0.328   3.970  10.530  0.9068  0.7950  0.8498
 4675SOL    HW225485   0.260   4.010  10.662  0.2329 -1.2442  0.5465
 4676SOL     OW25486   4.102   0.028  12.552  0.2758  0.4430  0.0426
 4676SOL    HW125487   4.059   0.102  12.594  1.2889  0.9936  0.1089
 4676SOL    HW225488   4.176   0.069  12.507  0.8988 -1.2222 -0.4536
 4677SOL     OW25489   3.420   1.212   7.374  0.4191  0.2880 -0.1972
 4677SOL    HW125490   3.485   1.168   7.428 -0.4194 -2.6860 -1.6028
 4677SOL    HW225491   3.466   1.292   7.347  1.8596 -0.4242  0.2057
 4678SOL     OW25492   4.652   0.778   4.316 -0.0287  0.3501  0.6906
 4678SOL    HW125493   0.000   0.791   4.251 -0.0952  0.5458  0.6596
 4678SOL    HW225494   4.713   0.744   4.381  0.8256 -0.9552 -0.8053
 4679SOL     OW25495   4.029   0.234   4.092 -0.4737 -0.3344  0.2143
 4679SOL    HW125496   4.055   0.143   4.100 -1.2468 -0.8813 -3.4308
 4679SOL    HW225497   4.113   0.270   4.063 -0.5457  0.7011  1.2792
 4680SOL     OW25498   1.256   2.399   9.165  0.1114 -0.4627  0.0910
 4680SOL    HW125499   1.315   2.407   9.240  0.5919  1.6292 -0.5122
 4680SOL    HW225500   1.171   2.433   9.194  0.2541 -0.3498  0.3811
 4681SOL     OW25501   2.476   0.566  10.944  0.0780 -0.1450 -0.3480
 4681SOL    HW125502   2.383   0.547  10.959  0.2266 -0.5514  0.0256
 4681SOL    HW225503   2.471   0.598  10.854 -2.8099  0.6719  0.1031
 4682SOL     OW25504   3.327   2.894   6.659 -0.1372  0.2010 -0.2579
 4682SOL    HW125505   3.360   2.957   6.723 -3.0495  0.9088  0.5605
 4682SOL    HW225506   3.386   2.917   6.588  0.4921 -0.4290  0.0566
 4683SOL     OW25507   2.151   0.815  16.932 -0.4637  0.4431 -0.1214
 4683SOL    HW125508   2.117   0.903  16.916 -0.5683 -0.0188 -2.5173
 4683SOL    HW225509   2.132   0.800  17.025 -0.9890  0.1961 -0.2654
 4684SOL     OW25510   4.149   0.362   5.946 -0.0087 -0.3760  0.5490
 4684SOL    HW125511   4.054   0.357   5.951 -0.1770  2.3785  0.0997
 4684SOL    HW225512   4.170   0.415   6.023  0.0424  0.7832 -0.2679
 4685SOL     OW25513   3.147   2.362   3.197  0.0814 -0.0519  0.2678
 4685SOL    HW125514   3.174   2.300   3.129 -0.3728  0.7732 -0.6692
 4685SOL    HW225515   3.208   2.334   3.265 -1.4576 -2.8340  0.5156
 4686SOL     OW25516   4.482   3.942   9.884  0.1681  0.3188  0.3477
 4686SOL    HW125517   4.433   3.930   9.965  1.6371  0.9886  1.3284
 4686SOL    HW225518   4.562   3.982   9.919 -1.0366  1.6575  1.5216
 4687SOL     OW25519   0.392   4.267   5.838  0.4444  0.0126  0.1962
 4687SOL    HW125520   0.374   4.314   5.920 -1.4027 -1.8445  0.8499
 4687SOL    HW225521   0.430   4.333   5.780  0.3950  0.2566  0.4423
 4688SOL     OW25522   1.604   2.587   0.446  0.6302  0.0348  0.0213
 4688SOL    HW125523   1.592   2.644   0.371 -1.0425  1.3805  1.3148
 4688SOL    HW225524   1.524   2.597   0.497  0.1723  1.7865 -1.0634
 4689SOL     OW25525   1.304   4.701  13.887 -0.2074 -0.0841 -0.1141
 4689SOL    HW125526   1.317   4.654  13.805 -1.9393  1.2062 -1.1451
 4689SOL    HW225527   1.271   4.644  13.957 -1.1517 -1.0941 -1.3978
 4690SOL     OW25528   2.565   3.938   9.172  0.2351 -0.1761 -0.0747
 4690SOL    HW125529   2.579   4.033   9.168  0.5172 -0.1725  1.3683
 4690SOL    HW225530   2.575   3.915   9.079  0.0082 -2.6576  0.5402
 4691SOL     OW25531   0.092   1.738  10.256 -0.3945 -0.1813  0.3825
 4691SOL    HW125532   0.032   1.785  10.198 -0.5502  0.1958  0.8507
 4691SOL    HW225533   0.113   1.662  10.200  2.9021 -1.4951  3.4697
 4692SOL     OW25534   1.936   1.177   3.843  0.4914 -0.4683  0.3405
 4692SOL    HW125535   1.925   1.178   3.747  0.6225  0.3705  0.3406
 4692SOL    HW225536   1.975   1.261   3.866 -0.5651  0.1378 -0.0857
 4693SOL     OW25537   4.061   3.166  16.553  0.1466 -0.0632 -0.2619
 4693SOL    HW125538   3.995   3.171  16.622 -0.2720 -2.0963 -0.5118
 4693SOL    HW225539   4.055   3.076  16.522  1.5620 -0.0941 -0.4511
 4694SOL     OW25540   2.126   0.761  11.983  0.5719  0.6046  0.0186
 4694SOL    HW125541   2.107   0.727  11.896  1.5347 -0.8930  0.3944
 4694SOL    HW225542   2.188   0.832  11.961 -0.2832  1.0994 -0.7923
 4695SOL     OW25543   3.304   3.393   4.406  0.3037  0.1400 -0.3946
 4695SOL    HW125544   3.240   3.417   4.473  0.3024  0.3931 -0.4876
 4695SOL    HW225545   3.267   3.439   4.331  2.9845  1.0449 -1.1860
 4696SOL     OW25546   1.521   3.502  15.856 -0.2129 -0.2851  0.1541
 4696SOL    HW125547   1.553   3.451  15.781 -1.5756 -1.0941  0.1281
 4696SOL    HW225548   1.564   3.443  15.918  2.6842  2.1077  0.4237
 4697SOL     OW25549   0.212   0.076   3.102 -0.1462 -0.4326 -0.3347
 4697SOL    HW125550   0.263   0.091   3.181 -0.1303  0.0678 -0.4388
 4697SOL    HW225551   0.213   4.702   3.089  3.5095 -0.2798 -0.9615
 4698SOL     OW25552   0.446   3.411   8.627 -0.0265 -0.4137 -0.0665
 4698SOL    HW125553   0.523   3.355   8.639  0.5584 -0.1162 -2.4930
 4698SOL    HW225554   0.494   3.494   8.616  1.3435 -1.2331 -0.3300
 4699SOL     OW25555   1.424   0.959  10.666  0.4754 -0.6096 -0.0094
 4699SOL    HW125556   1.495   1.018  10.639 -1.3860  1.3360 -0.7103
 4699SOL    HW225557   1.357   1.028  10.674 -0.6820 -1.7734  0.3559
 4700SOL     OW25558   1.839   1.192   3.561 -0.0754  0.3554 -0.3574
 4700SOL    HW125559   1.841   1.124   3.493  1.8900  0.3100 -0.2566
 4700SOL    HW225560   1.751   1.226   3.571  1.0526  2.7442  1.4114
 4701SOL     OW25561   1.792   2.482   8.960 -0.1623 -0.3661 -0.2299
 4701SOL    HW125562   1.866   2.517   9.010 -0.8178 -0.7890  1.0577
 4701SOL    HW225563   1.784   2.397   9.005 -0.4716 -0.9858 -1.4643
 4702SOL     OW25564   1.836   3.937   5.885 -0.0752 -0.2322 -0.3709
 4702SOL    HW125565   1.741   3.929   5.880 -0.3288  1.5540  1.6628
 4702SOL    HW225566   1.864   3.923   5.795  1.6560  1.7401 -0.1622
 4703SOL     OW25567   3.222   4.008   3.762  0.6268  0.4566 -0.2507
 4703SOL    HW125568   3.225   4.083   3.821 -0.4010  0.4195 -0.1485
 4703SOL    HW225569   3.179   4.046   3.686  3.2918  0.6844 -1.6264
 4704SOL     OW25570   2.723   2.745   2.761  0.1027 -0.5036  0.2455
 4704SOL    HW125571   2.812   2.763   2.729 -1.1029  1.9138 -1.7125
 4704SOL    HW225572   2.691   2.699   2.683 -0.4963  2.2999 -1.1729
 4705SOL     OW25573   0.412   1.243   0.128 -0.1329 -0.1113  0.1174
 4705SOL    HW125574   0.420   1.312   0.063  2.4624 -0.5761 -0.0232
 4705SOL    HW225575   0.368   1.297   0.195 -0.8740 -1.3573  0.6429
 4706SOL     OW25576   3.429   3.064   5.601  0.1461  0.4724 -0.0153
 4706SOL    HW125577   3.477   3.012   5.666  2.1906  1.3039 -0.8727
 4706SOL    HW225578   3.341   3.055   5.639  0.2379 -1.8227 -0.3522
 4707SOL     OW25579   1.637   1.893   8.486  0.8375  0.0122  0.2773
 4707SOL    HW125580   1.594   1.810   8.469  1.0898  0.1795 -1.1270
 4707SOL    HW225581   1.591   1.950   8.424  0.6094  0.0600  0.4897
 4708SOL     OW25582   0.542   0.295   2.521 -0.6437  0.1026 -0.0269
 4708SOL    HW125583   0.612   0.244   2.561 -0.9497  0.5718  1.1152
 4708SOL    HW225584   0.548   0.275   2.428  1.3211 -0.0457  0.1446
 4709SOL     OW25585   2.521   0.219   0.865 -0.8286  0.0405  0.5195
 4709SOL    HW125586   2.447   0.166   0.832 -0.5649 -0.8384  1.3308
 4709SOL    HW225587   2.476   0.303   0.871  2.1106  1.5525  0.9064
 4710SOL     OW25588   4.491   2.247   0.770 -0.3011 -0.5720  0.1223
 4710SOL    HW125589   4.568   2.213   0.817  1.5063  1.9618 -0.9597
 4710SOL    HW225590   4.446   2.167   0.745 -1.4067 -0.0871  0.5598
 4711SOL     OW25591   2.790   1.523   9.430 -0.4067  0.3887  0.1999
 4711SOL    HW125592   2.865   1.471   9.460 -0.0647 -1.5079 -3.9599
 4711SOL    HW225593   2.831   1.585   9.370  0.7795  0.6609  1.2869
 4712SOL     OW25594   4.016   0.537   7.744  0.3772  0.0066 -0.1838
 4712SOL    HW125595   3.981   0.454   7.714 -1.2764  0.9782 -0.9022
 4712SOL    HW225596   4.011   0.594   7.668 -0.8011  1.5053  1.0081
 4713SOL     OW25597   3.624   0.904   4.280  0.9127  0.1811 -0.3195
 4713SOL    HW125598   3.540   0.946   4.260  1.2710 -0.3088 -2.8317
 4713SOL    HW225599   3.669   0.969   4.333  0.4990  1.9762 -2.1986
 4714SOL     OW25600   4.025   4.528   6.571  0.9085  0.0370 -0.1562
 4714SOL    HW125601   4.090   4.486   6.515  0.7930 -0.8590  0.3825
 4714SOL    HW225602   3.957   4.541   6.505  1.1200 -0.2282 -0.4272
 4715SOL     OW25603   0.649   0.649   4.556 -0.2864 -0.0897  0.8396
 4715SOL    HW125604   0.602   0.595   4.492  0.0501  1.3958 -0.6658
 4715SOL    HW225605   0.733   0.604   4.559  0.2677  1.0120  1.7049
 4716SOL     OW25606   0.051   0.544   3.069  0.2834 -0.3169 -0.4275
 4716SOL    HW125607   0.110   0.472   3.049  1.2786  0.5703 -0.7181
 4716SOL    HW225608   0.110   0.618   3.086  0.1632  0.0915 -1.7661
 4717SOL     OW25609   3.078   4.429  14.070 -0.3802  0.3554 -0.0429
 4717SOL    HW125610   3.099   4.523  14.071  1.4840 -0.0441 -0.6134
 4717SOL    HW225611   3.034   4.418  14.155  0.8203  2.0449  0.8130
 4718SOL     OW25612   1.057   2.857   6.150  0.2610  0.0709 -0.3549
 4718SOL    HW125613   1.080   2.812   6.232  0.5030  2.4483  0.8619
 4718SOL    HW225614   0.968   2.890   6.163 -0.6758 -3.4233  1.9589
 4719SOL     OW25615   1.370   0.714   9.049 -0.2839 -0.2197 -0.3605
 4719SOL    HW125616   1.426   0.789   9.033 -0.2926  0.2250  1.6501
 4719SOL    HW225617   1.439   0.664   9.094  0.5782  0.4114 -0.9966
 4720SOL     OW25618   4.335   2.627  13.200  0.3024 -0.4993  0.1395
 4720SOL    HW125619   4.372   2.615  13.288  1.9728  0.3389 -0.4587
 4720SOL    HW225620   4.244   2.647  13.222  0.1334 -0.5233 -0.5517
 4721SOL     OW25621   2.745   2.610   2.538  0.2570  0.3190  0.4321
 4721SOL    HW125622   2.748   2.640   2.447  1.9825  1.6177  0.9204
 4721SOL    HW225623   2.767   2.518   2.528 -1.4538 -0.1505  0.9624
 4722SOL     OW25624   0.599   2.457   7.414 -0.3984 -0.3516  0.2673
 4722SOL    HW125625   0.554   2.496   7.340  1.6879 -1.9011 -1.7965
 4722SOL    HW225626   0.611   2.366   7.387 -1.1892 -0.1811 -0.6496
 4723SOL     OW25627   0.176   3.719   3.039 -0.5008 -0.6363  0.1370
 4723SOL    HW125628   0.178   3.805   2.997 -0.9297  0.3577  2.1449
 4723SOL    HW225629   0.189   3.654   2.970  0.0910  1.5229 -1.7706
 4724SOL     OW25630   1.573   3.500   7.826  0.4124 -0.0403  0.1920
 4724SOL    HW125631   1.590   3.470   7.915  4.0674  0.8154 -0.2035
 4724SOL    HW225632   1.539   3.587   7.846  1.9604  0.0528  2.5079
 4725SOL     OW25633   2.424   3.463   6.256 -0.4948  0.3506 -0.0204
 4725SOL    HW125634   2.440   3.553   6.228  1.5557  1.1616  3.6904
 4725SOL    HW225635   2.509   3.424   6.235 -0.7761  0.5788 -1.5403
 4726SOL     OW25636   1.772   2.567  13.159 -0.0587 -0.4482 -0.0721
 4726SOL    HW125637   1.756   2.545  13.067 -0.6972  0.7225 -0.2504
 4726SOL    HW225638   1.685   2.602  13.179  0.0801  0.5794 -1.2697
 4727SOL     OW25639   0.052   2.208   6.335  0.0161 -0.2804 -0.5247
 4727SOL    HW125640   0.084   2.297   6.356 -0.5238 -0.6164  1.7729
 4727SOL    HW225641   0.109   2.160   6.395 -1.4281 -2.9049 -1.2899
 4728SOL     OW25642   1.547   2.891   7.302  0.0604  0.2243 -0.0715
 4728SOL    HW125643   1.499   2.971   7.321  0.2015 -0.1779  1.9571
 4728SOL    HW225644   1.485   2.833   7.258  1.5865 -0.3149 -1.5400
 4729SOL     OW25645   0.543   2.370   1.899  0.1371  0.4074  0.0564
 4729SOL    HW125646   0.630   2.340   1.873  0.4711  1.7658 -0.3768
 4729SOL    HW225647   0.521   2.397   1.810  1.2224 -0.2667 -0.4044
 4730SOL     OW25648   0.151   3.164   5.414  0.0907  0.2605  0.0978
 4730SOL    HW125649   0.087   3.183   5.345  1.2226 -0.8621 -1.2794
 4730SOL    HW225650   0.173   3.072   5.395 -2.1586  0.0461 -1.4539
 4731SOL     OW25651   3.565   3.959  13.089 -0.3366 -0.1452 -0.3616
 4731SOL    HW125652   3.553   3.880  13.037 -3.2089 -0.2207  0.4217
 4731SOL    HW225653   3.500   3.944  13.157  0.0209  0.1417  0.0495
 4732SOL     OW25654   3.853   4.258  13.369 -0.1802  0.4862 -0.5481
 4732SOL    HW125655   3.925   4.240  13.308 -0.1528  0.4018 -0.4915
 4732SOL    HW225656   3.880   4.337  13.416  0.8589 -0.0399 -0.2542
 4733SOL     OW25657   2.830   0.238   0.335 -0.2034 -0.0909  0.4358
 4733SOL    HW125658   2.808   0.271   0.422  0.2185 -1.2454  0.9825
 4733SOL    HW225659   2.742   0.203   0.317  0.6247 -1.9920  0.1198
 4734SOL     OW25660   1.104   0.360   3.848  0.5915 -0.3327  0.2560
 4734SOL    HW125661   1.129   0.312   3.926  2.9656 -1.3520 -1.1352
 4734SOL    HW225662   1.139   0.445   3.877 -2.9735  1.1871  0.1078
 4735SOL     OW25663   2.269   1.574   1.730  0.0597 -0.4233 -0.2070
 4735SOL    HW125664   2.301   1.592   1.641 -2.5043 -1.1144 -1.2959
 4735SOL    HW225665   2.330   1.638   1.768 -0.3122  0.3499 -0.9042
 4736SOL     OW25666   0.554   4.648  15.409  0.1498  0.3496 -0.0384
 4736SOL    HW125667   0.634   4.662  15.460  0.8400  0.6832 -1.2112
 4736SOL    HW225668   0.496   4.695  15.469 -1.7168 -1.2049 -0.6428
 4737SOL     OW25669   2.428   0.324   6.513  0.0375  0.2197 -0.1346
 4737SOL    HW125670   2.364   0.347   6.581 -0.3542 -0.0587 -0.4114
 4737SOL    HW225671   2.410   0.230   6.509  0.2464  0.1187  1.3097
 4738SOL     OW25672   0.321   2.405   8.725  0.0189  0.0188  0.3439
 4738SOL    HW125673   0.243   2.369   8.682 -0.3989  2.6326 -1.0258
 4738SOL    HW225674   0.364   2.445   8.650  0.1725  2.0669  1.5240
 4739SOL     OW25675   2.608   2.515   8.667 -0.0024  0.5311  0.6031
 4739SOL    HW125676   2.598   2.516   8.762 -1.9956  0.6974  0.3946
 4739SOL    HW225677   2.518   2.514   8.634 -0.1386 -1.8979  1.0635
 4740SOL     OW25678   4.046   4.116   7.089 -0.4227  0.0705  0.1114
 4740SOL    HW125679   3.979   4.173   7.127  0.4099  1.7680 -0.9731
 4740SOL    HW225680   4.092   4.176   7.030 -0.2302  0.2831  0.4775
 4741SOL     OW25681   4.657   1.204   8.621 -0.1856  0.3236  0.1222
 4741SOL    HW125682   4.568   1.182   8.650  1.7187 -4.4736  2.2779
 4741SOL    HW225683   4.656   1.300   8.613  0.0886  0.3522  0.4301
 4742SOL     OW25684   1.113   0.942  11.410  0.6782 -0.1930  0.3198
 4742SOL    HW125685   1.129   0.922  11.502 -0.9624 -1.5398  0.3050
 4742SOL    HW225686   1.091   1.035  11.417 -0.6966 -0.5333  0.4813
 4743SOL     OW25687   0.045   2.443  12.472  0.1461  0.1481 -0.0848
 4743SOL    HW125688   0.060   2.519  12.528 -0.6246 -1.3029  2.0950
 4743SOL    HW225689   0.105   2.382  12.517  1.6570  2.9424  1.7027
 4744SOL     OW25690   0.727   0.041  15.850 -0.2735  0.2352 -0.3980
 4744SOL    HW125691   0.634   0.022  15.835 -0.0967 -1.6693  0.9250
 4744SOL    HW225692   0.760   4.699  15.785  1.4020  3.0935 -2.3049
 4745SOL     OW25693   1.547   2.825   5.121  0.3153 -0.2619 -0.2614
 4745SOL    HW125694   1.498   2.743   5.113 -2.5649  1.7615 -3.4170
 4745SOL    HW225695   1.576   2.856   5.035 -2.0351  1.6891 -0.3686
 4746SOL     OW25696   4.334   3.181   4.042  0.4630  0.5001 -0.3802
 4746SOL    HW125697   4.307   3.168   3.951  1.5533  1.9639 -0.9140
 4746SOL    HW225698   4.305   3.271   4.059 -0.7381  0.1611 -0.6293
 4747SOL     OW25699   2.904   4.506   2.124 -0.3842 -0.0691  0.1116
 4747SOL    HW125700   2.904   4.567   2.198  0.0232 -0.1753  0.1987
 4747SOL    HW225701   2.889   4.568   2.052 -0.2262 -0.2317 -0.0627
 4748SOL     OW25702   1.284   1.960   1.443 -0.0052 -0.2633 -0.5659
 4748SOL    HW125703   1.292   1.999   1.530 -1.1209  0.6296 -0.8698
 4748SOL    HW225704   1.369   1.920   1.427 -0.5450 -0.3937 -3.2232
 4749SOL     OW25705   1.571   2.240   4.180 -0.2994  0.0499 -0.1409
 4749SOL    HW125706   1.506   2.187   4.226  0.1330 -1.4303 -1.2141
 4749SOL    HW225707   1.571   2.304   4.251 -0.6568 -0.0541 -0.0484
 4750SOL     OW25708   0.690   1.503   5.439 -0.0602 -0.2805  0.6398
 4750SOL    HW125709   0.710   1.463   5.523  1.7671  0.7145  0.6597
 4750SOL    HW225710   0.724   1.445   5.371 -1.2682 -0.8595  0.5231
 4751SOL     OW25711   1.141   3.011  16.455  0.1175  0.0109  0.5544
 4751SOL    HW125712   1.192   3.053  16.385 -0.5998  0.8295  0.5198
 4751SOL    HW225713   1.082   2.966  16.394 -2.2504  0.4943  2.5090
 4752SOL     OW25714   3.293   0.503   1.378  0.0731  0.6438 -0.0953
 4752SOL    HW125715   3.237   0.569   1.337  2.4973  1.6532 -1.8103
 4752SOL    HW225716   3.261   0.509   1.468  1.0391  0.0610  0.2782
 4753SOL     OW25717   1.463   1.704  11.273 -0.5077  0.6895 -0.2557
 4753SOL    HW125718   1.436   1.691  11.363 -2.1283  1.0911 -0.6865
 4753SOL    HW225719   1.525   1.773  11.295  0.6212  0.2779 -2.0999
 4754SOL     OW25720   0.686   2.779   1.283  0.4596  0.4467  0.0195
 4754SOL    HW125721   0.707   2.690   1.311  3.4710  0.4690 -2.1444
 4754SOL    HW225722   0.613   2.764   1.224  0.1962  1.8255 -0.0184
 4755SOL     OW25723   1.694   0.939  10.973  0.1277 -0.5312  0.0472
 4755SOL    HW125724   1.787   0.958  10.964 -0.1884  1.2360  0.4465
 4755SOL    HW225725   1.659   1.027  10.959  1.3500 -0.1211 -0.3992
 4756SOL     OW25726   4.117   0.740   6.325 -0.6823 -0.0956 -0.8086
 4756SOL    HW125727   4.156   0.659   6.291  0.3330  0.3156 -0.6162
 4756SOL    HW225728   4.037   0.741   6.272  0.2527 -0.1899 -2.2472
 4757SOL     OW25729   0.230   0.813   8.413  0.0489  0.1944 -0.4709
 4757SOL    HW125730   0.171   0.886   8.431 -0.4135 -0.0351 -1.0472
 4757SOL    HW225731   0.304   0.826   8.472 -0.4516 -0.5420  0.3169
 4758SOL     OW25732   4.521   3.526   5.346  0.0413  0.0636 -0.0741
 4758SOL    HW125733   4.504   3.560   5.434  2.0139 -1.5777  0.9220
 4758SOL    HW225734   4.435   3.527   5.305 -1.4749  1.1105  3.1008
 4759SOL     OW25735   3.168   2.500  15.013 -0.5758 -0.1939 -0.1829
 4759SOL    HW125736   3.253   2.465  14.988  0.3171  2.3326 -0.6552
 4759SOL    HW225737   3.133   2.426  15.063  1.2032 -0.9984 -0.1428
 4760SOL     OW25738   4.314   3.022   6.301 -0.4273 -0.0143 -0.1613
 4760SOL    HW125739   4.282   3.013   6.391  3.6075 -0.0273  1.2723
 4760SOL    HW225740   4.394   2.970   6.304  0.6663  1.5326 -2.1242
 4761SOL     OW25741   0.246   1.803   9.978  0.5166 -0.3391  0.1483
 4761SOL    HW125742   0.256   1.840  10.066 -2.1730  1.4673 -0.3193
 4761SOL    HW225743   0.190   1.864   9.929  2.0029 -0.1892 -1.3772
 4762SOL     OW25744   3.012   1.049   8.925  0.0707  0.9711  0.3613
 4762SOL    HW125745   2.923   1.014   8.935  0.3673 -0.0664 -0.5618
 4762SOL    HW225746   3.004   1.143   8.938 -1.5670  0.8252  0.4294
 4763SOL     OW25747   3.759   4.282  12.849  0.0672  0.8330  0.5244
 4763SOL    HW125748   3.736   4.367  12.812  1.3538  0.2490 -1.6115
 4763SOL    HW225749   3.833   4.259  12.793 -0.8162  0.0898 -0.3257
 4764SOL     OW25750   1.073   2.083   4.430 -0.5660 -0.2701  0.2125
 4764SOL    HW125751   1.151   2.032   4.452  1.4422  2.0244 -1.6344
 4764SOL    HW225752   1.073   2.147   4.501 -1.0368 -1.7240  1.5182
 4765SOL     OW25753   1.670   1.737  14.108 -0.5903 -0.3907 -0.5369
 4765SOL    HW125754   1.627   1.682  14.042  0.4188  0.0699 -1.5933
 4765SOL    HW225755   1.733   1.792  14.061 -0.1108  0.5695  1.2313
 4766SOL     OW25756   2.094   0.127  12.378 -0.5459  0.3526  1.1154
 4766SOL    HW125757   2.094   0.185  12.302 -1.8925 -0.5510  0.4331
 4766SOL    HW225758   2.169   0.174  12.415 -1.5808  1.0307  2.3603
 4767SOL     OW25759   3.940   1.774   6.871 -0.0417  0.4589  0.3536
 4767SOL    HW125760   3.939   1.757   6.777  0.6414  3.4640 -0.2028
 4767SOL    HW225761   3.867   1.718   6.899 -0.1700  1.1958  1.4885
 4768SOL     OW25762   0.724   4.253   8.329 -0.1844  0.3044 -0.1008
 4768SOL    HW125763   0.698   4.310   8.256 -1.5828 -0.2187 -0.0257
 4768SOL    HW225764   0.791   4.301   8.377  1.0924 -1.1590 -0.3963
 4769SOL     OW25765   4.222   1.321   8.830  0.4654 -0.3804 -0.1464
 4769SOL    HW125766   4.183   1.397   8.873 -0.2091 -0.5549 -0.4510
 4769SOL    HW225767   4.146   1.263   8.833  2.5394 -3.0439  0.3481
 4770SOL     OW25768   0.705   0.503  11.859  0.4350 -0.0007  0.0584
 4770SOL    HW125769   0.732   0.417  11.827 -1.3238  0.3811 -2.5038
 4770SOL    HW225770   0.698   0.477  11.951 -0.3426  0.2866  0.0854
 4771SOL     OW25771   4.464   1.827   3.831 -0.2717  0.4233  0.8529
 4771SOL    HW125772   4.467   1.762   3.762  1.0626  1.1773  0.1935
 4771SOL    HW225773   4.554   1.858   3.839  0.2190 -1.0625  1.0766
 4772SOL     OW25774   1.868   0.257   3.149  0.5964  0.4469 -0.3543
 4772SOL    HW125775   1.809   0.199   3.100 -0.6144  0.5222  1.0016
 4772SOL    HW225776   1.805   0.289   3.213  0.8745 -0.1010  0.1995
 4773SOL     OW25777   1.080   0.846   8.592  0.0873  0.2136 -0.2816
 4773SOL    HW125778   1.107   0.824   8.682  1.1837  0.7853 -0.4770
 4773SOL    HW225779   1.014   0.909   8.622 -1.2471 -1.9260  1.2664
 4774SOL     OW25780   4.534   1.024   3.336 -0.1628  0.0304 -0.1231
 4774SOL    HW125781   4.502   0.956   3.277 -1.2659 -0.0513  0.5610
 4774SOL    HW225782   4.562   0.971   3.410 -1.0574  0.5115  0.5637
 4775SOL     OW25783   2.096   3.581   1.920 -0.3051 -0.0350 -0.1118
 4775SOL    HW125784   2.177   3.595   1.872  0.0611 -1.6316  0.0473
 4775SOL    HW225785   2.102   3.486   1.931 -0.1828 -0.0392 -0.2125
 4776SOL     OW25786   0.654   2.526   3.537 -0.4181 -0.0683 -0.4696
 4776SOL    HW125787   0.712   2.487   3.471  2.1854  0.6388  1.4003
 4776SOL    HW225788   0.574   2.550   3.490 -0.4194  0.7992 -0.0092
 4777SOL     OW25789   0.386   3.034   0.520 -0.4378 -0.3588 -0.6911
 4777SOL    HW125790   0.393   3.114   0.468  1.5519  1.5085  2.4282
 4777SOL    HW225791   0.472   3.034   0.563 -0.0901 -1.1069 -1.3684
 4778SOL     OW25792   2.837   1.495  14.917  0.0459 -0.0040 -0.5515
 4778SOL    HW125793   2.819   1.461  15.005  2.9779 -1.0222 -0.3528
 4778SOL    HW225794   2.755   1.487  14.868 -0.1807 -0.6922 -0.0761
 4779SOL     OW25795   0.948   2.866   2.961  0.3236  0.6263  0.0325
 4779SOL    HW125796   0.991   2.863   2.875  1.0640  0.1452  0.4177
 4779SOL    HW225797   0.888   2.939   2.951 -2.0938 -1.2584  0.7337
 4780SOL     OW25798   4.306   0.418   2.933 -0.1028  0.0612 -0.5927
 4780SOL    HW125799   4.286   0.500   2.977  1.8611 -0.2740  0.9270
 4780SOL    HW225800   4.223   0.372   2.937  0.5838 -1.0290  1.0510
 4781SOL     OW25801   4.378   3.426  14.714 -0.1215  0.2040  0.3593
 4781SOL    HW125802   4.395   3.511  14.756  1.7889  0.5016 -1.0522
 4781SOL    HW225803   4.393   3.443  14.621 -1.0517 -1.9848 -0.1875
 4782SOL     OW25804   3.894   1.715   6.606  0.2801 -0.1810 -0.3022
 4782SOL    HW125805   3.805   1.749   6.616 -0.3313 -1.4005 -1.6712
 4782SOL    HW225806   3.900   1.699   6.512 -1.7377  0.7079 -0.5633
 4783SOL     OW25807   4.574   3.759  14.088 -0.1388 -0.7482 -0.2140
 4783SOL    HW125808   4.569   3.674  14.045  1.1834 -0.7840 -0.2773
 4783SOL    HW225809   4.580   3.804  14.004 -2.3880 -2.3708 -1.2439
 4784SOL     OW25810   3.376   2.301   6.272  0.6804  0.1295  0.4375
 4784SOL    HW125811   3.376   2.370   6.338 -0.7637  0.5225  0.0262
 4784SOL    HW225812   3.287   2.272   6.293 -0.0068  1.6091 -0.4562
 4785SOL     OW25813   0.524   4.497   8.630 -0.3862  0.2944  0.1186
 4785SOL    HW125814   0.548   4.496   8.538  1.4839  2.1755  0.5804
 4785SOL    HW225815   0.446   4.551   8.632 -0.9320 -0.4165 -3.0590
 4786SOL     OW25816   2.796   4.183  14.441  0.2832  0.2202 -0.1504
 4786SOL    HW125817   2.716   4.156  14.397  0.4427  0.1067 -0.3728
 4786SOL    HW225818   2.764   4.202  14.530  0.4405 -0.6189  0.0813
 4787SOL     OW25819   0.659   1.223   9.482 -0.7115  0.0606  0.2074
 4787SOL    HW125820   0.681   1.219   9.389  0.7281 -0.5652  0.5780
 4787SOL    HW225821   0.702   1.302   9.514  1.0640 -0.9702  0.3270
 4788SOL     OW25822   4.015   2.911  12.505 -0.4292  0.7176 -0.2951
 4788SOL    HW125823   3.998   2.926  12.412 -0.8865 -1.6526 -0.5790
 4788SOL    HW225824   4.084   2.845  12.509 -2.5276 -1.4920 -0.4124
 4789SOL     OW25825   1.652   1.618  17.399 -0.2560 -0.0542 -0.6815
 4789SOL    HW125826   1.655   1.559  17.324  2.6243  0.0657 -0.6680
 4789SOL    HW225827   1.735   1.591  17.438  0.0600 -2.5889 -3.1144
 4790SOL     OW25828   4.573   3.077   9.517  0.3649 -0.1746  0.4016
 4790SOL    HW125829   4.612   3.165   9.522 -0.4565  0.2733 -1.2717
 4790SOL    HW225830   4.482   3.092   9.543 -0.6910 -1.9423 -2.3630
 4791SOL     OW25831   4.650   3.172  16.835 -0.5210 -0.1116 -0.6946
 4791SOL    HW125832   4.683   3.255  16.801 -2.2063  1.3602  1.2583
 4791SOL    HW225833   4.595   3.136  16.766 -0.3140  1.0563 -1.4660
 4792SOL     OW25834   3.650   1.081   7.567  0.2881  0.3012 -0.4533
 4792SOL    HW125835   3.589   1.011   7.545  1.4782 -2.0023  3.5934
 4792SOL    HW225836   3.591   1.119   7.631 -1.3744 -0.6691 -1.4148
 4793SOL     OW25837   4.154   3.410   1.147 -0.2964 -0.6278  0.2065
 4793SOL    HW125838   4.137   3.502   1.166  1.8621 -0.0531 -0.6822
 4793SOL    HW225839   4.249   3.408   1.148 -0.2760  1.7235  1.8171
 4794SOL     OW25840   4.126   1.603  15.220  0.1013  0.6199  0.2561
 4794SOL    HW125841   4.203   1.636  15.175 -0.3415  1.2234 -0.0572
 4794SOL    HW225842   4.094   1.682  15.264 -0.6884  1.1595 -1.3077
 4795SOL     OW25843   0.253   0.351   0.698 -0.2738  0.3526  0.5751
 4795SOL    HW125844   0.202   0.386   0.625  0.4397 -1.3107 -0.7205
 4795SOL    HW225845   0.219   0.262   0.702 -0.1267  0.2876  0.3834
 4796SOL     OW25846   3.258   2.013   1.594  0.1002 -0.0682 -0.5185
 4796SOL    HW125847   3.269   1.987   1.686  2.8932  2.2758 -0.1939
 4796SOL    HW225848   3.180   2.066   1.585  0.5045  0.7727  1.0068
 4797SOL     OW25849   1.488   1.670   9.366  0.2157 -0.0612 -0.2832
 4797SOL    HW125850   1.411   1.659   9.311 -1.4389  1.0926  1.8247
 4797SOL    HW225851   1.530   1.584   9.360 -1.2926 -0.7161 -1.2509
 4798SOL     OW25852   2.141   3.007  14.234 -0.6930 -0.0745 -0.2550
 4798SOL    HW125853   2.144   3.070  14.163 -0.6876  0.8561  0.5747
 4798SOL    HW225854   2.235   2.997  14.245 -0.5706  1.2528 -0.2051
 4799SOL     OW25855   0.751   1.467   6.366  0.0359  0.0920  0.9217
 4799SOL    HW125856   0.799   1.386   6.386  2.1328  1.6507  2.2338
 4799SOL    HW225857   0.817   1.532   6.387 -0.7253  1.3648 -0.6709
 4800SOL     OW25858   0.710   1.587  11.976 -0.5722 -0.4513 -0.6429
 4800SOL    HW125859   0.665   1.651  12.032 -2.1856  0.2011 -2.6844
 4800SOL    HW225860   0.688   1.632  11.895 -0.0344 -0.0860 -0.5824
 4801SOL     OW25861   3.527   4.090   9.109 -0.0174 -0.1037  0.1596
 4801SOL    HW125862   3.570   4.125   9.187  0.4079 -1.0571  0.3523
 4801SOL    HW225863   3.583   4.015   9.089 -1.1698 -0.7463 -0.6269
 4802SOL     OW25864   0.945   1.968   1.416 -0.1067 -0.0113  0.3977
 4802SOL    HW125865   1.036   1.938   1.416  0.2485  1.0544  1.2514
 4802SOL    HW225866   0.900   1.922   1.487 -0.9941  0.2889  0.0237
 4803SOL     OW25867   4.263   3.170   3.770 -0.4816  0.0374 -0.2599
 4803SOL    HW125868   4.282   3.248   3.716  1.1659 -0.5848 -0.6003
 4803SOL    HW225869   4.168   3.165   3.770 -0.5472  1.2691 -1.5983
 4804SOL     OW25870   2.158   0.863   8.782 -0.2235 -0.2863 -0.6559
 4804SOL    HW125871   2.205   0.942   8.808  2.2289 -1.5097 -1.2796
 4804SOL    HW225872   2.228   0.827   8.727  0.1355  3.3286 -2.5649
 4805SOL     OW25873   2.374   0.011   3.230 -0.2430 -0.2281 -0.0131
 4805SOL    HW125874   2.463   0.009   3.267  1.1750 -0.1956 -3.3806
 4805SOL    HW225875   2.383   4.676   3.152 -3.8397 -1.0289  0.1540
 4806SOL     OW25876   3.751   3.668   7.882 -0.1901  0.3912 -0.0434
 4806SOL    HW125877   3.835   3.676   7.838  0.2111 -0.5989  0.5381
 4806SOL    HW225878   3.687   3.666   7.810  0.9399  0.0386 -1.0382
 4807SOL     OW25879   2.764   1.041  10.301 -0.0841 -0.6281 -0.2128
 4807SOL    HW125880   2.717   1.011  10.224  2.2791  0.7510 -2.1904
 4807SOL    HW225881   2.696   1.038  10.369 -0.0318  0.0140 -0.1304
 4808SOL     OW25882   0.793   1.589  11.364 -0.1640 -0.0247 -0.0185
 4808SOL    HW125883   0.792   1.508  11.312  0.2162  2.0070 -3.1860
 4808SOL    HW225884   0.868   1.626  11.318 -1.7400  2.3789 -0.6596
 4809SOL     OW25885   1.580   2.753   6.712 -0.3811  0.1125 -0.3243
 4809SOL    HW125886   1.662   2.802   6.719 -0.4408  0.1665  0.0001
 4809SOL    HW225887   1.580   2.758   6.617  2.5681  0.0604 -0.3120
 4810SOL     OW25888   3.855   1.011   5.968  0.2640 -0.4522  0.4641
 4810SOL    HW125889   3.863   1.098   5.929 -2.3417 -0.5157 -0.1801
 4810SOL    HW225890   3.898   1.024   6.053  1.1848 -2.0675  0.2596
 4811SOL     OW25891   4.032   2.516   5.429 -0.1553  0.4031  0.5122
 4811SOL    HW125892   4.104   2.552   5.376 -0.1436  0.0039  0.2618
 4811SOL    HW225893   4.071   2.430   5.439  0.2866  0.5069 -0.3372
 4812SOL     OW25894   4.083   2.537   8.067  0.5287  0.0114  0.1893
 4812SOL    HW125895   4.101   2.580   8.151 -3.6572  0.7113  0.7469
 4812SOL    HW225896   4.062   2.610   8.008 -1.2643 -0.0250  0.7562
 4813SOL     OW25897   3.397   0.609   7.617  0.1430 -0.3838  0.3121
 4813SOL    HW125898   3.471   0.553   7.641  2.4099  2.4144 -0.2630
 4813SOL    HW225899   3.367   0.568   7.536  0.9295 -0.2097 -0.0555
 4814SOL     OW25900   2.534   2.008  11.740  0.0343  0.2483 -0.2927
 4814SOL    HW125901   2.571   1.960  11.814  0.6982  2.3848  0.7397
 4814SOL    HW225902   2.570   2.096  11.751  2.2846 -0.4653 -2.0777
 4815SOL     OW25903   4.294   1.306   2.621 -0.2080 -0.0439 -0.8743
 4815SOL    HW125904   4.265   1.240   2.683  3.5356  1.6464  2.6321
 4815SOL    HW225905   4.215   1.350   2.589 -0.3067 -0.1896 -0.8281
 4816SOL     OW25906   2.356   1.141   3.272 -0.1287 -0.0428 -0.1811
 4816SOL    HW125907   2.293   1.138   3.344  0.3722  1.5119  0.3326
 4816SOL    HW225908   2.399   1.226   3.287  2.0647 -1.3592  0.9679
 4817SOL     OW25909   3.665   1.801  16.223 -0.0355 -0.0524  0.3070
 4817SOL    HW125910   3.613   1.832  16.149  0.6908 -1.2523 -0.6976
 4817SOL    HW225911   3.597   1.747  16.264 -0.9540 -1.1334 -2.6354
 4818SOL     OW25912   2.547   2.761   7.405 -0.4597  1.2325  0.4918
 4818SOL    HW125913   2.558   2.802   7.491  1.0616  2.0889 -0.1053
 4818SOL    HW225914   2.634   2.720   7.397 -2.5652 -3.3693  1.4203
 4819SOL     OW25915   1.404   4.496   4.892  0.2806 -0.2511 -0.2978
 4819SOL    HW125916   1.360   4.466   4.813  2.2591 -1.4136 -0.9717
 4819SOL    HW225917   1.367   4.582   4.910 -0.0711 -0.5887  0.5916
 4820SOL     OW25918   1.386   4.339   0.475 -0.8216 -0.3437  0.8209
 4820SOL    HW125919   1.395   4.384   0.559 -0.7661  0.2919  0.4726
 4820SOL    HW225920   1.344   4.410   0.427  0.6573 -1.2007 -1.8011
 4821SOL     OW25921   0.260   1.123   8.161  0.8828 -0.0477 -0.0944
 4821SOL    HW125922   0.228   1.198   8.213 -0.7187 -0.5055 -0.4099
 4821SOL    HW225923   0.180   1.075   8.139  1.3311 -0.5429 -0.6174
 4822SOL     OW25924   1.527   3.904   8.662  0.1628  0.0846  0.5493
 4822SOL    HW125925   1.479   3.890   8.744  1.9686  3.3956  2.1626
 4822SOL    HW225926   1.461   3.889   8.594  1.2404 -1.9189 -0.0717
 4823SOL     OW25927   0.540   2.880  10.601  0.1496 -0.3110 -0.0369
 4823SOL    HW125928   0.594   2.901  10.678  1.8198  0.5983 -1.4462
 4823SOL    HW225929   0.449   2.874  10.628  0.4050 -2.7306  0.3418
 4824SOL     OW25930   0.727   2.488   7.994 -0.2144  0.4775  0.3696
 4824SOL    HW125931   0.773   2.509   7.913 -0.6410 -0.2802 -0.0758
 4824SOL    HW225932   0.694   2.399   7.979  4.5819 -1.0722 -1.1541
 4825SOL     OW25933   3.870   2.691   3.580  0.1953  0.0086  0.1149
 4825SOL    HW125934   3.791   2.639   3.564  1.0262 -0.8652 -1.0693
 4825SOL    HW225935   3.935   2.624   3.599  1.3014  0.7182 -1.1279
 4826SOL     OW25936   0.671   4.011  11.110 -0.1196  0.3667 -0.3116
 4826SOL    HW125937   0.708   3.964  11.035 -0.7692 -0.4550 -0.1164
 4826SOL    HW225938   0.700   3.957  11.183 -1.9844  0.9931  0.8773
 4827SOL     OW25939   4.477   4.042  10.578 -0.1192 -0.1004 -0.2058
 4827SOL    HW125940   4.476   3.980  10.652  1.0974  0.6230  0.4038
 4827SOL    HW225941   4.484   4.126  10.622  2.4012 -0.5307  0.1937
 4828SOL     OW25942   3.808   4.432   2.262  0.0577 -0.0132 -0.0458
 4828SOL    HW125943   3.834   4.386   2.342  0.2449  0.1717  0.0003
 4828SOL    HW225944   3.719   4.398   2.256 -0.4706  1.4321 -0.5545
 4829SOL     OW25945   4.455   3.081   3.486 -0.2735 -0.4167  0.5848
 4829SOL    HW125946   4.401   3.159   3.497 -0.3151  0.1134 -3.2810
 4829SOL    HW225947   4.518   3.102   3.416 -1.4913  1.5091  0.0938
 4830SOL     OW25948   4.514   2.594   4.226  0.3735  0.3173 -0.1703
 4830SOL    HW125949   4.486   2.602   4.317  1.8116 -2.7993  0.5343
 4830SOL    HW225950   4.593   2.544   4.245 -0.6349 -0.5049  1.7978
 4831SOL     OW25951   2.441   0.938   5.024  0.4270  0.0355  0.0342
 4831SOL    HW125952   2.387   0.880   4.970  1.5075  0.7520 -1.8130
 4831SOL    HW225953   2.412   1.025   4.996 -0.9225  0.5569  2.9927
 4832SOL     OW25954   0.196   1.297   5.435 -0.0409  0.4162  0.2023
 4832SOL    HW125955   0.127   1.238   5.405 -0.9622  2.5107 -1.6974
 4832SOL    HW225956   0.155   1.380   5.414  3.3492  2.0832  0.1286
 4833SOL     OW25957   0.242   0.537   3.934 -0.4165 -0.0980 -0.4261
 4833SOL    HW125958   0.280   0.618   3.901  0.0833 -0.2259 -0.1647
 4833SOL    HW225959   0.198   0.507   3.855  0.6621  1.3946 -1.5985
 4834SOL     OW25960   3.892   0.572  13.624 -0.2605 -0.1790 -0.5596
 4834SOL    HW125961   3.964   0.618  13.668 -2.1471  0.3483  1.9908
 4834SOL    HW225962   3.826   0.642  13.619 -1.4512 -1.2182  0.6407
 4835SOL     OW25963   4.230   2.172   5.970  0.2096 -0.2916 -0.3184
 4835SOL    HW125964   4.280   2.190   5.891 -1.7166 -0.4757 -1.5718
 4835SOL    HW225965   4.208   2.080   5.958 -0.8886  0.0658 -1.0732
 4836SOL     OW25966   3.208   3.397   4.909 -0.1900  0.6940  0.9595
 4836SOL    HW125967   3.184   3.392   5.001 -0.2661  0.9874  0.9549
 4836SOL    HW225968   3.278   3.332   4.900  0.5909  1.8528 -1.5912
 4837SOL     OW25969   2.185   4.220   3.803  0.0046  0.1360  0.2573
 4837SOL    HW125970   2.159   4.195   3.715  1.1282 -0.7283  0.1694
 4837SOL    HW225971   2.187   4.316   3.800  1.2363  0.0029 -2.8769
 4838SOL     OW25972   4.712   1.619  17.428 -0.3481  0.0630 -0.1278
 4838SOL    HW125973   0.015   1.662  17.346  0.9113  0.5559  0.4859
 4838SOL    HW225974   4.684   1.691  17.484 -0.9788  0.0964 -0.4865
 4839SOL     OW25975   3.581   1.409   4.626 -0.1122  0.1597  0.4441
 4839SOL    HW125976   3.646   1.339   4.637  0.8294  0.6859 -1.7390
 4839SOL    HW225977   3.602   1.458   4.705  2.0593  0.7780 -0.4960
 4840SOL     OW25978   1.568   0.013   7.097 -0.1242  0.4337 -0.2689
 4840SOL    HW125979   1.636   0.077   7.119 -1.2167  1.0108  1.3944
 4840SOL    HW225980   1.584   4.670   7.167  0.2573  0.4619 -0.3285
 4841SOL     OW25981   1.158   0.435   2.308  0.5904 -0.3680 -0.1587
 4841SOL    HW125982   1.168   0.340   2.307  0.2073 -0.4042 -0.9327
 4841SOL    HW225983   1.074   0.427   2.262 -0.3765 -1.5332  1.8093
 4842SOL     OW25984   3.074   4.545   1.438  0.4542 -0.2733 -0.6818
 4842SOL    HW125985   3.043   4.579   1.355  4.0793 -0.0191 -1.9347
 4842SOL    HW225986   3.161   4.512   1.416  0.4263 -0.9460  0.1844
 4843SOL     OW25987   1.660   2.149   6.559  0.0227 -0.1090  0.1785
 4843SOL    HW125988   1.703   2.172   6.477  0.5757 -0.2913  0.4184
 4843SOL    HW225989   1.707   2.198   6.627 -1.2140  2.0864 -0.5337
 4844SOL     OW25990   0.563   0.683  11.696 -0.4555 -0.5013  0.2251
 4844SOL    HW125991   0.599   0.650  11.614  2.8329 -0.3306  1.5902
 4844SOL    HW225992   0.613   0.629  11.757  1.4679  0.3771 -0.5541
 4845SOL     OW25993   3.731   3.780   5.571 -0.3943  0.1363  0.0747
 4845SOL    HW125994   3.797   3.728   5.525  1.5318  3.4182 -0.7964
 4845SOL    HW225995   3.751   3.751   5.660 -0.2315  0.3881  0.1202
 4846SOL     OW25996   0.477   2.217  16.743  0.0994  0.3793  0.0373
 4846SOL    HW125997   0.566   2.248  16.730  0.8800 -1.6572  0.4655
 4846SOL    HW225998   0.444   2.302  16.771  1.1567 -0.2332  3.2087
 4847SOL     OW25999   3.231   4.261   8.295  0.2733 -0.5644 -0.8083
 4847SOL    HW126000   3.281   4.249   8.376  0.8873  1.9093 -0.8163
 4847SOL    HW226001   3.175   4.184   8.300  0.9248 -0.9450  0.8532
 4848SOL     OW26002   0.739   3.970   4.030  0.0165  0.1906 -0.6516
 4848SOL    HW126003   0.763   4.033   4.097  2.7126 -0.7154 -0.7699
 4848SOL    HW226004   0.822   3.965   3.982 -0.9515 -2.0524 -2.0619
 4849SOL     OW26005   3.275   4.590   9.741  0.1913  0.7312  0.0767
 4849SOL    HW126006   3.224   4.513   9.715  1.0333  0.3771 -0.5143
 4849SOL    HW226007   3.352   4.553   9.785 -1.0027 -0.4707  1.1700
 4850SOL     OW26008   1.598   0.074   4.981 -0.0787  0.2907  0.0665
 4850SOL    HW126009   1.588   0.142   5.047 -1.1385  1.0499 -0.8731
 4850SOL    HW226010   1.531   0.084   4.913  0.0105 -0.1732 -0.0931
 4851SOL     OW26011   2.678   3.503  13.559 -0.6026 -0.4532  0.3036
 4851SOL    HW126012   2.689   3.408  13.559 -1.0945 -0.5324 -2.8110
 4851SOL    HW226013   2.659   3.523  13.467  2.1728  0.3966 -0.0655
 4852SOL     OW26014   0.418   3.632  12.100 -0.1296  0.5622  0.1890
 4852SOL    HW126015   0.456   3.720  12.103 -0.1955  0.5503  1.5677
 4852SOL    HW226016   0.326   3.657  12.102 -0.0863  0.7320 -0.0152
 4853SOL     OW26017   3.483   3.660  15.221  0.6791 -0.4863 -0.6970
 4853SOL    HW126018   3.462   3.698  15.306 -1.1055  1.5651 -2.0463
 4853SOL    HW226019   3.578   3.674  15.218  0.4508  0.8317 -2.0469
 4854SOL     OW26020   4.570   1.594  10.896  0.1947  0.2637  0.7748
 4854SOL    HW126021   4.515   1.672  10.905  1.4849  1.2081  0.4210
 4854SOL    HW226022   4.618   1.603  10.814  1.3043 -1.7062  1.1921
 4855SOL     OW26023   0.083   4.687   8.511 -0.2780 -0.7871  0.8158
 4855SOL    HW126024   0.019   4.657   8.575  2.1770 -2.5448  2.4335
 4855SOL    HW226025   0.052   0.057   8.504  1.4973 -0.0876  2.1009
 4856SOL     OW26026   2.617   0.531   4.202  0.0474  0.5271  0.4204
 4856SOL    HW126027   2.540   0.588   4.208 -0.1932 -0.0011  2.5611
 4856SOL    HW226028   2.686   0.594   4.183 -1.5313  2.2930  0.6185
 4857SOL     OW26029   3.496   2.943   8.007 -0.0184  0.0937  0.3487
 4857SOL    HW126030   3.490   3.038   8.020  2.0954  0.2956 -0.0722
 4857SOL    HW226031   3.553   2.909   8.076 -1.2263 -1.1258  0.7403
 4858SOL     OW26032   3.221   0.621   7.342 -0.5495  0.1909  0.3816
 4858SOL    HW126033   3.156   0.634   7.411  0.8620 -1.1922  1.9546
 4858SOL    HW226034   3.241   0.708   7.306 -0.5839 -0.7049 -1.8299
 4859SOL     OW26035   0.042   1.538   3.663  0.0295 -0.1415 -0.0402
 4859SOL    HW126036   0.012   1.495   3.583 -0.3581 -0.0298  0.0423
 4859SOL    HW226037   4.681   1.527   3.712  0.1031  1.6077  0.4492
 4860SOL     OW26038   1.866   0.321   8.978 -0.5803  0.2780  0.0919
 4860SOL    HW126039   1.865   0.321   8.882  2.8820  2.7319  0.0592
 4860SOL    HW226040   1.773   0.334   8.998 -0.3943  2.0314 -0.2363
 4861SOL     OW26041   2.747   0.803   7.028 -0.4822 -0.1850  0.1710
 4861SOL    HW126042   2.829   0.834   7.067  0.9330 -1.1884 -1.9586
 4861SOL    HW226043   2.706   0.878   6.985  0.8253  1.1110  1.1811
 4862SOL     OW26044   4.297   2.332   6.377 -0.0564 -0.3771 -0.2939
 4862SOL    HW126045   4.345   2.254   6.348 -0.5318 -0.8301  0.1376
 4862SOL    HW226046   4.266   2.352   6.289  1.0675 -0.6643 -0.7464
 4863SOL     OW26047   4.387   3.821   8.771  0.0931  0.0539  0.9239
 4863SOL    HW126048   4.406   3.873   8.694 -0.0268 -3.0626 -1.2168
 4863SOL    HW226049   4.472   3.796   8.806  0.4226  0.4544  0.4086
 4864SOL     OW26050   0.517   3.287   3.924  0.5419 -0.0413  0.4936
 4864SOL    HW126051   0.572   3.351   3.969  0.9314 -1.6390  2.2671
 4864SOL    HW226052   0.458   3.262   3.994 -0.5986  1.1661 -0.0489
 4865SOL     OW26053   3.601   3.627   8.117 -0.1752 -0.1723  0.6329
 4865SOL    HW126054   3.529   3.678   8.079  0.1457  0.1290  0.4206
 4865SOL    HW226055   3.670   3.628   8.050  2.4740  2.3434  3.4130
 4866SOL     OW26056   1.801   0.063   5.988  0.6083  0.4241 -0.1002
 4866SOL    HW126057   1.873   0.112   6.030 -0.4869  1.3430  0.7138
 4866SOL    HW226058   1.754   0.036   6.067  1.9143 -2.0529 -0.1826
 4867SOL     OW26059   1.807   1.544   2.301 -0.0133  0.4517  0.3248
 4867SOL    HW126060   1.789   1.474   2.365  0.9783  1.6127  1.8676
 4867SOL    HW226061   1.863   1.602   2.353 -2.1023  2.1118  0.6945
 4868SOL     OW26062   1.559   1.655   2.284  0.5866 -0.0659  0.1774
 4868SOL    HW126063   1.644   1.613   2.271  1.2852  1.4943 -0.2914
 4868SOL    HW226064   1.505   1.631   2.209 -1.9883  0.5313  1.8315
 4869SOL     OW26065   3.712   0.400   2.144 -0.4275  0.0910  0.0165
 4869SOL    HW126066   3.780   0.345   2.105 -1.6112 -0.8154 -0.7984
 4869SOL    HW226067   3.685   0.347   2.219 -1.1145 -0.8611 -0.9043
 4870SOL     OW26068   2.591   0.118   2.845 -0.4879 -0.1398 -0.4627
 4870SOL    HW126069   2.589   0.035   2.891  1.4597  0.8271  1.3752
 4870SOL    HW226070   2.522   0.164   2.895  0.8985  0.9695  0.4293
 4871SOL     OW26071   3.672   2.682  11.581  0.5762 -0.3486  0.5829
 4871SOL    HW126072   3.662   2.591  11.553  0.5013 -0.8583  2.2676
 4871SOL    HW226073   3.748   2.668  11.639 -0.0396  0.1046  1.5046
 4872SOL     OW26074   3.071   2.404   8.645 -0.3074  0.1541  0.3313
 4872SOL    HW126075   3.071   2.468   8.574  0.3961  0.4367  0.5828
 4872SOL    HW226076   3.096   2.460   8.719  1.1365  2.6385 -2.0410
 4873SOL     OW26077   3.663   1.636   6.777  0.1013 -0.4038  0.1750
 4873SOL    HW126078   3.629   1.594   6.698  0.3544 -2.0290  0.9242
 4873SOL    HW226079   3.652   1.557   6.831  0.3854 -1.4277 -1.2501
 4874SOL     OW26080   3.315   4.340   9.298  0.7349 -0.2977 -0.2743
 4874SOL    HW126081   3.395   4.392   9.284  0.1873  0.7167  0.3813
 4874SOL    HW226082   3.285   4.389   9.375  0.4102 -1.1175  0.1117
 4875SOL     OW26083   3.023   0.657  15.935 -0.1993 -0.1273  0.5549
 4875SOL    HW126084   3.031   0.735  15.990 -0.6312  2.0388 -2.4085
 4875SOL    HW226085   3.117   0.637  15.932 -0.3744 -0.7890 -0.7572
 4876SOL     OW26086   1.264   4.410   6.434 -0.0459 -0.0483 -0.1707
 4876SOL    HW126087   1.344   4.398   6.383  0.4893 -0.7471  0.8117
 4876SOL    HW226088   1.287   4.341   6.496 -0.1981 -0.4451 -0.5605
 4877SOL     OW26089   3.854   2.224  15.767  0.3359  0.2107  0.2008
 4877SOL    HW126090   3.913   2.246  15.840  0.7832  0.2128 -0.1607
 4877SOL    HW226091   3.859   2.131  15.788  2.4467  0.1114 -0.7438
 4878SOL     OW26092   0.494   2.657   4.141  0.2022  0.0955 -0.4689
 4878SOL    HW126093   0.446   2.714   4.201 -1.2222 -1.2786 -0.3019
 4878SOL    HW226094   0.576   2.671   4.189 -0.7226  2.5058  0.4150
 4879SOL     OW26095   1.948   3.166  13.355  0.0683  0.3305 -0.6434
 4879SOL    HW126096   2.043   3.160  13.368  0.3883  2.9593 -1.6679
 4879SOL    HW226097   1.950   3.246  13.302  2.2076  0.0045 -1.0480
 4880SOL     OW26098   0.146   2.733   8.160  0.2059 -0.5333  0.4617
 4880SOL    HW126099   0.136   2.825   8.183  0.5050  0.2722 -2.5797
 4880SOL    HW226100   0.183   2.740   8.072  0.3435  1.1449  0.6430
 4881SOL     OW26101   0.811   0.314   2.418 -0.0234 -0.3305  0.0490
 4881SOL    HW126102   0.754   0.388   2.439  0.4289 -0.2340  0.9675
 4881SOL    HW226103   0.789   0.294   2.327 -3.1924  0.2504  0.6899
 4882SOL     OW26104   0.962   3.709  12.807 -0.0892 -0.5105  0.2383
 4882SOL    HW126105   0.868   3.719  12.794  0.1668  2.9752  1.1043
 4882SOL    HW226106   0.957   3.636  12.868 -1.3731 -1.9874 -1.6369
 4883SOL     OW26107   3.272   2.552   6.177  0.2601  0.1732  0.5400
 4883SOL    HW126108   3.219   2.560   6.098  1.8056  0.0957 -0.5209
 4883SOL    HW226109   3.346   2.503   6.139 -0.2238  0.5714 -0.9184
 4884SOL     OW26110   0.863   4.646   0.089 -0.2860 -0.2080 -0.4013
 4884SOL    HW126111   0.848   4.602   0.005 -0.6388  0.1232 -0.5138
 4884SOL    HW226112   0.957   4.654   0.070 -0.1324  2.0737  1.3340
 4885SOL     OW26113   4.169   0.248   1.327  0.5099  0.2773 -0.5624
 4885SOL    HW126114   4.138   0.338   1.316  1.3065  0.5279 -0.7307
 4885SOL    HW226115   4.221   0.237   1.247  1.7083 -3.0610  0.6665
 4886SOL     OW26116   3.353   3.704   4.629 -0.4125 -0.1581  0.5066
 4886SOL    HW126117   3.380   3.757   4.554 -0.5603 -0.9840 -0.1345
 4886SOL    HW226118   3.258   3.720   4.629  0.1128  3.1121 -0.4539
 4887SOL     OW26119   0.167   4.249  16.478 -0.2978 -0.2442  0.1265
 4887SOL    HW126120   0.093   4.306  16.456 -1.6378 -1.2017  2.1681
 4887SOL    HW226121   0.170   4.259  16.573  0.2119  1.1850 -0.0314
 4888SOL     OW26122   1.960   1.225   6.079  0.0579 -0.2306  0.5047
 4888SOL    HW126123   1.975   1.239   5.985 -1.1509 -3.2923 -0.1314
 4888SOL    HW226124   2.035   1.167   6.095  2.0748  2.6815  1.7246
 4889SOL     OW26125   0.094   2.811   5.887 -0.1221 -0.4078 -0.0876
 4889SOL    HW126126   0.148   2.889   5.902  0.5729 -1.1947  1.4673
 4889SOL    HW226127   0.100   2.765   5.970 -1.1598  1.0958  0.8129
 4890SOL     OW26128   4.156   0.451  12.764  0.6913  0.1578 -0.0562
 4890SOL    HW126129   4.222   0.401  12.715 -1.7870 -1.7606 -1.4299
 4890SOL    HW226130   4.178   0.425  12.854  1.6552 -0.4243 -0.4584
 4891SOL     OW26131   1.998   1.805   5.597 -0.2954 -0.7028 -0.3832
 4891SOL    HW126132   1.958   1.840   5.676 -4.6538 -1.5317 -2.2028
 4891SOL    HW226133   2.083   1.848   5.607  0.3058 -2.0886  0.4220
 4892SOL     OW26134   2.171   1.520  16.476 -0.0379 -0.2531 -1.1068
 4892SOL    HW126135   2.266   1.516  16.470 -0.0165  0.0778 -0.9753
 4892SOL    HW226136   2.167   1.536  16.570 -0.2093  0.8263 -1.2977
 4893SOL     OW26137   0.390   0.071  15.616  0.0787  0.0873  0.8554
 4893SOL    HW126138   0.415   0.036  15.701 -3.5015 -0.9411  1.4758
 4893SOL    HW226139   0.446   0.149  15.618  2.3316 -1.5612  1.1622
 4894SOL     OW26140   3.538   2.366  13.529  0.4875 -0.5252  0.0928
 4894SOL    HW126141   3.448   2.338  13.546 -0.0627  3.3906  3.5283
 4894SOL    HW226142   3.587   2.338  13.607  0.3703 -1.9966 -0.3464
 4895SOL     OW26143   0.235   0.315  12.093 -0.2474  0.0243  0.3256
 4895SOL    HW126144   0.214   0.259  12.018  1.0010  0.4086 -0.3177
 4895SOL    HW226145   0.295   0.259  12.141  1.8201 -1.5517 -4.0732
 4896SOL     OW26146   0.882   3.136  13.389 -0.3501  0.3134 -0.0261
 4896SOL    HW126147   0.915   3.214  13.434 -1.6021  0.6667  0.2683
 4896SOL    HW226148   0.874   3.081  13.467 -0.2841 -1.6757 -1.4299
 4897SOL     OW26149   0.376   2.402   8.275 -0.4703  0.0633 -0.2894
 4897SOL    HW126150   0.389   2.491   8.241  1.2836  0.2077  0.7243
 4897SOL    HW226151   0.290   2.380   8.241 -1.0649 -0.4485  1.5748
 4898SOL     OW26152   4.714   4.430  10.952 -0.5081  0.1316  0.3034
 4898SOL    HW126153   0.031   4.502  10.901  2.5303 -1.3723  0.3987
 4898SOL    HW226154   4.684   4.485  11.024  0.0072  0.7265  0.0675
 4899SOL     OW26155   2.398   1.413   3.285  0.3227  0.5817 -0.5801
 4899SOL    HW126156   2.313   1.456   3.277  0.5549  1.1880  0.2477
 4899SOL    HW226157   2.453   1.489   3.303  0.6844  0.3961 -0.8967
 4900SOL     OW26158   1.954   3.037   3.222  0.3675 -0.0891 -0.3037
 4900SOL    HW126159   2.029   3.052   3.165  1.3553 -2.3258  0.4032
 4900SOL    HW226160   1.893   3.108   3.201 -0.1731 -0.2217  0.8144
 4901SOL     OW26161   0.542   1.650  10.161 -0.5407  0.2923 -0.4797
 4901SOL    HW126162   0.583   1.593  10.226  0.7128 -0.3808 -1.8655
 4901SOL    HW226163   0.522   1.732  10.207 -1.6673 -0.0708 -0.3304
 4902SOL     OW26164   3.479   0.792   2.922 -0.1446  0.1657 -0.4652
 4902SOL    HW126165   3.421   0.858   2.960  0.7840  0.9317 -0.3519
 4902SOL    HW226166   3.413   0.740   2.878  0.1871 -1.6487  1.1865
 4903SOL     OW26167   2.413   1.688  16.796  0.0499 -0.0414  0.4649
 4903SOL    HW126168   2.406   1.654  16.885  0.3761  1.3513  1.0141
 4903SOL    HW226169   2.506   1.688  16.776  0.2884  0.1991  1.6249
 4904SOL     OW26170   4.089   1.727   3.969  0.1104 -0.4274 -0.7397
 4904SOL    HW126171   4.011   1.762   4.012  1.8357  1.8856  0.5157
 4904SOL    HW226172   4.119   1.802   3.918 -1.9558  0.4279 -0.7137
 4905SOL     OW26173   0.850   3.696   0.535 -0.1918 -0.0527  0.6143
 4905SOL    HW126174   0.803   3.669   0.457  0.8017  0.0831 -0.0253
 4905SOL    HW226175   0.786   3.762   0.560 -2.5648 -1.5944 -1.3882
 4906SOL     OW26176   0.829   1.813   8.649 -0.0153  0.7721 -0.5508
 4906SOL    HW126177   0.836   1.892   8.596 -3.4088  0.5669 -1.3140
 4906SOL    HW226178   0.805   1.851   8.733 -0.2683  1.5225 -0.9677
 4907SOL     OW26179   4.363   2.259   7.290 -0.1713  0.0772  0.1775
 4907SOL    HW126180   4.455   2.272   7.312 -0.3417  1.3684  0.1304
 4907SOL    HW226181   4.369   2.244   7.196  0.2364  1.7753 -0.0730
 4908SOL     OW26182   0.083   2.694   3.360  0.2230  0.4758  0.0878
 4908SOL    HW126183   0.042   2.620   3.315 -0.3785  1.3084 -0.7550
 4908SOL    HW226184   0.005   2.734   3.397 -1.2338 -2.8483  0.5650
 4909SOL     OW26185   3.006   3.187  16.284 -0.1007 -0.1480  0.3342
 4909SOL    HW126186   2.950   3.259  16.258  0.6616  0.6319  0.8512
 4909SOL    HW226187   3.081   3.209  16.228 -1.5816 -0.0577 -1.5911
 4910SOL     OW26188   2.098   4.092   4.844 -0.9009  0.3501  0.0479
 4910SOL    HW126189   2.167   4.038   4.806 -0.0476 -0.3488  2.6393
 4910SOL    HW226190   2.148   4.152   4.899 -2.2958 -0.4672  2.1977
 4911SOL     OW26191   1.047   0.182   7.767 -0.1870 -0.2166  0.0896
 4911SOL    HW126192   1.069   0.098   7.726  0.0510 -0.3838  0.5650
 4911SOL    HW226193   1.111   0.183   7.838  1.7000  1.1623 -1.6002
 4912SOL     OW26194   1.896   1.698   0.846  0.0580  0.0467 -0.5645
 4912SOL    HW126195   1.851   1.613   0.847 -1.8531  1.0938  1.7441
 4912SOL    HW226196   1.878   1.737   0.761 -0.5311  2.3179  0.6228
 4913SOL     OW26197   2.313   1.470  14.876  0.7820  0.1677 -0.6219
 4913SOL    HW126198   2.367   1.440  14.803 -0.2731 -1.9968 -0.5169
 4913SOL    HW226199   2.383   1.482  14.941 -0.0836 -0.6763  0.4821
 4914SOL     OW26200   1.389   2.545   3.390 -0.4338 -0.0171 -0.1353
 4914SOL    HW126201   1.299   2.541   3.356 -1.3071  1.5187  2.0384
 4914SOL    HW226202   1.409   2.460   3.429 -0.3118  0.1300  0.1204
 4915SOL     OW26203   1.570   0.800   6.790  0.0492 -0.7059 -0.0608
 4915SOL    HW126204   1.615   0.874   6.749 -1.9335  1.5790  1.8819
 4915SOL    HW226205   1.482   0.835   6.801 -0.3751 -1.3443 -1.3762
 4916SOL     OW26206   4.256   1.693   7.714 -0.0109 -0.1462  0.2731
 4916SOL    HW126207   4.307   1.680   7.794  0.3612 -1.1832 -0.1377
 4916SOL    HW226208   4.250   1.788   7.705 -0.6578 -0.0272  1.9403
 4917SOL     OW26209   4.644   3.596   0.353 -0.5294  0.8791  0.9803
 4917SOL    HW126210   4.591   3.666   0.392  0.9226  1.1514  2.4741
 4917SOL    HW226211   4.578   3.528   0.337 -0.3047  0.7604  0.5515
 4918SOL     OW26212   3.926   4.079   4.337 -0.5301  0.4373  0.5341
 4918SOL    HW126213   3.842   4.095   4.295 -0.3068  0.7355  0.1965
 4918SOL    HW226214   3.930   4.146   4.406  1.0909 -3.1909  3.9579
 4919SOL     OW26215   3.672   2.669   9.829  0.3947 -0.0019 -0.1648
 4919SOL    HW126216   3.614   2.676   9.754 -3.5847  0.1733  2.9077
 4919SOL    HW226217   3.729   2.746   9.819  0.5366  0.2799  2.6477
 4920SOL     OW26218   4.175   0.039   8.596  0.3325  0.4436  0.5013
 4920SOL    HW126219   4.084   0.010   8.608  0.5041 -0.8368 -1.2537
 4920SOL    HW226220   4.227   4.679   8.585 -2.5626 -1.0137 -2.4235
 4921SOL     OW26221   3.448   0.653   8.884  0.6025  0.3182 -0.1677
 4921SOL    HW126222   3.423   0.631   8.974 -0.5914  2.4069  0.0233
 4921SOL    HW226223   3.454   0.749   8.888  1.4694  0.3285 -1.7424
 4922SOL     OW26224   2.208   2.148   7.486 -0.1177 -0.7134 -0.1485
 4922SOL    HW126225   2.277   2.082   7.496  1.6519  1.0221 -0.9672
 4922SOL    HW226226   2.181   2.170   7.575 -1.9454  1.6420 -1.2945
 4923SOL     OW26227   0.319   2.222  12.372  0.9961  0.3054 -0.3828
 4923SOL    HW126228   0.281   2.272  12.300 -1.9930 -1.7213 -0.2103
 4923SOL    HW226229   0.246   2.205  12.432  0.3966  0.5966 -1.0335
 4924SOL     OW26230   1.998   1.705   2.865 -0.3800  0.0146  0.3184
 4924SOL    HW126231   2.044   1.657   2.934 -0.0750  1.1802  0.9357
 4924SOL    HW226232   2.027   1.659   2.787 -1.6024 -2.0757  1.0949
 4925SOL     OW26233   0.905   4.502   4.966 -0.2459  0.2202  0.0395
 4925SOL    HW126234   0.892   4.415   5.005  1.3950  0.2020  0.5556
 4925SOL    HW226235   0.932   4.464   4.883  1.3356  0.3017  0.5155
 4926SOL     OW26236   1.799   4.288   6.890 -0.3493  0.1416  0.4159
 4926SOL    HW126237   1.738   4.214   6.895  1.0396 -0.9019  1.8176
 4926SOL    HW226238   1.741   4.360   6.915 -0.5334  0.2474 -0.3176
 4927SOL     OW26239   1.648   0.394   7.745  0.4778 -0.4850  0.5697
 4927SOL    HW126240   1.620   0.343   7.670  1.6897  2.1110 -1.6319
 4927SOL    HW226241   1.713   0.446   7.699 -1.1616 -0.6292 -1.9195
 4928SOL     OW26242   3.276   2.810   4.822  0.0491 -0.7126  0.4022
 4928SOL    HW126243   3.324   2.775   4.747  0.8213 -2.3841  1.6618
 4928SOL    HW226244   3.202   2.750   4.820 -0.3283 -0.2403  0.0258
 4929SOL     OW26245   1.010   2.032  15.738 -0.0275 -0.5724 -0.1443
 4929SOL    HW126246   0.946   2.080  15.791  1.2310 -0.0328  0.8932
 4929SOL    HW226247   1.011   1.957  15.798  0.3627 -2.4009 -2.4396
 4930SOL     OW26248   1.864   0.995   3.369 -0.6889 -0.3523 -0.5806
 4930SOL    HW126249   1.776   0.961   3.387 -0.0538 -1.0559  1.1878
 4930SOL    HW226250   1.917   0.924   3.335 -0.2619 -1.1256  1.6702
 4931SOL     OW26251   4.162   4.591   7.242 -0.3999 -0.2452 -0.3486
 4931SOL    HW126252   4.107   4.517   7.265 -0.9704  0.5603  0.8388
 4931SOL    HW226253   4.096   4.660   7.237  0.2888  0.3007 -1.8664
 4932SOL     OW26254   0.186   4.425   8.780  0.2909  0.3213  0.0912
 4932SOL    HW126255   0.263   4.481   8.771 -0.2554  1.3922  2.0921
 4932SOL    HW226256   0.206   4.373   8.857  0.7836  3.1492  1.8642
 4933SOL     OW26257   3.953   3.614   5.501 -0.1182 -0.2228 -0.0477
 4933SOL    HW126258   4.019   3.575   5.559 -0.7337  0.4634  1.1088
 4933SOL    HW226259   3.901   3.535   5.486 -2.0738  1.1151 -0.2856
 4934SOL     OW26260   0.012   4.031   2.254 -0.1330  0.0089  0.0870
 4934SOL    HW126261   0.043   4.111   2.212  1.7717 -0.8032 -0.0380
 4934SOL    HW226262   0.090   3.977   2.242  1.0703  1.5671  0.8407
 4935SOL     OW26263   0.057   0.876  12.360 -0.4397  0.1063 -0.2617
 4935SOL    HW126264   0.020   0.919  12.283  0.1312  0.2735 -0.4374
 4935SOL    HW226265   0.143   0.915  12.374 -0.2979 -0.2076 -0.2749
 4936SOL     OW26266   3.095   0.087   4.506 -0.0591 -0.6295 -0.3245
 4936SOL    HW126267   3.049   0.167   4.531  0.2254 -0.7566  0.6352
 4936SOL    HW226268   3.149   0.074   4.584 -2.9109 -0.3901  1.6894
 4937SOL     OW26269   4.227   3.088   0.595 -0.4877  0.1515 -0.0574
 4937SOL    HW126270   4.228   3.145   0.672  1.5957  1.5593 -1.1236
 4937SOL    HW226271   4.281   3.013   0.618 -1.0788  0.0887  1.1308
 4938SOL     OW26272   0.904   1.259   6.431  0.1060 -0.5652 -0.6556
 4938SOL    HW126273   0.989   1.245   6.473  0.1234 -1.1068 -0.8737
 4938SOL    HW226274   0.850   1.183   6.452 -0.4594 -0.1227 -0.5085
 4939SOL     OW26275   4.001   2.239   5.149  0.4841 -0.1798  0.6646
 4939SOL    HW126276   3.956   2.324   5.148 -0.3316 -0.5943  3.0969
 4939SOL    HW226277   3.931   2.175   5.143 -1.8173  2.4719 -0.8293
 4940SOL     OW26278   0.473   0.709   7.549 -0.0293  0.4465 -0.0615
 4940SOL    HW126279   0.383   0.675   7.553  0.7341 -1.5448  0.2587
 4940SOL    HW226280   0.470   0.769   7.475 -0.6853  0.6367  0.1176
 4941SOL     OW26281   4.079   0.005   3.761  0.1716 -0.3609  0.3244
 4941SOL    HW126282   4.075   4.653   3.699  0.1018 -0.1457  0.0774
 4941SOL    HW226283   4.125   4.686   3.834 -1.5985 -0.7783  1.2223
 4942SOL     OW26284   1.256   1.190   1.454  0.4900  0.1015  0.8170
 4942SOL    HW126285   1.350   1.202   1.463  0.5608  0.3798 -0.2664
 4942SOL    HW226286   1.258   1.141   1.371  1.5443  1.7637 -0.1389
 4943SOL     OW26287   4.701   3.914  11.398  0.3278  1.0213 -0.2880
 4943SOL    HW126288   0.043   3.954  11.338  1.3932  0.8515  0.7100
 4943SOL    HW226289   4.629   3.893  11.338  0.5740 -0.6862  0.0156
 4944SOL     OW26290   1.556   1.764   8.134 -0.4135  0.2180 -0.1161
 4944SOL    HW126291   1.560   1.789   8.227  0.6544  0.6225 -0.2743
 4944SOL    HW226292   1.642   1.724   8.127 -0.7295 -0.1638 -1.6787
 4945SOL     OW26293   3.017   0.160   7.095  0.1515  0.3773 -0.0428
 4945SOL    HW126294   3.000   0.128   7.183  0.6738  0.9777  0.2766
 4945SOL    HW226295   2.951   0.228   7.088  0.8073  0.8967 -1.2419
 4946SOL     OW26296   1.279   4.621   4.490  0.4432  0.6897  0.0029
 4946SOL    HW126297   1.371   4.647   4.491  0.8969 -0.9404  1.2351
 4946SOL    HW226298   1.236   4.706   4.493  0.7118  0.8445 -0.6841
 4947SOL     OW26299   3.580   0.837  11.863 -0.2816  0.3687  0.2746
 4947SOL    HW126300   3.589   0.928  11.891  2.1808  0.0953  0.3050
 4947SOL    HW226301   3.494   0.822  11.822  0.0109  3.0198 -1.3811
 4948SOL     OW26302   4.425   1.601   5.958 -0.0575  0.2608 -0.0803
 4948SOL    HW126303   4.410   1.683   6.006  0.2131 -0.1219  0.6588
 4948SOL    HW226304   4.504   1.575   6.005 -1.0828 -1.1933  0.8449
 4949SOL     OW26305   3.361   1.438   2.489 -0.9151 -0.3437  0.3677
 4949SOL    HW126306   3.398   1.493   2.557 -0.1753 -2.2191  1.4848
 4949SOL    HW226307   3.308   1.510   2.453  1.2990  0.7303 -0.7319
 4950SOL     OW26308   3.565   4.524  11.699  0.0257 -0.9522  0.2675
 4950SOL    HW126309   3.560   4.431  11.674  1.6021 -1.0713  0.3968
 4950SOL    HW226310   3.565   4.503  11.792  1.7298  1.5631  0.8256
 4951SOL     OW26311   0.773   0.432   8.803  0.7547  0.3398  0.3092
 4951SOL    HW126312   0.777   0.389   8.889  2.1252 -0.0164  0.0700
 4951SOL    HW226313   0.744   0.518   8.833 -0.7876  0.7261 -2.3118
 4952SOL     OW26314   4.341   2.877   0.172  0.1810 -0.3113  0.2140
 4952SOL    HW126315   4.417   2.834   0.211 -0.1023 -0.9624  0.0515
 4952SOL    HW226316   4.381   2.958   0.140 -1.2952  0.9178  1.4661
 4953SOL     OW26317   4.587   0.874   7.308  0.4772 -0.0560  0.0923
 4953SOL    HW126318   4.597   0.789   7.352 -0.4537  0.4699  1.3097
 4953SOL    HW226319   4.672   0.907   7.336  1.5910 -0.1006 -3.1560
 4954SOL     OW26320   1.083   3.840   4.309  0.0905 -0.0537  0.2269
 4954SOL    HW126321   1.095   3.791   4.390  1.6511 -0.3851 -0.2179
 4954SOL    HW226322   1.009   3.796   4.265  0.8717 -0.2631 -0.8673
 4955SOL     OW26323   3.294   1.386   7.531 -0.3890 -0.6834 -0.8229
 4955SOL    HW126324   3.336   1.335   7.462 -0.3652 -0.6522 -0.8318
 4955SOL    HW226325   3.202   1.361   7.525 -1.1106  1.5603  0.8159
 4956SOL     OW26326   3.592   3.488   5.741  0.2575  0.1738 -0.3007
 4956SOL    HW126327   3.610   3.399   5.771 -0.4998  0.4566  0.9964
 4956SOL    HW226328   3.626   3.551   5.804 -1.2481  0.3825  0.3171
 4957SOL     OW26329   4.642   2.127   5.412  0.1073 -0.5858  0.2092
 4957SOL    HW126330   4.592   2.194   5.459 -0.7398 -1.1138  0.0503
 4957SOL    HW226331   4.652   2.064   5.482  2.6224  0.5707  0.9115
 4958SOL     OW26332   0.785   3.567  15.347  0.3282 -0.0755 -0.1226
 4958SOL    HW126333   0.728   3.620  15.401 -0.9145 -0.2774 -1.2309
 4958SOL    HW226334   0.812   3.500  15.410 -0.4317  0.6086  0.9045
 4959SOL     OW26335   3.129   2.881   8.911  0.2965 -0.7614 -0.7059
 4959SOL    HW126336   3.223   2.889   8.929  0.3976 -1.3763 -0.9781
 4959SOL    HW226337   3.109   2.973   8.927 -0.8018 -1.2489  0.6159
 4960SOL     OW26338   3.131   1.146   2.128  0.3462  0.6153  0.3878
 4960SOL    HW126339   3.094   1.058   2.141  0.1884  0.3019 -2.1665
 4960SOL    HW226340   3.183   1.159   2.207 -0.2445 -0.5603  0.9745
 4961SOL     OW26341   0.012   0.622   0.254  0.3834  0.0971 -0.5134
 4961SOL    HW126342   0.060   0.703   0.236  2.7969 -1.0573  0.6978
 4961SOL    HW226343   4.644   0.651   0.231  0.9098  2.6762  0.7504
 4962SOL     OW26344   2.456   2.786   2.189 -0.6475 -0.7528  0.4256
 4962SOL    HW126345   2.383   2.785   2.251  0.1925 -0.6972  1.4143
 4962SOL    HW226346   2.466   2.881   2.181 -1.5359 -0.8189 -1.6162
 4963SOL     OW26347   0.402   3.959   6.663  0.2149 -0.5051  0.3102
 4963SOL    HW126348   0.366   3.899   6.598  0.5225 -0.1037 -0.2329
 4963SOL    HW226349   0.490   3.921   6.658  0.4903 -0.0295  1.5197
 4964SOL     OW26350   1.206   0.646  17.521 -0.1127 -0.0784 -0.0609
 4964SOL    HW126351   1.233   0.720  17.575 -0.3754 -0.7267  0.9672
 4964SOL    HW226352   1.129   0.620  17.572  0.6779 -0.6397  0.8562
 4965SOL     OW26353   0.810   1.355  13.972 -0.0191 -0.1750 -0.3102
 4965SOL    HW126354   0.851   1.268  13.971  1.7540  0.6354  0.7715
 4965SOL    HW226355   0.827   1.373  14.064  1.6706  2.0690 -1.0639
 4966SOL     OW26356   4.048   2.357   2.770 -0.4881 -0.3979  0.2313
 4966SOL    HW126357   4.096   2.397   2.697 -1.5239  0.5129  0.0382
 4966SOL    HW226358   4.032   2.272   2.731 -0.9628 -0.0446 -0.3481
 4967SOL     OW26359   4.719   4.132   4.270  0.1150 -0.4744  0.7894
 4967SOL    HW126360   0.044   4.051   4.243 -2.2449 -1.1507 -1.0688
 4967SOL    HW226361   4.629   4.101   4.269  0.0491 -0.2518  0.2953
 4968SOL     OW26362   3.465   3.031   2.966  0.1424 -0.3538  0.2656
 4968SOL    HW126363   3.485   3.006   2.876 -1.2296  0.8553 -0.3803
 4968SOL    HW226364   3.531   3.099   2.978 -1.8198  1.4199  0.9205
 4969SOL     OW26365   0.719   3.969   3.183 -0.1689  0.1405 -0.6320
 4969SOL    HW126366   0.745   3.901   3.246 -0.7445 -0.6606 -1.2570
 4969SOL    HW226367   0.633   3.993   3.217  0.3504  0.6717  0.2929
 4970SOL     OW26368   3.283   0.655   2.728  0.0849  0.0329 -0.3328
 4970SOL    HW126369   3.228   0.695   2.661  0.4910  1.2796  0.0823
 4970SOL    HW226370   3.265   0.561   2.728  0.1917  0.0081  0.7092
 4971SOL     OW26371   3.581   3.474   3.622 -0.0149 -0.5366  0.0791
 4971SOL    HW126372   3.618   3.497   3.537  0.7301  0.2703  0.6191
 4971SOL    HW226373   3.506   3.534   3.630  1.0541  1.1466 -2.7331
 4972SOL     OW26374   2.048   2.710  15.973  0.3451 -0.0464  0.0890
 4972SOL    HW126375   2.097   2.673  15.899  1.8259 -0.6307  1.3744
 4972SOL    HW226376   1.954   2.696  15.955  0.5325  1.1383 -1.8848
 4973SOL     OW26377   2.645   1.662   2.655  0.4327  0.5193  0.1493
 4973SOL    HW126378   2.697   1.664   2.735 -3.8109  0.8791  2.9223
 4973SOL    HW226379   2.608   1.574   2.653 -0.5746  0.9349  0.4765
 4974SOL     OW26380   3.056   4.060   9.027 -0.4175 -0.2925  0.7500
 4974SOL    HW126381   3.010   4.141   9.050  1.3072  0.4053  1.7611
 4974SOL    HW226382   3.132   4.056   9.085  0.4337 -2.1461 -0.5064
 4975SOL     OW26383   2.423   0.129   5.054  0.3494 -0.2772 -0.3635
 4975SOL    HW126384   2.410   0.167   5.141  3.1708  0.5392 -0.2970
 4975SOL    HW226385   2.370   0.050   5.064 -0.0771  0.0504 -0.0599
 4976SOL     OW26386   4.484   3.854   1.164 -0.1329  0.4067 -0.0724
 4976SOL    HW126387   4.512   3.938   1.200  0.9115 -1.5337  3.6473
 4976SOL    HW226388   4.564   3.804   1.153 -0.9045 -0.9504  0.4115
 4977SOL     OW26389   4.350   1.951   7.738  0.2660 -0.7384  0.5265
 4977SOL    HW126390   4.349   2.017   7.806 -0.0502 -1.7642  1.5202
 4977SOL    HW226391   4.369   2.003   7.660 -1.7901 -0.0223  0.4952
 4978SOL     OW26392   1.007   1.996   1.730 -0.2591  0.4306  0.0211
 4978SOL    HW126393   1.063   2.049   1.787 -0.8872  0.8446  0.2577
 4978SOL    HW226394   1.057   1.917   1.711 -0.9402 -0.5969  2.4425
 4979SOL     OW26395   4.279   4.391  11.767  0.0176  0.4725 -0.3719
 4979SOL    HW126396   4.350   4.450  11.743  1.3334 -0.6981  0.6253
 4979SOL    HW226397   4.283   4.324  11.700  0.3801  1.7888 -1.6571
 4980SOL     OW26398   0.499   0.363   9.151  0.2370  0.1554 -0.2424
 4980SOL    HW126399   0.540   0.281   9.120 -0.1308 -0.2948  0.4699
 4980SOL    HW226400   0.538   0.382   9.236  0.1300  1.9679 -0.5989
 4981SOL     OW26401   0.022   2.138  10.167  0.6122  0.2076  0.7422
 4981SOL    HW126402   0.051   2.228  10.177 -0.2005  0.6129 -0.6188
 4981SOL    HW226403   4.649   2.157  10.161  0.4368 -1.1568 -0.9969
 4982SOL     OW26404   3.573   4.237  13.058 -0.2733 -0.0360  0.0824
 4982SOL    HW126405   3.568   4.145  13.086  1.2425 -0.3825 -0.7474
 4982SOL    HW226406   3.618   4.234  12.974 -2.8882 -0.0260 -1.2804
 4983SOL     OW26407   0.056   3.128  16.233  0.0542 -0.3929  0.0443
 4983SOL    HW126408   0.035   3.180  16.155 -2.0057 -0.6396  0.4236
 4983SOL    HW226409   0.111   3.195  16.274 -1.4104  0.8724 -0.0371
 4984SOL     OW26410   4.601   3.164   6.793 -0.1131  0.2790  0.4090
 4984SOL    HW126411   4.647   3.236   6.836  1.6464 -0.6564  0.1018
 4984SOL    HW226412   4.618   3.091   6.853  0.1195  0.0056  0.0128
 4985SOL     OW26413   0.780   2.689   4.201 -0.7816 -0.0355  0.7094
 4985SOL    HW126414   0.852   2.752   4.195  0.8963 -1.8666  1.6518
 4985SOL    HW226415   0.783   2.639   4.120  1.4839  0.2433  0.6058
 4986SOL     OW26416   3.943   1.478   6.754  0.0383 -0.2154 -0.1271
 4986SOL    HW126417   3.859   1.451   6.793 -0.8838  0.4270 -1.6631
 4986SOL    HW226418   3.910   1.519   6.674  1.5199  1.1177 -0.0428
 4987SOL     OW26419   1.972   0.555   3.496 -0.6531  0.2307 -0.1838
 4987SOL    HW126420   1.918   0.563   3.417  0.2679  0.8867 -0.7432
 4987SOL    HW226421   2.058   0.568   3.457  0.1236  0.9685  1.7479
 4988SOL     OW26422   3.819   2.983   9.485 -0.4348 -0.5699  0.4991
 4988SOL    HW126423   3.746   2.925   9.461  0.2707 -1.2975  0.1230
 4988SOL    HW226424   3.793   2.996   9.577  1.0802 -0.0926  0.8471
 4989SOL     OW26425   1.288   2.193   8.706  0.6108 -0.1117  0.3769
 4989SOL    HW126426   1.349   2.123   8.730  1.0553  0.0353 -0.3371
 4989SOL    HW226427   1.245   2.208   8.790 -0.8961  0.1711 -0.4552
 4990SOL     OW26428   4.552   0.014  16.837  0.2389  0.4205  0.9022
 4990SOL    HW126429   4.605   0.067  16.897  0.9998  0.4496  0.2098
 4990SOL    HW226430   4.468   0.011  16.883  0.1742 -4.5387  0.3812
 4991SOL     OW26431   3.168   1.427   8.198  0.4094 -0.4494  0.3334
 4991SOL    HW126432   3.261   1.426   8.219  0.5629 -1.2314 -0.4014
 4991SOL    HW226433   3.165   1.442   8.104  1.9825 -3.6595 -0.2131
 4992SOL     OW26434   0.474   0.839   5.928  0.3797 -0.4588 -0.1968
 4992SOL    HW126435   0.516   0.820   6.012  1.0028  0.0840 -0.3838
 4992SOL    HW226436   0.415   0.912   5.946  0.7685 -1.1243  3.7267
 4993SOL     OW26437   0.291   3.831   7.457  0.0688  0.1586  0.2180
 4993SOL    HW126438   0.255   3.831   7.545 -0.4472 -1.7955  0.0029
 4993SOL    HW226439   0.375   3.791   7.480  0.1337  0.5683  0.6881
 4994SOL     OW26440   4.550   1.005   0.797  0.8320  0.7637  0.0686
 4994SOL    HW126441   4.516   0.921   0.829 -0.8885  1.4720  0.1136
 4994SOL    HW226442   4.645   0.998   0.792  0.6298 -1.8210 -0.0332
 4995SOL     OW26443   3.716   2.689   5.361  0.3215 -0.1244  0.1484
 4995SOL    HW126444   3.675   2.691   5.274  2.0760 -1.1493 -0.7107
 4995SOL    HW226445   3.690   2.775   5.392 -0.7760  0.0066 -1.1399
 4996SOL     OW26446   1.916   0.896   5.237  0.1686 -0.7423 -0.1481
 4996SOL    HW126447   1.919   0.832   5.308  2.1014 -2.0982 -1.4436
 4996SOL    HW226448   1.863   0.968   5.270 -0.2763 -2.4659  2.8953
 4997SOL     OW26449   0.211   4.484   7.550 -0.2810 -0.2404 -0.0813
 4997SOL    HW126450   0.123   4.486   7.587 -0.6565  0.7958 -1.0246
 4997SOL    HW226451   0.206   4.512   7.458  2.3895 -0.5589 -0.3457
 4998SOL     OW26452   2.802   3.631   8.549 -0.3025 -0.2835  0.0350
 4998SOL    HW126453   2.883   3.592   8.580  1.8744  4.5359  0.4321
 4998SOL    HW226454   2.814   3.631   8.454 -1.0982  0.1210 -0.0678
 4999SOL     OW26455   1.518   3.907  15.872 -0.5600 -0.1267  0.4467
 4999SOL    HW126456   1.519   3.943  15.961  1.0913 -1.2532  0.8805
 4999SOL    HW226457   1.474   3.829  15.907  0.1611  0.2758  2.2432
 5000SOL     OW26458   3.918   0.647   7.991 -0.2738 -0.3243 -0.4721
 5000SOL    HW126459   3.971   0.612   7.919  0.8456 -0.5312  0.4533
 5000SOL    HW226460   3.967   0.712   8.041 -2.5153  1.1502 -0.1726
 5001SOL     OW26461   0.637   1.839   3.127  0.2886 -0.2171 -0.7402
 5001SOL    HW126462   0.613   1.748   3.146  0.3262 -0.4073 -1.5965
 5001SOL    HW226463   0.728   1.841   3.154 -0.3681  1.8606  1.3732
 5002SOL     OW26464   2.716   3.257   3.404 -0.6977 -0.1579  0.4809
 5002SOL    HW126465   2.802   3.260   3.364 -0.7012  0.9328  0.5600
 5002SOL    HW226466   2.661   3.244   3.327 -0.7441  0.1424  0.4633
 5003SOL     OW26467   3.740   2.433   2.735  0.2495 -0.3061  0.3318
 5003SOL    HW126468   3.815   2.373   2.745 -0.7978 -1.3099  2.2605
 5003SOL    HW226469   3.687   2.393   2.666  0.6964  2.1993 -1.4679
 5004SOL     OW26470   2.860   0.693  10.419  0.0532  0.0693  0.5028
 5004SOL    HW126471   2.907   0.649  10.490 -1.6122 -2.3091  0.1230
 5004SOL    HW226472   2.773   0.655  10.431  0.0154  0.4651  1.4806
 5005SOL     OW26473   3.742   0.576   8.183 -0.1644  0.9225 -0.2926
 5005SOL    HW126474   3.819   0.566   8.128  0.1927 -0.0636  0.3875
 5005SOL    HW226475   3.706   0.661   8.159  0.1304  1.3420  0.7265
 5006SOL     OW26476   0.921   3.337   8.494 -0.2087 -0.3324  0.2540
 5006SOL    HW126477   1.011   3.330   8.525  0.8877  0.2297 -2.8281
 5006SOL    HW226478   0.926   3.280   8.417 -2.5023  0.1020 -0.2408
 5007SOL     OW26479   4.373   0.514   9.463 -0.8811 -0.4891  0.9306
 5007SOL    HW126480   4.417   0.432   9.442 -0.8811 -0.6418  1.5147
 5007SOL    HW226481   4.411   0.571   9.396 -3.1203  0.3213  0.3412
 5008SOL     OW26482   3.984   3.138   9.268  0.2045 -0.0501  0.1632
 5008SOL    HW126483   3.950   3.222   9.236 -0.5858 -0.6062 -0.4402
 5008SOL    HW226484   4.044   3.169   9.336 -1.4377 -0.3250  1.7679
 5009SOL     OW26485   2.803   1.653   6.143  0.6142  0.1985 -0.1232
 5009SOL    HW126486   2.818   1.716   6.073  3.4675  1.0171  1.2252
 5009SOL    HW226487   2.860   1.578   6.122 -2.2021 -1.9368 -0.1138
 5010SOL     OW26488   1.342   0.657  13.609 -0.3069  0.4483  0.3356
 5010SOL    HW126489   1.404   0.665  13.536 -0.3901  0.3762  0.2576
 5010SOL    HW226490   1.315   0.566  13.618 -0.8780  0.7218  1.4461
 5011SOL     OW26491   3.944   0.222   9.049 -0.0277 -0.1449 -0.5055
 5011SOL    HW126492   3.972   0.193   9.135 -1.3470  0.8663  0.2750
 5011SOL    HW226493   3.904   0.307   9.067  0.6637 -0.2077  1.3363
 5012SOL     OW26494   4.074   0.305   2.991 -0.4573  0.0858 -0.0874
 5012SOL    HW126495   4.019   0.242   3.037 -0.0518 -0.8716 -0.8955
 5012SOL    HW226496   4.050   0.385   3.037 -1.2780 -0.4846  0.4625
 5013SOL     OW26497   0.076   1.568   1.404  0.2154  0.0250  0.0446
 5013SOL    HW126498   4.713   1.522   1.414  1.5609 -2.2396  0.7960
 5013SOL    HW226499   0.143   1.503   1.423  0.8862  0.4947 -0.7076
 5014SOL     OW26500   3.812   0.679  12.478 -0.0705 -0.1174  0.3743
 5014SOL    HW126501   3.897   0.716  12.503  0.8012 -0.8736 -1.5059
 5014SOL    HW226502   3.789   0.736  12.405  0.3110  1.7114  1.6720
 5015SOL     OW26503   0.263   4.352   6.423  0.6522 -0.1162  0.3319
 5015SOL    HW126504   0.247   4.441   6.391 -1.2759  0.5188  3.0425
 5015SOL    HW226505   0.178   4.310   6.417  1.0984 -1.0195  0.4128
 5016SOL     OW26506   1.808   3.233   4.006 -0.0547  0.1927 -0.7203
 5016SOL    HW126507   1.878   3.294   4.029 -1.5805  1.3641  0.7366
 5016SOL    HW226508   1.739   3.295   3.983 -0.4030 -0.7661 -2.2554
 5017SOL     OW26509   0.504   1.748   3.680 -0.0547  0.0195 -0.4910
 5017SOL    HW126510   0.492   1.653   3.680  2.1761 -0.2690  0.6517
 5017SOL    HW226511   0.419   1.782   3.651 -0.2400 -0.3260 -0.3447
 5018SOL     OW26512   2.438   0.042   3.810  0.4555 -0.0039  0.1554
 5018SOL    HW126513   2.498   0.103   3.766 -0.5596  0.3250 -0.7790
 5018SOL    HW226514   2.501   4.703   3.852  1.3219  0.6212 -0.2446
 5019SOL     OW26515   4.362   2.934  11.937  0.1673 -0.1315  0.0010
 5019SOL    HW126516   4.315   2.941  11.854  0.5139  1.0502 -0.0969
 5019SOL    HW226517   4.296   2.909  12.002  1.5363  1.7596  2.1212
 5020SOL     OW26518   1.987   1.749   2.445 -0.9235  0.1183  0.0903
 5020SOL    HW126519   1.944   1.830   2.472 -0.5025 -0.3720  2.2019
 5020SOL    HW226520   2.077   1.781   2.433  0.0133 -2.0981  1.2617
 5021SOL     OW26521   0.818   0.820   5.737  0.0371  0.3147  0.0942
 5021SOL    HW126522   0.871   0.743   5.713  0.1276  0.1095  0.9491
 5021SOL    HW226523   0.874   0.846   5.810 -0.1023  1.1765 -0.1110
 5022SOL     OW26524   1.842   1.039   0.007 -0.6794 -0.0784  0.9270
 5022SOL    HW126525   1.849   1.022  17.597  0.3351  1.4186  0.7214
 5022SOL    HW226526   1.838   1.135   0.005  0.3049 -0.0916 -1.9024
 5023SOL     OW26527   1.712   2.729   9.354  0.0468 -0.0516  0.0288
 5023SOL    HW126528   1.624   2.725   9.392 -0.0267  1.2417 -0.0316
 5023SOL    HW226529   1.748   2.652   9.399 -0.9373 -0.6057 -0.1323
 5024SOL     OW26530   3.949   2.799  10.647 -0.5808  0.4156 -0.2821
 5024SOL    HW126531   3.859   2.768  10.655 -0.4565  0.6169  1.7216
 5024SOL    HW226532   3.981   2.791  10.737  0.4414  0.5955 -0.6266
 5025SOL     OW26533   4.107   2.948  16.248  0.4518  0.1644 -0.3617
 5025SOL    HW126534   4.110   2.878  16.183  2.5300 -0.8373  0.8157
 5025SOL    HW226535   4.191   2.936  16.293 -0.0673 -1.4350  0.1710
 5026SOL     OW26536   1.807   0.706   6.151 -0.4772 -0.0982 -0.0501
 5026SOL    HW126537   1.771   0.792   6.130 -1.7424 -0.4139  0.8284
 5026SOL    HW226538   1.885   0.727   6.204 -0.0311 -2.1880  0.1498
 5027SOL     OW26539   1.505   3.799   1.931 -0.3497 -0.5897 -0.0591
 5027SOL    HW126540   1.432   3.855   1.907  0.0468 -0.5082 -1.0747
 5027SOL    HW226541   1.461   3.732   1.984 -0.0673 -0.1575  0.7254
 5028SOL     OW26542   2.298   0.746   6.195  0.4564  0.4590 -0.2543
 5028SOL    HW126543   2.344   0.692   6.259  0.0542 -0.1272 -0.4519
 5028SOL    HW226544   2.235   0.792   6.250  2.8023  0.3784  2.5245
 5029SOL     OW26545   1.607   0.338   3.242  0.0318 -0.0188 -0.1337
 5029SOL    HW126546   1.580   0.264   3.297 -0.6403  1.0941  1.0379
 5029SOL    HW226547   1.544   0.330   3.171 -1.2043 -3.4243  1.3697
 5030SOL     OW26548   4.678   3.196   9.867  0.1220  0.2901 -0.0791
 5030SOL    HW126549   0.049   3.175   9.888  0.0381  1.7203  1.7314
 5030SOL    HW226550   4.679   3.292   9.860 -2.4381  0.3979  1.0163
 5031SOL     OW26551   4.555   0.682   6.876 -0.1598 -0.0275  0.2958
 5031SOL    HW126552   4.476   0.729   6.902  0.8217  1.5614  0.4398
 5031SOL    HW226553   4.607   0.701   6.955 -0.2555 -1.2355  0.6573
 5032SOL     OW26554   2.619   3.771   2.732  0.0447  0.8289 -0.4418
 5032SOL    HW126555   2.569   3.832   2.678  1.4395  1.9915 -0.4045
 5032SOL    HW226556   2.648   3.707   2.667  0.6657  2.3646 -1.6571
 5033SOL     OW26557   4.386   2.914   2.801 -0.2118 -0.3249 -0.1431
 5033SOL    HW126558   4.405   2.999   2.762  0.5758 -0.0423  0.8639
 5033SOL    HW226559   4.418   2.918   2.891  1.1549  1.0815 -0.6906
 5034SOL     OW26560   1.015   1.165   1.151  0.1886 -0.2188 -0.0777
 5034SOL    HW126561   0.991   1.256   1.168  1.6770 -0.6262  4.1583
 5034SOL    HW226562   1.104   1.169   1.185 -0.0568  2.3968  0.1884
 5035SOL     OW26563   1.621   2.632  14.922 -0.6375 -0.0624 -0.0247
 5035SOL    HW126564   1.594   2.543  14.944  0.1854 -0.5707 -1.0512
 5035SOL    HW226565   1.601   2.681  15.001  1.6191 -0.6273  0.8997
 5036SOL     OW26566   2.693   4.175   8.913 -0.3050 -0.1175  0.2743
 5036SOL    HW126567   2.726   4.264   8.907  1.1321 -0.7090 -0.7958
 5036SOL    HW226568   2.711   4.159   9.006 -2.0937 -4.2767 -0.0871
 5037SOL     OW26569   4.098   3.705   9.144  0.2276  0.4782  0.3728
 5037SOL    HW126570   4.132   3.637   9.203  0.5725  0.1370 -0.2275
 5037SOL    HW226571   4.180   3.734   9.105 -0.1254 -1.7916 -2.0549
 5038SOL     OW26572   2.879   1.356  12.066 -0.3204 -0.1367  0.0466
 5038SOL    HW126573   2.865   1.298  12.141  0.3348 -1.0662 -0.5368
 5038SOL    HW226574   2.790   1.389  12.052  0.6271  1.1877 -2.8948
 5039SOL     OW26575   3.961   2.965  11.461  0.4392 -0.0447  0.5611
 5039SOL    HW126576   3.881   2.961  11.513  0.7630 -0.2238  1.0424
 5039SOL    HW226577   4.009   2.887  11.489  2.4921  0.7933 -0.6059
 5040SOL     OW26578   2.744   0.286  15.413  0.3466 -0.0208  0.2459
 5040SOL    HW126579   2.790   0.319  15.336 -2.2741  2.1010 -0.3748
 5040SOL    HW226580   2.661   0.254  15.377  0.5666 -1.0689  0.6558
 5041SOL     OW26581   3.079   0.175  15.002 -0.7463  0.0898  0.6163
 5041SOL    HW126582   3.150   0.235  14.982  0.2187 -1.1588  0.2902
 5041SOL    HW226583   3.124   0.099  15.040  3.4222  1.5656 -1.3985
 5042SOL     OW26584   1.319   3.233  14.280  0.5083  0.0239  0.1357
 5042SOL    HW126585   1.324   3.210  14.373 -0.1555 -1.7485 -0.2645
 5042SOL    HW226586   1.411   3.253  14.259  0.6303  0.1110  0.7721
 5043SOL     OW26587   0.636   1.975   0.745 -0.5184  1.1500 -0.3131
 5043SOL    HW126588   0.642   1.987   0.840 -0.7645  2.4169 -0.4575
 5043SOL    HW226589   0.619   2.064   0.714 -1.4533  0.4874 -1.6871
 5044SOL     OW26590   3.035   0.073   4.238  0.5672 -0.1869 -0.7205
 5044SOL    HW126591   2.940   0.063   4.247  0.6236 -0.9729 -1.0214
 5044SOL    HW226592   3.060   0.085   4.329 -1.5456 -1.0814 -0.0285
 5045SOL     OW26593   0.897   2.511   6.305 -0.3139 -0.7487  0.0753
 5045SOL    HW126594   0.938   2.463   6.232 -2.9424 -0.0532 -1.8714
 5045SOL    HW226595   0.818   2.534   6.256  0.1335 -0.9854 -0.7731
 5046SOL     OW26596   0.887   0.806   7.749 -0.5776  0.1772  0.2948
 5046SOL    HW126597   0.854   0.894   7.732  2.1438  1.5789  2.2359
 5046SOL    HW226598   0.808   0.752   7.746 -1.4217  1.3625  1.3135
 5047SOL     OW26599   0.909   1.851   0.978  0.0642 -0.0816  0.0966
 5047SOL    HW126600   0.880   1.773   0.930  0.2652  1.6791 -2.8785
 5047SOL    HW226601   0.840   1.861   1.044 -0.6028  1.0730 -0.7693
 5048SOL     OW26602   1.645   3.857  17.551 -0.1977 -0.3343 -0.3268
 5048SOL    HW126603   1.710   3.926  17.547 -0.7311  0.0966 -1.3734
 5048SOL    HW226604   1.569   3.912  17.532 -1.6762 -2.2881 -0.0923
 5049SOL     OW26605   4.439   0.982  11.091  0.1230 -0.2000 -0.0024
 5049SOL    HW126606   4.477   0.901  11.058  0.8418  0.9742 -2.0844
 5049SOL    HW226607   4.474   1.040  11.023 -1.7097  0.4936 -0.3519
 5050SOL     OW26608   1.437   2.486   4.795  0.5624 -0.4628 -0.3907
 5050SOL    HW126609   1.515   2.466   4.846 -0.9372 -0.7598  1.7610
 5050SOL    HW226610   1.420   2.579   4.812 -0.4564 -0.6974 -0.1485
 5051SOL     OW26611   4.551   1.069   4.602 -0.2665 -0.2452  0.5440
 5051SOL    HW126612   4.518   1.022   4.526 -1.7634  0.3599  0.8183
 5051SOL    HW226613   4.613   0.999   4.624  1.6285  1.4249  0.5380
 5052SOL     OW26614   1.273   3.546   4.967 -0.7217  0.2051  0.2920
 5052SOL    HW126615   1.219   3.502   5.033 -3.7022  1.7670 -1.0916
 5052SOL    HW226616   1.342   3.587   5.020 -1.5923 -1.1657  2.4781
 5053SOL     OW26617   1.561   0.759   3.201  0.1952 -0.4725 -0.4783
 5053SOL    HW126618   1.566   0.840   3.251  1.6783 -0.1296 -1.1904
 5053SOL    HW226619   1.634   0.704   3.229 -0.3540 -0.8301  0.2446
 5054SOL     OW26620   3.165   1.347  15.991  0.0584 -0.0066  0.9087
 5054SOL    HW126621   3.243   1.383  15.947 -0.4648 -0.2065 -0.1663
 5054SOL    HW226622   3.157   1.283  15.920  1.6633  0.7909 -0.0053
 5055SOL     OW26623   3.037   2.148   1.532 -0.2468 -0.3740  0.2379
 5055SOL    HW126624   3.045   2.242   1.516  0.1387 -0.3926  0.3004
 5055SOL    HW226625   2.955   2.132   1.577 -0.4952  2.5654  0.8243
 5056SOL     OW26626   3.581   1.102   8.319 -0.3673  0.3115  0.0918
 5056SOL    HW126627   3.638   1.157   8.373 -2.5200  1.2804  1.3780
 5056SOL    HW226628   3.645   1.036   8.292 -0.1990  0.7324 -0.5365
 5057SOL     OW26629   0.916   0.029   6.569  0.7397  0.2969  0.2778
 5057SOL    HW126630   0.914   4.678   6.633 -1.9311  0.7391  0.7230
 5057SOL    HW226631   0.856   4.718   6.501  0.1852 -1.3058  1.5097
 5058SOL     OW26632   1.050   1.143   1.674 -0.1920  0.1141  0.0684
 5058SOL    HW126633   1.125   1.136   1.615 -1.2901 -0.7254 -1.2133
 5058SOL    HW226634   1.081   1.166   1.762  0.7745 -0.0798 -0.2233
 5059SOL     OW26635   3.774   0.599  13.330  0.4339  0.4681 -0.6371
 5059SOL    HW126636   3.769   0.693  13.346 -1.8268  0.4382 -1.1355
 5059SOL    HW226637   3.863   0.569  13.351  0.6093  1.5524  0.1599
 5060SOL     OW26638   2.577   4.486   2.099 -0.6937  0.4076  0.0757
 5060SOL    HW126639   2.494   4.525   2.073 -0.2217  0.0656 -1.9095
 5060SOL    HW226640   2.565   4.396   2.069  0.3826  0.8462 -1.6560
 5061SOL     OW26641   2.654   3.690   6.427 -0.0353  0.4702 -0.6240
 5061SOL    HW126642   2.711   3.756   6.467  3.1385 -1.3086 -2.2131
 5061SOL    HW226643   2.691   3.612   6.468  1.4613  1.1219 -0.6967
 5062SOL     OW26644   4.036   2.179   3.036 -0.1129 -0.0155 -0.7128
 5062SOL    HW126645   4.050   2.244   2.968 -1.0522  0.1716 -0.7296
 5062SOL    HW226646   3.946   2.152   3.015  0.2945 -1.3214 -0.7785
 5063SOL     OW26647   2.881   3.317   3.783  1.1248  0.0255 -0.4554
 5063SOL    HW126648   2.916   3.388   3.729 -1.0558  2.2218  1.0100
 5063SOL    HW226649   2.809   3.282   3.731 -0.1852  1.5606  0.3219
 5064SOL     OW26650   0.695   4.213   7.678  0.1226 -0.1990 -0.6275
 5064SOL    HW126651   0.609   4.254   7.665  0.2598 -0.1853 -1.5021
 5064SOL    HW226652   0.692   4.146   7.609  0.5914  0.5612 -1.3972
 5065SOL     OW26653   2.113   3.757   6.560  0.5059  0.0212 -0.4345
 5065SOL    HW126654   2.138   3.692   6.495 -1.7276  1.0562 -2.3145
 5065SOL    HW226655   2.140   3.837   6.517 -0.9834  0.5739 -0.3616
 5066SOL     OW26656   0.322   0.859   0.511  0.0561 -0.1116 -0.2731
 5066SOL    HW126657   0.231   0.851   0.484 -0.2451 -0.0536  0.7504
 5066SOL    HW226658   0.342   0.766   0.505 -0.8577 -0.2792 -0.7282
 5067SOL     OW26659   3.863   0.097   5.231 -0.0876 -0.1146 -0.0658
 5067SOL    HW126660   3.891   0.183   5.200  1.3044 -0.6130 -0.1850
 5067SOL    HW226661   3.935   0.076   5.290  0.7438  0.9032 -0.7385
 5068SOL     OW26662   1.477   2.549   3.705  0.7312 -0.0840  0.4458
 5068SOL    HW126663   1.549   2.490   3.684  1.8574  0.1926  3.5671
 5068SOL    HW226664   1.470   2.528   3.798  0.2261  2.1420  0.9196
 5069SOL     OW26665   2.143   3.989   1.892  0.7035  0.2697  0.3132
 5069SOL    HW126666   2.060   4.010   1.848  1.1318 -0.1472 -0.6729
 5069SOL    HW226667   2.171   4.069   1.936  1.6561  1.5331 -2.6015
 5070SOL     OW26668   2.897   0.587   2.380  0.1557  0.4089  0.1406
 5070SOL    HW126669   2.843   0.623   2.451 -1.3120  0.0366 -0.7834
 5070SOL    HW226670   2.835   0.589   2.307  1.0661 -1.8328 -0.6734
 5071SOL     OW26671   2.888   4.575   8.032 -0.3528  0.4223 -0.2813
 5071SOL    HW126672   2.850   4.634   8.098 -1.4522 -1.6930  0.9529
 5071SOL    HW226673   2.887   4.494   8.082  2.0032  1.3889  1.3113
 5072SOL     OW26674   3.076   1.331  11.206  0.3203  0.3997 -0.0890
 5072SOL    HW126675   3.065   1.380  11.125 -1.7331  1.7241  0.9725
 5072SOL    HW226676   3.165   1.296  11.201  0.7323  1.2520  1.2536
 5073SOL     OW26677   2.262   4.513   4.042  0.1047  0.2900  0.3736
 5073SOL    HW126678   2.273   4.446   4.109  0.7444 -1.1982 -1.2505
 5073SOL    HW226679   2.204   4.576   4.085 -1.4939 -1.1286  0.3064
 5074SOL     OW26680   3.930   3.519   3.428  0.6273  0.3312  0.0849
 5074SOL    HW126681   3.845   3.546   3.464  0.9561  1.8181 -0.2562
 5074SOL    HW226682   3.981   3.597   3.453 -0.7231  0.8226  1.3090
 5075SOL     OW26683   1.066   1.818   5.049 -0.0101  0.2588  0.1551
 5075SOL    HW126684   1.044   1.776   4.966  2.9113  1.1600 -1.0833
 5075SOL    HW226685   1.098   1.746   5.103  0.6579  0.6269  0.2462
 5076SOL     OW26686   1.361   4.006   7.584  0.0304  0.1348 -0.3645
 5076SOL    HW126687   1.396   3.922   7.554  2.9671  0.2462  2.6888
 5076SOL    HW226688   1.370   4.053   7.502  0.0806  0.6522 -0.0596
 5077SOL     OW26689   2.652   4.217  15.741 -0.0229 -0.0660 -0.0429
 5077SOL    HW126690   2.627   4.221  15.833 -1.7846 -1.3311 -0.4605
 5077SOL    HW226691   2.674   4.307  15.716 -2.9860  0.9375  0.9005
 5078SOL     OW26692   1.344   1.446   2.351 -0.2474 -0.1926  0.3833
 5078SOL    HW126693   1.411   1.513   2.339  0.7807 -1.1098  0.9746
 5078SOL    HW226694   1.385   1.370   2.309  1.2238  0.6704  0.2528
 5079SOL     OW26695   4.299   3.527   7.962 -0.7627  0.5247  0.0021
 5079SOL    HW126696   4.379   3.475   7.962 -0.2312  1.3539 -0.8732
 5079SOL    HW226697   4.241   3.467   7.916 -1.8979 -0.9528  3.3762
 5080SOL     OW26698   0.140   0.872   0.229 -0.1055 -0.1228  0.0244
 5080SOL    HW126699   0.140   0.946   0.289 -0.9764 -0.3645  0.3082
 5080SOL    HW226700   0.181   0.900   0.147 -0.2176  0.2230  0.0880
 5081SOL     OW26701   3.920   4.370   3.095 -0.6429  0.5336 -0.5011
 5081SOL    HW126702   3.928   4.280   3.062  0.3961  0.0338  1.1228
 5081SOL    HW226703   3.902   4.340   3.184 -0.2147  0.5319 -0.4163
 5082SOL     OW26704   3.763   4.162  10.831  0.0067  0.0865 -0.1269
 5082SOL    HW126705   3.684   4.201  10.795 -1.3224 -3.6048 -1.1826
 5082SOL    HW226706   3.822   4.235  10.814  0.9754 -0.6512  0.0466
 5083SOL     OW26707   3.536   2.174   2.746 -0.0757  0.4364 -0.3978
 5083SOL    HW126708   3.479   2.099   2.733  1.2431 -0.5629 -0.4713
 5083SOL    HW226709   3.569   2.136   2.828 -0.9960 -0.5295 -0.4699
 5084SOL     OW26710   1.446   1.942  15.275  0.0811 -0.1551  0.7420
 5084SOL    HW126711   1.489   1.864  15.309  0.2569  0.1853  1.3144
 5084SOL    HW226712   1.458   1.930  15.181  2.7757 -1.2908  1.2474
 5085SOL     OW26713   4.451   2.606   4.474  0.5501  0.0286  0.9490
 5085SOL    HW126714   4.507   2.607   4.552  2.4092 -1.8194 -0.3473
 5085SOL    HW226715   4.445   2.701   4.466 -0.4906  0.0982  2.5430
 5086SOL     OW26716   2.324   4.716   0.118 -0.4600  0.2577 -0.2869
 5086SOL    HW126717   2.343   4.671   0.035  0.0847 -0.1860  0.0744
 5086SOL    HW226718   2.400   4.683   0.167  0.1091  2.0376 -0.0015
 5087SOL     OW26719   3.569   3.878   4.397  0.2674  0.3615  0.2711
 5087SOL    HW126720   3.477   3.890   4.373  0.9112  0.1105 -2.2653
 5087SOL    HW226721   3.620   3.913   4.325  2.0573 -1.6951  0.5252
 5088SOL     OW26722   4.652   4.567   2.335  0.2110  0.4522  0.6516
 5088SOL    HW126723   4.577   4.514   2.306  1.2206 -1.4922  1.6255
 5088SOL    HW226724   4.719   4.499   2.328 -1.0514 -0.8978  1.8725
 5089SOL     OW26725   4.100   1.108   3.825 -0.4143 -0.3648 -0.5063
 5089SOL    HW126726   4.102   1.042   3.894  1.2022  0.0270 -0.1725
 5089SOL    HW226727   4.016   1.143   3.854 -1.0563 -2.3288  0.0097
 5090SOL     OW26728   2.623   3.272   2.261  0.2686  0.4136  0.2127
 5090SOL    HW126729   2.712   3.304   2.250  0.2735 -0.2345 -1.7619
 5090SOL    HW226730   2.585   3.296   2.176 -0.4847  2.5252  1.1583
 5091SOL     OW26731   0.984   2.560   5.779  0.4097 -0.3564 -0.2460
 5091SOL    HW126732   0.942   2.476   5.799 -0.3431 -0.6830 -3.2056
 5091SOL    HW226733   1.052   2.523   5.722 -0.0405 -1.3484 -0.1427
 5092SOL     OW26734   3.986   2.749   5.844 -0.8463  0.1309  0.0455
 5092SOL    HW126735   3.956   2.660   5.865 -0.8441  0.0232 -0.4056
 5092SOL    HW226736   4.078   2.732   5.825 -0.8274 -0.3502  0.5631
 5093SOL     OW26737   1.516   1.882  17.671  0.0789  0.1629  0.0573
 5093SOL    HW126738   1.498   1.976  17.675 -0.7574 -0.0729  1.8957
 5093SOL    HW226739   1.466   1.867  17.591  0.2072 -0.5133  0.1047
 5094SOL     OW26740   2.621   1.880   3.135  0.0627 -0.5677 -0.0765
 5094SOL    HW126741   2.701   1.855   3.181 -1.5986  0.8434  3.6087
 5094SOL    HW226742   2.663   1.928   3.063 -0.0262  0.1452  0.3440
 5095SOL     OW26743   2.560   1.090   9.068 -0.4731 -0.1706  0.3382
 5095SOL    HW126744   2.544   1.010   9.118 -1.2793 -0.2217 -0.0120
 5095SOL    HW226745   2.634   1.066   9.013 -1.3141 -1.0551 -0.3912
 5096SOL     OW26746   3.658   0.714   2.752  0.0359 -0.1837  0.6043
 5096SOL    HW126747   3.641   0.776   2.681  1.4532  0.1909  0.5997
 5096SOL    HW226748   3.594   0.747   2.816  0.0480  1.3236 -0.1751
 5097SOL     OW26749   3.840   1.906   2.770 -0.2922 -0.4157 -0.2945
 5097SOL    HW126750   3.797   1.877   2.690  0.8115 -1.7388 -0.4106
 5097SOL    HW226751   3.832   1.823   2.817 -0.4381  0.7342  1.6921
 5098SOL     OW26752   2.239   4.029   9.129 -0.1842  0.2792 -0.1580
 5098SOL    HW126753   2.317   4.085   9.135 -0.7951  0.8975  2.0994
 5098SOL    HW226754   2.250   3.990   9.042 -1.5487 -2.8772  1.1081
 5099SOL     OW26755   1.098   0.880  15.625  0.0258  0.3534 -0.1272
 5099SOL    HW126756   1.161   0.822  15.669  0.3752  1.3013  0.6321
 5099SOL    HW226757   1.110   0.964  15.668  0.7223  2.0555 -3.6839
 5100SOL     OW26758   1.672   3.211  13.410 -0.1034 -0.4140 -0.0327
 5100SOL    HW126759   1.661   3.284  13.349  0.4957 -0.9483 -0.7911
 5100SOL    HW226760   1.767   3.214  13.421 -0.0933  0.7842 -0.4470
 5101SOL     OW26761   3.322   0.801   8.548 -0.5234 -0.2054  0.8270
 5101SOL    HW126762   3.309   0.717   8.594 -1.1326  1.4096  3.6465
 5101SOL    HW226763   3.282   0.868   8.604 -0.7422 -1.3707  2.0763
 5102SOL     OW26764   1.625   3.855  13.123 -0.2954  0.3010  0.0333
 5102SOL    HW126765   1.714   3.890  13.122  0.2403 -1.0597 -0.5354
 5102SOL    HW226766   1.599   3.890  13.038 -0.8620 -2.1100 -0.8048
 5103SOL     OW26767   3.370   2.918   4.094 -0.2586  0.0373  0.0839
 5103SOL    HW126768   3.320   2.865   4.155 -0.3816  0.0385 -0.0158
 5103SOL    HW226769   3.429   2.857   4.049 -0.6538 -2.1519  2.5319
 5104SOL     OW26770   4.049   2.970   0.936 -0.0419  0.1471  0.3808
 5104SOL    HW126771   4.118   3.003   0.994  0.1015  2.1233 -0.9102
 5104SOL    HW226772   4.069   2.877   0.944 -2.2314 -0.2794  0.9270
 5105SOL     OW26773   3.442   3.071   7.623 -0.1294 -0.7890 -0.2259
 5105SOL    HW126774   3.449   3.167   7.623 -2.7006 -0.6054  0.9902
 5105SOL    HW226775   3.368   3.063   7.683 -0.9591 -1.6270 -1.3826
 5106SOL     OW26776   1.803   2.171   5.164 -0.8095  0.6754  0.9045
 5106SOL    HW126777   1.767   2.166   5.253 -0.8325 -2.4932  0.7042
 5106SOL    HW226778   1.753   2.108   5.113 -0.6116  0.4060  1.0430
 5107SOL     OW26779   3.157   2.644   3.233 -0.0352 -0.5953 -0.1577
 5107SOL    HW126780   3.218   2.706   3.192  0.2438 -0.5223  0.3697
 5107SOL    HW226781   3.176   2.557   3.198 -0.4558 -0.7221 -0.0662
 5108SOL     OW26782   2.415   0.378   3.301 -0.2131  0.2213  0.5917
 5108SOL    HW126783   2.359   0.441   3.255  0.0287 -1.8282 -2.5040
 5108SOL    HW226784   2.495   0.408   3.258  0.0618 -1.5978 -0.1352
 5109SOL     OW26785   2.600   1.864   9.050 -0.1027  0.0250  0.1466
 5109SOL    HW126786   2.556   1.949   9.056 -1.3842 -0.7833  2.4417
 5109SOL    HW226787   2.570   1.817   9.128 -0.4074  0.7475  0.4669
 5110SOL     OW26788   1.802   1.062   4.052 -0.2566  0.3501  0.1447
 5110SOL    HW126789   1.851   1.097   3.977  1.3359 -0.5412  0.7529
 5110SOL    HW226790   1.838   0.973   4.050  1.5451  1.0634 -0.0071
 5111SOL     OW26791   4.673   3.227  10.194 -0.0289 -0.6460  0.4835
 5111SOL    HW126792   4.710   3.147  10.231 -0.3764 -1.3392 -0.6783
 5111SOL    HW226793   4.702   3.295  10.254  1.1104 -0.8085  0.1274
 5112SOL     OW26794   3.332   3.697   6.461 -0.3650 -0.5913 -0.3060
 5112SOL    HW126795   3.386   3.619   6.479 -1.6146 -1.7617 -1.6378
 5112SOL    HW226796   3.304   3.718   6.550 -2.5330 -1.8948 -0.6793
 5113SOL     OW26797   2.889   2.103   7.733  0.5443  0.4521  0.0138
 5113SOL    HW126798   2.924   2.029   7.683  0.9648  0.4609  0.2975
 5113SOL    HW226799   2.829   2.060   7.794  1.5953 -0.3041  0.5191
 5114SOL     OW26800   0.770   0.638   7.159  0.7429  0.3279 -0.2294
 5114SOL    HW126801   0.851   0.587   7.149  1.8152  1.4043  2.8902
 5114SOL    HW226802   0.758   0.661   7.067  1.9329  0.8763 -0.2530
 5115SOL     OW26803   1.439   4.200  15.751 -0.1596  0.2508 -0.0918
 5115SOL    HW126804   1.384   4.132  15.713  2.3614 -2.0364  0.3531
 5115SOL    HW226805   1.481   4.140  15.813 -0.7753  1.7731  1.7936
 5116SOL     OW26806   4.480   1.062   0.263 -0.0929 -0.0402 -0.0058
 5116SOL    HW126807   4.517   1.020   0.185 -0.4900  0.9245 -0.7104
 5116SOL    HW226808   4.393   1.024   0.261  0.5612 -1.3888 -2.1088
 5117SOL     OW26809   2.491   0.230   9.482 -0.0113 -0.4559  0.1845
 5117SOL    HW126810   2.422   0.287   9.449 -0.1886 -0.8253 -0.0812
 5117SOL    HW226811   2.570   0.283   9.472  1.0742 -2.6064 -2.7708
 5118SOL     OW26812   0.926   4.361   8.491 -0.4518  0.4856  0.2482
 5118SOL    HW126813   1.000   4.314   8.530 -0.3810 -0.5196 -1.1299
 5118SOL    HW226814   0.959   4.448   8.512  0.8918  0.1709 -0.6160
 5119SOL     OW26815   4.228   2.460   8.397  0.3668  0.3951 -0.8059
 5119SOL    HW126816   4.155   2.489   8.452  0.4106 -0.0594 -0.5121
 5119SOL    HW226817   4.201   2.370   8.380  1.7748 -0.3687  0.8972
 5120SOL     OW26818   2.216   2.817   2.310 -0.2194  0.1052  0.5844
 5120SOL    HW126819   2.134   2.781   2.344 -0.6668  1.6731  1.1973
 5120SOL    HW226820   2.188   2.850   2.224 -0.2722 -0.0932  0.5255
 5121SOL     OW26821   0.144   3.442   0.172 -0.2365  0.5127 -0.0379
 5121SOL    HW126822   0.062   3.478   0.207  1.1169  0.7534  2.9003
 5121SOL    HW226823   0.136   3.355   0.212  0.7843  1.2366  1.7086
 5122SOL     OW26824   1.474   3.206   2.903  0.4460  0.5203  0.2516
 5122SOL    HW126825   1.460   3.112   2.894 -2.0682  0.9529 -0.3689
 5122SOL    HW226826   1.403   3.229   2.963  0.3304 -1.0225  0.6843
 5123SOL     OW26827   1.812   2.743  17.501  0.2296 -0.0427  0.0167
 5123SOL    HW126828   1.873   2.813  17.476  0.5814 -0.9187 -1.5524
 5123SOL    HW226829   1.784   2.764  17.591 -0.3810  0.5173 -0.3045
 5124SOL     OW26830   3.848   1.848   1.408  0.4609 -0.3184  0.2984
 5124SOL    HW126831   3.900   1.775   1.441  0.2435 -0.0313  1.2796
 5124SOL    HW226832   3.767   1.840   1.458  0.3660 -1.2798 -0.0020
 5125SOL     OW26833   1.802   0.984   9.767 -0.2724  0.1896  0.3403
 5125SOL    HW126834   1.756   0.901   9.773  0.2960 -0.0729  1.0444
 5125SOL    HW226835   1.795   1.018   9.856 -2.8372 -0.0975  0.2367
 5126SOL     OW26836   1.819   1.523  14.984 -0.1930 -0.0684 -0.2087
 5126SOL    HW126837   1.914   1.522  14.992 -0.2430  1.1016  0.5977
 5126SOL    HW226838   1.809   1.617  14.974  0.4746 -0.1705 -1.8988
 5127SOL     OW26839   1.010   3.497   7.315 -0.3332  0.5071  0.6158
 5127SOL    HW126840   1.034   3.552   7.240  2.7806 -0.6851  0.7638
 5127SOL    HW226841   0.916   3.500   7.297 -0.1859  1.7991  0.0442
 5128SOL     OW26842   1.141   4.006   7.257  0.3033  0.8476  0.2489
 5128SOL    HW126843   1.134   4.082   7.315  1.3255 -0.1958  1.7113
 5128SOL    HW226844   1.235   3.990   7.269  0.3333 -0.4103 -1.6858
 5129SOL     OW26845   1.377   1.157   6.788  0.5487 -0.7027 -0.0254
 5129SOL    HW126846   1.292   1.165   6.745  0.4114  2.6691  0.8947
 5129SOL    HW226847   1.438   1.161   6.714  1.6783 -1.5354  0.8787
 5130SOL     OW26848   0.591   0.552  10.693 -0.0157  0.1100  0.2297
 5130SOL    HW126849   0.542   0.631  10.675  2.2976  1.8351  1.5340
 5130SOL    HW226850   0.609   0.566  10.786 -0.3605 -2.4984  0.7078
 5131SOL     OW26851   3.372   2.389   2.760  0.6137 -0.0545 -0.2832
 5131SOL    HW126852   3.334   2.349   2.838  0.2682  1.3554  0.2783
 5131SOL    HW226853   3.433   2.317   2.745 -0.4084 -1.1055  0.6518
 5132SOL     OW26854   3.824   0.334   3.975 -0.1250  0.5790  0.2926
 5132SOL    HW126855   3.883   0.378   3.914  1.4727 -1.1549  0.5954
 5132SOL    HW226856   3.894   0.282   4.014 -2.4756 -0.7457  2.7040
 5133SOL     OW26857   4.012   2.645   0.740 -0.9761 -0.4469 -0.1334
 5133SOL    HW126858   4.079   2.671   0.676  0.3222 -1.6377  0.7291
 5133SOL    HW226859   4.049   2.661   0.827  1.1666  0.0411 -1.1194
 5134SOL     OW26860   1.552   1.853   6.668 -0.7498  0.3457  0.0125
 5134SOL    HW126861   1.497   1.927   6.643 -0.7725  0.8161  1.4679
 5134SOL    HW226862   1.484   1.790   6.644 -1.1353  1.1338 -0.9757
 5135SOL     OW26863   2.414   4.190   3.090 -0.4514 -0.4200 -0.4809
 5135SOL    HW126864   2.362   4.235   3.156  2.1081 -0.7285  1.7394
 5135SOL    HW226865   2.347   4.161   3.028  0.9500 -1.4086 -1.5432
 5136SOL     OW26866   0.381   1.956   5.705  0.6988 -0.0888 -0.6118
 5136SOL    HW126867   0.418   2.031   5.659  2.7212  0.0653  1.2779
 5136SOL    HW226868   0.290   1.985   5.699  0.4426 -1.0038 -1.2066
 5137SOL     OW26869   1.359   4.528  13.456  0.3776  0.3408 -0.2317
 5137SOL    HW126870   1.296   4.600  13.458 -0.4541 -0.4907  2.5721
 5137SOL    HW226871   1.317   4.467  13.517 -1.4438  0.9014 -0.9194
 5138SOL     OW26872   3.883   1.330   2.908 -0.7336  0.5750 -0.7247
 5138SOL    HW126873   3.860   1.377   2.827 -0.4091  1.1845 -0.4672
 5138SOL    HW226874   3.975   1.350   2.925 -1.5123  1.1822  2.7319
 5139SOL     OW26875   0.950   0.721  16.178  0.3169  0.3164  0.2204
 5139SOL    HW126876   0.936   0.627  16.171  3.5447 -0.0725 -0.9592
 5139SOL    HW226877   1.008   0.720  16.255 -0.1250 -4.6552  0.4392
 5140SOL     OW26878   2.755   0.023  16.927 -0.3412 -0.1168  0.3685
 5140SOL    HW126879   2.742   0.110  16.888  1.2815 -0.9110 -1.9440
 5140SOL    HW226880   2.666   4.714  16.910 -0.4451  1.2847 -1.6012
 5141SOL     OW26881   3.676   1.313   5.567 -0.4015  0.0146 -0.2384
 5141SOL    HW126882   3.664   1.230   5.521  0.5757 -0.4263  0.2866
 5141SOL    HW226883   3.700   1.367   5.491 -0.4300 -0.0874 -0.3193
 5142SOL     OW26884   3.079   3.377  12.979  0.0598  0.3574  0.4334
 5142SOL    HW126885   3.054   3.343  12.893 -0.2458 -0.7427  0.9584
 5142SOL    HW226886   3.162   3.335  13.003 -0.3964  0.4444  2.1588
 5143SOL     OW26887   0.540   3.837  15.726  0.0521 -0.2371  0.6341
 5143SOL    HW126888   0.538   3.931  15.708 -1.8605 -0.4912 -0.4834
 5143SOL    HW226889   0.478   3.830  15.799 -0.7560 -2.2488 -0.2511
 5144SOL     OW26890   2.627   0.260   6.153  0.0839 -0.0849  0.0231
 5144SOL    HW126891   2.559   0.204   6.191 -2.2749  2.5444 -0.3115
 5144SOL    HW226892   2.706   0.237   6.203  0.2355 -1.0022 -0.6394
 5145SOL     OW26893   0.273   4.568  16.560 -0.1910 -0.8069 -0.1602
 5145SOL    HW126894   0.202   4.630  16.545 -1.0306 -2.2588 -2.0746
 5145SOL    HW226895   0.242   4.549  16.649 -2.6385 -3.7673 -1.6836
 5146SOL     OW26896   0.990   4.317  13.535  0.3372 -0.3211 -0.1786
 5146SOL    HW126897   1.038   4.237  13.555  2.3926  1.3170  1.4994
 5146SOL    HW226898   0.991   4.310  13.440 -1.5422  1.4561 -0.3342
 5147SOL     OW26899   4.071   0.019   5.429  0.0209 -0.1936 -0.4806
 5147SOL    HW126900   4.087   4.664   5.373  1.6273 -1.0376  1.0848
 5147SOL    HW226901   4.148   0.075   5.414  0.4730 -1.0840 -1.4529
 5148SOL     OW26902   2.457   4.231   3.573 -0.3337 -0.0705  0.1417
 5148SOL    HW126903   2.396   4.249   3.644 -0.1786 -1.4935  0.6442
 5148SOL    HW226904   2.420   4.148   3.544  1.0548 -0.3012 -0.9621
 5149SOL     OW26905   0.863   3.950   8.856 -0.0370 -0.4248  0.7905
 5149SOL    HW126906   0.821   3.951   8.770  0.4593 -2.3224  0.5110
 5149SOL    HW226907   0.858   4.042   8.880  0.0440 -0.8625  2.5068
 5150SOL     OW26908   3.380   3.726  15.485  0.1260 -0.4477 -0.0352
 5150SOL    HW126909   3.300   3.686  15.452  0.7780 -0.8275 -1.1598
 5150SOL    HW226910   3.342   3.774  15.558 -1.6285 -0.9824 -0.6063
 5151SOL     OW26911   1.036   1.675   6.199 -0.1433  0.1031  0.3319
 5151SOL    HW126912   1.092   1.602   6.172  0.4826 -0.1813  2.3789
 5151SOL    HW226913   0.997   1.629   6.273 -1.4616  1.9603  0.7931
 5152SOL     OW26914   0.412   3.493   4.803  0.4480  0.4717 -0.3376
 5152SOL    HW126915   0.464   3.415   4.826 -1.0618 -0.7063 -0.9721
 5152SOL    HW226916   0.431   3.550   4.878 -0.1944  1.5773 -1.0087
 5153SOL     OW26917   0.754   2.893   1.897  0.0268  0.1686 -0.3134
 5153SOL    HW126918   0.844   2.925   1.912  0.6643 -1.7554 -0.0985
 5153SOL    HW226919   0.720   2.941   1.972 -0.3710  1.6710 -1.4548
 5154SOL     OW26920   0.096   3.750   9.173 -0.2637  0.0225  0.0268
 5154SOL    HW126921   0.126   3.712   9.256  0.9323 -2.6464 -1.6262
 5154SOL    HW226922   0.009   3.715   9.155  0.4571 -0.5088 -2.3721
 5155SOL     OW26923   1.425   3.038   2.613  0.2488 -0.2346 -0.4056
 5155SOL    HW126924   1.346   3.073   2.653  0.7503 -1.3916  1.6273
 5155SOL    HW226925   1.386   2.989   2.540 -1.5559  0.8944 -0.1775
 5156SOL     OW26926   3.946   1.097  13.867  0.6141 -0.3691 -0.0435
 5156SOL    HW126927   4.034   1.127  13.844 -0.5175  1.4571 -1.9695
 5156SOL    HW226928   3.896   1.163  13.820 -0.0462 -0.7933  0.0651
 5157SOL     OW26929   3.376   3.468   7.893  0.0044  0.4851 -0.4836
 5157SOL    HW126930   3.468   3.461   7.868  0.2545  1.1721  0.2492
 5157SOL    HW226931   3.381   3.538   7.959  0.8300 -0.0214 -0.0231
 5158SOL     OW26932   0.173   3.712   3.897 -0.3746 -0.4185 -0.2046
 5158SOL    HW126933   0.171   3.632   3.950  0.2905  1.0303  2.0136
 5158SOL    HW226934   0.227   3.689   3.821  0.4745 -0.8471  0.5322
 5159SOL     OW26935   2.475   2.781   0.171 -0.0304  0.7735 -0.4833
 5159SOL    HW126936   2.521   2.711   0.216 -0.1407  1.5563  0.8620
 5159SOL    HW226937   2.397   2.736   0.138 -1.5631  0.5988  3.3030
 5160SOL     OW26938   2.319   1.713   3.762 -0.1797  0.0955 -0.3713
 5160SOL    HW126939   2.231   1.747   3.781 -0.0082  0.0131  0.5907
 5160SOL    HW226940   2.323   1.705   3.667 -0.4707 -0.4867 -0.3406
 5161SOL     OW26941   3.764   3.397   4.695 -0.9595  0.2869 -0.5016
 5161SOL    HW126942   3.754   3.333   4.625  0.2161 -1.7771  1.2115
 5161SOL    HW226943   3.677   3.434   4.708 -0.1478  2.4762 -1.3093
 5162SOL     OW26944   2.555   2.585   9.197 -0.6434  0.1416 -0.5575
 5162SOL    HW126945   2.514   2.531   9.265 -1.7607  1.7326  0.0350
 5162SOL    HW226946   2.635   2.614   9.242 -0.8195 -1.3237  0.6850
 5163SOL     OW26947   1.724   1.356   4.245 -0.6052  0.4632  0.7851
 5163SOL    HW126948   1.706   1.310   4.327  0.8786 -2.0866 -0.3384
 5163SOL    HW226949   1.811   1.320   4.226 -2.7386 -2.3228 -3.7366
 5164SOL     OW26950   2.998   4.370  13.371 -0.2379 -0.6993  0.3353
 5164SOL    HW126951   3.004   4.398  13.463  0.1254 -1.6168  0.5836
 5164SOL    HW226952   2.917   4.409  13.338  0.2988 -0.0204 -0.1790
 5165SOL     OW26953   3.591   2.712   9.591 -0.3551 -0.8247 -0.1141
 5165SOL    HW126954   3.570   2.799   9.556 -0.7140  0.0861  2.3485
 5165SOL    HW226955   3.554   2.661   9.519 -1.6785  1.2249 -0.8873
 5166SOL     OW26956   3.028   0.350   8.561  0.1581  0.5207 -0.0633
 5166SOL    HW126957   3.058   0.276   8.613 -0.8010  0.3792  0.2808
 5166SOL    HW226958   3.052   0.422   8.618  1.6646 -2.4065  3.0006
 5167SOL     OW26959   2.318   0.778   6.732 -0.1996 -0.1315  0.7736
 5167SOL    HW126960   2.310   0.753   6.824 -0.8972 -0.1441  0.7104
 5167SOL    HW226961   2.336   0.872   6.739 -3.2688  0.4355  1.2021
 5168SOL     OW26962   2.479   4.067   0.627 -0.5539 -0.0501  0.4323
 5168SOL    HW126963   2.400   4.015   0.615 -0.2585 -0.3865 -0.0606
 5168SOL    HW226964   2.466   4.073   0.722  0.4279  3.3625  0.3488
 5169SOL     OW26965   1.854   1.257   7.861 -0.3237 -0.6185  0.0859
 5169SOL    HW126966   1.927   1.295   7.910 -0.8677 -0.3930  0.7270
 5169SOL    HW226967   1.793   1.327   7.886  1.1403  1.2288 -1.5320
 5170SOL     OW26968   0.497   2.012   0.085 -0.0495 -0.0971 -0.4724
 5170SOL    HW126969   0.545   2.093   0.104 -0.1785 -0.1499  0.0584
 5170SOL    HW226970   0.522   2.004  17.676 -0.4864 -1.2896 -0.4862
 5171SOL     OW26971   3.773   1.488   5.805 -0.6592 -0.4673 -0.6580
 5171SOL    HW126972   3.679   1.479   5.793 -0.6467  1.7358 -2.2865
 5171SOL    HW226973   3.799   1.543   5.731  0.1055 -1.5251 -1.1879
 5172SOL     OW26974   0.630   0.558   2.295  0.5275 -0.0305  0.3257
 5172SOL    HW126975   0.627   0.468   2.264  0.5272  0.0297  0.1507
 5172SOL    HW226976   0.644   0.608   2.215 -2.6479 -0.2610 -0.3731
 5173SOL     OW26977   4.524   4.145   7.718 -0.0016  0.5490  0.2210
 5173SOL    HW126978   4.477   4.103   7.790  1.2971  0.7333  1.1726
 5173SOL    HW226979   4.480   4.229   7.705 -0.0158  0.4979 -0.0729
 5174SOL     OW26980   3.431   1.012   1.031  0.0815  0.0335 -0.1455
 5174SOL    HW126981   3.475   1.055   0.958  0.8227  0.8866  0.8049
 5174SOL    HW226982   3.344   1.050   1.043  1.0852  1.5381  2.4049
 5175SOL     OW26983   3.409   3.755   8.365 -0.7775 -1.1082  0.5501
 5175SOL    HW126984   3.390   3.698   8.439 -1.5883 -0.1222  1.0987
 5175SOL    HW226985   3.368   3.707   8.293  0.4947  1.4576 -1.8784
 5176SOL     OW26986   3.654   1.837   7.186 -0.3093  0.0726 -0.2379
 5176SOL    HW126987   3.730   1.813   7.238 -0.5646 -0.2306 -0.0047
 5176SOL    HW226988   3.617   1.749   7.177 -0.8954  0.5446 -2.6370
 5177SOL     OW26989   0.316   1.848   3.996 -0.0283 -0.1298 -0.6998
 5177SOL    HW126990   0.351   1.761   3.977  0.5216 -0.5331  2.1805
 5177SOL    HW226991   0.389   1.903   3.968  1.8036 -1.7829  0.8043
 5178SOL     OW26992   1.485   3.991   3.920  0.1447 -0.2766  0.4106
 5178SOL    HW126993   1.581   3.985   3.919  0.2423  1.8441 -1.7705
 5178SOL    HW226994   1.460   3.899   3.916 -1.9753  0.3217 -0.1995
 5179SOL     OW26995   2.442   4.646   9.673  0.0522  0.6995 -0.2092
 5179SOL    HW126996   2.375   4.704   9.710  0.0581 -0.6359  1.8599
 5179SOL    HW226997   2.425   4.567   9.724  2.2128 -0.8548 -1.8790
 5180SOL     OW26998   2.368   0.831   0.423 -0.3901  0.2691  0.3748
 5180SOL    HW126999   2.455   0.870   0.411  0.1744 -0.8277  0.9168
 5180SOL    HW227000   2.395   0.741   0.441  1.6842  0.6491 -0.7573
 5181SOL     OW27001   1.978   1.482  15.641  0.4283 -0.0643 -0.1607
 5181SOL    HW127002   2.045   1.499  15.576 -1.5400  1.7894 -1.7015
 5181SOL    HW227003   1.961   1.568  15.681  0.1818  0.0839 -0.5940
 5182SOL     OW27004   3.180   3.643   6.874 -0.0752  0.6366 -0.0725
 5182SOL    HW127005   3.133   3.562   6.897 -0.4291  1.3309  1.6698
 5182SOL    HW227006   3.125   3.713   6.908 -0.2695  0.1164  0.6864
 5183SOL     OW27007   4.268   4.073  11.268  0.3155  0.1039  0.2943
 5183SOL    HW127008   4.243   4.003  11.329 -1.7774  1.3851  0.8856
 5183SOL    HW227009   4.190   4.078  11.212  1.2881 -1.3262 -1.1773
 5184SOL     OW27010   1.913   1.280  14.458 -0.0733  0.1391  0.2012
 5184SOL    HW127011   1.850   1.225  14.412  0.8586  0.4842 -1.4961
 5184SOL    HW227012   1.989   1.235  14.420  1.9891  2.5349  1.4854
 5185SOL     OW27013   4.122   4.025  17.654 -0.6077 -0.0869  0.3679
 5185SOL    HW127014   4.053   4.004   0.034  0.2952  1.2370  1.7905
 5185SOL    HW227015   4.076   4.086  17.597 -0.6740 -0.3549  0.1355
 5186SOL     OW27016   0.215   2.459   6.950  0.3682 -0.1154  0.1591
 5186SOL    HW127017   0.156   2.402   7.000  0.9160 -0.8440 -0.0197
 5186SOL    HW227018   0.214   2.525   7.019  0.9573  0.5375 -0.4510
 5187SOL     OW27019   4.597   3.919   6.793 -0.3984  0.7890 -0.0123
 5187SOL    HW127020   4.547   3.980   6.847 -0.2373  0.4050  0.5748
 5187SOL    HW227021   4.630   3.851   6.852  1.2145 -0.0253 -1.8340
 5188SOL     OW27022   4.372   0.794   4.269 -0.1965 -0.7380 -0.3094
 5188SOL    HW127023   4.464   0.768   4.278 -0.1057 -1.0522 -2.2344
 5188SOL    HW227024   4.371   0.841   4.186  0.8196  0.7444  0.5382
 5189SOL     OW27025   3.746   3.787   4.908 -0.0194 -0.0161 -0.3875
 5189SOL    HW127026   3.759   3.779   4.813 -1.1384 -1.0666 -0.4638
 5189SOL    HW227027   3.816   3.732   4.943 -0.9679 -1.3043 -0.4890
 5190SOL     OW27028   3.825   4.398   8.208  0.3038  0.0452 -0.3318
 5190SOL    HW127029   3.794   4.413   8.118  1.1528  0.6975 -0.5146
 5190SOL    HW227030   3.763   4.331   8.237 -0.4430  0.1546 -1.6505
 5191SOL     OW27031   1.904   0.905   8.638 -0.0856 -0.2681 -0.1408
 5191SOL    HW127032   1.826   0.950   8.606  0.9560  0.9632 -0.9325
 5191SOL    HW227033   1.964   0.914   8.564  1.8657  0.4789  1.5419
 5192SOL     OW27034   3.131   1.292  10.491 -0.4425  0.2825 -0.4128
 5192SOL    HW127035   3.081   1.217  10.458 -2.2847  0.4493  1.9389
 5192SOL    HW227036   3.216   1.253  10.510  0.0878  1.6511 -0.0014
 5193SOL     OW27037   1.927   1.844   7.128 -0.3798 -0.1225  0.4371
 5193SOL    HW127038   1.879   1.902   7.186  2.3980  2.9548 -0.3627
 5193SOL    HW227039   1.945   1.905   7.057 -1.3373 -2.3315 -1.7122
 5194SOL     OW27040   3.882   0.151   3.094 -0.3684 -0.2685 -0.5181
 5194SOL    HW127041   3.849   0.064   3.113 -1.1189  0.3229  0.8939
 5194SOL    HW227042   3.842   0.203   3.164 -0.8991 -0.1732 -0.8923
 5195SOL     OW27043   0.478   3.445   5.833  0.3641  0.1157 -0.2282
 5195SOL    HW127044   0.530   3.463   5.755 -2.7039  2.1974 -1.8208
 5195SOL    HW227045   0.411   3.387   5.797  0.6835 -0.2744 -0.1876
 5196SOL     OW27046   3.497   4.377   4.587  0.2680  0.1954  0.5290
 5196SOL    HW127047   3.570   4.420   4.543 -0.6555 -0.4434 -1.6500
 5196SOL    HW227048   3.538   4.343   4.666  0.6121  1.1147  0.7472
 5197SOL     OW27049   1.052   0.081   8.100  0.4892  0.3570 -0.1060
 5197SOL    HW127050   1.014   4.714   8.087  0.7871  0.2664 -0.3599
 5197SOL    HW227051   1.085   0.079   8.190 -2.4427  0.0780  0.9751
 5198SOL     OW27052   2.574   3.729   9.356 -0.1285  0.6759  0.3831
 5198SOL    HW127053   2.579   3.816   9.316  1.4757 -0.0280 -0.9187
 5198SOL    HW227054   2.487   3.697   9.330  0.6186  0.4433 -1.8462
 5199SOL     OW27055   2.549   1.399   4.052  0.4620  0.3181 -0.1814
 5199SOL    HW127056   2.629   1.351   4.032  0.9674  1.7921 -1.6708
 5199SOL    HW227057   2.567   1.452   4.130 -1.3127  1.1248 -0.3074
 5200SOL     OW27058   2.313   2.979   1.141 -0.3442 -0.2175 -0.1854
 5200SOL    HW127059   2.390   3.006   1.090 -0.1099  0.3263  0.4501
 5200SOL    HW227060   2.332   2.904   1.197  0.6642 -0.0154 -0.2527
 5201SOL     OW27061   1.961   0.604   7.115 -0.5931 -0.5839 -0.0280
 5201SOL    HW127062   1.950   0.650   7.198  1.0190 -3.2074  1.6429
 5201SOL    HW227063   2.056   0.603   7.103 -0.4853  0.7228  0.7492
 5202SOL     OW27064   3.161   4.291   5.575  0.1521 -0.0162  0.0972
 5202SOL    HW127065   3.184   4.242   5.496 -0.9045  0.3571 -0.4433
 5202SOL    HW227066   3.235   4.273   5.633  0.4944 -1.1288 -0.6790
 5203SOL     OW27067   0.787   1.626   0.293 -0.1005  0.0609  0.3371
 5203SOL    HW127068   0.728   1.692   0.330 -0.3373  0.8080 -1.3811
 5203SOL    HW227069   0.874   1.641   0.330 -0.2209 -0.7463  0.9560
 5204SOL     OW27070   2.448   1.815  10.600  0.8117  0.1184 -0.3098
 5204SOL    HW127071   2.374   1.816  10.661  0.5764  1.5004 -0.6333
 5204SOL    HW227072   2.427   1.724  10.576  0.3205  0.5143 -1.4037
 5205SOL     OW27073   2.808   4.659   1.789  0.0359  0.2129 -0.3948
 5205SOL    HW127074   2.753   4.691   1.717 -1.2494  0.1016  0.5384
 5205SOL    HW227075   2.747   4.652   1.862  0.0326  2.1571 -0.2050
 5206SOL     OW27076   1.815   4.593   2.836 -0.1286 -0.1701  0.1477
 5206SOL    HW127077   1.887   4.655   2.832  0.7743 -1.1591  1.3524
 5206SOL    HW227078   1.790   4.584   2.744  0.9666  1.0190 -0.2730
 5207SOL     OW27079   0.578   0.650   1.439  0.1872  0.1424  0.3046
 5207SOL    HW127080   0.537   0.609   1.515  0.5696 -1.1789 -0.1966
 5207SOL    HW227081   0.662   0.604   1.448  0.2230  0.3533  1.0594
 5208SOL     OW27082   0.516   0.354   0.562  0.1360 -0.5284 -0.8280
 5208SOL    HW127083   0.449   0.321   0.622  2.0430  0.5673  1.8955
 5208SOL    HW227084   0.574   0.278   0.550 -0.1800 -1.0389  0.9423
 5209SOL     OW27085   0.471   1.249   6.778 -0.0881 -0.0634  0.0607
 5209SOL    HW127086   0.529   1.275   6.849  1.2598 -0.5545 -0.8541
 5209SOL    HW227087   0.499   1.162   6.749  0.4776 -0.5043  1.9723
 5210SOL     OW27088   2.166   1.217  13.277 -0.2358 -0.0737  0.4076
 5210SOL    HW127089   2.085   1.269  13.282 -0.7152 -0.7842  0.0180
 5210SOL    HW227090   2.144   1.150  13.212  0.3079 -1.0430  1.2369
 5211SOL     OW27091   0.789   1.950  13.260 -0.2189  0.0341 -0.0799
 5211SOL    HW127092   0.710   1.964  13.312  0.4512 -2.5595  1.6509
 5211SOL    HW227093   0.757   1.915  13.176 -1.7164  0.3319  0.3648
 5212SOL     OW27094   1.226   2.856   1.923 -0.2173  0.1343 -0.3196
 5212SOL    HW127095   1.211   2.937   1.873  2.9705  0.3812 -0.9104
 5212SOL    HW227096   1.289   2.885   1.989 -1.8463  0.1436  1.2226
 5213SOL     OW27097   0.269   1.772  10.539  0.6927 -0.5570  0.5732
 5213SOL    HW127098   0.361   1.783  10.512  0.0676  1.9307 -0.5395
 5213SOL    HW227099   0.257   1.680  10.561 -0.9519 -0.5087 -0.1606
 5214SOL     OW27100   0.900   0.664   4.730 -0.8108  0.0910 -0.3254
 5214SOL    HW127101   0.865   0.695   4.814  0.0023  1.8645 -0.6381
 5214SOL    HW227102   0.924   0.746   4.687  1.1237 -0.8287 -0.9705
 5215SOL     OW27103   3.255   2.170  14.002  0.3443  0.4300  0.4069
 5215SOL    HW127104   3.329   2.136  13.953 -0.9935 -1.8367 -0.0843
 5215SOL    HW227105   3.274   2.164  14.096 -1.0183  0.6636  0.7053
 5216SOL     OW27106   0.941   1.105   8.655 -0.3725 -0.0740  0.0701
 5216SOL    HW127107   0.980   1.050   8.722  0.0162 -0.5627 -0.5614
 5216SOL    HW227108   0.895   1.180   8.693  1.5241  1.2904 -0.3469
 5217SOL     OW27109   1.315   2.502   1.335  0.5184  0.3144 -0.1654
 5217SOL    HW127110   1.250   2.463   1.394 -1.4066  3.1958 -0.3813
 5217SOL    HW227111   1.366   2.561   1.391  1.0866  0.2709 -0.6378
 5218SOL     OW27112   0.658   2.114   0.981  0.2279  0.6059  0.1070
 5218SOL    HW127113   0.569   2.082   0.997  0.0263  1.3957  0.5397
 5218SOL    HW227114   0.708   2.052   1.035  0.5580  1.0971  0.3713
 5219SOL     OW27115   4.368   2.609   6.197  0.0647  0.3384 -0.5486
 5219SOL    HW127116   4.320   2.530   6.170  1.9927 -0.9195 -0.2328
 5219SOL    HW227117   4.405   2.641   6.115 -0.9191 -0.6822 -1.4015
 5220SOL     OW27118   1.164   3.064   6.503 -0.2124  0.2445  0.2781
 5220SOL    HW127119   1.104   3.005   6.548  0.2832  0.5051  1.2877
 5220SOL    HW227120   1.237   3.003   6.509 -0.7480 -0.6696 -2.5032
 5221SOL     OW27121   3.006   0.565  11.250  0.2921  0.1988 -0.0866
 5221SOL    HW127122   3.032   0.642  11.299 -1.3828  2.4270 -2.7287
 5221SOL    HW227123   3.058   0.505  11.304 -2.3281 -0.4820  1.6837
 5222SOL     OW27124   4.422   0.088  10.941  0.1211  1.1305 -0.2974
 5222SOL    HW127125   4.448   0.017  10.882  1.9420 -0.0686  1.9395
 5222SOL    HW227126   4.508   0.129  10.952 -0.1413  1.9612 -1.3784
 5223SOL     OW27127   3.849   2.208   4.265  0.0407 -1.0274 -0.2295
 5223SOL    HW127128   3.895   2.271   4.322  0.1513 -1.2450 -0.0757
 5223SOL    HW227129   3.924   2.155   4.237  0.2336 -0.6662 -0.3931
 5224SOL     OW27130   1.332   3.401  11.661  0.3040 -0.5292 -0.1390
 5224SOL    HW127131   1.304   3.320  11.703 -3.0660 -0.0088 -1.4024
 5224SOL    HW227132   1.288   3.401  11.576 -0.3412 -0.2675  0.1889
 5225SOL     OW27133   0.533   4.461   6.714  0.2428 -0.0953 -0.5351
 5225SOL    HW127134   0.594   4.462   6.788 -1.5318  0.4106  0.9109
 5225SOL    HW227135   0.479   4.383   6.728  1.3257 -0.7463  0.0944
 5226SOL     OW27136   2.246   1.573   6.134 -0.2232 -0.7119 -0.6399
 5226SOL    HW127137   2.328   1.610   6.102  0.6724 -0.3982  2.0171
 5226SOL    HW227138   2.185   1.607   6.069 -0.2134 -2.1630 -1.4146
 5227SOL     OW27139   2.889   0.775  11.092  0.9410 -0.5489  0.3411
 5227SOL    HW127140   2.912   0.694  11.139  0.9774 -0.9362 -0.3445
 5227SOL    HW227141   2.843   0.735  11.018  1.5199 -2.0985  0.8156
 5228SOL     OW27142   0.841   4.702   6.075  0.4961 -0.4793 -0.5587
 5228SOL    HW127143   0.934   4.716   6.058  0.4979  1.2931  0.9524
 5228SOL    HW227144   0.819   0.070   6.044  1.7319 -0.1743 -0.5673
 5229SOL     OW27145   4.610   0.107   3.418 -0.4830 -0.1755  0.2530
 5229SOL    HW127146   4.697   0.147   3.428 -0.6873 -0.1190  1.8274
 5229SOL    HW227147   4.594   0.126   3.326 -1.4286 -1.1589  0.2207
 5230SOL     OW27148   0.418   3.479   5.268  0.2034  0.0880  0.1252
 5230SOL    HW127149   0.428   3.449   5.359 -0.5403 -1.3241 -0.2573
 5230SOL    HW227150   0.403   3.398   5.220  0.4707  0.0505  0.1049
 5231SOL     OW27151   3.432   0.492   0.154  0.2143 -0.3514  0.4871
 5231SOL    HW127152   3.462   0.435   0.225  1.3530 -1.3425 -0.7739
 5231SOL    HW227153   3.518   0.509   0.116  0.8272 -1.0040  1.6072
 5232SOL     OW27154   0.163   3.456  14.530  0.3076  0.0831 -0.2261
 5232SOL    HW127155   0.206   3.436  14.447 -2.5957 -0.2546 -1.6174
 5232SOL    HW227156   0.123   3.371  14.549  2.4208 -1.0968 -1.0815
 5233SOL     OW27157   0.036   2.068   3.003 -0.5685  0.1098 -0.2996
 5233SOL    HW127158   0.129   2.085   2.994 -0.7808  0.3353 -2.0539
 5233SOL    HW227159   0.032   1.982   2.961 -0.1078  1.3323 -2.8549
 5234SOL     OW27160   2.614   0.538   3.459  0.4892 -0.6475  0.0767
 5234SOL    HW127161   2.625   0.456   3.507  1.7564  0.7768  2.2193
 5234SOL    HW227162   2.643   0.515   3.370 -2.3424  0.4149 -1.1196
 5235SOL     OW27163   4.247   0.583  13.144 -0.1573  0.7283  0.1174
 5235SOL    HW127164   4.188   0.657  13.127 -0.5754 -0.2227 -2.6245
 5235SOL    HW227165   4.273   0.593  13.235  2.1681  2.2709 -0.7252
 5236SOL     OW27166   1.795   0.432   4.872  0.2274 -0.3623 -0.4880
 5236SOL    HW127167   1.797   0.351   4.822 -0.9362 -0.1014 -0.9414
 5236SOL    HW227168   1.864   0.417   4.937  1.6228  1.5275 -1.5062
 5237SOL     OW27169   3.498   3.385  17.512  0.1228 -0.0927  0.1534
 5237SOL    HW127170   3.461   3.464  17.552  2.1948  0.0880  1.7042
 5237SOL    HW227171   3.456   3.319  17.567  1.6984 -0.5693  0.7824
 5238SOL     OW27172   1.827   4.423  11.524 -0.1854 -0.1045  0.7295
 5238SOL    HW127173   1.872   4.433  11.608  0.4164  0.2204  0.3703
 5238SOL    HW227174   1.890   4.381  11.466 -1.3057 -0.9960  0.1573
 5239SOL     OW27175   0.657   0.143  10.530  0.4125  0.1922 -0.0553
 5239SOL    HW127176   0.707   0.061  10.528 -0.8277 -0.5118 -3.2635
 5239SOL    HW227177   0.729   0.206  10.534  0.7882 -0.2993  0.7472
 5240SOL     OW27178   3.788   4.133   1.296  0.0287  0.1962  0.5309
 5240SOL    HW127179   3.872   4.111   1.256 -0.7779 -0.6970 -0.6834
 5240SOL    HW227180   3.724   4.087   1.242  0.7786  0.7267 -0.8125
 5241SOL     OW27181   2.945   0.734   6.064 -0.6859 -0.6686 -0.0116
 5241SOL    HW127182   2.964   0.750   5.972  1.0057 -1.6546  0.1649
 5241SOL    HW227183   3.026   0.769   6.101 -0.3185 -0.4840 -1.0099
 5242SOL     OW27184   3.674   2.384   5.297 -0.4951 -0.0629  0.5750
 5242SOL    HW127185   3.610   2.454   5.279 -2.2977 -1.8152  0.2225
 5242SOL    HW227186   3.631   2.333   5.365 -0.3034  0.2865  0.9591
 5243SOL     OW27187   1.241   0.633   5.189  0.4410 -0.5559  0.0566
 5243SOL    HW127188   1.261   0.616   5.097 -0.1500 -0.0968 -0.1556
 5243SOL    HW227189   1.159   0.682   5.181  0.9175  0.4216  1.2512
 5244SOL     OW27190   2.597   0.019   7.607  0.6021 -0.0017 -0.4010
 5244SOL    HW127191   2.645   0.027   7.689 -0.6309 -0.1084  0.3271
 5244SOL    HW227192   2.547   4.661   7.631 -1.2361  1.1123 -0.5268
 5245SOL     OW27193   2.348   4.540  13.135  0.1632  0.4197 -0.1544
 5245SOL    HW127194   2.296   4.618  13.122 -0.1561  0.3619  0.7242
 5245SOL    HW227195   2.364   4.538  13.230 -0.0078  0.4490 -0.1241
 5246SOL     OW27196   2.796   1.960   6.068  0.7045  0.2544 -0.0684
 5246SOL    HW127197   2.711   1.953   6.111 -0.7450  0.1371 -3.0046
 5246SOL    HW227198   2.846   2.021   6.122  0.8471 -0.7988  0.9989
 5247SOL     OW27199   0.902   4.109   3.721 -0.1405  0.1444  0.1048
 5247SOL    HW127200   0.923   4.056   3.798  0.1881 -0.1852 -0.2068
 5247SOL    HW227201   0.982   4.083   3.674  0.4303  1.9692  0.0543
 5248SOL     OW27202   2.230   3.782   7.323 -0.6478 -0.3754 -0.2067
 5248SOL    HW127203   2.206   3.689   7.322 -3.4574  0.3394 -0.7267
 5248SOL    HW227204   2.205   3.804   7.233  2.0625  1.7159 -0.4454
 5249SOL     OW27205   3.566   4.179   2.929  0.3089  0.2092  0.3633
 5249SOL    HW127206   3.610   4.209   3.008  2.4915 -1.1511 -0.3503
 5249SOL    HW227207   3.507   4.251   2.908  0.4750  0.2720  0.1079
 5250SOL     OW27208   2.231   0.009   7.779  0.2059  0.5161  0.0240
 5250SOL    HW127209   2.266   0.021   7.867 -0.3677 -0.1031  0.3407
 5250SOL    HW227210   2.187   4.645   7.793  3.2038 -1.5194 -2.7856
 5251SOL     OW27211   0.015   1.646  11.532 -0.0687 -0.2021  0.0654
 5251SOL    HW127212   0.068   1.652  11.452  0.3563 -2.6636  0.1503
 5251SOL    HW227213   0.021   1.554  11.557 -0.8403 -0.1718  0.3694
 5252SOL     OW27214   0.613   1.072   2.439  0.4287  0.2843 -0.1496
 5252SOL    HW127215   0.622   1.058   2.345  0.1567  1.3748 -0.3379
 5252SOL    HW227216   0.701   1.041   2.464 -0.1745 -2.0388 -0.8707
 5253SOL     OW27217   1.546   0.764   2.905  0.3951  0.0717 -0.0474
 5253SOL    HW127218   1.564   0.759   2.999  0.9160  3.8743  0.0519
 5253SOL    HW227219   1.510   0.679   2.879 -1.3270  0.4912  0.9208
 5254SOL     OW27220   3.672   2.432  14.571 -0.2273 -0.0721 -0.7665
 5254SOL    HW127221   3.722   2.512  14.553  0.5299 -0.2900  0.3275
 5254SOL    HW227222   3.583   2.452  14.543 -0.3237 -1.4531 -1.4546
 5255SOL     OW27223   4.651   2.636   8.302  0.0259 -0.2898 -0.7654
 5255SOL    HW127224   0.012   2.647   8.253 -1.2072  0.0741 -2.7257
 5255SOL    HW227225   4.678   2.642   8.393  1.0371  0.8773 -1.1426
 5256SOL     OW27226   0.094   1.514  13.184  0.0459  0.4662 -0.4293
 5256SOL    HW127227   0.050   1.445  13.134  3.9695 -1.7738 -0.8055
 5256SOL    HW227228   0.047   1.523  13.267  1.3016  2.3265  0.0863
 5257SOL     OW27229   1.761   3.840   2.031 -0.0490 -0.5759 -0.0938
 5257SOL    HW127230   1.814   3.762   2.017  1.3369  0.3813 -0.2847
 5257SOL    HW227231   1.683   3.823   1.978  1.9748 -2.7098 -2.4030
 5258SOL     OW27232   0.390   3.777   1.976  0.7674  0.2785 -0.4714
 5258SOL    HW127233   0.476   3.809   1.946  2.2582 -0.9940  2.3785
 5258SOL    HW227234   0.352   3.746   1.894 -0.1004 -0.2191  0.1276
 5259SOL     OW27235   1.851   3.067   2.120  0.8212  0.5396 -0.3785
 5259SOL    HW127236   1.906   3.004   2.074 -0.4454 -1.0405  0.2451
 5259SOL    HW227237   1.925   3.111   2.161 -0.0405 -1.6070  3.5382
 5260SOL     OW27238   2.872   3.322   5.037 -0.1086  0.0756  0.5503
 5260SOL    HW127239   2.802   3.375   5.075 -0.2243  0.9229 -0.8443
 5260SOL    HW227240   2.943   3.387   5.030 -0.0712 -0.2409 -1.7308
 5261SOL     OW27241   1.996   1.385  14.701 -0.1775 -0.3841  0.6951
 5261SOL    HW127242   1.986   1.349  14.612 -1.7428 -0.4318  0.8866
 5261SOL    HW227243   2.007   1.307  14.756  3.2462 -0.5090 -0.1784
 5262SOL     OW27244   3.238   2.371   0.449  0.0749  0.8625  0.6706
 5262SOL    HW127245   3.253   2.421   0.529 -0.5106 -0.9708  1.9350
 5262SOL    HW227246   3.152   2.332   0.461 -0.0673  0.2029 -2.4857
 5263SOL     OW27247   2.838   4.595  17.302 -0.5437  0.4976 -0.2505
 5263SOL    HW127248   2.880   4.627  17.222 -2.8995  1.6571 -1.0096
 5263SOL    HW227249   2.913   4.600  17.362  0.0049  1.1953 -0.9862
 5264SOL     OW27250   3.937   3.021   2.359 -0.4493  0.2478 -0.4167
 5264SOL    HW127251   4.013   3.002   2.413 -0.4858  0.2438 -0.3666
 5264SOL    HW227252   3.978   3.054   2.279  0.0498 -0.9847 -0.6604
 5265SOL     OW27253   3.259   1.800   0.293  0.2992 -1.2483  0.0662
 5265SOL    HW127254   3.273   1.782   0.200 -2.7641 -2.1817 -0.2124
 5265SOL    HW227255   3.191   1.734   0.308 -0.4117 -0.1903  1.5916
 5266SOL     OW27256   0.136   0.469   7.237 -0.7624  0.3265 -0.0070
 5266SOL    HW127257   0.146   0.382   7.198 -1.0236  0.8820 -1.2817
 5266SOL    HW227258   0.041   0.467   7.242 -0.7864  0.6910 -0.3164
 5267SOL     OW27259   3.981   2.060   6.853  0.8556 -0.0347 -0.6614
 5267SOL    HW127260   3.972   1.965   6.848 -0.3540 -0.1270  4.0879
 5267SOL    HW227261   3.906   2.070   6.912  0.9655 -1.3895 -0.2851
 5268SOL     OW27262   2.406   3.164   3.772  0.1177 -0.4096 -0.4330
 5268SOL    HW127263   2.313   3.185   3.778  0.0403 -1.1131  0.7288
 5268SOL    HW227264   2.439   3.212   3.847 -0.3462 -1.1557  0.2508
 5269SOL     OW27265   2.214   3.335   5.670 -0.4785  0.1406 -0.3390
 5269SOL    HW127266   2.135   3.355   5.620  0.8706  0.6640 -2.2307
 5269SOL    HW227267   2.175   3.267   5.726  0.9114  0.2828  0.7944
 5270SOL     OW27268   1.714   3.078  14.393 -0.4279  0.0742  0.4255
 5270SOL    HW127269   1.763   3.040  14.319 -0.3186 -0.3540  0.7200
 5270SOL    HW227270   1.751   3.165  14.408  1.0153 -0.4954  0.1487
 5271SOL     OW27271   0.595   3.073   6.613 -0.4545  0.0002 -0.0581
 5271SOL    HW127272   0.677   3.025   6.620 -0.5391 -0.2798 -0.9473
 5271SOL    HW227273   0.629   3.153   6.652 -0.7399 -0.7637  1.7639
 5272SOL     OW27274   2.230   0.707   2.374 -0.0255  0.2037  0.0335
 5272SOL    HW127275   2.163   0.640   2.360  0.5636 -0.2214 -0.7777
 5272SOL    HW227276   2.257   0.731   2.285 -0.4703  0.7004  0.0303
 5273SOL     OW27277   0.492   1.453  13.176  0.1475  0.3406 -0.3319
 5273SOL    HW127278   0.431   1.458  13.249 -1.0565 -0.7869 -1.2755
 5273SOL    HW227279   0.525   1.365  13.194 -0.4320 -0.0405 -1.1167
 5274SOL     OW27280   0.459   2.826  17.670 -0.1208  0.4095 -0.8275
 5274SOL    HW127281   0.461   2.921  17.677 -0.8899  0.1696  2.4895
 5274SOL    HW227282   0.388   2.789   0.040 -0.0009  1.0897 -0.2050
 5275SOL     OW27283   3.697   2.288  17.540 -0.6041  0.1234  0.1107
 5275SOL    HW127284   3.745   2.243  17.471  1.6418  1.3052  0.9009
 5275SOL    HW227285   3.667   2.216  17.595 -2.4576  1.5904  1.0632
 5276SOL     OW27286   1.885   0.752   2.378 -0.0426  0.1066  0.7129
 5276SOL    HW127287   1.939   0.824   2.346  1.6083 -0.5356  2.0652
 5276SOL    HW227288   1.894   0.687   2.309  0.5154  1.4915 -0.4964
 5277SOL     OW27289   4.086   0.733  12.771  0.0346  0.1993  0.0683
 5277SOL    HW127290   4.083   0.738  12.676  3.4898 -2.5615 -0.1797
 5277SOL    HW227291   4.107   0.640  12.783 -0.9024  0.4023  3.3311
 5278SOL     OW27292   3.023   0.620   7.574  0.0107 -0.1289 -0.2158
 5278SOL    HW127293   2.979   0.704   7.560 -0.9819 -1.0404 -2.7489
 5278SOL    HW227294   2.960   0.557   7.538 -1.1838  1.8629 -1.6107
 5279SOL     OW27295   0.553   2.936  10.269 -0.2067  0.0130  0.1944
 5279SOL    HW127296   0.564   2.841  10.266 -1.8085 -0.1807  0.2002
 5279SOL    HW227297   0.620   2.970  10.211  0.1219 -1.2230 -0.1358
 5280SOL     OW27298   1.198   0.388   1.080  0.0402 -0.7485  0.0999
 5280SOL    HW127299   1.212   0.479   1.054 -0.6691 -0.9846 -1.1154
 5280SOL    HW227300   1.277   0.362   1.127  1.8191  2.7335 -0.9479
 5281SOL     OW27301   0.179   3.787   9.920 -0.0822 -0.6056  0.5249
 5281SOL    HW127302   0.203   3.867   9.966  0.1555 -0.6117  0.4093
 5281SOL    HW227303   0.130   3.811   9.841 -1.7171 -2.2997  1.0067
 5282SOL     OW27304   1.529   1.382   1.497  0.2434 -0.1679 -0.4621
 5282SOL    HW127305   1.514   1.316   1.565 -0.4043 -1.2473 -1.6601
 5282SOL    HW227306   1.613   1.416   1.529 -0.5670 -1.1951  2.7994
 5283SOL     OW27307   2.093   2.473  12.621 -0.2698  0.1376 -0.2356
 5283SOL    HW127308   2.183   2.443  12.610  0.0441  1.5475 -1.6366
 5283SOL    HW227309   2.081   2.470  12.716 -0.2152 -3.3086 -0.3521
 5284SOL     OW27310   3.487   4.472   9.532 -0.2734 -0.2630 -0.5000
 5284SOL    HW127311   3.567   4.442   9.489  0.0984  1.2872 -0.8736
 5284SOL    HW227312   3.506   4.500   9.621  0.7702  0.7350 -1.0309
 5285SOL     OW27313   2.167   1.520   8.898 -0.1576  0.8245 -0.1279
 5285SOL    HW127314   2.156   1.475   8.982 -0.1462  0.7830 -0.1489
 5285SOL    HW227315   2.097   1.485   8.842  0.2565 -1.4214  0.7596
 5286SOL     OW27316   0.520   1.772   8.187 -0.3392 -0.2033  0.3244
 5286SOL    HW127317   0.505   1.836   8.117 -2.9735 -1.0826  0.0718
 5286SOL    HW227318   0.548   1.694   8.139 -1.2524 -0.9537  1.0111
 5287SOL     OW27319   3.627   2.781   4.441  0.7936 -0.0316  0.1054
 5287SOL    HW127320   3.645   2.701   4.391 -1.3120  0.1291 -0.8912
 5287SOL    HW227321   3.626   2.845   4.370  1.1214 -0.4926 -0.3085
 5288SOL     OW27322   3.444   2.647   8.323  0.0545 -0.1845 -0.4343
 5288SOL    HW127323   3.408   2.641   8.234  2.0689  1.0101 -1.3382
 5288SOL    HW227324   3.432   2.741   8.335  0.6013 -0.0578 -0.8463
 5289SOL     OW27325   2.009   1.538  16.257  0.2823  0.4597  0.0519
 5289SOL    HW127326   2.069   1.503  16.323 -1.2060  1.6836  2.0501
 5289SOL    HW227327   2.041   1.627  16.246  1.2209  0.2017  0.6944
 5290SOL     OW27328   2.949   0.287   6.532  0.0522 -0.5860  0.5258
 5290SOL    HW127329   2.993   0.371   6.535  1.8808 -1.4765 -1.3684
 5290SOL    HW227330   2.874   0.306   6.588 -0.4766  0.9931 -0.7275
 5291SOL     OW27331   2.898   4.336   6.516  0.0816  0.0575  0.1860
 5291SOL    HW127332   2.871   4.247   6.491  0.3872 -0.5115  1.9024
 5291SOL    HW227333   2.907   4.319   6.610  0.7206 -1.3330 -0.1310
 5292SOL     OW27334   0.288   2.356   9.011  0.6358  0.3737 -0.2786
 5292SOL    HW127335   0.309   2.374   8.919  1.3530  0.2964 -0.1336
 5292SOL    HW227336   0.366   2.395   9.049  0.3827  0.3703  0.2403
 5293SOL     OW27337   3.258   0.973   5.667  0.0372 -0.2347  0.0318
 5293SOL    HW127338   3.193   0.903   5.657  0.3749 -0.2224 -2.1649
 5293SOL    HW227339   3.263   1.012   5.580  3.9741 -0.8793 -0.0275
 5294SOL     OW27340   3.225   4.632   8.516 -0.2319  0.4998  0.1278
 5294SOL    HW127341   3.288   4.572   8.477  0.2120  0.0963  1.4822
 5294SOL    HW227342   3.207   4.586   8.598  2.3899  0.7517  0.8337
 5295SOL     OW27343   0.402   2.185  11.324 -0.0678  0.3587 -0.1110
 5295SOL    HW127344   0.395   2.097  11.360  3.0829 -0.1817 -0.8023
 5295SOL    HW227345   0.414   2.234  11.405 -0.4850 -0.4124  0.4106
 5296SOL     OW27346   0.015   1.310   0.971  0.1576  0.0320 -0.1515
 5296SOL    HW127347   0.007   1.256   1.050  2.2158 -0.6410 -0.4047
 5296SOL    HW227348   0.022   1.400   1.002 -1.1929 -0.6144  2.0559
 5297SOL     OW27349   1.171   2.689   8.506  0.7350 -0.0661  0.5829
 5297SOL    HW127350   1.262   2.711   8.526  0.7758 -0.0067  0.3382
 5297SOL    HW227351   1.159   2.754   8.436 -1.1053 -0.6750  0.3110
 5298SOL     OW27352   0.201   0.197   6.794 -0.3780  0.3337  0.0377
 5298SOL    HW127353   0.123   0.169   6.843 -0.9246  1.2132 -0.3348
 5298SOL    HW227354   0.173   0.160   6.710  0.0605  1.3462 -0.5516
 5299SOL     OW27355   1.283   1.889  17.514 -0.1791  0.0955 -0.0036
 5299SOL    HW127356   1.273   1.964  17.456 -1.4914  0.1341  0.2783
 5299SOL    HW227357   1.262   1.821  17.449 -1.8164  0.8079 -0.2053
 5300SOL     OW27358   1.607   0.129  14.070  0.1199 -0.0654  0.6289
 5300SOL    HW127359   1.591   0.036  14.053 -0.3656  0.4181 -1.5406
 5300SOL    HW227360   1.655   0.158  13.993  0.0099 -1.7608 -0.0692
 5301SOL     OW27361   1.314   0.198   8.359  0.4912 -0.4947 -0.2790
 5301SOL    HW127362   1.352   0.286   8.368 -1.2382 -0.0623  2.9097
 5301SOL    HW227363   1.375   0.162   8.295  0.6297 -1.6626  0.5178
 5302SOL     OW27364   0.597   4.575   9.843 -0.7972  0.4185 -0.1890
 5302SOL    HW127365   0.637   4.660   9.826  1.6852 -0.6756  0.1666
 5302SOL    HW227366   0.558   4.611   9.922  0.0773  1.3154 -0.1721
 5303SOL     OW27367   1.389   0.745  12.154 -0.0103 -0.0070 -0.1759
 5303SOL    HW127368   1.304   0.730  12.112 -0.6856  1.6564  0.5801
 5303SOL    HW227369   1.378   0.703  12.239  0.7526  0.5592  0.2089
 5304SOL     OW27370   1.913   0.282   3.685 -0.2981  0.2170  0.2821
 5304SOL    HW127371   1.931   0.297   3.592 -1.1371  0.6866  0.1918
 5304SOL    HW227372   1.825   0.244   3.675 -0.1850 -0.1388  0.6585
 5305SOL     OW27373   1.253   3.856   9.556 -0.1089 -0.0137  0.0666
 5305SOL    HW127374   1.274   3.807   9.477  2.5234  0.0630  0.7188
 5305SOL    HW227375   1.340   3.878   9.589 -0.3136  0.1994  0.4726
 5306SOL     OW27376   3.174   1.010   6.850 -0.7603  0.1251 -0.0256
 5306SOL    HW127377   3.198   1.055   6.769  1.3543 -4.1174 -1.7396
 5306SOL    HW227378   3.255   0.968   6.876  0.4441  1.3125 -1.8620
 5307SOL     OW27379   0.392   3.558   2.589  0.1883 -0.2035  0.7366
 5307SOL    HW127380   0.429   3.524   2.508 -1.2015 -0.4855  0.2195
 5307SOL    HW227381   0.383   3.646   2.552  0.0395 -1.1904 -1.5241
 5308SOL     OW27382   0.200   2.502  14.643 -0.0459 -0.2735  1.0369
 5308SOL    HW127383   0.206   2.484  14.550  1.0568 -0.0718  1.0753
 5308SOL    HW227384   0.289   2.529  14.665 -1.0528  2.7466  1.4966
 5309SOL     OW27385   3.998   1.649   4.392 -0.4495 -0.3257  0.1638
 5309SOL    HW127386   3.922   1.698   4.362  1.0880  1.3706 -0.9729
 5309SOL    HW227387   4.075   1.703   4.374 -0.4034  0.2454  2.1026
 5310SOL     OW27388   2.090   2.059   3.639 -0.6241  0.1881 -0.0145
 5310SOL    HW127389   2.167   2.096   3.596 -1.0316  0.3402 -0.6063
 5310SOL    HW227390   2.042   2.136   3.672  1.6271  1.9867 -0.9244
 5311SOL     OW27391   2.373   0.885   2.695  0.4723 -0.0169  0.0559
 5311SOL    HW127392   2.391   0.793   2.676  0.5225  0.2023 -0.9566
 5311SOL    HW227393   2.300   0.895   2.633  1.6344 -0.6171 -1.4070
 5312SOL     OW27394   0.534   2.357   7.148  0.3660 -0.6222 -0.3165
 5312SOL    HW127395   0.546   2.450   7.164 -1.4510 -0.7018  1.4687
 5312SOL    HW227396   0.543   2.355   7.053 -1.5855 -2.2288 -0.4710
 5313SOL     OW27397   3.431   0.962   4.794  0.2195  0.0632  0.2266
 5313SOL    HW127398   3.526   0.955   4.785  0.2042  1.0016 -0.7241
 5313SOL    HW227399   3.420   1.017   4.872 -0.8887 -2.7918  2.0815
 5314SOL     OW27400   2.453   0.856   3.682  0.5175 -0.0026 -0.1552
 5314SOL    HW127401   2.431   0.771   3.642  1.7177  0.2865 -1.4323
 5314SOL    HW227402   2.362   0.877   3.704  0.6532  0.5836 -0.1497
 5315SOL     OW27403   2.055   3.503   7.436 -0.8661 -0.0153  0.9140
 5315SOL    HW127404   2.013   3.587   7.451 -0.7187  0.0529  0.9396
 5315SOL    HW227405   2.010   3.466   7.360  2.7173  0.4539 -1.4343
 5316SOL     OW27406   3.762   2.888  15.653  1.0512 -0.2196 -0.3857
 5316SOL    HW127407   3.761   2.943  15.575 -0.2035 -0.2908 -0.4168
 5316SOL    HW227408   3.722   2.941  15.722  1.1052 -1.3596  0.5236
 5317SOL     OW27409   3.881   0.671   6.646 -0.1487  0.2315  0.0871
 5317SOL    HW127410   3.968   0.697   6.678 -0.2165 -1.4905  1.6622
 5317SOL    HW227411   3.870   0.586   6.688 -1.8643  0.5295  0.2184
 5318SOL     OW27412   2.137   1.076   9.130  0.1870  0.3947  0.0933
 5318SOL    HW127413   2.206   1.033   9.079  0.5195  1.1466 -0.0940
 5318SOL    HW227414   2.166   1.053   9.219 -1.4005 -1.0972  0.2185
 5319SOL     OW27415   3.126   4.053   7.957 -0.1549 -0.6448 -0.3065
 5319SOL    HW127416   3.059   4.118   7.979 -1.6294 -1.8107 -1.3564
 5319SOL    HW227417   3.157   4.086   7.873  1.8851 -0.5699  0.4728
 5320SOL     OW27418   1.806   0.125   9.768 -0.0842 -0.3672 -0.7116
 5320SOL    HW127419   1.745   0.175   9.821 -1.5743 -2.5743 -0.3226
 5320SOL    HW227420   1.860   0.194   9.731 -1.1900  1.5710  1.3127
 5321SOL     OW27421   1.302   2.531   5.347  0.4234  0.3093 -0.1042
 5321SOL    HW127422   1.239   2.568   5.285 -0.2379  1.0968  1.0150
 5321SOL    HW227423   1.317   2.443   5.315 -0.3046  0.1515 -0.0239
 5322SOL     OW27424   1.142   2.225  15.144 -0.7239 -0.5302  1.4180
 5322SOL    HW127425   1.167   2.139  15.110  0.9017  0.2876  0.5481
 5322SOL    HW227426   1.230   2.262  15.151  1.0150 -3.9351 -2.0564
 5323SOL     OW27427   4.285   0.585  13.417  0.6276  0.5363 -0.1136
 5323SOL    HW127428   4.273   0.549  13.505 -2.2073  1.7073 -0.0359
 5323SOL    HW227429   4.231   0.663  13.428  0.3852  0.7048 -2.5775
 5324SOL     OW27430   1.359   2.354   3.580 -0.0605 -0.1461  0.0420
 5324SOL    HW127431   1.374   2.441   3.616  1.3772 -0.8424  1.1261
 5324SOL    HW227432   1.431   2.304   3.619  1.0639  2.1923  0.9844
 5325SOL     OW27433   1.521   3.669   5.368  0.2519  0.1809  0.5547
 5325SOL    HW127434   1.449   3.714   5.413 -0.7232  0.2678 -1.0903
 5325SOL    HW227435   1.597   3.717   5.400  0.4647 -1.4137  2.4863
 5326SOL     OW27436   1.205   1.752   1.270  0.3314  0.1618 -0.0233
 5326SOL    HW127437   1.230   1.813   1.200 -0.1556 -0.6428 -0.9072
 5326SOL    HW227438   1.223   1.792   1.355  0.1386 -0.2879  0.2288
 5327SOL     OW27439   3.010   1.768   6.952 -0.5316  0.4229  0.7334
 5327SOL    HW127440   2.985   1.842   7.007 -1.9385  0.6356 -0.1954
 5327SOL    HW227441   2.924   1.729   6.937  0.6641 -1.0151 -2.4024
 5328SOL     OW27442   2.530   2.649   8.018 -0.0388  0.2097  0.2423
 5328SOL    HW127443   2.529   2.606   7.933 -0.4157  0.0655  0.3193
 5328SOL    HW227444   2.514   2.577   8.080 -0.4254  0.6197  0.6178
 5329SOL     OW27445   3.662   2.038   6.250 -0.9115 -0.9117 -0.2948
 5329SOL    HW127446   3.581   1.986   6.252 -1.2428 -0.4201 -1.0003
 5329SOL    HW227447   3.685   2.046   6.157  0.6981 -0.1689  0.1810
 5330SOL     OW27448   1.313   1.002   6.493  0.3661 -0.1478  0.2278
 5330SOL    HW127449   1.396   0.977   6.534 -0.1045 -0.7651  0.7802
 5330SOL    HW227450   1.270   0.917   6.496 -1.3296  0.8370  3.6664
 5331SOL     OW27451   1.877   1.576   6.748 -0.2300 -0.1814 -0.8219
 5331SOL    HW127452   1.835   1.500   6.789  1.1386 -1.0296 -1.0171
 5331SOL    HW227453   1.905   1.546   6.661  0.1969  0.7458 -0.9944
 5332SOL     OW27454   2.583   0.439   2.573  0.2804 -0.2392 -0.2513
 5332SOL    HW127455   2.660   0.489   2.599  1.7615 -1.8902 -1.4532
 5332SOL    HW227456   2.615   0.349   2.583  0.1608 -0.5955 -3.1176
 5333SOL     OW27457   4.116   3.373   7.808 -0.2955  0.0430 -0.4578
 5333SOL    HW127458   4.030   3.385   7.769 -0.1845  1.9304 -0.1266
 5333SOL    HW227459   4.106   3.282   7.835 -0.6304 -0.0060 -0.7579
 5334SOL     OW27460   2.655   4.422   3.264 -0.3291  0.0461  0.0278
 5334SOL    HW127461   2.620   4.447   3.178  3.3411 -1.0361 -1.7938
 5334SOL    HW227462   2.671   4.328   3.255  3.3480  0.6139  0.7118
 5335SOL     OW27463   0.796   1.380  12.211  0.2271  0.0951  0.3251
 5335SOL    HW127464   0.745   1.307  12.248  1.6599 -1.0821 -0.0231
 5335SOL    HW227465   0.727   1.446  12.212 -1.2259 -1.4240 -0.1430
 5336SOL     OW27466   3.439   2.277   7.762 -0.2238 -0.3216  0.2044
 5336SOL    HW127467   3.357   2.227   7.770 -1.0327  0.5318 -2.6261
 5336SOL    HW227468   3.484   2.251   7.842  0.9593 -0.2213 -0.4273
 5337SOL     OW27469   0.389   2.411   5.734  0.0274  0.3507  0.1534
 5337SOL    HW127470   0.406   2.492   5.783  0.1035  0.2117  0.3581
 5337SOL    HW227471   0.295   2.427   5.742 -0.2457 -1.0588 -0.2232
 5338SOL     OW27472   2.011   1.902  11.510 -0.4343  0.3213 -0.7853
 5338SOL    HW127473   2.015   1.819  11.558  0.2301  0.5896 -0.3769
 5338SOL    HW227474   1.918   1.916  11.531 -0.4044  0.4884 -0.7667
 5339SOL     OW27475   0.259   1.681   0.330  0.1745 -0.2942 -0.2911
 5339SOL    HW127476   0.346   1.653   0.359  0.2888 -0.9646 -1.2739
 5339SOL    HW227477   0.240   1.621   0.258 -1.0155  1.6664 -1.6046
 5340SOL     OW27478   1.780   3.210   7.872  0.8763  0.3976  0.3351
 5340SOL    HW127479   1.725   3.254   7.807 -2.6181 -1.8404  1.7814
 5340SOL    HW227480   1.853   3.269   7.891  0.2272  1.2494  0.1901
 5341SOL     OW27481   4.411   0.638  17.506  0.3298  0.6270 -0.0251
 5341SOL    HW127482   4.424   0.545  17.522  2.2747  1.2595  2.0837
 5341SOL    HW227483   4.354   0.670  17.576  1.7221 -0.2016  1.4878
 5342SOL     OW27484   3.491   4.371  11.401  0.5964 -0.0752  0.3282
 5342SOL    HW127485   3.578   4.341  11.428  0.0845 -0.4205  1.6062
 5342SOL    HW227486   3.441   4.292  11.424  1.2453 -0.1815  1.3471
 5343SOL     OW27487   4.058   1.155   0.133  0.6483  0.2510 -0.0888
 5343SOL    HW127488   4.008   1.225   0.176 -2.3828 -1.9649 -0.0609
 5343SOL    HW227489   4.120   1.201   0.076  0.8581 -1.2444 -1.0613
 5344SOL     OW27490   2.287   4.348  16.859 -0.0217 -0.2493 -0.1446
 5344SOL    HW127491   2.358   4.287  16.839 -0.3571 -0.7210  0.0913
 5344SOL    HW227492   2.330   4.400  16.927  0.4211  0.8537 -1.2840
 5345SOL     OW27493   3.569   4.539   3.312  0.6729 -1.1959  0.1016
 5345SOL    HW127494   3.513   4.613   3.291  1.5189 -0.7664 -0.6440
 5345SOL    HW227495   3.597   4.582   3.393 -2.2927 -0.6188  0.8027
 5346SOL     OW27496   3.879   0.443   7.369  0.0783 -0.1967 -0.0781
 5346SOL    HW127497   3.872   0.537   7.353 -2.8962 -0.6746 -1.4073
 5346SOL    HW227498   3.931   0.426   7.290  3.0739  1.4534  1.5082
 5347SOL     OW27499   3.189   2.988   3.906 -0.5225 -0.0487  0.2466
 5347SOL    HW127500   3.185   3.083   3.916  0.7779  0.1719 -1.1713
 5347SOL    HW227501   3.244   2.975   3.983  0.2453 -1.7435 -0.5779
 5348SOL     OW27502   3.622   3.971   1.135 -0.0939  0.2391 -0.4285
 5348SOL    HW127503   3.649   3.883   1.108 -0.6902 -0.3126  0.7476
 5348SOL    HW227504   3.591   4.011   1.054  1.2147 -0.9071 -1.4821
 5349SOL     OW27505   1.425   4.251   7.966  0.0758 -0.1980 -0.3543
 5349SOL    HW127506   1.371   4.223   7.892 -0.4984 -1.6823  0.6206
 5349SOL    HW227507   1.360   4.298   8.019 -0.2717 -0.8429 -0.2016
 5350SOL     OW27508   0.780   2.555   7.729 -0.0666  0.3764  0.1618
 5350SOL    HW127509   0.703   2.597   7.691 -0.5689 -0.4788  0.2191
 5350SOL    HW227510   0.838   2.548   7.653 -1.2340  3.3442 -0.9662
 5351SOL     OW27511   1.541   3.504   6.569 -0.0159  0.0751 -0.2827
 5351SOL    HW127512   1.574   3.446   6.637 -2.9411 -3.4950 -1.9553
 5351SOL    HW227513   1.616   3.547   6.528 -0.4258  0.6867 -0.3886
 5352SOL     OW27514   4.589   3.178  11.853 -0.6985  0.1063  0.5121
 5352SOL    HW127515   4.576   3.104  11.793 -4.2168  1.7928 -0.8013
 5352SOL    HW227516   4.529   3.239  11.811 -1.1044 -0.8870 -0.3447
 5353SOL     OW27517   1.969   3.343  11.598 -0.2357 -0.3135  0.5110
 5353SOL    HW127518   2.030   3.312  11.664 -0.5267 -3.0170 -0.4646
 5353SOL    HW227519   1.960   3.434  11.626 -1.0803 -0.3000  0.1804
 5354SOL     OW27520   3.714   0.753   5.696  0.1851 -0.7330  0.2254
 5354SOL    HW127521   3.669   0.834   5.717 -0.8369 -1.2952  0.1970
 5354SOL    HW227522   3.748   0.721   5.779 -0.0867 -0.9675  0.2455
 5355SOL     OW27523   3.694   2.263   0.670 -0.4617 -0.0811  0.1708
 5355SOL    HW127524   3.615   2.228   0.629  0.3145  1.8999 -2.9965
 5355SOL    HW227525   3.723   2.191   0.726  1.4693  1.7617  1.5580
 5356SOL     OW27526   2.048   2.855   5.850  0.1361 -0.4054  0.1639
 5356SOL    HW127527   1.999   2.924   5.896 -0.0279  1.6772 -3.1646
 5356SOL    HW227528   2.130   2.852   5.899 -0.6644 -0.7278  1.4811
 5357SOL     OW27529   4.213   4.596  14.920  0.0505 -0.4692 -0.5349
 5357SOL    HW127530   4.128   4.552  14.930  0.3445 -0.9149  0.0012
 5357SOL    HW227531   4.259   4.552  14.849  3.1278  0.2992  0.9770
 5358SOL     OW27532   0.422   2.337   7.944 -0.1905 -0.1581 -0.0393
 5358SOL    HW127533   0.508   2.295   7.949 -1.5911 -3.1327 -0.7839
 5358SOL    HW227534   0.404   2.378   8.029 -1.9316  0.9370 -0.9390
 5359SOL     OW27535   0.462   1.428  10.506  0.4600 -0.3066 -0.7366
 5359SOL    HW127536   0.516   1.504  10.530  1.9717 -1.8847  0.8858
 5359SOL    HW227537   0.377   1.461  10.535  1.1383  1.3619 -0.5971
 5360SOL     OW27538   3.551   4.338  10.791 -0.0602  0.1139  0.2042
 5360SOL    HW127539   3.588   4.425  10.806 -0.6383  0.6524 -1.5323
 5360SOL    HW227540   3.539   4.308  10.881 -1.2452 -0.9087 -0.2872
 5361SOL     OW27541   1.146   0.921   7.033 -0.0568 -0.5353 -0.5252
 5361SOL    HW127542   1.194   1.004   7.041  0.8913 -1.1110 -0.1463
 5361SOL    HW227543   1.145   0.893   7.125  0.5016  1.0299 -0.0468
 5362SOL     OW27544   1.438   2.021   6.209 -0.1396 -0.6481  0.1859
 5362SOL    HW127545   1.479   1.946   6.251  0.9392 -0.5969 -0.8077
 5362SOL    HW227546   1.347   1.991   6.216  0.0037 -0.9199  0.9072
 5363SOL     OW27547   2.275   0.162  10.848 -0.1076  0.2777 -0.2860
 5363SOL    HW127548   2.202   0.221  10.863  0.9346  1.2881  0.8528
 5363SOL    HW227549   2.313   0.159  10.936  1.3297  0.5390 -0.8840
 5364SOL     OW27550   2.824   3.838   3.991 -0.1657  0.1056  0.3938
 5364SOL    HW127551   2.738   3.860   3.956 -0.5968 -2.0091  0.0766
 5364SOL    HW227552   2.849   3.925   4.021  0.3130  0.6295 -1.5163
 5365SOL     OW27553   3.670   0.367   9.138 -0.2237 -0.4072 -0.2156
 5365SOL    HW127554   3.664   0.352   9.232 -0.6795  0.2613 -0.1399
 5365SOL    HW227555   3.714   0.452   9.133 -4.0386  1.7097  1.9663
 5366SOL     OW27556   4.097   4.116  16.760  0.1256 -0.1601 -0.1351
 5366SOL    HW127557   4.112   4.175  16.686  0.2857  1.7493  1.4358
 5366SOL    HW227558   4.028   4.063  16.720 -1.0907  0.6575  0.8550
 5367SOL     OW27559   0.390   0.159  12.248 -0.0556  0.3428 -0.2420
 5367SOL    HW127560   0.486   0.153  12.244 -0.1500 -1.2264 -0.3646
 5367SOL    HW227561   0.380   0.185  12.340  1.1647 -0.1250  0.0213
 5368SOL     OW27562   4.378   2.853   0.626  0.1501 -0.3021 -0.6553
 5368SOL    HW127563   4.346   2.812   0.546 -0.1236  2.2237 -1.8589
 5368SOL    HW227564   4.450   2.798   0.655  1.8711  1.5738 -1.3723
 5369SOL     OW27565   1.106   0.540   8.472  0.1597 -0.4743  0.0655
 5369SOL    HW127566   1.117   0.445   8.468  1.3100 -0.2581 -2.0051
 5369SOL    HW227567   1.173   0.570   8.534  1.0928  2.0878 -2.1789
 5370SOL     OW27568   0.059   3.972   9.430  0.2199  0.9293  0.9060
 5370SOL    HW127569   0.102   3.951   9.513  2.7515 -0.2005 -0.6837
 5370SOL    HW227570   4.700   3.919   9.435  2.5657 -2.2711  4.6942
 5371SOL     OW27571   0.134   3.175   1.443  0.5914 -0.1794 -0.2168
 5371SOL    HW127572   0.134   3.248   1.382  0.5583  0.6118  0.7388
 5371SOL    HW227573   0.224   3.177   1.476  1.5796 -0.2844 -2.9153
 5372SOL     OW27574   2.818   4.419   8.758  0.2958  0.0083  0.3551
 5372SOL    HW127575   2.722   4.419   8.758  0.3081 -2.2624 -0.1607
 5372SOL    HW227576   2.835   4.362   8.684 -1.3501  1.5463 -1.2235
 5373SOL     OW27577   1.079   4.153  16.183  0.3777 -0.1014 -0.4693
 5373SOL    HW127578   1.153   4.100  16.153 -1.6598 -2.7993 -0.7379
 5373SOL    HW227579   1.127   4.233  16.163  0.2588 -0.3492 -1.7688
 5374SOL     OW27580   0.068   4.423   6.148 -0.0517  0.2951 -0.0048
 5374SOL    HW127581   0.071   4.506   6.197  1.0770 -0.1836  0.7203
 5374SOL    HW227582   0.061   4.356   6.216  1.2006 -0.4873 -0.6542
 5375SOL     OW27583   3.207   4.032   6.987  0.1143  0.1566  0.0644
 5375SOL    HW127584   3.264   4.093   7.034 -1.5926  0.5691  1.5622
 5375SOL    HW227585   3.219   4.065   6.898 -0.2873  1.0816  0.3584
 5376SOL     OW27586   1.291   1.079   1.202 -0.8152 -0.4691  0.5272
 5376SOL    HW127587   1.253   1.042   1.122 -0.8314 -1.8315  1.1685
 5376SOL    HW227588   1.385   1.067   1.190 -0.8416  0.3653 -0.5385
 5377SOL     OW27589   0.651   4.304  17.669  1.1625  0.1849 -0.1556
 5377SOL    HW127590   0.638   4.334  17.579 -3.7548  2.4563  1.3130
 5377SOL    HW227591   0.563   4.268  17.680  1.3750 -0.1727  0.3422
 5378SOL     OW27592   1.507   4.313   2.526 -0.6009 -0.2448  0.3843
 5378SOL    HW127593   1.493   4.389   2.582 -1.5459  0.7995 -1.2695
 5378SOL    HW227594   1.421   4.291   2.490  0.2562 -2.9170 -0.0716
 5379SOL     OW27595   4.091   0.411  16.832  0.2437  0.4744  0.5464
 5379SOL    HW127596   4.002   0.376  16.844 -0.7615  3.0038  0.3876
 5379SOL    HW227597   4.140   0.371  16.904  2.4970 -0.3484 -1.4688
 5380SOL     OW27598   4.212   2.761   7.074 -0.1106 -0.2373 -0.6769
 5380SOL    HW127599   4.250   2.824   7.013  0.7537  1.5184  1.6836
 5380SOL    HW227600   4.296   2.715   7.082 -0.3543 -0.4696  0.4711
 5381SOL     OW27601   2.098   0.915   8.462  0.0843 -0.0647  0.1848
 5381SOL    HW127602   2.136   0.924   8.374  1.4527 -1.4986  0.6287
 5381SOL    HW227603   2.165   0.964   8.508  0.1952 -0.3728  0.3518
 5382SOL     OW27604   1.621   1.821   5.496  0.2345 -0.4434  0.3806
 5382SOL    HW127605   1.715   1.828   5.512  0.4248  2.3688 -2.1200
 5382SOL    HW227606   1.581   1.865   5.571  0.4789  0.8556 -0.2541
 5383SOL     OW27607   2.753   3.666   7.320 -0.5689  0.1283  0.7789
 5383SOL    HW127608   2.764   3.687   7.413 -0.7930 -3.2906  1.5636
 5383SOL    HW227609   2.708   3.742   7.282  1.8360  1.5517  0.7731
 5384SOL     OW27610   3.164   4.688   5.687 -0.3966 -0.1766 -0.1190
 5384SOL    HW127611   3.242   4.636   5.664  0.3168  0.6109  0.5399
 5384SOL    HW227612   3.186   0.053   5.649 -1.1251  0.4113  0.7849
 5385SOL     OW27613   3.926   3.032  13.869 -0.3090  0.2048  0.4208
 5385SOL    HW127614   3.942   3.082  13.789 -0.9328 -2.7776 -1.6120
 5385SOL    HW227615   3.998   3.066  13.922  0.4607 -0.0463 -0.4671
 5386SOL     OW27616   1.190   2.232   0.871  0.2750 -0.2625  0.1237
 5386SOL    HW127617   1.286   2.234   0.869  0.2287  2.0845  0.3115
 5386SOL    HW227618   1.171   2.186   0.953  1.2957 -1.6495 -0.4273
 5387SOL     OW27619   0.457   3.288  15.379 -0.4762 -0.0044  0.2256
 5387SOL    HW127620   0.507   3.309  15.457 -2.7973  1.6244  1.3029
 5387SOL    HW227621   0.521   3.236  15.331 -0.8857 -1.2433  1.0383
 5388SOL     OW27622   4.216   0.482   6.197 -0.0809 -0.6714  0.7775
 5388SOL    HW127623   4.311   0.489   6.203 -0.1436  0.0339  0.9211
 5388SOL    HW227624   4.196   0.425   6.272  0.6883  0.3556  1.7520
 5389SOL     OW27625   0.158   2.763   8.853  0.1204  0.4359  0.5076
 5389SOL    HW127626   0.206   2.709   8.916  1.8018  0.1981 -0.9424
 5389SOL    HW227627   0.070   2.731   8.870  1.0187 -0.7502  3.0413
 5390SOL     OW27628   0.606   0.156   4.425 -0.9125 -0.0660  0.5332
 5390SOL    HW127629   0.589   0.065   4.450  1.9894 -0.3671  1.4505
 5390SOL    HW227630   0.671   0.183   4.490 -1.0297  2.0177 -0.2046
 5391SOL     OW27631   0.838   4.137   4.396 -0.2480  0.4286 -0.3328
 5391SOL    HW127632   0.750   4.170   4.381 -1.0086 -1.5955 -0.3187
 5391SOL    HW227633   0.892   4.176   4.327 -0.4150  1.4045  0.0869
 5392SOL     OW27634   1.382   4.351   6.858  0.1317 -0.0596  0.0682
 5392SOL    HW127635   1.382   4.284   6.789 -1.0147 -0.1768  0.1820
 5392SOL    HW227636   1.287   4.355   6.868  0.2450 -0.9501  1.5039
 5393SOL     OW27637   4.194   3.703   1.864  0.2243  0.1533  0.6923
 5393SOL    HW127638   4.164   3.637   1.926 -1.9657 -0.3551 -0.8710
 5393SOL    HW227639   4.254   3.754   1.918 -1.5682  3.3459 -0.3222
 5394SOL     OW27640   1.343   2.749   0.092 -0.1470  0.3001 -0.0934
 5394SOL    HW127641   1.342   2.653   0.095  0.0333  0.3403  1.3916
 5394SOL    HW227642   1.271   2.771   0.151  0.3999 -0.0161  0.6950
 5395SOL     OW27643   0.661   1.556   4.331  0.1369 -0.3390  0.8182
 5395SOL    HW127644   0.566   1.567   4.339  0.3557  2.0161  0.0921
 5395SOL    HW227645   0.689   1.645   4.312 -0.2647 -0.2506  0.6392
 5396SOL     OW27646   2.793   0.298   2.943  0.3335 -0.0625 -0.2235
 5396SOL    HW127647   2.860   0.253   2.995  0.6453  0.3754 -0.2489
 5396SOL    HW227648   2.724   0.236   2.920  0.8790 -0.6822 -0.1919
 5397SOL     OW27649   1.972   1.442   5.176 -0.1175 -0.4679 -0.0022
 5397SOL    HW127650   1.943   1.352   5.192 -2.0824 -0.0343 -1.1339
 5397SOL    HW227651   1.921   1.472   5.100  1.7952  3.4790  0.2726
 5398SOL     OW27652   1.718   3.461   6.057  0.4693 -0.1065 -0.4818
 5398SOL    HW127653   1.807   3.487   6.032 -0.1394  1.5236 -0.9294
 5398SOL    HW227654   1.706   3.380   6.008  0.6665 -1.0690  1.0516
 5399SOL     OW27655   1.422   0.352   5.471  0.9589  0.1082  0.4182
 5399SOL    HW127656   1.430   0.436   5.517  0.8135 -0.7914  2.0794
 5399SOL    HW227657   1.374   0.378   5.393 -0.6211 -3.6182  0.1822
 5400SOL     OW27658   4.026   2.085  16.156 -0.2020 -0.6451 -0.6764
 5400SOL    HW127659   4.106   2.040  16.184  1.0655  2.3687  0.6774
 5400SOL    HW227660   3.955   2.033  16.192 -1.2650  1.4553  0.2794
 5401SOL     OW27661   3.555   4.250   5.157 -0.2245  0.3957  0.8967
 5401SOL    HW127662   3.572   4.156   5.149 -1.9320  0.3037 -1.2693
 5401SOL    HW227663   3.462   4.253   5.179 -0.7198 -2.2210 -0.8602
 5402SOL     OW27664   0.968   0.539   6.124  0.1157 -0.5819 -0.1640
 5402SOL    HW127665   1.019   0.466   6.089 -2.3671 -1.8399 -1.1961
 5402SOL    HW227666   1.028   0.613   6.116  0.4131 -0.8966 -0.8623
 5403SOL     OW27667   4.455   1.289   6.996 -1.2743  0.5009  0.3808
 5403SOL    HW127668   4.404   1.255   6.923  1.9135 -2.8153 -0.2657
 5403SOL    HW227669   4.450   1.219   7.061 -1.0742 -0.9299 -1.1441
 5404SOL     OW27670   3.625   1.371  17.631 -0.0882 -0.0908  0.2529
 5404SOL    HW127671   3.556   1.422  17.590  0.1226 -1.1601 -1.4435
 5404SOL    HW227672   3.603   1.383   0.040  0.9368  0.8791  0.3720
 5405SOL     OW27673   2.334   3.875   3.994 -0.1506  0.4390  0.6814
 5405SOL    HW127674   2.290   3.828   4.065  0.1875 -0.1931  0.4701
 5405SOL    HW227675   2.268   3.918   3.939  1.9977  1.6028 -0.9623
 5406SOL     OW27676   4.670   1.624   8.308  0.1849 -0.6513  0.0149
 5406SOL    HW127677   4.598   1.686   8.315  0.6534 -0.1788  0.5881
 5406SOL    HW227678   4.627   1.547   8.347  1.5816 -1.4347  0.0249
 5407SOL     OW27679   0.358   1.090  12.894 -0.1437  0.1708 -0.4604
 5407SOL    HW127680   0.445   1.101  12.856  0.0067  0.1725 -0.1114
 5407SOL    HW227681   0.346   1.006  12.848  0.3431 -0.2005  0.0895
 5408SOL     OW27682   1.755   1.384  15.217 -0.5630 -0.2330  0.5951
 5408SOL    HW127683   1.776   1.416  15.130 -0.5004 -0.6347  0.4628
 5408SOL    HW227684   1.819   1.315  15.233 -1.0986 -0.6700  0.8870
 5409SOL     OW27685   3.630   4.503   3.998  0.0387 -0.3715 -0.3140
 5409SOL    HW127686   3.589   4.567   4.056  1.4021 -0.3145  0.5912
 5409SOL    HW227687   3.669   4.549   3.923 -0.2537 -3.3250 -2.2803
 5410SOL     OW27688   1.814   2.032   7.297  0.0940  0.5060 -0.6687
 5410SOL    HW127689   1.838   2.119   7.327  2.3497 -0.3778  0.1208
 5410SOL    HW227690   1.726   2.055   7.270 -0.6339 -0.5434  0.7786
 5411SOL     OW27691   1.282   2.126   5.604  0.2588  0.1539 -0.3676
 5411SOL    HW127692   1.211   2.062   5.607  0.5090 -0.0855  0.5011
 5411SOL    HW227693   1.353   2.072   5.639 -2.6109 -2.6472  1.1849
 5412SOL     OW27694   0.764   4.593   2.445 -0.0460  0.3835 -1.1587
 5412SOL    HW127695   0.817   4.617   2.520 -1.2165  0.3437 -0.3288
 5412SOL    HW227696   0.692   4.656   2.447  1.1143  1.5623  2.6281
 5413SOL     OW27697   2.154   3.122   1.330  0.3366  0.1999  0.5456
 5413SOL    HW127698   2.205   3.086   1.257 -0.0402 -0.8631  0.8001
 5413SOL    HW227699   2.205   3.198   1.356 -1.7767  1.8026  0.0202
 5414SOL     OW27700   1.025   0.255   8.753  0.2989  0.0810 -0.4435
 5414SOL    HW127701   0.937   0.291   8.739  0.7833  1.7552  0.9072
 5414SOL    HW227702   1.042   0.243   8.659  0.4967  0.9648 -0.5123
 5415SOL     OW27703   1.907   3.118   5.950  0.3536 -0.4107  0.5549
 5415SOL    HW127704   1.922   3.212   5.934 -0.0353 -0.1475  1.7375
 5415SOL    HW227705   1.817   3.107   5.920 -0.0095 -1.3404  2.0146
 5416SOL     OW27706   1.232   3.402  17.312  0.1836 -0.3532  0.0711
 5416SOL    HW127707   1.217   3.309  17.296  0.2419 -0.4299  0.4525
 5416SOL    HW227708   1.292   3.401  17.387 -0.4579 -3.8982  0.5328
 5417SOL     OW27709   0.740   0.393  15.820 -0.0854 -0.8488 -0.3416
 5417SOL    HW127710   0.748   0.405  15.726  1.5228 -2.2879 -0.3989
 5417SOL    HW227711   0.667   0.331  15.817 -0.1700 -0.8589  1.8814
 5418SOL     OW27712   2.280   0.788   4.869 -0.1221  0.5429  0.1418
 5418SOL    HW127713   2.269   0.694   4.856  1.8835  0.7112 -2.7210
 5418SOL    HW227714   2.194   0.820   4.840  0.6643 -0.9546 -3.8878
 5419SOL     OW27715   1.874   1.552  11.035 -0.1527  0.4502  0.5898
 5419SOL    HW127716   1.927   1.496  11.092 -1.0430 -1.0902 -0.0882
 5419SOL    HW227717   1.788   1.555  11.076  0.2415 -2.0396  1.5784
 5420SOL     OW27718   2.544   3.596   4.734 -0.2150 -0.3806 -0.3146
 5420SOL    HW127719   2.468   3.539   4.722  0.9003 -1.7864 -0.6784
 5420SOL    HW227720   2.533   3.663   4.666  0.7100  1.6490  1.5168
 5421SOL     OW27721   1.918   1.599  11.853  0.1805 -0.7580  0.3322
 5421SOL    HW127722   1.915   1.685  11.895  1.7275  0.0601 -1.2204
 5421SOL    HW227723   1.918   1.545  11.932 -1.4634 -2.8167 -1.0993
 5422SOL     OW27724   1.749   3.476   2.152 -0.1080  0.6225 -0.2986
 5422SOL    HW127725   1.798   3.553   2.181 -0.9843  1.2798 -0.5532
 5422SOL    HW227726   1.746   3.414   2.224 -0.7510  0.4610 -0.4654
 5423SOL     OW27727   4.386   0.576   6.669  0.4041  0.4173  0.5046
 5423SOL    HW127728   4.466   0.594   6.718  0.6303 -0.9818  0.6392
 5423SOL    HW227729   4.313   0.605   6.725  0.0267 -0.2322  0.3527
 5424SOL     OW27730   1.843   1.156   5.271 -0.1314  0.0758  0.0014
 5424SOL    HW127731   1.876   1.125   5.187  1.3880  1.0778  0.2310
 5424SOL    HW227732   1.749   1.167   5.260  0.2173  1.0152 -2.0928
 5425SOL     OW27733   1.166   1.585   7.554  0.1067  0.0514 -0.6802
 5425SOL    HW127734   1.156   1.680   7.550 -1.1385 -0.0240  0.4662
 5425SOL    HW227735   1.109   1.554   7.484 -0.7441 -1.1052  0.5067
 5426SOL     OW27736   3.982   2.604   6.393  0.0634  0.2952  0.0819
 5426SOL    HW127737   3.981   2.547   6.470 -0.7650 -1.2298 -1.0445
 5426SOL    HW227738   4.048   2.663   6.429  0.7229 -0.0372 -0.5878
 5427SOL     OW27739   3.573   1.363   7.685  0.4654 -0.2020 -0.0753
 5427SOL    HW127740   3.490   1.405   7.663  0.8333  1.6529  2.1298
 5427SOL    HW227741   3.564   1.316   7.767  1.0549  0.2886  0.2738
 5428SOL     OW27742   0.788   1.053   1.266 -0.0878  0.3520 -0.0757
 5428SOL    HW127743   0.751   1.008   1.190  2.3235  0.0293 -1.0609
 5428SOL    HW227744   0.852   1.113   1.228 -0.6412  1.6010  0.9833
 5429SOL     OW27745   4.472   4.056   8.661 -0.2188 -0.0863  0.0454
 5429SOL    HW127746   4.382   4.083   8.646 -0.7801 -0.4788  2.5992
 5429SOL    HW227747   4.506   4.125   8.719 -1.2621  0.2891  0.1970
 5430SOL     OW27748   3.475   3.396   0.220 -0.5659  0.3312 -0.4240
 5430SOL    HW127749   3.555   3.374   0.268  0.3848  4.1944 -0.2108
 5430SOL    HW227750   3.517   3.422   0.138  1.6066 -1.1328  0.2032
 5431SOL     OW27751   0.933   4.296   6.687 -0.5194 -0.9987 -0.3622
 5431SOL    HW127752   0.930   4.289   6.592 -0.3347 -0.1632 -0.4305
 5431SOL    HW227753   1.008   4.244   6.717 -0.0584 -0.0508  0.1392
 5432SOL     OW27754   1.293   0.140   5.119 -0.1685 -0.1918 -0.2538
 5432SOL    HW127755   1.203   0.137   5.087  0.1073  0.5119 -1.1194
 5432SOL    HW227756   1.306   0.234   5.100  1.0458  0.0443  1.7315
 5433SOL     OW27757   2.188   2.292   1.986  0.3839 -0.4509 -0.0439
 5433SOL    HW127758   2.108   2.300   1.934  0.1995  0.6333  0.4112
 5433SOL    HW227759   2.255   2.280   1.918 -1.1331 -0.2552 -1.5602
 5434SOL     OW27760   4.177   1.694   6.561  0.7679  0.0029 -0.0404
 5434SOL    HW127761   4.146   1.605   6.545 -1.8461  0.7038  1.2052
 5434SOL    HW227762   4.099   1.738   6.596  0.9411  0.5163 -0.2993
 5435SOL     OW27763   0.212   1.601   3.892 -0.2922  0.0141  0.7212
 5435SOL    HW127764   0.177   1.584   3.804 -0.2259 -0.3343  0.7645
 5435SOL    HW227765   0.132   1.619   3.942  0.7896  1.3045  1.9674
 5436SOL     OW27766   4.020   3.536  15.342  0.2805 -0.1647 -0.2730
 5436SOL    HW127767   3.976   3.585  15.412  1.1243 -0.0644  0.1847
 5436SOL    HW227768   4.008   3.450  15.384  0.6249  0.2174  0.6120
 5437SOL     OW27769   4.149   0.284   4.485 -0.3085  0.5494 -0.3015
 5437SOL    HW127770   4.201   0.359   4.456  0.7482  0.3083  0.9698
 5437SOL    HW227771   4.188   0.212   4.435 -0.2088  0.6104 -0.3122
 5438SOL     OW27772   0.467   1.980   6.597  0.2360 -0.0334  0.2064
 5438SOL    HW127773   0.533   1.953   6.532  0.6465 -1.0045  1.0311
 5438SOL    HW227774   0.521   1.979   6.676 -1.7562 -1.2858  1.5461
 5439SOL     OW27775   2.627   4.312   6.943 -0.0786 -0.6412 -0.8009
 5439SOL    HW127776   2.683   4.357   6.880  1.2732 -0.4203  0.5609
 5439SOL    HW227777   2.576   4.384   6.981  1.1609  0.0123 -0.3617
 5440SOL     OW27778   0.814   4.053  16.392 -0.3998  0.0779  0.0445
 5440SOL    HW127779   0.815   4.024  16.301  0.3462 -3.6479  1.2449
 5440SOL    HW227780   0.862   4.135  16.384 -1.1327  0.6319  1.4569
 5441SOL     OW27781   1.841   4.413   7.833  0.0918  0.1312 -0.6590
 5441SOL    HW127782   1.850   4.318   7.832  0.6592  0.1469  1.5879
 5441SOL    HW227783   1.747   4.403   7.841  0.1679 -0.6856 -0.8021
 5442SOL     OW27784   2.987   1.904   4.159 -0.0904 -0.4111 -0.3382
 5442SOL    HW127785   2.968   1.982   4.107  2.9615 -0.5543 -1.6932
 5442SOL    HW227786   2.969   1.932   4.249  1.4678  0.2733 -0.2311
 5443SOL     OW27787   1.342   2.062  14.366  0.1667 -0.2591 -0.1539
 5443SOL    HW127788   1.390   1.980  14.361  1.8820  0.8624 -2.1626
 5443SOL    HW227789   1.407   2.113  14.318 -2.4598  3.8302  0.6452
 5444SOL     OW27790   4.349   4.168  13.417 -0.5055 -0.0911 -0.6209
 5444SOL    HW127791   4.335   4.123  13.500 -0.7070  1.3657  0.1404
 5444SOL    HW227792   4.392   4.107  13.358  1.8647  1.3975 -0.4452
 5445SOL     OW27793   0.626   2.235   0.667  0.7708  0.0042 -0.1526
 5445SOL    HW127794   0.614   2.309   0.726 -1.7060 -0.3375 -0.2322
 5445SOL    HW227795   0.554   2.241   0.604  0.1122  0.6160  0.6581
 5446SOL     OW27796   2.194   2.318   8.312 -0.2047  0.0734 -0.5688
 5446SOL    HW127797   2.197   2.227   8.342  1.1978  1.4439  3.4953
 5446SOL    HW227798   2.223   2.364   8.391 -0.7377  0.2008 -0.4475
 5447SOL     OW27799   0.148   4.465   7.233 -0.2057  0.6213  0.2082
 5447SOL    HW127800   0.147   4.560   7.245 -4.2925  0.5111  0.6420
 5447SOL    HW227801   0.079   4.446   7.296  0.5580  0.9539  1.1643
 5448SOL     OW27802   2.519   4.659  16.823  0.3563  0.3507  0.2172
 5448SOL    HW127803   2.431   4.623  16.835  0.0679  1.1426  0.4624
 5448SOL    HW227804   2.503   4.672  16.729  0.0112 -1.8525 -0.0507
 5449SOL     OW27805   2.514   4.145   5.251 -0.0289 -0.2661  0.2330
 5449SOL    HW127806   2.503   4.050   5.257  2.5867 -0.4527  1.9791
 5449SOL    HW227807   2.587   4.165   5.309  0.5145 -1.8450  0.0979
 5450SOL     OW27808   0.348   1.429   9.627 -0.3079  0.0255  0.0533
 5450SOL    HW127809   0.380   1.514   9.656  0.7280 -1.0347  2.0229
 5450SOL    HW227810   0.278   1.405   9.687 -0.2197  2.6756  1.1805
 5451SOL     OW27811   0.840   1.218  17.123 -0.0682 -0.2168  0.0398
 5451SOL    HW127812   0.766   1.158  17.125  2.3349 -3.1522  0.2639
 5451SOL    HW227813   0.908   1.158  17.092 -0.5318 -0.8516  0.2561
 5452SOL     OW27814   2.996   0.020  10.141 -0.1884  0.1089  0.0815
 5452SOL    HW127815   2.907   4.704  10.148  0.1799 -0.9589 -0.8067
 5452SOL    HW227816   2.992   0.064  10.057  0.7262 -0.0587 -0.0418
 5453SOL     OW27817   0.807   2.446  10.446  0.4966 -0.1094  0.4302
 5453SOL    HW127818   0.809   2.398  10.363  2.0617  3.2977 -1.5085
 5453SOL    HW227819   0.902   2.443  10.459  0.4386  1.2472  1.1412
 5454SOL     OW27820   3.194   0.041   4.758 -0.0252 -0.0909  0.2994
 5454SOL    HW127821   3.144   4.681   4.751  3.1990 -2.0340 -0.4723
 5454SOL    HW227822   3.270   0.016   4.811  0.3267  0.2693 -0.0338
 5455SOL     OW27823   2.052   2.904   9.274  0.4681 -0.0124 -0.2335
 5455SOL    HW127824   2.018   2.977   9.327  4.1211  1.4087  0.1360
 5455SOL    HW227825   2.146   2.912   9.291  1.0779  0.9505 -4.1112
 5456SOL     OW27826   2.961   0.747   6.725 -0.4840  0.8736 -0.4417
 5456SOL    HW127827   3.053   0.745   6.699 -0.2668 -2.1991  0.5892
 5456SOL    HW227828   2.928   0.710   6.643  2.0237 -0.2474 -0.9132
 5457SOL     OW27829   3.257   2.646   6.779  0.3039  0.1930  0.2435
 5457SOL    HW127830   3.168   2.673   6.759  0.1574  1.1414  2.1477
 5457SOL    HW227831   3.315   2.712   6.742 -0.6124  0.6436 -0.3668
 5458SOL     OW27832   2.313   3.818  14.027 -0.5826 -0.1976  0.1553
 5458SOL    HW127833   2.299   3.792  14.118  0.3759 -0.5241  0.2094
 5458SOL    HW227834   2.228   3.791  13.992  0.4081 -4.2811  0.9296
 5459SOL     OW27835   0.815   4.079  17.588 -0.8529  0.0170  0.5930
 5459SOL    HW127836   0.755   4.099  17.661  0.0356 -0.3556  1.4260
 5459SOL    HW227837   0.792   3.986  17.581 -1.5587  0.1786  0.6904
 5460SOL     OW27838   3.482   0.892   5.478 -0.4715  0.8718 -0.3966
 5460SOL    HW127839   3.446   0.851   5.557 -1.9449  1.9103 -0.5435
 5460SOL    HW227840   3.399   0.885   5.432 -0.2015 -0.5842 -0.6820
 5461SOL     OW27841   3.669   0.979   6.431 -0.2864 -0.3365 -0.2479
 5461SOL    HW127842   3.592   0.950   6.481 -1.6913  1.6540 -1.2654
 5461SOL    HW227843   3.666   0.912   6.362 -1.6295 -2.8481  2.2327
 5462SOL     OW27844   4.331   2.045  11.812 -0.0599  0.1267 -0.5125
 5462SOL    HW127845   4.382   2.052  11.731 -0.0918  1.3875 -0.4279
 5462SOL    HW227846   4.375   1.972  11.855  1.6463  1.1061 -0.5656
 5463SOL     OW27847   4.213   3.229  14.807 -0.5599 -0.2281  0.6182
 5463SOL    HW127848   4.264   3.159  14.767  0.7993  0.7187  0.6987
 5463SOL    HW227849   4.271   3.302  14.782 -0.3574 -1.4502 -2.4973
 5464SOL     OW27850   4.180   4.365   6.426  0.3746  0.2323  0.0161
 5464SOL    HW127851   4.227   4.395   6.348  1.4268 -0.4988  0.3647
 5464SOL    HW227852   4.142   4.280   6.403 -0.0334  0.5087 -0.3305
 5465SOL     OW27853   0.978   3.950   3.920 -0.2237  0.1792 -0.0163
 5465SOL    HW127854   1.058   4.002   3.932 -1.0563  1.5517 -0.3674
 5465SOL    HW227855   1.012   3.863   3.938  0.9565  0.0144 -3.0719
 5466SOL     OW27856   3.025   0.796   5.753 -0.0816  0.2761 -0.1141
 5466SOL    HW127857   2.995   0.887   5.745 -0.9581  0.0613  0.7483
 5466SOL    HW227858   2.966   0.741   5.701  1.5847  1.6067 -3.4372
 5467SOL     OW27859   1.382   0.842   9.729 -0.3349 -0.3462  0.2058
 5467SOL    HW127860   1.300   0.844   9.681 -0.1887 -1.0972 -0.0724
 5467SOL    HW227861   1.444   0.821   9.659  2.0353  1.9018  1.6493
 5468SOL     OW27862   0.830   3.034   4.772  0.1861 -0.1214 -0.2497
 5468SOL    HW127863   0.850   3.011   4.862  1.4364  0.5322 -0.3603
 5468SOL    HW227864   0.792   3.122   4.776  0.0546 -0.0323 -3.5662
 5469SOL     OW27865   3.364   0.155   4.970 -0.0160 -0.5829  0.6972
 5469SOL    HW127866   3.416   0.172   4.891  0.3186  0.9900  1.2548
 5469SOL    HW227867   3.333   0.242   4.996  0.3731 -0.1009 -0.4493
 5470SOL     OW27868   0.110   0.525  10.761 -0.6533  0.2231  0.3094
 5470SOL    HW127869   0.159   0.443  10.749 -2.6138 -1.2520  2.4226
 5470SOL    HW227870   0.150   0.591  10.704 -2.0501 -0.8491 -1.8998
 5471SOL     OW27871   4.709   3.391   3.901 -0.1869  0.8180  0.1561
 5471SOL    HW127872   4.651   3.410   3.975  0.3019 -0.9222  0.9963
 5471SOL    HW227873   0.074   3.413   3.936 -0.0914 -0.2431  0.5960
 5472SOL     OW27874   0.301   2.457   7.712  0.2274  0.2829  0.7119
 5472SOL    HW127875   0.348   2.420   7.786  0.2517 -3.9079 -1.4087
 5472SOL    HW227876   0.218   2.456   7.761  0.6871  4.1411  1.5685
 5473SOL     OW27877   4.635   0.195   3.158  0.5523 -0.4216  0.3351
 5473SOL    HW127878   4.588   0.200   3.075  2.3208  1.9786 -0.5561
 5473SOL    HW227879   4.720   0.156   3.137 -0.7859 -2.8019 -0.6040
 5474SOL     OW27880   0.272   3.807   8.938  0.2975  0.0055  0.1611
 5474SOL    HW127881   0.213   3.757   8.995 -0.4190  0.7950  0.1081
 5474SOL    HW227882   0.339   3.739   8.930 -0.4426 -0.5593 -1.1759
 5475SOL     OW27883   1.164   4.389   1.586  0.2504  0.4271 -0.0373
 5475SOL    HW127884   1.129   4.375   1.674  2.6056  0.7509  0.9663
 5475SOL    HW227885   1.084   4.390   1.534  0.2251  3.4976  0.0181
 5476SOL     OW27886   2.224   3.087   3.404 -0.7608 -0.6297  0.2649
 5476SOL    HW127887   2.138   3.045   3.412 -1.1297 -0.0928 -0.9608
 5476SOL    HW227888   2.274   3.052   3.478  0.5177 -0.8133 -0.6855
 5477SOL     OW27889   3.462   2.712  16.661 -0.2097  0.1236 -0.2049
 5477SOL    HW127890   3.382   2.738  16.706  0.9097  1.0176  1.2480
 5477SOL    HW227891   3.429   2.657  16.589  2.1335 -0.3497 -0.9127
 5478SOL     OW27892   3.272   2.026  14.957  0.5940  1.0625  0.1055
 5478SOL    HW127893   3.212   2.046  15.029  0.6898  3.8493 -0.6223
 5478SOL    HW227894   3.292   2.115  14.931  0.5822  0.9663 -0.2339
 5479SOL     OW27895   0.933   3.973   2.027  0.4481 -0.1805  0.4408
 5479SOL    HW127896   0.993   4.005   1.960 -1.8678  0.7942 -1.1602
 5479SOL    HW227897   0.963   3.882   2.031  0.1110 -0.3285 -0.3271
 5480SOL     OW27898   2.808   0.378   0.595  0.0629  0.8774  0.3513
 5480SOL    HW127899   2.715   0.393   0.577 -0.1123  0.3314  0.8059
 5480SOL    HW227900   2.808   0.439   0.669  1.8722 -0.6659  1.6373
 5481SOL     OW27901   1.822   3.454   7.263  0.0755  0.2023  0.9059
 5481SOL    HW127902   1.756   3.402   7.310  0.1076  1.2933  2.1765
 5481SOL    HW227903   1.778   3.537   7.243  0.8897  0.3406 -0.2881
 5482SOL     OW27904   4.236   1.972   8.068  0.0361  0.7368 -0.0169
 5482SOL    HW127905   4.208   1.941   8.154  0.3781  0.1091 -0.1398
 5482SOL    HW227906   4.201   1.908   8.006 -0.4571  1.5452 -0.5865
 5483SOL     OW27907   0.619   1.244   7.344 -1.3684 -0.1164  0.4588
 5483SOL    HW127908   0.567   1.168   7.368 -1.2160 -0.3303  0.1071
 5483SOL    HW227909   0.659   1.272   7.426 -2.0209  0.7675  0.4722
 5484SOL     OW27910   2.140   2.292   1.476  0.0646 -0.1734 -0.4329
 5484SOL    HW127911   2.177   2.204   1.478 -1.5057 -0.7718  2.2815
 5484SOL    HW227912   2.221   2.343   1.470 -0.7273  1.0543 -0.6659
 5485SOL     OW27913   3.531   0.671  13.135 -0.1508  0.5331 -0.5425
 5485SOL    HW127914   3.521   0.628  13.220 -0.5985  4.8580  1.6231
 5485SOL    HW227915   3.441   0.671  13.104 -0.3334 -2.2502  0.0590
 5486SOL     OW27916   3.213   1.156   6.614  0.2912  0.0534  0.1789
 5486SOL    HW127917   3.185   1.244   6.640 -1.4941 -0.9175  1.5607
 5486SOL    HW227918   3.161   1.135   6.538 -0.4418  0.4688  0.5670
 5487SOL     OW27919   2.748   1.098   4.839 -0.3548  0.4065  0.1943
 5487SOL    HW127920   2.681   1.034   4.864 -1.2320  1.4192  0.4167
 5487SOL    HW227921   2.825   1.042   4.827 -1.9760 -1.9040  0.6784
 5488SOL     OW27922   4.581   3.707   3.343 -0.0038  0.3112  0.3049
 5488SOL    HW127923   4.621   3.688   3.428  0.4001 -0.8351 -0.1353
 5488SOL    HW227924   4.512   3.641   3.334  2.1555 -2.0322  0.9347
 5489SOL     OW27925   1.500   3.608   4.597  0.3728  0.2793 -0.1222
 5489SOL    HW127926   1.539   3.669   4.659 -0.5339  1.5751 -0.8236
 5489SOL    HW227927   1.480   3.533   4.653  1.9447  0.2334  0.3815
 5490SOL     OW27928   4.349   1.054   7.830 -0.3990 -0.1198  0.1042
 5490SOL    HW127929   4.349   0.966   7.869 -2.3061  0.0241  0.4491
 5490SOL    HW227930   4.363   1.029   7.739 -0.4345  0.1506  0.0252
 5491SOL     OW27931   4.643   3.044  15.374 -0.6459 -0.5776 -0.0581
 5491SOL    HW127932   4.649   3.102  15.450 -0.5828 -0.5264 -0.1022
 5491SOL    HW227933   4.634   2.955  15.409  0.8890 -0.2273  1.1900
 5492SOL     OW27934   4.609   2.849  11.875 -0.0648 -0.1429  0.3560
 5492SOL    HW127935   4.605   2.819  11.784  0.5951  2.1768 -0.4265
 5492SOL    HW227936   4.520   2.869  11.903  0.8198 -0.2732  3.2929
 5493SOL     OW27937   0.167   4.387   5.726 -0.0428  0.5492  0.3044
 5493SOL    HW127938   0.214   4.326   5.670  0.9432  1.4666  0.1285
 5493SOL    HW227939   0.218   4.377   5.806 -0.6238 -3.5556  0.1881
 5494SOL     OW27940   4.118   3.772   8.715  0.0846  0.3622  0.6266
 5494SOL    HW127941   4.072   3.837   8.769 -0.2500  0.8497 -0.2369
 5494SOL    HW227942   4.207   3.784   8.749 -0.2435  0.4742  1.4577
 5495SOL     OW27943   2.121   0.479   6.088  0.8635  0.3743 -0.0059
 5495SOL    HW127944   2.103   0.528   6.168  1.2952  1.5514 -0.6329
 5495SOL    HW227945   2.153   0.544   6.026 -1.4181  1.9622  0.5105
 5496SOL     OW27946   3.422   4.646   5.589  0.0403 -0.8033  0.1004
 5496SOL    HW127947   3.515   4.656   5.610 -0.0068 -0.6190  0.2203
 5496SOL    HW227948   3.424   4.607   5.502  0.0011  0.5249 -0.4883
 5497SOL     OW27949   2.914   2.980   1.074  0.5924 -0.1723  0.1882
 5497SOL    HW127950   2.979   3.010   1.010  0.6401 -0.6413  0.0166
 5497SOL    HW227951   2.894   2.888   1.058 -2.6315  1.1533 -3.4451
 5498SOL     OW27952   0.720   4.112  10.446  0.5563  0.1552 -0.4743
 5498SOL    HW127953   0.678   4.026  10.446  0.9262 -0.0248  0.4198
 5498SOL    HW227954   0.689   4.158  10.524  1.5738  0.7897 -0.4422
 5499SOL     OW27955   3.771   0.305  15.010 -0.7112  0.6420 -0.3279
 5499SOL    HW127956   3.773   0.387  14.960 -1.8821 -0.4540 -2.1810
 5499SOL    HW227957   3.850   0.304  15.064  0.1004  1.7862 -1.4879
 5500SOL     OW27958   4.266   2.563   1.968 -0.4338 -0.0665 -0.5237
 5500SOL    HW127959   4.194   2.503   1.986 -0.0187 -0.3977  0.0203
 5500SOL    HW227960   4.285   2.534   1.878 -0.8080  1.5945 -1.1378
 5501SOL     OW27961   2.807   4.405   5.224  0.0959  0.3607 -0.1288
 5501SOL    HW127962   2.888   4.432   5.267 -0.9921  0.1023  2.0999
 5501SOL    HW227963   2.767   4.351   5.292 -0.4166  0.0241 -0.6993
 5502SOL     OW27964   0.923   1.336   2.975 -0.2653 -0.3468 -0.3927
 5502SOL    HW127965   0.865   1.320   3.050  0.5111  0.3705  0.3732
 5502SOL    HW227966   0.881   1.412   2.933 -1.4995 -0.1684  1.1395
 5503SOL     OW27967   0.834   3.024   5.051 -0.1065  0.4944 -0.1738
 5503SOL    HW127968   0.769   2.957   5.072 -0.2494  0.4857 -0.6286
 5503SOL    HW227969   0.788   3.106   5.068 -0.7143 -0.6095  3.4599
 5504SOL     OW27970   0.891   1.667  10.170 -0.1593 -0.0735  0.3067
 5504SOL    HW127971   0.981   1.640  10.154  0.3939  1.5646  0.6842
 5504SOL    HW227972   0.868   1.616  10.247 -1.3756  0.4280  0.2791
 5505SOL     OW27973   0.252   4.624   6.900  0.0189 -0.3428 -0.0227
 5505SOL    HW127974   0.317   4.583   6.957  0.6968  0.3401 -0.3099
 5505SOL    HW227975   0.181   4.563   6.920  0.2860 -0.4720  0.5222
 5506SOL     OW27976   4.109   0.652   9.621  0.2083 -0.0456  0.3932
 5506SOL    HW127977   4.099   0.591   9.694  0.6898 -1.1585 -0.4720
 5506SOL    HW227978   4.126   0.588   9.551  2.2683 -1.3677  2.0881
 5507SOL     OW27979   1.700   0.346   9.928  0.2405  0.3204 -0.0851
 5507SOL    HW127980   1.630   0.389   9.976 -1.1159 -1.2282 -0.6636
 5507SOL    HW227981   1.773   0.407   9.936  1.4846 -1.0672 -0.8977
 5508SOL     OW27982   3.316   4.390   3.469 -1.0660  0.7777  0.0982
 5508SOL    HW127983   3.334   4.380   3.376 -0.0288  0.2448  0.3594
 5508SOL    HW227984   3.290   4.482   3.475 -2.6371  0.3628 -0.2284
 5509SOL     OW27985   2.123   3.543  16.714  0.2077  0.0057  0.3067
 5509SOL    HW127986   2.095   3.457  16.684 -1.9366  1.2758 -1.3565
 5509SOL    HW227987   2.126   3.595  16.634  0.8597  0.1068  0.3928
 5510SOL     OW27988   1.451   1.825  15.005 -0.5878 -0.2480 -0.2431
 5510SOL    HW127989   1.490   1.739  15.023  1.7094  0.7416 -0.4533
 5510SOL    HW227990   1.459   1.819  14.910  0.2046  1.4373 -0.2862
 5511SOL     OW27991   0.447   4.704   5.435  0.8961 -0.0199  0.3757
 5511SOL    HW127992   0.357   0.015   5.421  0.2975 -0.8600  2.3303
 5511SOL    HW227993   0.474   0.018   5.520  0.3715 -0.9316  0.9159
 5512SOL     OW27994   1.711   1.043   7.002  0.2315 -0.4643 -0.0761
 5512SOL    HW127995   1.629   0.995   7.008 -0.0030  0.0221  0.5953
 5512SOL    HW227996   1.776   0.994   7.053  0.4954  0.5345  0.5404
 5513SOL     OW27997   2.443   0.599   7.806  0.2126 -0.2967  0.1582
 5513SOL    HW127998   2.388   0.521   7.804 -0.4260  0.1258  0.8719
 5513SOL    HW227999   2.529   0.558   7.810 -0.0489 -0.7683  0.8925
 5514SOL     OW28000   1.303   2.017   2.205 -0.2468  0.1913  0.2624
 5514SOL    HW128001   1.268   1.950   2.264  3.0405 -1.5714  0.1897
 5514SOL    HW228002   1.275   1.977   2.122  1.5834 -0.2947 -0.1111
 5515SOL     OW28003   4.065   4.352   9.372 -0.0812  0.3587 -0.5944
 5515SOL    HW128004   4.026   4.323   9.455  1.4941  1.8467  0.6628
 5515SOL    HW228005   4.156   4.325   9.376 -0.0325  0.2341 -2.8685
 5516SOL     OW28006   1.608   3.789   6.939  0.0575  0.1745  0.2040
 5516SOL    HW128007   1.585   3.811   6.849 -0.3949 -0.5476  0.1381
 5516SOL    HW228008   1.597   3.694   6.946 -2.0679  0.5324  1.6190
 5517SOL     OW28009   0.892   4.689   5.411 -0.1988  0.5262  0.0567
 5517SOL    HW128010   0.985   4.710   5.402 -0.3062 -0.7311 -3.8364
 5517SOL    HW228011   0.862   4.701   5.321  0.5358  1.4906 -0.0612
 5518SOL     OW28012   0.735   1.016   6.152  0.4761 -0.3359 -1.0133
 5518SOL    HW128013   0.712   0.952   6.219  0.1488 -0.8355 -1.6012
 5518SOL    HW228014   0.649   1.055   6.137 -0.7548 -2.3932  0.8414
 5519SOL     OW28015   0.568   0.894   0.064  0.0224 -0.2632  0.5416
 5519SOL    HW128016   0.476   0.918   0.067 -0.5289 -2.1811 -1.0638
 5519SOL    HW228017   0.600   0.882   0.154 -1.0630  1.5011  1.1598
 5520SOL     OW28018   3.175   3.117   1.510 -0.1041 -0.1498  0.0930
 5520SOL    HW128019   3.155   3.028   1.536 -0.0935 -0.1925 -0.0436
 5520SOL    HW228020   3.142   3.131   1.421  0.5593 -2.6892 -0.5376
 5521SOL     OW28021   2.159   4.139   9.855 -0.1950  0.1415  0.3124
 5521SOL    HW128022   2.075   4.137   9.901 -0.4762 -1.0256 -0.2737
 5521SOL    HW228023   2.213   4.157   9.932  1.4205 -1.8098 -0.3726
 5522SOL     OW28024   2.905   1.827   8.844  0.2463  0.4634  0.1742
 5522SOL    HW128025   2.840   1.835   8.914 -0.5389 -3.0794 -0.1172
 5522SOL    HW228026   2.983   1.823   8.900  0.4218 -1.6998 -0.2284
 5523SOL     OW28027   0.924   0.452   2.622  0.1853 -0.1357  0.1730
 5523SOL    HW128028   0.915   0.412   2.536  0.9617  0.9208 -0.3923
 5523SOL    HW228029   0.868   0.529   2.611  0.9241  0.4951  0.8286
 5524SOL     OW28030   0.615   2.761   5.892  0.3782  0.2712 -0.0897
 5524SOL    HW128031   0.695   2.769   5.944  0.1579 -0.3796  0.3520
 5524SOL    HW228032   0.632   2.829   5.827 -1.2578 -1.0012 -1.8397
 5525SOL     OW28033   3.766   1.583  10.347  0.2212 -0.1344  0.1038
 5525SOL    HW128034   3.858   1.593  10.321  0.0234 -0.0470 -0.5640
 5525SOL    HW228035   3.771   1.499  10.394  2.4152 -0.2195 -0.2762
 5526SOL     OW28036   3.768   0.646   4.775  0.0323 -0.2142  0.3160
 5526SOL    HW128037   3.726   0.666   4.859 -0.0462 -1.8863  0.6909
 5526SOL    HW228038   3.695   0.644   4.714 -0.9241  1.2685  1.4161
 5527SOL     OW28039   2.888   4.664   7.784  0.9059  0.0694  0.1722
 5527SOL    HW128040   2.888   4.616   7.867 -1.3649  0.5388  0.4425
 5527SOL    HW228041   2.888   4.586   7.728 -0.4507  0.3425 -0.1914
 5528SOL     OW28042   1.915   0.946  14.440 -0.1098 -0.5837  0.6279
 5528SOL    HW128043   1.907   0.876  14.375  3.7959 -0.4651 -0.0300
 5528SOL    HW228044   1.868   1.013  14.392  0.2571 -0.0697  0.9887
 5529SOL     OW28045   2.348   3.076   6.525 -0.5206 -0.1271  0.3462
 5529SOL    HW128046   2.372   3.156   6.571  0.3695  0.1980 -0.6726
 5529SOL    HW228047   2.343   3.107   6.434  1.0154 -0.2496  0.2251
 5530SOL     OW28048   3.350   2.266   0.736 -0.5966 -0.4354  0.0014
 5530SOL    HW128049   3.302   2.319   0.799  1.3528  1.5254 -0.1615
 5530SOL    HW228050   3.415   2.332   0.712 -0.2650 -0.6432  0.3424
 5531SOL     OW28051   1.203   0.014  13.268 -0.3837 -0.2959 -0.1246
 5531SOL    HW128052   1.181   4.718  13.359  1.6351 -3.1534 -0.1453
 5531SOL    HW228053   1.213   0.110  13.263 -0.0773 -0.2811  0.8115
 5532SOL     OW28054   2.818   1.170   5.502 -0.4816  0.1062 -0.1869
 5532SOL    HW128055   2.887   1.162   5.436  0.6317  2.0840  0.7328
 5532SOL    HW228056   2.751   1.119   5.457  0.6772 -0.5941 -1.1493
 5533SOL     OW28057   3.689   3.118   5.149  0.0013  0.2022  0.3790
 5533SOL    HW128058   3.731   3.120   5.062  2.6603 -0.1566  1.6628
 5533SOL    HW228059   3.605   3.156   5.121 -0.5297 -0.6850  0.7822
 5534SOL     OW28060   1.000   0.669   6.573  0.0538  0.2229  0.5450
 5534SOL    HW128061   0.952   0.747   6.599  0.0098  0.0793  0.8929
 5534SOL    HW228062   1.076   0.716   6.538  1.5278 -2.3575  0.2778
 5535SOL     OW28063   4.433   2.896  17.466  0.0023  0.8754  0.3733
 5535SOL    HW128064   4.422   2.967  17.529 -1.6866  1.6408 -0.7828
 5535SOL    HW228065   4.359   2.837  17.485 -1.1922  1.9450 -0.9286
 5536SOL     OW28066   4.428   1.793   9.480  0.0520  0.3158  1.0706
 5536SOL    HW128067   4.433   1.883   9.512 -1.5150  0.2308  1.5628
 5536SOL    HW228068   4.409   1.805   9.386 -1.4319 -1.2398  1.1692
 5537SOL     OW28069   3.377   4.678  12.560  0.5008 -0.4943 -0.1866
 5537SOL    HW128070   3.426   0.010  12.623 -0.5250  0.7302 -0.4126
 5537SOL    HW228071   3.403   4.715  12.475 -3.0505  0.7784 -0.7214
 5538SOL     OW28072   1.283   2.504   0.157 -0.1102 -0.3452  0.2509
 5538SOL    HW128073   1.206   2.518   0.212 -0.7723 -1.5771 -0.3838
 5538SOL    HW228074   1.288   2.409   0.168 -0.9158 -0.5997 -1.5311
 5539SOL     OW28075   4.133   2.821   6.206 -0.8360 -0.3001 -0.2404
 5539SOL    HW128076   4.192   2.746   6.196  1.0067  1.1335 -0.1311
 5539SOL    HW228077   4.191   2.891   6.235  0.2365 -1.1254 -0.3533
 5540SOL     OW28078   4.311   2.216   1.784  0.1359 -0.6457 -0.8743
 5540SOL    HW128079   4.342   2.232   1.694 -1.6456 -0.2047 -1.4143
 5540SOL    HW228080   4.360   2.288   1.824  0.5353 -0.6569 -1.3449
 5541SOL     OW28081   1.070   1.487   0.616  0.2161 -0.0577 -0.2057
 5541SOL    HW128082   1.002   1.460   0.679  0.7669 -1.5907 -0.2906
 5541SOL    HW228083   1.082   1.405   0.569 -0.3567  0.6719 -1.6069
 5542SOL     OW28084   2.309   3.478   2.156 -1.1531 -0.1011 -0.0192
 5542SOL    HW128085   2.292   3.385   2.141 -1.3433 -0.0614 -0.0524
 5542SOL    HW228086   2.222   3.489   2.193 -0.3380  0.5917  1.6885
 5543SOL     OW28087   2.775   3.152  15.549 -0.6354 -0.2969  0.0242
 5543SOL    HW128088   2.693   3.148  15.500 -0.1860  0.9604 -0.8406
 5543SOL    HW228089   2.821   3.082  15.503 -0.5435 -0.3349  0.1734
 5544SOL     OW28090   0.690   3.586   2.159 -0.4463  0.6163  0.4228
 5544SOL    HW128091   0.706   3.492   2.165  1.4503  1.0207  1.8567
 5544SOL    HW228092   0.599   3.584   2.129 -0.0972  0.7674 -0.6459
 5545SOL     OW28093   1.553   2.699  13.204 -1.0772 -0.2645 -0.2559
 5545SOL    HW128094   1.588   2.781  13.240 -4.1539  0.2018  1.6476
 5545SOL    HW228095   1.471   2.733  13.168 -1.0277  0.1025 -0.0287
 5546SOL     OW28096   0.932   3.723   9.366 -0.5586 -0.2538 -0.3858
 5546SOL    HW128097   0.950   3.812   9.399 -2.7862  0.6064 -1.4766
 5546SOL    HW228098   0.873   3.744   9.294 -1.5567  0.6736  0.6860
 5547SOL     OW28099   0.973   1.719  11.937 -0.0319 -0.5388  0.5079
 5547SOL    HW128100   1.054   1.711  11.887 -0.1452 -0.6888  0.3467
 5547SOL    HW228101   0.949   1.810  11.920  0.7663 -0.9060 -2.6826
 5548SOL     OW28102   1.668   1.908  14.534 -0.6094  0.0282  0.0337
 5548SOL    HW128103   1.619   1.864  14.464  1.2686 -2.6465  0.4099
 5548SOL    HW228104   1.689   1.827  14.580  1.5997 -0.1144 -1.2117
 5549SOL     OW28105   4.108   0.524   8.790  0.2838 -0.2352 -0.0624
 5549SOL    HW128106   4.185   0.468   8.803 -0.9479 -2.4601 -2.1905
 5549SOL    HW228107   4.115   0.592   8.857  1.1659 -0.1842 -0.2060
 5550SOL     OW28108   2.434   3.479   5.727 -0.6632 -0.1406 -0.1189
 5550SOL    HW128109   2.348   3.443   5.707 -0.6008 -2.4419  3.7835
 5550SOL    HW228110   2.452   3.536   5.652  0.0331 -1.5929 -1.0729
 5551SOL     OW28111   1.583   0.193   5.327 -0.0470  0.4059  0.7987
 5551SOL    HW128112   1.550   0.238   5.404 -2.7252  0.0705 -0.1513
 5551SOL    HW228113   1.677   0.200   5.345  0.0427 -0.6531  0.7594
 5552SOL     OW28114   2.462   2.375   6.696 -0.0240  0.0728  0.4801
 5552SOL    HW128115   2.409   2.438   6.745  1.3102  1.0676  0.6660
 5552SOL    HW228116   2.475   2.315   6.770  1.6470  0.3584  0.4196
 5553SOL     OW28117   2.891   0.427   5.282  0.5732  0.4338 -0.2603
 5553SOL    HW128118   2.867   0.372   5.356 -2.2031 -0.0046 -1.4945
 5553SOL    HW228119   2.864   0.367   5.212  2.7992  0.7637 -1.4198
 5554SOL     OW28120   1.171   0.407   5.329 -0.0657 -0.2003  0.2980
 5554SOL    HW128121   1.111   0.378   5.260  0.6580  0.7589 -0.7448
 5554SOL    HW228122   1.195   0.495   5.302  1.3918 -0.5863  0.3207
 5555SOL     OW28123   2.198   1.215   2.506  0.1482  0.1604 -0.1200
 5555SOL    HW128124   2.150   1.219   2.424  3.5295  1.1731 -2.0341
 5555SOL    HW228125   2.281   1.179   2.475  0.8057  0.7032  0.9932
 5556SOL     OW28126   0.155   4.030   4.811  0.0484  0.2362 -0.1926
 5556SOL    HW128127   0.191   4.002   4.727 -0.7954  2.3217 -1.2618
 5556SOL    HW228128   0.199   4.115   4.821 -1.0288  0.9300 -1.3844
 5557SOL     OW28129   0.565   0.790   5.687  0.2282  0.2096 -0.4301
 5557SOL    HW128130   0.524   0.806   5.772 -1.7029  1.9324 -1.6872
 5557SOL    HW228131   0.656   0.802   5.714  0.1859 -0.7409  0.1407
 5558SOL     OW28132   0.952   4.213  11.455 -0.3151 -0.1737  0.2222
 5558SOL    HW128133   1.031   4.170  11.422 -1.0240 -0.4666 -1.1152
 5558SOL    HW228134   0.896   4.201  11.378  1.3162 -0.8678 -0.8690
 5559SOL     OW28135   2.204   2.706  17.516  0.6354 -0.0058 -0.3991
 5559SOL    HW128136   2.138   2.770  17.491  0.7539  1.1136  2.1428
 5559SOL    HW228137   2.173   2.627  17.472  1.8451 -0.1260 -1.0343
 5560SOL     OW28138   3.056   2.035   5.504  0.8906  0.3860  0.1269
 5560SOL    HW128139   3.102   1.977   5.443  0.8967 -1.4977  1.9141
 5560SOL    HW228140   2.982   2.062   5.449  0.1539 -0.5195  0.6651
 5561SOL     OW28141   2.221   0.569   7.124  0.3058  0.1811 -0.1180
 5561SOL    HW128142   2.273   0.646   7.147  1.1831 -0.7560  1.0164
 5561SOL    HW228143   2.260   0.512   7.190  1.3617 -0.1400 -1.0135
 5562SOL     OW28144   2.630   1.897   0.815  0.3704  0.1151  0.1711
 5562SOL    HW128145   2.593   1.860   0.895 -1.2454  2.1422  0.3580
 5562SOL    HW228146   2.629   1.989   0.838  1.9517  0.1975 -0.0831
 5563SOL     OW28147   1.917   2.001  12.510  0.4636  0.2031  0.2216
 5563SOL    HW128148   1.910   2.087  12.468  0.4614 -0.5732 -1.3651
 5563SOL    HW228149   2.012   1.999  12.523  0.3047 -1.9197  1.1501
 5564SOL     OW28150   4.698   4.422   3.250  0.4542 -0.3476  0.0444
 5564SOL    HW128151   0.048   4.409   3.314  2.0606  0.8164 -1.5024
 5564SOL    HW228152   4.633   4.359   3.282  1.0209 -2.2514 -2.5875
 5565SOL     OW28153   1.335   3.593   5.650  0.2561 -0.2289 -0.1614
 5565SOL    HW128154   1.272   3.520   5.648  0.0992 -0.1195  1.5641
 5565SOL    HW228155   1.413   3.548   5.682  1.4521  1.5565 -0.5621
 5566SOL     OW28156   4.007   1.558  15.791 -0.1978  0.0899 -0.0142
 5566SOL    HW128157   3.965   1.493  15.735  0.2679  0.2422 -0.5327
 5566SOL    HW228158   4.099   1.539  15.771  0.1237  1.0746  0.5370
 5567SOL     OW28159   0.226   4.309   4.684 -0.9440 -0.5874  0.0270
 5567SOL    HW128160   0.161   4.293   4.616 -1.4806 -5.0132  1.5266
 5567SOL    HW228161   0.206   4.401   4.702  0.2937 -0.0760 -1.2114
 5568SOL     OW28162   1.484   4.029   5.239  0.2104 -0.2843 -0.4537
 5568SOL    HW128163   1.499   3.972   5.163  0.4642 -0.4669 -0.2640
 5568SOL    HW228164   1.489   4.115   5.196 -1.8834 -0.3674 -0.8779
 5569SOL     OW28165   4.628   3.332  14.801 -0.3153 -0.1753  0.6913
 5569SOL    HW128166   4.673   3.294  14.725 -0.2922  0.0968  0.5675
 5569SOL    HW228167   4.562   3.388  14.761  1.6941 -0.1671 -2.6867
 5570SOL     OW28168   3.354   0.013  10.369 -0.2236  0.2345  0.7260
 5570SOL    HW128169   3.327   0.041  10.456 -0.4751  0.7191  0.4932
 5570SOL    HW228170   3.439   4.701  10.398  0.8025  0.9330 -1.4882
 5571SOL     OW28171   1.489   0.037   8.625 -0.3840  0.3795 -0.1696
 5571SOL    HW128172   1.403   4.714   8.630  0.0684 -0.6446 -1.5242
 5571SOL    HW228173   1.534   4.694   8.570 -0.1164  0.8904 -0.5319
 5572SOL     OW28174   0.744   0.590  13.613  0.1588 -0.5015  0.6938
 5572SOL    HW128175   0.780   0.524  13.672 -0.0960 -2.2169 -1.0882
 5572SOL    HW228176   0.687   0.533  13.561 -1.5313 -0.2992  2.3050
 5573SOL     OW28177   3.656   3.055   3.997  0.0852 -0.0634 -0.8555
 5573SOL    HW128178   3.712   3.133   3.993 -0.9133  0.7563  1.2328
 5573SOL    HW228179   3.589   3.073   3.930 -1.0670 -0.0973  0.2916
 5574SOL     OW28180   2.254   4.626  12.563  0.2194  0.1364  0.3837
 5574SOL    HW128181   2.206   4.577  12.497  1.9858  1.7306 -2.0570
 5574SOL    HW228182   2.280   4.557  12.625 -0.4431 -1.7153 -1.4221
 5575SOL     OW28183   1.116   2.997   4.210 -0.3496 -0.1062  0.2460
 5575SOL    HW128184   1.082   2.908   4.213 -0.7856  0.0716  0.5641
 5575SOL    HW228185   1.149   3.005   4.299  2.4037 -1.1758 -0.7024
 5576SOL     OW28186   3.389   0.023   6.943  0.4341 -0.5721  0.8340
 5576SOL    HW128187   3.453   0.070   6.888 -0.4781  0.7758  0.9110
 5576SOL    HW228188   3.446   4.719   7.016 -0.7972 -1.5340  1.4515
 5577SOL     OW28189   3.994   2.121   7.254 -0.7484 -0.3750 -0.4304
 5577SOL    HW128190   3.986   2.203   7.303  0.1434  0.0094 -0.9278
 5577SOL    HW228191   4.042   2.151   7.177  1.1751  0.6476  1.1626
 5578SOL     OW28192   1.773   2.520   3.917  0.1491  0.3104  0.5702
 5578SOL    HW128193   1.853   2.469   3.932 -0.4324  0.1811  3.2097
 5578SOL    HW228194   1.711   2.450   3.935  0.2327  0.2852  0.7560
 5579SOL     OW28195   3.948   4.204   9.161  0.5681 -0.3752  0.1814
 5579SOL    HW128196   3.974   4.113   9.171 -0.3313 -0.8503 -1.7451
 5579SOL    HW228197   4.013   4.252   9.212 -0.5093 -0.5301  1.6798
 5580SOL     OW28198   2.938   3.122   3.034  0.4345  0.9002  0.7827
 5580SOL    HW128199   3.015   3.065   3.040  0.0007  0.3057  0.7112
 5580SOL    HW228200   2.931   3.131   2.939  2.3555 -1.1597  0.4457
 5581SOL     OW28201   2.091   4.683   1.164 -0.4239  0.3130  0.2873
 5581SOL    HW128202   2.030   4.657   1.233  1.0985 -0.8489  1.1847
 5581SOL    HW228203   2.144   0.017   1.223 -0.3324  0.7491 -0.1907
 5582SOL     OW28204   3.810   2.621   3.068 -0.1293 -0.5665  0.0984
 5582SOL    HW128205   3.735   2.653   3.019  0.8909  2.0452  0.2322
 5582SOL    HW228206   3.861   2.581   2.997  1.8551  1.9829  0.0691
 5583SOL     OW28207   3.129   2.422   0.177  0.1926  0.2266 -0.2872
 5583SOL    HW128208   3.082   2.396   0.257  3.3317  0.8402  1.7721
 5583SOL    HW228209   3.080   2.376   0.109  0.4530  2.3710 -1.9144
 5584SOL     OW28210   3.816   1.626  15.004  0.3656 -0.1750 -0.2916
 5584SOL    HW128211   3.802   1.592  14.915  2.1667 -0.8438 -0.3027
 5584SOL    HW228212   3.866   1.553  15.039 -0.6071 -0.2920  0.8555
 5585SOL     OW28213   4.541   1.040   8.304 -0.3574  0.2328 -0.2028
 5585SOL    HW128214   4.507   0.952   8.286  0.5296 -0.4649  1.5406
 5585SOL    HW228215   4.464   1.093   8.324  0.2446  1.3890 -0.9045
 5586SOL     OW28216   1.691   0.857   3.783  0.1842 -0.0290  0.0981
 5586SOL    HW128217   1.637   0.932   3.810  0.3686  0.1912 -0.1458
 5586SOL    HW228218   1.633   0.790   3.747 -0.4289  1.4332 -1.6922
 5587SOL     OW28219   4.463   4.249  11.084  0.0454 -0.4904 -0.1077
 5587SOL    HW128220   4.534   4.299  11.125 -1.3466  1.9770 -0.7108
 5587SOL    HW228221   4.436   4.193  11.157  0.2699 -1.3678 -0.6981
 5588SOL     OW28222   3.327   1.264   7.099 -0.3952  0.2668 -0.1899
 5588SOL    HW128223   3.393   1.205   7.061 -1.5712 -1.3766  0.3135
 5588SOL    HW228224   3.324   1.232   7.189  0.0599 -1.4249 -0.7680
 5589SOL     OW28225   3.384   2.733   4.595 -0.8832 -0.2927  0.5203
 5589SOL    HW128226   3.320   2.677   4.551 -0.3101 -0.0520 -0.6227
 5589SOL    HW228227   3.447   2.756   4.527 -2.6166 -0.3742 -1.1142
 5590SOL     OW28228   4.394   1.806   9.200  0.6295  0.0656  0.1318
 5590SOL    HW128229   4.389   1.719   9.161  0.6011  0.1174  0.0215
 5590SOL    HW228230   4.406   1.860   9.122 -0.8172  0.5627  0.2520
 5591SOL     OW28231   0.273   3.264   2.457  0.6062 -0.3413  0.2322
 5591SOL    HW128232   0.357   3.222   2.473  1.2926  1.2315  0.7540
 5591SOL    HW228233   0.298   3.356   2.446  2.7268 -0.6874  2.0411
 5592SOL     OW28234   0.614   3.643   3.351  0.4247 -0.5462 -0.2062
 5592SOL    HW128235   0.607   3.569   3.290 -0.1903 -0.3453 -0.3764
 5592SOL    HW228236   0.568   3.709   3.299 -0.8019  0.1955  1.8484
 5593SOL     OW28237   2.059   1.256   3.024  0.1244 -0.5523 -0.1918
 5593SOL    HW128238   1.968   1.228   3.018 -0.2617  0.3218  1.4901
 5593SOL    HW228239   2.077   1.248   2.931  0.7684  0.4743 -0.1584
 5594SOL     OW28240   1.165   1.096  10.364 -0.0726  0.5916 -0.0493
 5594SOL    HW128241   1.223   1.020  10.360  2.2427  2.3786 -0.3575
 5594SOL    HW228242   1.227   1.167  10.378  3.8483 -2.6342 -1.2224
 5595SOL     OW28243   0.320   2.054   7.755  0.5705 -0.2103  0.0868
 5595SOL    HW128244   0.310   1.977   7.699  1.0265 -0.5745  0.5061
 5595SOL    HW228245   0.345   2.118   7.689 -1.1034  1.4381  1.0508
 5596SOL     OW28246   4.082   4.707   5.840 -0.2170 -0.3662 -0.9893
 5596SOL    HW128247   4.028   0.029   5.774 -1.8247 -2.6973 -1.1490
 5596SOL    HW228248   4.142   4.654   5.788  0.4771  0.5822 -1.1611
 5597SOL     OW28249   0.740   0.048   6.949 -0.0091  0.4973  0.5457
 5597SOL    HW128250   0.807   0.068   6.883  0.2408  1.2997  1.0407
 5597SOL    HW228251   0.662   0.073   6.900 -1.4912  1.0210  3.1851
 5598SOL     OW28252   0.792   2.193  14.726  0.1949 -0.9347  0.1156
 5598SOL    HW128253   0.729   2.202  14.797 -0.8524 -4.3148 -0.3900
 5598SOL    HW228254   0.771   2.264  14.666 -1.0041 -0.8662  0.6271
 5599SOL     OW28255   2.907   1.955  15.102 -0.2406  0.8053 -0.2775
 5599SOL    HW128256   2.936   1.866  15.122 -2.6769 -0.0308 -0.4654
 5599SOL    HW228257   2.986   2.006  15.120  0.4497  0.6625 -2.8028
 5600SOL     OW28258   2.655   1.435  17.263 -0.4528  0.1571  1.2180
 5600SOL    HW128259   2.606   1.379  17.204  2.4298 -0.9378 -0.1343
 5600SOL    HW228260   2.604   1.517  17.262 -0.9155 -0.1574 -1.0929
 5601SOL     OW28261   0.133   3.824   5.166  0.3640  0.3848  0.1184
 5601SOL    HW128262   0.142   3.730   5.184 -1.5804  0.1480 -0.1886
 5601SOL    HW228263   0.042   3.839   5.140  0.6436  2.2911  0.2011
 5602SOL     OW28264   0.785   2.022  10.209 -0.3168  0.5520  0.5585
 5602SOL    HW128265   0.691   2.007  10.215  0.2258 -3.3010 -0.9271
 5602SOL    HW228266   0.785   2.010  10.114  1.7807  2.6935  0.2808
 5603SOL     OW28267   1.471   0.138   8.146 -0.7054 -0.4425 -0.0609
 5603SOL    HW128268   1.453   0.205   8.081 -0.0193 -1.2387 -1.0729
 5603SOL    HW228269   1.410   0.070   8.115 -1.0360 -0.2423  0.1498
 5604SOL     OW28270   2.693   4.325  17.008  0.2782  0.0936 -0.1062
 5604SOL    HW128271   2.784   4.316  17.035  0.3684  1.2146 -0.0384
 5604SOL    HW228272   2.673   4.239  16.970 -0.2287  1.0575 -2.0513
 5605SOL     OW28273   1.845   0.789   6.951  0.0904 -0.1972  0.5751
 5605SOL    HW128274   1.818   0.739   6.875  0.6765 -0.4275  0.5154
 5605SOL    HW228275   1.883   0.713   6.994 -1.0928 -0.4464  1.1737
 5606SOL     OW28276   1.209   0.683  15.755  0.3239 -0.3648  0.4502
 5606SOL    HW128277   1.249   0.597  15.743  3.7413  1.3394 -0.5795
 5606SOL    HW228278   1.123   0.655  15.784 -0.4386  1.7152  0.1748
 5607SOL     OW28279   3.150   2.835   0.484 -0.1231 -0.4519  0.3158
 5607SOL    HW128280   3.056   2.853   0.491 -0.4734 -2.3235  0.5263
 5607SOL    HW228281   3.173   2.917   0.526  2.0166 -1.5281  1.2421
 5608SOL     OW28282   4.068   1.343   2.224  0.2877 -0.1252  0.0079
 5608SOL    HW128283   4.039   1.341   2.315  0.1307 -1.3280 -0.0619
 5608SOL    HW228284   4.050   1.435   2.203 -0.2342 -0.2966 -0.2828
 5609SOL     OW28285   2.224   1.941   5.621  0.1986 -0.0380  0.3071
 5609SOL    HW128286   2.294   1.876   5.630  1.8091  1.5420 -0.8617
 5609SOL    HW228287   2.249   2.003   5.553 -0.0999 -1.6951 -1.2993
 5610SOL     OW28288   0.369   3.212  17.598  0.2319 -0.4960 -0.3716
 5610SOL    HW128289   0.343   3.218  17.507 -0.1448 -4.1097 -0.5251
 5610SOL    HW228290   0.453   3.166  17.597  1.5942  1.9898  0.3086
 5611SOL     OW28291   2.333   0.793   3.160 -0.1008  0.2521  0.5272
 5611SOL    HW128292   2.296   0.842   3.087 -1.2661  0.5546  1.3299
 5611SOL    HW228293   2.401   0.852   3.191 -0.4479  0.7924  0.2484
 5612SOL     OW28294   0.500   2.001   2.928 -0.4374  0.3630 -0.0237
 5612SOL    HW128295   0.523   1.922   2.880 -1.2241  0.1382 -0.0350
 5612SOL    HW228296   0.549   1.979   3.007  0.2127 -0.0478 -0.5409
 5613SOL     OW28297   1.329   3.327   5.981 -0.1652 -0.0949 -0.4817
 5613SOL    HW128298   1.406   3.271   5.973 -0.6143 -0.8437  0.4849
 5613SOL    HW228299   1.260   3.261   5.984 -1.0411  0.8800  1.0746
 5614SOL     OW28300   2.291   4.578   2.071  0.1452  0.7877 -0.2435
 5614SOL    HW128301   2.198   4.580   2.049 -0.3886 -0.6772  1.8085
 5614SOL    HW228302   2.319   4.667   2.089  2.0417  0.2467 -0.5352
 5615SOL     OW28303   2.846   2.071  11.404 -0.1140 -0.0245 -0.4321
 5615SOL    HW128304   2.775   2.008  11.413 -0.1570 -0.1486 -1.5937
 5615SOL    HW228305   2.801   2.149  11.371  1.3108  2.4056  3.3345
 5616SOL     OW28306   2.457   4.294   8.027 -0.0449  0.0357  0.3114
 5616SOL    HW128307   2.388   4.336   8.080 -1.0683 -2.0325  0.5958
 5616SOL    HW228308   2.524   4.337   8.080  0.2722 -0.3854  0.2486
 5617SOL     OW28309   3.328   1.729   5.821 -0.0617 -0.7846 -0.3601
 5617SOL    HW128310   3.343   1.699   5.731  2.8728 -2.0403  0.5492
 5617SOL    HW228311   3.273   1.807   5.811  1.6979  0.4819 -0.2354
 5618SOL     OW28312   2.255   2.028   4.917  0.1844 -0.1491  0.7669
 5618SOL    HW128313   2.266   2.109   4.965 -0.8249  0.8768 -0.7396
 5618SOL    HW228314   2.198   1.979   4.977  0.2141  0.5115  1.3299
 5619SOL     OW28315   3.516   3.135   0.466  0.1066 -0.6056 -0.1103
 5619SOL    HW128316   3.534   3.157   0.557  1.5450  1.2664 -0.8685
 5619SOL    HW228317   3.580   3.195   0.429 -0.1836 -0.6106 -0.6273
 5620SOL     OW28318   0.627   2.996   4.017 -0.1506 -0.7929 -0.4465
 5620SOL    HW128319   0.610   3.009   4.110  0.5871  0.5102 -0.4911
 5620SOL    HW228320   0.671   3.078   3.994  1.0172 -1.8412 -1.9254
 5621SOL     OW28321   4.004   4.554  14.700  0.0783  0.2716 -0.5844
 5621SOL    HW128322   3.953   4.473  14.705 -2.4711  1.8867 -0.2096
 5621SOL    HW228323   3.947   4.628  14.722  1.3233  0.7448  1.0521
 5622SOL     OW28324   4.061   0.937   5.201  0.8658  0.1237  0.3597
 5622SOL    HW128325   4.011   0.977   5.130  1.0730  0.1682  0.2402
 5622SOL    HW228326   3.999   0.953   5.273 -0.3304  3.9743 -1.5279
 5623SOL     OW28327   0.460   3.541   9.266 -0.2760  0.1474  0.8384
 5623SOL    HW128328   0.530   3.570   9.207 -2.6679  1.6381 -1.2704
 5623SOL    HW228329   0.457   3.619   9.321  1.0839  0.4290  0.5365
 5624SOL     OW28330   3.807   3.614  10.949 -0.0556 -0.1855  0.5548
 5624SOL    HW128331   3.756   3.687  10.914  0.3466  0.4174  1.2043
 5624SOL    HW228332   3.806   3.545  10.883  1.3775  1.2843 -0.9954
 5625SOL     OW28333   2.976   1.207   4.199  0.0271 -0.1393 -1.0770
 5625SOL    HW128334   2.945   1.116   4.202  1.8666 -0.7289  0.0214
 5625SOL    HW228335   2.942   1.240   4.116  0.3267  0.0046 -1.1439
 5626SOL     OW28336   3.774   4.322  11.410  0.2773 -0.1172  0.2523
 5626SOL    HW128337   3.848   4.380  11.429 -0.3148  0.8805 -0.4501
 5626SOL    HW228338   3.752   4.333  11.317 -1.7340  0.5781  0.8174
 5627SOL     OW28339   3.681   2.402  11.557  0.3576  0.2041 -0.4819
 5627SOL    HW128340   3.627   2.329  11.525  1.0712 -0.1985 -0.7576
 5627SOL    HW228341   3.755   2.348  11.585 -0.4348  0.0875  1.3813
 5628SOL     OW28342   2.571   3.050   2.531 -0.1657 -0.0997 -0.4224
 5628SOL    HW128343   2.511   2.976   2.539 -0.1127 -0.0263  0.5850
 5628SOL    HW228344   2.618   3.050   2.614  0.8548  2.7425 -0.9954
 5629SOL     OW28345   0.010   3.511   8.997  0.0165  0.2807 -0.1067
 5629SOL    HW128346   0.094   3.553   9.012  0.4193 -0.6130  0.1389
 5629SOL    HW228347   0.034   3.419   9.008  1.6651  0.6777 -0.3893
 5630SOL     OW28348   2.527   2.124   8.258  0.4929 -0.0998  0.0050
 5630SOL    HW128349   2.455   2.110   8.319 -0.3054 -1.8923 -1.3656
 5630SOL    HW228350   2.532   2.039   8.216  1.9035 -0.2206  0.4133
 5631SOL     OW28351   3.907   0.330  10.748 -0.0444  0.7552 -0.4036
 5631SOL    HW128352   3.951   0.281  10.678 -0.8991 -0.0845 -0.3422
 5631SOL    HW228353   3.858   0.388  10.689  0.5570 -1.3343 -2.9945
 5632SOL     OW28354   1.009   0.877   5.912  0.1929 -0.2783 -0.5003
 5632SOL    HW128355   1.051   0.797   5.943  0.4068  0.0905  0.1686
 5632SOL    HW228356   1.088   0.931   5.901 -0.7489  1.1263 -0.4118
 5633SOL     OW28357   4.224   3.788   8.262 -0.6912  0.3904 -0.1000
 5633SOL    HW128358   4.314   3.760   8.278 -1.4676 -1.2970  1.3962
 5633SOL    HW228359   4.175   3.709   8.286  1.2154 -0.9282 -0.5872
 5634SOL     OW28360   1.983   0.840   9.039  0.2532  0.3914 -0.1353
 5634SOL    HW128361   1.951   0.791   9.115  1.0088  1.7753  1.0713
 5634SOL    HW228362   2.018   0.914   9.089  4.1046 -1.8880  0.4627
 5635SOL     OW28363   1.195   1.383  17.370  0.1792  0.2837 -0.1673
 5635SOL    HW128364   1.148   1.420  17.444  0.3232 -1.2895  0.7148
 5635SOL    HW228365   1.128   1.408  17.306  0.6534 -1.9309 -1.5328
 5636SOL     OW28366   4.382   1.582   5.514  0.6786 -1.0648  0.0620
 5636SOL    HW128367   4.442   1.525   5.465  1.1668  1.0167 -1.7645
 5636SOL    HW228368   4.317   1.513   5.531  1.2584 -1.9370 -1.2085
 5637SOL     OW28369   4.003   3.977   8.901  0.2127 -0.4044  1.0845
 5637SOL    HW128370   4.047   4.052   8.940  0.7039  0.7994 -1.8460
 5637SOL    HW228371   3.949   3.941   8.972 -1.1090  1.5988  1.1086
 5638SOL     OW28372   2.720   2.492   6.658 -0.0817  0.4944  0.3810
 5638SOL    HW128373   2.638   2.451   6.684 -0.6760  1.5381  0.1598
 5638SOL    HW228374   2.753   2.515   6.745  0.2486  3.1008 -0.4211
 5639SOL     OW28375   4.596   2.942   5.097 -0.0429 -0.5381  0.1858
 5639SOL    HW128376   4.532   2.930   5.027  0.2276  0.3835 -0.2261
 5639SOL    HW228377   4.608   2.856   5.136  0.8396  0.9339  3.1102
 5640SOL     OW28378   4.690   3.565   8.596 -0.1325  0.4013 -0.4062
 5640SOL    HW128379   0.058   3.539   8.620 -0.4235 -0.5329 -0.3719
 5640SOL    HW228380   4.697   3.562   8.501 -1.5533  0.2202 -0.4997
 5641SOL     OW28381   4.078   0.255   9.960  0.2876 -0.0986  0.1891
 5641SOL    HW128382   4.144   0.299  10.014  0.9314  1.3483 -1.7996
 5641SOL    HW228383   4.124   0.265   9.877  0.8885 -2.3714  0.2649
 5642SOL     OW28384   3.402   4.495   2.557  0.4631 -0.3158  0.7910
 5642SOL    HW128385   3.362   4.528   2.638  0.3552 -1.0113  1.0253
 5642SOL    HW228386   3.466   4.434   2.594  1.1442 -1.3294 -2.1069
 5643SOL     OW28387   0.010   4.469   2.616  0.1165 -0.9406  0.0113
 5643SOL    HW128388   0.025   4.395   2.556 -1.7179  0.0325 -1.6503
 5643SOL    HW228389   0.000   4.542   2.555  2.6345 -0.1618  0.5515
 5644SOL     OW28390   0.793   2.283  13.372 -0.0387  0.6118  0.7661
 5644SOL    HW128391   0.858   2.312  13.437  1.4653 -1.7120  0.2743
 5644SOL    HW228392   0.731   2.237  13.429 -0.1707  1.4741  1.3331
 5645SOL     OW28393   1.801   2.200   5.696 -0.1870  0.5296 -0.4232
 5645SOL    HW128394   1.878   2.223   5.749 -1.4996  1.7414  0.9697
 5645SOL    HW228395   1.724   2.215   5.751  1.2396  0.4766  1.6219
 5646SOL     OW28396   3.608   0.436   5.471  0.3912 -0.2719 -0.3499
 5646SOL    HW128397   3.644   0.518   5.438  1.6134  0.0398  1.7363
 5646SOL    HW228398   3.548   0.408   5.401  0.2765 -1.9968  0.4446
 5647SOL     OW28399   4.601   3.058   8.651 -0.0576  0.4972  0.2593
 5647SOL    HW128400   4.513   3.093   8.664  0.2067  1.2345  0.0638
 5647SOL    HW228401   4.659   3.130   8.673 -0.3745  0.9117 -0.2471
 5648SOL     OW28402   4.293   2.973   9.363 -0.0621 -0.0429 -0.8888
 5648SOL    HW128403   4.222   2.927   9.407  1.0346 -1.0788 -0.2066
 5648SOL    HW228404   4.356   2.901   9.369 -0.6044 -0.1107  3.3743
 5649SOL     OW28405   0.219   3.944   3.774 -0.1072  0.1328 -0.2136
 5649SOL    HW128406   0.277   3.898   3.712  0.7029  1.3615 -0.3683
 5649SOL    HW228407   0.208   3.884   3.848 -2.5958 -0.5943 -1.1557
 5650SOL     OW28408   2.560   1.095  16.751 -0.2879  0.2989  0.7957
 5650SOL    HW128409   2.496   1.165  16.736  0.6878  0.8478 -0.8124
 5650SOL    HW228410   2.592   1.080  16.662  0.4937 -1.8175  1.4359
 5651SOL     OW28411   3.863   1.298   7.117 -0.2913 -0.3650  0.1001
 5651SOL    HW128412   3.810   1.371   7.085  1.2318  0.4342 -0.6243
 5651SOL    HW228413   3.803   1.245   7.170  1.5067 -2.7036 -0.1910
 5652SOL     OW28414   4.170   2.964   4.554 -0.2916  0.5047  0.0338
 5652SOL    HW128415   4.149   2.950   4.462  2.6332 -0.8774 -0.4276
 5652SOL    HW228416   4.095   2.918   4.591  0.2261  0.0372  0.5112
 5653SOL     OW28417   4.203   4.582   8.916  0.5171  0.6731 -0.3296
 5653SOL    HW128418   4.289   4.619   8.893  1.4863  0.7597  3.5482
 5653SOL    HW228419   4.228   4.531   8.993 -0.2883 -0.9479 -1.1440
 5654SOL     OW28420   1.961   3.669  14.178  0.3461 -0.4860 -0.4072
 5654SOL    HW128421   2.001   3.666  14.091  0.3715  0.2368 -0.4198
 5654SOL    HW228422   2.001   3.749  14.212 -0.0497 -0.3666 -0.2211
 5655SOL     OW28423   2.440   0.515   9.829  0.1478 -0.0875 -0.1212
 5655SOL    HW128424   2.512   0.466   9.868  0.5284  1.2548  0.8245
 5655SOL    HW228425   2.449   0.604   9.862 -0.7511  0.2698 -0.8331
 5656SOL     OW28426   2.584   3.017   4.680  0.1038  0.3892  0.8930
 5656SOL    HW128427   2.645   3.059   4.739 -0.2883  1.1168  0.7841
 5656SOL    HW228428   2.646   2.951   4.647 -0.6839  0.7139 -1.2899
 5657SOL     OW28429   3.333   2.260  17.529 -0.8986 -0.0123  0.1506
 5657SOL    HW128430   3.361   2.182  17.576  0.3026 -0.4303 -1.2596
 5657SOL    HW228431   3.262   2.224  17.476 -0.4515 -1.2427  0.4000
 5658SOL     OW28432   1.581   4.407   7.810  0.6468  0.2951 -0.2361
 5658SOL    HW128433   1.537   4.344   7.867  0.5272  0.6554  0.0696
 5658SOL    HW228434   1.515   4.405   7.740  2.6108  0.3381 -2.1032
 5659SOL     OW28435   2.165   0.111   5.428 -0.2823 -0.1580 -0.1185
 5659SOL    HW128436   2.141   0.183   5.486 -0.0577 -0.9935  1.0175
 5659SOL    HW228437   2.139   0.040   5.488 -1.2099 -0.0299 -0.3698
 5660SOL     OW28438   3.426   0.391  14.003  0.1892  0.2141 -0.7037
 5660SOL    HW128439   3.407   0.485  14.008 -1.3724 -0.0961 -0.6525
 5660SOL    HW228440   3.520   0.385  14.019  0.1343  2.6408  0.5936
 5661SOL     OW28441   1.420   4.464  10.403  0.2270 -0.2597 -0.0071
 5661SOL    HW128442   1.327   4.442  10.400  0.2225 -0.3368  0.6479
 5661SOL    HW228443   1.416   4.553  10.438  0.1027  0.4219 -1.7686
 5662SOL     OW28444   3.518   2.222  10.983 -0.2323 -0.0376 -0.3984
 5662SOL    HW128445   3.588   2.286  10.991 -0.7668  0.5575 -0.4688
 5662SOL    HW228446   3.478   2.235  11.069 -0.7307 -3.0437 -0.1546
 5663SOL     OW28447   1.551   2.459   0.864 -0.6381 -0.5981 -0.1695
 5663SOL    HW128448   1.617   2.529   0.862 -0.1949 -0.9884  0.8508
 5663SOL    HW228449   1.490   2.477   0.935 -2.4037  0.4716 -1.9787
 5664SOL     OW28450   1.119   3.064  14.693  0.1066 -0.1103 -0.0243
 5664SOL    HW128451   1.135   3.127  14.763 -2.4539  0.2782  0.2327
 5664SOL    HW228452   1.027   3.051  14.717  0.2953  1.0635  1.3460
 5665SOL     OW28453   4.567   3.432  13.635  0.3969  0.2965 -0.4830
 5665SOL    HW128454   4.491   3.477  13.597 -0.2607 -0.4203 -0.0311
 5665SOL    HW228455   4.521   3.368  13.689  0.1436 -0.3689 -1.4885
 5666SOL     OW28456   2.668   2.575   8.297  0.1068  0.5857  0.1263
 5666SOL    HW128457   2.608   2.503   8.277  0.5344  0.2992 -0.1523
 5666SOL    HW228458   2.725   2.521   8.353 -0.2725 -0.8186 -0.8295
 5667SOL     OW28459   1.320   3.268   8.314  0.2596 -0.2696  0.5687
 5667SOL    HW128460   1.377   3.228   8.248  1.5102  3.1059 -0.4213
 5667SOL    HW228461   1.238   3.245   8.270  1.4515 -1.1005 -1.2338
 5668SOL     OW28462   0.426   1.520   0.030  0.1479 -0.2820 -0.0607
 5668SOL    HW128463   0.350   1.553   0.078  1.1187  1.3067  0.3927
 5668SOL    HW228464   0.385   1.507  17.629 -0.0136 -2.9071  0.4400
 5669SOL     OW28465   1.313   0.672   3.193  0.1219 -0.0168 -0.1676
 5669SOL    HW128466   1.316   0.593   3.139  1.3478 -0.1664  0.1201
 5669SOL    HW228467   1.403   0.701   3.208  0.1610 -0.3641  0.2709
 5670SOL     OW28468   1.316   1.201   4.474  0.0655  0.1204  0.8892
 5670SOL    HW128469   1.368   1.127   4.505 -0.1963  0.0161  1.0726
 5670SOL    HW228470   1.286   1.243   4.554  0.5434 -0.5905  1.4384
 5671SOL     OW28471   1.242   3.519   3.898 -0.5266  0.7022 -0.2198
 5671SOL    HW128472   1.257   3.457   3.969  1.7786  0.0255 -1.3105
 5671SOL    HW228473   1.223   3.454   3.830  1.8206 -0.0169 -0.1884
 5672SOL     OW28474   4.076   0.923   2.975 -0.0721 -0.2736  0.2254
 5672SOL    HW128475   4.088   0.844   2.923 -1.1828 -0.5415  0.3724
 5672SOL    HW228476   3.985   0.943   2.952  0.3844 -0.1452 -1.5012
 5673SOL     OW28477   3.718   0.731   5.035  0.6938 -0.2770  0.5907
 5673SOL    HW128478   3.689   0.814   5.073 -1.8202 -0.3686 -1.0757
 5673SOL    HW228479   3.774   0.685   5.097  0.0502 -0.6370  0.8990
 5674SOL     OW28480   0.572   0.939   3.897 -0.3522  0.1243  0.1453
 5674SOL    HW128481   0.587   1.006   3.831  2.1604 -2.7801 -2.2415
 5674SOL    HW228482   0.663   0.926   3.923 -0.1659 -0.7035 -0.9282
 5675SOL     OW28483   3.143   3.169   2.823  0.2192 -0.2260  0.0510
 5675SOL    HW128484   3.160   3.184   2.730  1.5510 -0.9607  0.1824
 5675SOL    HW228485   3.166   3.077   2.830  2.6572  0.5228  1.6450
 5676SOL     OW28486   2.150   2.135   2.561 -0.6847  0.3421 -0.2427
 5676SOL    HW128487   2.152   2.047   2.600 -0.0711  0.1747 -0.6477
 5676SOL    HW228488   2.093   2.130   2.484  0.1289 -0.0311 -0.8328
 5677SOL     OW28489   4.294   0.163   1.555 -0.2169  0.0667 -0.3657
 5677SOL    HW128490   4.245   0.190   1.478 -5.0140 -1.3485  2.1946
 5677SOL    HW228491   4.297   0.246   1.603 -2.3099 -0.5877  0.9040
 5678SOL     OW28492   3.257   1.816   3.585  0.1914 -0.3148  0.2052
 5678SOL    HW128493   3.270   1.850   3.497  1.4026 -0.3881  0.3522
 5678SOL    HW228494   3.328   1.752   3.591  0.3478 -0.0150  1.8184
 5679SOL     OW28495   0.011   0.885   4.630 -0.0912  0.0925 -0.0811
 5679SOL    HW128496   0.062   0.823   4.579  1.2793  0.6892  0.5460
 5679SOL    HW228497   4.716   0.825   4.703  2.9896  0.6315  1.0453
 5680SOL     OW28498   0.202   3.806  12.087  0.5727  0.3343  0.1975
 5680SOL    HW128499   0.132   3.795  12.152  1.8031 -2.8763  0.9873
 5680SOL    HW228500   0.148   3.839  12.016  0.0909  0.0297  0.4198
 5681SOL     OW28501   1.154   2.247   4.645  0.3601 -0.2242  0.2154
 5681SOL    HW128502   1.187   2.330   4.680 -2.5370  1.2262 -0.4990
 5681SOL    HW228503   1.120   2.205   4.724  0.5992  0.3164  0.6028
 5682SOL     OW28504   4.232   0.856   7.288 -0.0235 -0.3730  0.1151
 5682SOL    HW128505   4.226   0.941   7.245 -0.8878  0.9555  2.8329
 5682SOL    HW228506   4.289   0.874   7.363  2.1905  0.7222 -1.8642
 5683SOL     OW28507   2.278   3.647   8.473  0.0316  0.4474  0.5200
 5683SOL    HW128508   2.264   3.729   8.520 -1.4281 -0.0209  0.8786
 5683SOL    HW228509   2.362   3.633   8.517 -0.5833 -1.0524  1.1903
 5684SOL     OW28510   4.213   2.439  16.036 -0.4051  0.1054  0.2619
 5684SOL    HW128511   4.173   2.498  16.099 -2.8058 -2.7165  1.3986
 5684SOL    HW228512   4.252   2.502  15.976  1.8120 -0.6398  0.9031
 5685SOL     OW28513   0.781   4.717   3.598  0.1435 -0.5094  0.0978
 5685SOL    HW128514   0.818   4.634   3.568 -0.7238 -0.1375 -1.9803
 5685SOL    HW228515   0.809   4.711   3.689 -0.5612 -2.2382  0.1889
 5686SOL     OW28516   2.637   1.491  12.039  0.0030 -0.0449  0.3685
 5686SOL    HW128517   2.546   1.495  12.069 -0.0020 -0.5828  0.4316
 5686SOL    HW228518   2.626   1.486  11.944  2.6080  0.4104  0.0514
 5687SOL     OW28519   4.298   4.235   9.402  0.2341 -0.1113  0.3445
 5687SOL    HW128520   4.347   4.189   9.471 -3.1115 -2.6407  1.0166
 5687SOL    HW228521   4.312   4.175   9.329  0.2497 -1.4727  1.4656
 5688SOL     OW28522   0.842   4.233   6.425  0.6129 -0.2480 -0.8260
 5688SOL    HW128523   0.770   4.296   6.428 -0.7751 -1.8153 -1.2843
 5688SOL    HW228524   0.818   4.157   6.372 -2.1620 -0.2710  0.4448
 5689SOL     OW28525   1.878   1.349   2.536  0.7751 -0.1093  0.4610
 5689SOL    HW128526   1.950   1.396   2.578 -0.2616  2.0298 -0.1182
 5689SOL    HW228527   1.808   1.406   2.569 -0.0570  0.0413 -1.5506
 5690SOL     OW28528   1.861   0.820   0.169  0.2524  0.1071 -0.2812
 5690SOL    HW128529   1.946   0.797   0.130  0.0291 -0.6669 -0.3036
 5690SOL    HW228530   1.832   0.898   0.122  1.8794  0.2334 -1.1026
 5691SOL     OW28531   3.857   4.424  11.860 -0.4021  0.0102 -0.3466
 5691SOL    HW128532   3.905   4.501  11.831  0.8623 -1.1422 -1.2402
 5691SOL    HW228533   3.895   4.345  11.823 -1.2980 -2.0772  3.1894
 5692SOL     OW28534   3.095   4.186   3.608  0.5804  0.0278 -0.1956
 5692SOL    HW128535   3.052   4.245   3.669 -1.0902  0.2743 -1.6381
 5692SOL    HW228536   3.169   4.237   3.576  0.8504  2.1148  3.7134
 5693SOL     OW28537   0.112   4.411   2.867 -0.4930 -0.7174  0.1453
 5693SOL    HW128538   0.056   4.464   2.924 -1.8084 -0.0776 -1.7198
 5693SOL    HW228539   0.059   4.406   2.787 -0.1445  3.6235 -0.3816
 5694SOL     OW28540   3.718   1.352  15.888  0.3718 -0.1696 -0.2714
 5694SOL    HW128541   3.781   1.314  15.827  0.7287  0.8883 -0.5674
 5694SOL    HW228542   3.699   1.439  15.852  0.1391 -0.3220 -0.5188
 5695SOL     OW28543   4.185   4.241  14.973 -0.1229  0.3688 -0.1643
 5695SOL    HW128544   4.145   4.226  14.887 -0.1302  1.1673 -0.2930
 5695SOL    HW228545   4.200   4.150  14.998 -0.4726  0.6752  1.1214
 5696SOL     OW28546   4.423   2.250   3.361  0.0575 -0.0895 -0.5258
 5696SOL    HW128547   4.423   2.345   3.376 -0.3824 -0.1129 -0.3582
 5696SOL    HW228548   4.349   2.257   3.301  1.9297  0.9229 -2.7051
 5697SOL     OW28549   1.834   1.210   4.697 -0.2463  0.0022 -0.6990
 5697SOL    HW128550   1.908   1.191   4.639  0.0872 -2.8540  0.6499
 5697SOL    HW228551   1.856   1.293   4.739 -0.0285  1.1719 -3.0727
 5698SOL     OW28552   2.387   0.221  10.577 -0.2574 -0.0524 -0.3039
 5698SOL    HW128553   2.381   0.171  10.659  1.6948  0.3278  0.0846
 5698SOL    HW228554   2.419   0.149  10.522 -1.4433 -0.6184 -0.2536
 5699SOL     OW28555   3.751   3.685   2.811  0.1487 -0.8280  0.4979
 5699SOL    HW128556   3.791   3.772   2.810  0.9860 -1.2066  1.5681
 5699SOL    HW228557   3.658   3.710   2.812  0.1384 -0.6035 -3.1341
 5700SOL     OW28558   3.263   0.360   7.468 -0.4314  0.0418  0.0305
 5700SOL    HW128559   3.207   0.401   7.403  1.0407 -2.6995 -3.0199
 5700SOL    HW228560   3.313   0.306   7.406  0.3387  0.5199  0.2339
 5701SOL     OW28561   0.984   2.223   0.705 -0.1059  0.5188  0.0119
 5701SOL    HW128562   0.963   2.131   0.689 -1.4071  1.1342 -1.7917
 5701SOL    HW228563   1.055   2.212   0.769 -0.9519 -0.7003  0.7453
 5702SOL     OW28564   1.886   3.819   6.932  0.1139  0.1928  0.8891
 5702SOL    HW128565   1.793   3.796   6.939 -0.0702  0.8253  0.5463
 5702SOL    HW228566   1.875   3.879   6.858 -3.0371 -0.3949  0.8852
 5703SOL     OW28567   0.867   4.620  12.581  0.1692 -0.2718 -0.9067
 5703SOL    HW128568   0.944   4.580  12.541  0.6226 -0.9742  0.6831
 5703SOL    HW228569   0.902   4.697  12.626 -2.5126  0.3133  0.1739
 5704SOL     OW28570   1.291   2.764   6.918 -0.4760 -0.2448 -0.1883
 5704SOL    HW128571   1.293   2.728   6.830  1.3952  0.0515 -0.2537
 5704SOL    HW228572   1.267   2.852   6.888 -0.2410  0.2509  1.0365
 5705SOL     OW28573   1.867   0.060   2.102 -0.5575  0.2175 -0.0481
 5705SOL    HW128574   1.936   4.716   2.086 -1.9043 -1.8707  2.6888
 5705SOL    HW228575   1.802   0.038   2.035 -0.6296  0.1963  0.0280
 5706SOL     OW28576   3.048   2.688   6.374 -0.2037 -0.0990 -0.2972
 5706SOL    HW128577   3.132   2.643   6.369 -0.2239 -0.5812  3.8765
 5706SOL    HW228578   3.069   2.770   6.329 -1.2063 -1.1679 -2.7226
 5707SOL     OW28579   0.304   0.676   4.831 -0.2670 -0.3160  0.2544
 5707SOL    HW128580   0.340   0.662   4.919  0.0016 -0.7299  0.0755
 5707SOL    HW228581   0.220   0.719   4.849 -0.0493 -0.3451  1.3736
 5708SOL     OW28582   2.548   0.832   8.208 -0.1504  0.1517 -0.6480
 5708SOL    HW128583   2.483   0.803   8.144 -0.8981 -2.0815  1.1102
 5708SOL    HW228584   2.619   0.771   8.184  0.6028  0.5485  0.5770
 5709SOL     OW28585   2.669   4.328   7.788  0.2788  0.1201 -0.4037
 5709SOL    HW128586   2.599   4.393   7.800  0.1337  0.0927 -1.0987
 5709SOL    HW228587   2.720   4.361   7.714 -1.9330  1.7495 -1.2125
 5710SOL     OW28588   2.908   4.680   5.598  0.6823 -0.2272 -0.1276
 5710SOL    HW128589   2.996   4.674   5.636  0.7363  1.1427 -0.0295
 5710SOL    HW228590   2.865   4.610   5.646  0.9348 -1.0359 -1.0975
 5711SOL     OW28591   3.759   4.366   8.981 -0.2646 -0.5829  0.1864
 5711SOL    HW128592   3.822   4.311   9.026 -0.5425  0.7782  2.2913
 5711SOL    HW228593   3.790   4.447   9.022  0.7515 -0.0057 -1.7047
 5712SOL     OW28594   1.164   4.267   8.583 -0.0962 -0.3358  0.1101
 5712SOL    HW128595   1.190   4.266   8.675  0.8340 -1.0788 -0.1623
 5712SOL    HW228596   1.245   4.288   8.537 -0.5952 -1.2502 -1.2180
 5713SOL     OW28597   3.194   0.844   6.035  0.0321  0.2515 -0.5814
 5713SOL    HW128598   3.236   0.788   5.970  2.1551  0.2624  0.7973
 5713SOL    HW228599   3.178   0.927   5.991  2.8924  1.3141  0.4053
 5714SOL     OW28600   1.566   4.128   1.033  0.3235  0.4591  0.0989
 5714SOL    HW128601   1.596   4.073   0.961 -0.0479  0.3862  0.0001
 5714SOL    HW228602   1.473   4.104   1.031  0.0069  1.6820 -0.0072
 5715SOL     OW28603   2.061   2.585   4.714  0.7538  0.2424  0.2677
 5715SOL    HW128604   1.994   2.597   4.647  0.0335  0.7275  1.0726
 5715SOL    HW228605   2.027   2.507   4.759  2.2821 -1.5967 -1.7779
 5716SOL     OW28606   3.226   0.687   6.730 -0.0900 -0.3875 -0.2139
 5716SOL    HW128607   3.206   0.594   6.718  0.9435 -0.8921  1.9194
 5716SOL    HW228608   3.215   0.719   6.640 -1.7507  0.2398  0.2084
 5717SOL     OW28609   4.273   1.151   4.097 -0.2584  0.1209 -0.6718
 5717SOL    HW128610   4.240   1.065   4.072 -1.5941  0.3017  0.4563
 5717SOL    HW228611   4.333   1.178   4.027 -0.6812  2.0058 -0.3227
 5718SOL     OW28612   2.383   2.347  17.106 -0.0766  0.4017 -0.0501
 5718SOL    HW128613   2.461   2.385  17.147 -0.2236  1.0590 -0.3902
 5718SOL    HW228614   2.422   2.283  17.046  2.2603  2.1186 -0.3670
 5719SOL     OW28615   2.806   0.098   5.853  0.0904  0.9279 -0.1342
 5719SOL    HW128616   2.822   0.120   5.761  0.6101 -2.2752 -0.8195
 5719SOL    HW228617   2.760   0.179   5.875 -0.0637  0.1417  2.4873
 5720SOL     OW28618   4.513   2.607  10.090 -0.2033 -0.4978 -0.1919
 5720SOL    HW128619   4.603   2.575  10.095 -0.3295 -0.8820 -0.4305
 5720SOL    HW228620   4.507   2.603   9.995 -2.0104 -0.9558 -0.0479
 5721SOL     OW28621   1.476   1.217   4.145 -0.1988 -0.2437 -0.7437
 5721SOL    HW128622   1.562   1.258   4.143 -0.1941 -0.1974  0.7135
 5721SOL    HW228623   1.427   1.268   4.210  0.9821  0.1279 -0.1419
 5722SOL     OW28624   2.965   2.981  16.469  0.3268  0.5220  0.1287
 5722SOL    HW128625   3.050   2.942  16.449 -0.6966 -1.3192 -0.6509
 5722SOL    HW228626   2.956   3.050  16.403 -0.7933 -0.9915 -1.3012
 5723SOL     OW28627   3.591   4.331   7.240 -0.0410 -0.1374  0.2399
 5723SOL    HW128628   3.521   4.291   7.292 -2.5939  1.8205 -1.6741
 5723SOL    HW228629   3.599   4.415   7.286 -0.3571 -0.2443  0.4932
 5724SOL     OW28630   0.522   0.808   8.264 -0.1454 -0.6860 -0.0093
 5724SOL    HW128631   0.611   0.806   8.299  0.1383 -1.8441 -0.8135
 5724SOL    HW228632   0.488   0.731   8.308  0.0273 -1.0226 -0.4682
 5725SOL     OW28633   1.414   0.764  13.850 -0.1386  0.6897 -0.1084
 5725SOL    HW128634   1.398   0.764  13.756  1.6439 -0.0571 -0.4167
 5725SOL    HW228635   1.507   0.784  13.849 -0.2990  1.2030 -3.3875
 5726SOL     OW28636   3.075   4.367   4.262  0.4410 -0.0053  0.0447
 5726SOL    HW128637   3.080   4.417   4.181 -0.2544 -0.0834 -0.0487
 5726SOL    HW228638   3.153   4.392   4.311  1.0250  0.2183 -0.9961
 5727SOL     OW28639   1.234   3.319   6.549 -0.2226 -0.0002 -0.3330
 5727SOL    HW128640   1.145   3.329   6.584  0.5630 -0.2493  1.7747
 5727SOL    HW228641   1.231   3.226   6.528 -1.9018  0.1977 -0.9052
 5728SOL     OW28642   2.189   3.151   3.063 -0.4439 -1.0480  0.2102
 5728SOL    HW128643   2.191   3.114   2.975 -1.3530  0.7514 -0.5728
 5728SOL    HW228644   2.248   3.225   3.050 -0.2143 -1.7433 -2.6438
 5729SOL     OW28645   2.537   1.609   0.729  0.2679 -0.0473 -0.2613
 5729SOL    HW128646   2.488   1.610   0.811 -1.1435 -1.4076 -1.0945
 5729SOL    HW228647   2.630   1.605   0.755  0.1971  3.6646  0.5390
 5730SOL     OW28648   4.063   0.980   1.749  0.3664 -0.4937 -0.5781
 5730SOL    HW128649   4.007   0.906   1.773 -1.2628  0.8717 -0.1335
 5730SOL    HW228650   4.000   1.024   1.691  0.6916  1.5340  0.6125
 5731SOL     OW28651   1.353   2.669   4.270 -0.7117 -0.0635  0.3890
 5731SOL    HW128652   1.435   2.682   4.224 -0.8699 -0.1139  0.0950
 5731SOL    HW228653   1.377   2.592   4.322 -0.2852 -0.7785 -0.8582
 5732SOL     OW28654   3.493   0.196  12.293  0.0530 -0.2754  0.3203
 5732SOL    HW128655   3.416   0.211  12.347 -0.8490 -1.0548 -0.7422
 5732SOL    HW228656   3.563   0.243  12.337  1.4103  0.7897 -2.9391
 5733SOL     OW28657   4.381   3.485   3.369 -0.2802  0.1545 -0.0717
 5733SOL    HW128658   4.324   3.504   3.294 -0.7834  0.9173  0.5163
 5733SOL    HW228659   4.437   3.419   3.327  1.1608  1.3103  0.0321
 5734SOL     OW28660   3.680   0.543   7.832  0.7098 -0.7582 -0.1798
 5734SOL    HW128661   3.665   0.454   7.866  0.8854 -0.4705  0.6305
 5734SOL    HW228662   3.773   0.558   7.842  0.6444  0.7893 -1.8659
 5735SOL     OW28663   0.291   2.603   4.925 -0.2046 -0.0531 -0.5444
 5735SOL    HW128664   0.316   2.691   4.956  0.8861 -0.4505 -0.2993
 5735SOL    HW228665   0.232   2.620   4.852  2.2724  2.2720 -1.9996
 5736SOL     OW28666   1.557   2.783   2.964 -0.3831  0.5360  0.6188
 5736SOL    HW128667   1.639   2.746   2.930  0.1253  2.2393 -0.0233
 5736SOL    HW228668   1.492   2.752   2.901  0.2403  0.4222  0.0241
 5737SOL     OW28669   4.088   3.741  11.111  0.5386 -0.3087  0.6702
 5737SOL    HW128670   3.998   3.770  11.094  0.6970 -1.4967 -2.2208
 5737SOL    HW228671   4.104   3.809  11.177 -3.0284 -0.2994  1.4938
 5738SOL     OW28672   0.540   4.503   7.895  0.2460 -0.3610  0.0826
 5738SOL    HW128673   0.456   4.496   7.942 -1.0698 -0.4557 -2.2852
 5738SOL    HW228674   0.505   4.524   7.809  1.5887 -3.0998 -1.1545
 5739SOL     OW28675   0.436   0.081   6.977 -0.4842  0.2147  0.7305
 5739SOL    HW128676   0.432   4.708   6.997 -4.1368  0.1008 -0.5257
 5739SOL    HW228677   0.352   0.089   6.932 -0.5716 -0.0044  0.8550
 5740SOL     OW28678   3.996   3.176   2.733 -0.0521 -0.3115 -0.2306
 5740SOL    HW128679   3.980   3.248   2.794  1.9067 -0.4997  0.4879
 5740SOL    HW228680   3.936   3.107   2.760 -1.9910  1.4984  0.0068
 5741SOL     OW28681   0.641   2.633  15.785 -0.0633  0.0378  0.2772
 5741SOL    HW128682   0.579   2.590  15.726 -0.4697  0.5768  0.3130
 5741SOL    HW228683   0.676   2.695  15.722  3.0170 -0.0566  1.8835
 5742SOL     OW28684   2.318   0.210   4.523 -0.0878 -0.5882  0.8203
 5742SOL    HW128685   2.258   0.218   4.448  0.6085 -0.7041  0.2552
 5742SOL    HW228686   2.309   0.117   4.540 -2.2374 -0.5073  0.2232
 5743SOL     OW28687   3.701   1.561   3.365  0.0745 -0.2007 -0.5075
 5743SOL    HW128688   3.779   1.579   3.312  0.6811 -0.7693  0.1956
 5743SOL    HW228689   3.635   1.583   3.299 -1.3473  1.5008  1.4922
 5744SOL     OW28690   2.857   1.159   7.242 -0.4380 -0.3706  0.0874
 5744SOL    HW128691   2.809   1.127   7.318  1.0197  1.9879  2.0053
 5744SOL    HW228692   2.853   1.254   7.257  0.8005 -0.6126  1.9816
 5745SOL     OW28693   4.275   3.855   2.453 -0.0721 -0.1949  0.0660
 5745SOL    HW128694   4.213   3.836   2.524 -0.1409  1.3266  0.4012
 5745SOL    HW228695   4.215   3.840   2.380  0.1008  2.6830 -0.6664
 5746SOL     OW28696   1.626   0.866   2.399 -0.2825 -0.2810 -0.3696
 5746SOL    HW128697   1.617   0.873   2.494  1.1877 -0.1420 -0.2369
 5746SOL    HW228698   1.702   0.808   2.389  2.1646  3.0565 -0.9780
 5747SOL     OW28699   4.289   3.088  12.204 -0.3491 -0.0939 -0.0990
 5747SOL    HW128700   4.317   3.006  12.244 -1.8309 -0.6752 -0.2644
 5747SOL    HW228701   4.372   3.117  12.167 -0.5034  1.1469  0.5464
 5748SOL     OW28702   4.149   3.478   9.310 -0.4907  0.2314  0.4691
 5748SOL    HW128703   4.067   3.459   9.265 -0.3722  0.8912 -0.0304
 5748SOL    HW228704   4.197   3.396   9.304  0.1074  0.4268  2.5158
 5749SOL     OW28705   2.885   2.825   7.804 -0.1434 -0.1682 -0.4833
 5749SOL    HW128706   2.944   2.856   7.735  0.3882 -1.8894 -0.7926
 5749SOL    HW228707   2.936   2.750   7.834  0.0516  0.8628  1.7276
 5750SOL     OW28708   3.881   0.083   9.343  0.2890 -0.5302  0.9748
 5750SOL    HW128709   3.807   0.140   9.364 -0.9817 -1.7120 -0.2735
 5750SOL    HW228710   3.838   0.001   9.319 -0.0646 -0.3964  1.1410
 5751SOL     OW28711   0.013   2.466   7.578 -0.4533 -0.0167  0.6281
 5751SOL    HW128712   4.677   2.389   7.585  0.0127 -0.4460 -0.4108
 5751SOL    HW228713   0.095   2.419   7.562 -0.7962 -0.2099 -0.6005
 5752SOL     OW28714   2.377   3.089  14.060 -0.5877 -0.5339 -0.2206
 5752SOL    HW128715   2.443   3.043  14.111 -1.3877  0.6825  1.9111
 5752SOL    HW228716   2.416   3.109  13.975 -1.8368  0.8361 -0.4654
 5753SOL     OW28717   3.752   1.040   5.359  0.2938  0.2252 -0.2398
 5753SOL    HW128718   3.659   1.020   5.369  0.2273  1.6338  2.0570
 5753SOL    HW228719   3.759   1.091   5.278  2.0491 -0.5113 -0.5376
 5754SOL     OW28720   0.677   3.095   6.138 -0.0344 -0.1715  0.4386
 5754SOL    HW128721   0.602   3.150   6.161 -1.6100 -2.0205 -0.2875
 5754SOL    HW228722   0.745   3.162   6.137 -0.1610 -0.0391  0.6917
 5755SOL     OW28723   1.843   1.803   7.845  0.1470  0.0777  0.1979
 5755SOL    HW128724   1.837   1.778   7.753 -1.0362 -0.2556  0.3656
 5755SOL    HW228725   1.804   1.889   7.855  1.1438  0.6805 -1.1705
 5756SOL     OW28726   2.649   0.026   1.559  0.0905 -0.0478 -0.1913
 5756SOL    HW128727   2.663   4.712   1.471 -1.0351 -1.6772  0.2616
 5756SOL    HW228728   2.714   0.095   1.553 -1.1759  0.8989 -3.0254
 5757SOL     OW28729   3.054   1.704  12.129  0.1380 -0.4317 -0.2050
 5757SOL    HW128730   3.125   1.738  12.075  0.4802 -2.2311 -0.8895
 5757SOL    HW228731   3.087   1.617  12.149  1.5059  0.2811  0.6774
 5758SOL     OW28732   1.903   0.232   5.741  0.1318  0.0670  0.3238
 5758SOL    HW128733   1.818   0.194   5.762 -0.5047  1.2918 -0.0284
 5758SOL    HW228734   1.936   0.254   5.828  1.3815  0.2571 -0.1996
 5759SOL     OW28735   3.656   1.484   4.385 -0.7032  0.0407  0.1483
 5759SOL    HW128736   3.581   1.463   4.330  2.6347 -0.9521 -4.0134
 5759SOL    HW228737   3.619   1.475   4.473 -2.1507  2.1982 -0.2404
 5760SOL     OW28738   1.889   1.867  13.916 -0.0948 -0.0697 -0.8941
 5760SOL    HW128739   1.916   1.806  13.847  1.3874 -0.9701  0.4766
 5760SOL    HW228740   1.957   1.934  13.909  1.4305 -1.2712  2.2971
 5761SOL     OW28741   3.019   4.588   3.680  0.4933  0.4757 -0.5831
 5761SOL    HW128742   3.014   4.510   3.737  1.2697 -0.0006 -1.1621
 5761SOL    HW228743   3.112   4.599   3.703  0.7037  1.3978 -1.9105
 5762SOL     OW28744   0.818   3.442   8.166 -0.2625  0.2050  0.3278
 5762SOL    HW128745   0.908   3.461   8.137  0.2153  0.2573  1.8232
 5762SOL    HW228746   0.770   3.507   8.115 -0.3930 -1.4476 -1.6564
 5763SOL     OW28747   1.401   3.131   7.356 -0.0973  0.0821  0.4606
 5763SOL    HW128748   1.331   3.193   7.334  0.1486 -0.5777 -2.1859
 5763SOL    HW228749   1.479   3.186   7.361 -0.0014  0.0177 -0.2621
 5764SOL     OW28750   3.366   3.399   0.542 -0.1408 -0.3026 -0.1492
 5764SOL    HW128751   3.426   3.353   0.601  1.2722 -0.4450 -1.6847
 5764SOL    HW228752   3.381   3.359   0.456  0.8452 -0.2362 -0.0063
 5765SOL     OW28753   3.898   3.475   2.725 -0.3674 -0.5357 -0.0300
 5765SOL    HW128754   3.848   3.443   2.650  1.6930 -0.2021 -1.5419
 5765SOL    HW228755   3.836   3.539   2.760  0.7862  1.5584 -1.7887
 5766SOL     OW28756   3.151   1.518   7.931  0.0134 -0.6412  0.4962
 5766SOL    HW128757   3.140   1.613   7.936 -0.6531 -0.6445 -0.8321
 5766SOL    HW228758   3.152   1.512   7.836 -1.4884  2.2029  0.3212
 5767SOL     OW28759   3.060   0.091   3.502 -0.4859  0.1878 -0.2027
 5767SOL    HW128760   2.978   0.136   3.483 -0.6632 -0.7999 -1.7792
 5767SOL    HW228761   3.029   0.006   3.534  1.4924 -0.3522  0.2599
 5768SOL     OW28762   4.070   0.174  11.655  0.1968  0.4273 -0.1410
 5768SOL    HW128763   3.990   0.143  11.613  1.2255 -0.6733 -1.2974
 5768SOL    HW228764   4.068   0.127  11.739 -2.7640  0.9323  0.0642
 5769SOL     OW28765   3.629   0.411  13.817 -0.2117  0.2430  0.1384
 5769SOL    HW128766   3.647   0.415  13.911 -0.0111  1.8563  0.0303
 5769SOL    HW228767   3.599   0.502  13.807 -1.0914  0.1209  1.5464
 5770SOL     OW28768   1.667   0.506  14.032 -0.1921  0.1839  0.1448
 5770SOL    HW128769   1.691   0.595  14.006  0.1051  0.5382  1.6473
 5770SOL    HW228770   1.700   0.506  14.122  2.0006 -1.9713 -0.6624
 5771SOL     OW28771   3.995   2.389   4.018 -0.1730 -0.1308  0.5411
 5771SOL    HW128772   4.036   2.474   4.038  0.7945  0.0830 -2.4102
 5771SOL    HW228773   4.026   2.370   3.930 -0.0565  4.3315 -0.3868
 5772SOL     OW28774   2.594   3.195   2.980  0.0561 -0.1692  0.4373
 5772SOL    HW128775   2.581   3.196   3.075  1.2393  0.7006  0.5767
 5772SOL    HW228776   2.684   3.226   2.977 -0.6317  1.7895 -0.2075
 5773SOL     OW28777   1.269   3.994   4.459 -0.1860  0.2113  0.4475
 5773SOL    HW128778   1.213   3.999   4.382  1.9954 -2.0779 -1.3034
 5773SOL    HW228779   1.235   4.072   4.503 -0.2180  0.2921  0.2785
 5774SOL     OW28780   4.025   3.529  13.237  0.2406 -0.6556  0.4074
 5774SOL    HW128781   4.093   3.551  13.173  1.2941 -0.4051  1.6067
 5774SOL    HW228782   3.956   3.579  13.193  0.3311 -1.2365 -0.3942
 5775SOL     OW28783   3.848   1.598   5.557 -0.3725  0.4243 -0.0572
 5775SOL    HW128784   3.828   1.689   5.537 -0.7895  0.4655  0.5423
 5775SOL    HW228785   3.808   1.551   5.484  0.8781 -0.5082 -0.1432
 5776SOL     OW28786   4.437   4.589   3.027  0.2836  0.2116 -0.2186
 5776SOL    HW128787   4.380   4.666   3.023 -1.4758 -1.0736  0.2839
 5776SOL    HW228788   4.389   4.513   3.058  1.5820 -0.2435  0.6516
 5777SOL     OW28789   0.029   3.735   1.082 -0.0590  0.1180  0.5172
 5777SOL    HW128790   0.036   3.769   0.993 -0.1132  1.0182  0.8569
 5777SOL    HW228791   0.106   3.773   1.123  0.9154 -1.6324  0.3074
 5778SOL     OW28792   3.227   4.187   8.570  0.1987 -0.5174 -0.1537
 5778SOL    HW128793   3.170   4.111   8.579 -0.4930  0.1646  1.3052
 5778SOL    HW228794   3.301   4.172   8.629  1.7188  1.5608 -1.5158
 5779SOL     OW28795   4.670   3.250   2.231 -0.1430  0.2351 -0.0200
 5779SOL    HW128796   4.593   3.199   2.255  1.0214 -2.1577 -1.2866
 5779SOL    HW228797   4.673   3.220   2.140 -0.0527  0.7655 -0.1873
 5780SOL     OW28798   0.490   0.887   1.558 -0.3767  0.0255  0.6240
 5780SOL    HW128799   0.523   0.813   1.507  0.6538 -0.4823  2.0375
 5780SOL    HW228800   0.527   0.877   1.645 -1.0494 -1.3358  0.7496
 5781SOL     OW28801   0.840   3.549   3.082 -0.3453 -0.0089 -0.9220
 5781SOL    HW128802   0.783   3.523   3.155 -0.4771  0.8252 -0.7275
 5781SOL    HW228803   0.923   3.557   3.128  0.1779  0.2183 -1.9121
 5782SOL     OW28804   3.120   3.955   1.439  0.6468  0.5660  0.7988
 5782SOL    HW128805   3.044   3.964   1.496  0.8981 -1.1618  1.3886
 5782SOL    HW228806   3.184   4.018   1.473  1.4457 -0.6148  1.4933
 5783SOL     OW28807   3.061   0.506   1.785 -0.0043  0.5100  0.1623
 5783SOL    HW128808   2.980   0.535   1.742 -0.0734  1.3147  0.8217
 5783SOL    HW228809   3.123   0.562   1.738 -1.6265  1.6085 -0.6799
 5784SOL     OW28810   0.169   2.954   9.069  0.7807  0.0873  0.1578
 5784SOL    HW128811   0.163   2.880   9.129  0.1708  1.2940  1.5792
 5784SOL    HW228812   0.185   2.913   8.984  1.7894  0.4226  0.1812
 5785SOL     OW28813   1.360   0.537   6.811 -0.1360 -0.0627 -0.0533
 5785SOL    HW128814   1.269   0.511   6.825  0.0162 -0.6502 -0.1176
 5785SOL    HW228815   1.371   0.580   6.895  0.5396 -0.9327  0.3035
 5786SOL     OW28816   2.149   3.108   5.088 -0.0777 -0.3194  0.1299
 5786SOL    HW128817   2.187   3.039   5.142 -0.2519  0.2019  0.9168
 5786SOL    HW228818   2.055   3.112   5.101  0.2070  1.5075  1.6843
 5787SOL     OW28819   0.088   3.220   9.055 -0.2480  0.4502  1.0166
 5787SOL    HW128820   0.106   3.250   9.144 -0.7657  1.0161  0.9269
 5787SOL    HW228821   0.119   3.130   9.065  1.2829  1.0695  1.9086
 5788SOL     OW28822   4.184   1.951   1.484  0.0297  0.1118  0.3278
 5788SOL    HW128823   4.157   1.987   1.569 -2.6351 -0.3932 -0.3085
 5788SOL    HW228824   4.223   2.025   1.436 -0.2175  0.1511  0.1894
 5789SOL     OW28825   4.190   1.198   4.794 -0.2056  0.5877 -0.7483
 5789SOL    HW128826   4.231   1.113   4.778 -0.7002 -0.1160  1.6408
 5789SOL    HW228827   4.247   1.243   4.732  2.9073 -1.3124  0.7086
 5790SOL     OW28828   2.866   2.774   7.060  0.1572 -0.1468  0.0453
 5790SOL    HW128829   2.831   2.696   7.018  1.3779  0.5661 -2.3050
 5790SOL    HW228830   2.921   2.734   7.127  0.6887  1.4918  0.5869
 5791SOL     OW28831   1.672   2.020   0.771 -0.1135  0.0403  0.3327
 5791SOL    HW128832   1.617   1.948   0.740  0.0692 -0.0793  0.2916
 5791SOL    HW228833   1.746   2.028   0.711  1.0929 -2.3012  1.5435
 5792SOL     OW28834   0.325   1.406   6.109 -0.8545  0.7536  0.3850
 5792SOL    HW128835   0.278   1.431   6.188 -0.7449  2.9107 -0.2257
 5792SOL    HW228836   0.415   1.413   6.139 -0.8267  0.7468  0.3049
 5793SOL     OW28837   0.268   4.045  15.278  0.0881  0.0196 -0.1531
 5793SOL    HW128838   0.274   3.954  15.249  0.5012 -0.5589  1.6906
 5793SOL    HW228839   0.207   4.026  15.350 -0.5656  1.6154 -0.2744
 5794SOL     OW28840   0.939   3.658  14.927  0.4402  0.3789  0.6162
 5794SOL    HW128841   0.900   3.571  14.934 -1.0831  1.0716  0.6406
 5794SOL    HW228842   1.025   3.641  14.890 -0.2060 -2.8159  0.6530
 5795SOL     OW28843   4.374   1.159   6.544 -0.0336  0.4894  0.4972
 5795SOL    HW128844   4.354   1.244   6.505 -0.9580 -0.7571 -1.7536
 5795SOL    HW228845   4.444   1.127   6.486 -0.1439 -0.3622  0.8255
 5796SOL     OW28846   3.224   0.291   9.225  0.0396 -0.2648 -0.1328
 5796SOL    HW128847   3.181   0.265   9.307  0.5549 -2.4658 -0.5526
 5796SOL    HW228848   3.254   0.378   9.251  1.3843  0.2118 -3.2520
 5797SOL     OW28849   1.290   1.589   8.580  0.5531 -0.3898 -0.5192
 5797SOL    HW128850   1.227   1.661   8.578 -0.0755 -0.9055  0.5717
 5797SOL    HW228851   1.230   1.515   8.591  0.9737 -0.4652  1.2800
 5798SOL     OW28852   0.028   2.693  11.238  0.2792 -0.1849 -0.2925
 5798SOL    HW128853   0.119   2.707  11.266 -0.1613  2.9754 -0.4432
 5798SOL    HW228854   0.036   2.599  11.220  0.0050 -0.3141  0.2863
 5799SOL     OW28855   2.038   1.838   9.718 -0.1295  0.5290 -0.0376
 5799SOL    HW128856   1.953   1.848   9.675 -0.6550  2.1217  1.3719
 5799SOL    HW228857   2.017   1.844   9.811 -3.5960  0.3173 -0.8113
 5800SOL     OW28858   2.533   2.212   5.584 -0.5699 -0.4790  0.0041
 5800SOL    HW128859   2.491   2.296   5.604 -0.6835 -0.3902 -0.6041
 5800SOL    HW228860   2.484   2.182   5.507 -1.0770 -0.3911  0.2876
 5801SOL     OW28861   3.331   0.036   0.660  0.2573 -0.5835 -0.1897
 5801SOL    HW128862   3.372   0.113   0.621  1.2964 -0.8657  0.3573
 5801SOL    HW228863   3.272   0.076   0.725 -2.1959 -1.2277 -2.0112
 5802SOL     OW28864   2.501   2.225   1.090 -0.4320  0.1309 -0.2199
 5802SOL    HW128865   2.540   2.210   1.004 -0.5591  0.2663 -0.3011
 5802SOL    HW228866   2.562   2.162   1.129 -0.2366  0.3074 -0.2410
 5803SOL     OW28867   1.464   1.471   6.797 -0.0136 -0.2654 -0.1686
 5803SOL    HW128868   1.447   1.432   6.882  2.3900 -0.8631  0.0445
 5803SOL    HW228869   1.497   1.397   6.746  1.8447  1.7718 -1.9390
 5804SOL     OW28870   3.209   4.133   4.192  0.3902 -0.0543  0.0996
 5804SOL    HW128871   3.192   4.162   4.103  2.1584  0.9962  0.1021
 5804SOL    HW228872   3.145   4.186   4.240 -0.5325 -1.5874  0.5713
 5805SOL     OW28873   1.327   0.995   4.939  0.1384 -0.5759  0.2497
 5805SOL    HW128874   1.327   0.950   5.024 -0.2542 -0.1987  0.4465
 5805SOL    HW228875   1.395   1.062   4.949 -0.4610  0.3330 -1.8893
 5806SOL     OW28876   2.778   3.107  11.831 -0.1338 -0.1531 -0.0580
 5806SOL    HW128877   2.746   3.165  11.900 -1.5689 -0.5698 -0.3728
 5806SOL    HW228878   2.755   3.019  11.861 -0.8104 -0.6976 -2.1626
 5807SOL     OW28879   4.539   3.385  14.077 -0.3055 -0.6248  0.6165
 5807SOL    HW128880   4.458   3.338  14.059 -0.1184 -0.6260 -0.2343
 5807SOL    HW228881   4.533   3.450  14.008  0.9828 -1.9241 -0.7426
 5808SOL     OW28882   3.583   2.623   2.895 -0.4528 -0.2981  0.1599
 5808SOL    HW128883   3.541   2.571   2.963  2.3424 -2.2405  0.3978
 5808SOL    HW228884   3.588   2.554   2.828 -0.5915  0.4164 -0.5910
 5809SOL     OW28885   2.039   3.849   1.500  0.5777 -0.4596  0.3588
 5809SOL    HW128886   2.042   3.754   1.516 -0.2042 -0.4292  0.6902
 5809SOL    HW228887   2.019   3.884   1.586 -1.8803  0.8662 -0.7492
 5810SOL     OW28888   4.349   4.633   6.836 -0.1284  0.2661 -0.4120
 5810SOL    HW128889   4.310   4.703   6.783 -0.8751  0.3288  0.2233
 5810SOL    HW228890   4.277   4.571   6.825  1.3351 -1.0784 -2.4147
 5811SOL     OW28891   3.895   3.336   7.678 -0.3459 -0.7951 -0.3476
 5811SOL    HW128892   3.860   3.247   7.684  0.6389 -1.1589 -0.0654
 5811SOL    HW228893   3.883   3.351   7.584 -1.6928 -0.4716 -0.1240
 5812SOL     OW28894   4.373   0.438   4.201 -0.3082 -0.4951 -0.5562
 5812SOL    HW128895   4.458   0.464   4.164 -0.3859  2.0940  1.0742
 5812SOL    HW228896   4.364   0.368   4.137  1.1456  0.8371 -2.2402
 5813SOL     OW28897   4.345   1.982   8.953 -0.3655  0.0204 -0.2959
 5813SOL    HW128898   4.334   1.992   8.859  0.1384  0.5018 -0.3069
 5813SOL    HW228899   4.439   2.000   8.959 -0.4379 -0.3496  2.2240
 5814SOL     OW28900   3.823   4.259   2.049 -0.6690 -0.1756  0.3173
 5814SOL    HW128901   3.908   4.269   2.007 -0.4048 -1.1836  0.6098
 5814SOL    HW228902   3.831   4.310   2.130  0.8085 -1.5186  1.0088
 5815SOL     OW28903   4.601   1.812  11.682  0.0382  0.0532 -0.0576
 5815SOL    HW128904   4.661   1.748  11.644 -0.5614 -1.5624  1.7203
 5815SOL    HW228905   4.550   1.843  11.607  1.9078  0.1684 -1.2914
 5816SOL     OW28906   4.699   1.308   9.026  0.4232  0.1640 -0.1606
 5816SOL    HW128907   0.027   1.364   9.086  1.0071  1.7190 -2.0751
 5816SOL    HW228908   0.044   1.283   8.960  0.0625  1.0712 -0.8680
 5817SOL     OW28909   3.446   2.537  13.033 -0.1193 -0.2334 -0.2092
 5817SOL    HW128910   3.517   2.599  13.050 -0.8776  0.8120 -0.8995
 5817SOL    HW228911   3.437   2.495  13.119 -0.1250 -1.9811 -1.0675
 5818SOL     OW28912   4.551   1.984   6.422  0.0932  0.1003 -0.2355
 5818SOL    HW128913   4.565   2.013   6.332  0.8933  0.4785  0.0177
 5818SOL    HW228914   4.635   2.004   6.463  0.1443 -0.7077  0.0579
 5819SOL     OW28915   1.330   3.817   9.981 -0.5620 -0.1515 -0.6303
 5819SOL    HW128916   1.295   3.728   9.987  1.1955 -0.8568 -0.7861
 5819SOL    HW228917   1.335   3.815   9.885 -1.8455 -0.6127 -0.6961
 5820SOL     OW28918   2.580   1.977  15.062  0.7659 -0.4706  0.3266
 5820SOL    HW128919   2.571   1.895  15.013 -0.9215  0.2155 -0.5054
 5820SOL    HW228920   2.668   2.012  15.050  0.7801 -0.2271  1.1470
 5821SOL     OW28921   2.031   4.694   7.402 -0.0902  0.0743  0.6883
 5821SOL    HW128922   2.111   0.016   7.431  1.9193 -2.5474 -1.0790
 5821SOL    HW228923   2.021   4.619   7.460 -1.2239 -0.3836 -0.1017
 5822SOL     OW28924   4.252   2.355  15.092 -0.0793  0.0987 -0.0895
 5822SOL    HW128925   4.253   2.367  14.997  1.3210 -0.5785 -0.1585
 5822SOL    HW228926   4.266   2.447  15.118 -1.8400  0.3937 -0.1396
 5823SOL     OW28927   1.019   3.689   2.697 -0.7314  0.3571 -0.6019
 5823SOL    HW128928   0.927   3.691   2.672 -0.3117 -2.2141 -2.3526
 5823SOL    HW228929   1.040   3.780   2.676  1.8063 -0.3639 -1.2440
 5824SOL     OW28930   1.610   0.150  10.115 -0.3048  0.1467 -0.0559
 5824SOL    HW128931   1.662   0.197  10.050 -1.1738  1.3837  0.1427
 5824SOL    HW228932   1.542   0.215  10.131 -0.3587  0.0014  0.3008
 5825SOL     OW28933   0.371   1.603   8.369  0.1361 -0.2060 -0.4157
 5825SOL    HW128934   0.343   1.532   8.312  1.0723 -0.6369 -0.3418
 5825SOL    HW228935   0.401   1.658   8.296 -0.1952 -0.0901 -0.4657
 5826SOL     OW28936   0.362   3.720   9.522  0.7223 -0.7355  0.2724
 5826SOL    HW128937   0.410   3.699   9.602  0.2340 -0.9681  0.5047
 5826SOL    HW228938   0.415   3.794   9.493 -0.9141  0.0880 -0.6794
 5827SOL     OW28939   3.663   2.351  13.779  0.1450  0.3084 -0.1351
 5827SOL    HW128940   3.726   2.321  13.844 -0.0531 -0.4086 -0.2816
 5827SOL    HW228941   3.664   2.446  13.794  0.4856  0.5375 -1.6161
 5828SOL     OW28942   0.554   2.328   6.418  0.7208 -0.2401 -0.5180
 5828SOL    HW128943   0.580   2.317   6.326  0.1207  1.6127 -0.9061
 5828SOL    HW228944   0.635   2.295   6.456 -0.0644 -0.1952  1.1876
 5829SOL     OW28945   3.114   2.543   3.857  1.0739 -0.3307  0.0274
 5829SOL    HW128946   3.149   2.603   3.790 -0.9354  1.1357  0.2994
 5829SOL    HW228947   3.190   2.527   3.913  0.9198  0.5847  0.4957
 5830SOL     OW28948   0.047   1.925   7.531 -0.0893 -0.2435  0.1539
 5830SOL    HW128949   0.133   1.885   7.536 -0.5855 -1.3788 -0.4913
 5830SOL    HW228950   0.020   1.917   7.623  0.8278  1.7383  0.6068
 5831SOL     OW28951   3.483   2.218   5.446 -0.3726  0.4688  0.2095
 5831SOL    HW128952   3.450   2.141   5.399 -1.3408  0.5495  0.7532
 5831SOL    HW228953   3.405   2.266   5.474 -0.4954 -0.4766  1.4843
 5832SOL     OW28954   3.639   2.987   1.232  0.0879 -0.2877  0.3453
 5832SOL    HW128955   3.724   2.965   1.269 -0.4690 -0.3177  1.6153
 5832SOL    HW228956   3.626   3.075   1.268  1.6870 -1.1860  3.1244
 5833SOL     OW28957   4.463   1.296   3.331 -0.5675  0.3238 -0.1346
 5833SOL    HW128958   4.436   1.282   3.421  0.4303 -0.9031 -0.0258
 5833SOL    HW228959   4.483   1.204   3.315  1.2021  0.5485  0.8249
 5834SOL     OW28960   3.797   1.455   2.641 -0.1793  0.1825  0.2394
 5834SOL    HW128961   3.752   1.539   2.634  3.3497  2.0936  0.3894
 5834SOL    HW228962   3.861   1.461   2.570 -3.3882  0.7300 -2.5933
 5835SOL     OW28963   0.202   0.882   5.725  0.5146  0.0189  0.4672
 5835SOL    HW128964   0.263   0.951   5.752  0.0810  0.2520  0.8426
 5835SOL    HW228965   0.255   0.806   5.747  1.5853  0.7349  0.3875
 5836SOL     OW28966   2.090   1.788  13.448  0.0101  0.4662  0.5396
 5836SOL    HW128967   2.022   1.839  13.405 -0.0661 -0.3643 -0.3200
 5836SOL    HW228968   2.041   1.753  13.522  0.7449 -1.0738  0.2863
 5837SOL     OW28969   0.136   1.116   2.676  0.2465  0.4542  0.4500
 5837SOL    HW128970   0.205   1.050   2.670  0.3676  0.6666 -0.4400
 5837SOL    HW228971   0.163   1.179   2.609 -3.4531  1.3062 -0.2092
 5838SOL     OW28972   3.962   1.186   5.489 -0.1160  0.2395 -0.2401
 5838SOL    HW128973   4.039   1.129   5.485 -0.1328  0.2404 -0.5867
 5838SOL    HW228974   3.895   1.126   5.457  1.7580 -2.0721  0.1563
 5839SOL     OW28975   1.236   2.465   8.294  0.0111 -0.0494  0.1450
 5839SOL    HW128976   1.219   2.487   8.386 -0.7311  0.8453 -0.2117
 5839SOL    HW228977   1.168   2.405   8.263  1.1818  0.3794 -3.2406
 5840SOL     OW28978   3.210   3.950   9.974  0.0385 -0.2518  0.5407
 5840SOL    HW128979   3.131   3.962   9.922  1.3172 -0.9836 -1.5807
 5840SOL    HW228980   3.175   3.922  10.059 -0.4669  1.5779  0.9182
 5841SOL     OW28981   4.090   2.473   0.146 -0.5211 -0.2844 -0.5153
 5841SOL    HW128982   4.043   2.538   0.198 -2.0794 -2.1193  0.4149
 5841SOL    HW228983   4.122   2.426   0.223 -0.6567  1.6096  0.6960
 5842SOL     OW28984   1.854   1.166   7.285 -0.4996  0.0166  0.1993
 5842SOL    HW128985   1.783   1.214   7.328 -0.3793  0.5139 -0.1593
 5842SOL    HW228986   1.826   1.075   7.278  2.2640 -0.9059  1.4292
 5843SOL     OW28987   1.189   2.355   0.557 -0.0102  0.2854  0.5472
 5843SOL    HW128988   1.156   2.438   0.523 -2.1925 -0.5703  0.6105
 5843SOL    HW228989   1.108   2.307   0.575  0.0414  0.4005  1.0896
 5844SOL     OW28990   1.367   1.823   4.075 -0.5476 -0.4547 -0.4544
 5844SOL    HW128991   1.451   1.852   4.112  1.3890 -4.3373 -1.8171
 5844SOL    HW228992   1.348   1.881   4.001  0.4435  1.1861  0.5810
 5845SOL     OW28993   3.307   2.654   3.699 -0.3162  0.3366 -0.1729
 5845SOL    HW128994   3.224   2.651   3.651  0.1334  2.5726 -1.1155
 5845SOL    HW228995   3.314   2.749   3.711 -1.7496  0.4518 -0.2839
 5846SOL     OW28996   0.157   2.214  12.559 -0.1876  0.0605 -0.5088
 5846SOL    HW128997   0.064   2.192  12.567  0.0705 -0.9390 -0.3154
 5846SOL    HW228998   0.189   2.139  12.609  0.7373  1.0793  0.4115
 5847SOL     OW28999   2.024   0.957  14.974  0.0176  0.1830 -0.0462
 5847SOL    HW129000   2.034   0.892  14.905  0.5014 -1.1927  1.3146
 5847SOL    HW229001   2.044   1.035  14.923 -2.4441  0.6746 -0.2552
 5848SOL     OW29002   2.411   1.473   2.943 -0.6874 -0.1821  0.0987
 5848SOL    HW129003   2.451   1.428   3.017 -1.2783 -0.8816 -0.0067
 5848SOL    HW229004   2.407   1.563   2.975  1.0747  0.0712 -0.4060
 5849SOL     OW29005   1.576   1.435   4.718  0.0103  0.1647 -0.0435
 5849SOL    HW129006   1.492   1.398   4.690 -0.3069 -0.2747  1.4719
 5849SOL    HW229007   1.551   1.486   4.795  0.5066  0.9548 -0.4091
 5850SOL     OW29008   3.160   3.786   3.031  0.5999 -0.2114 -0.7240
 5850SOL    HW129009   3.076   3.743   3.044  2.4045 -4.0424 -1.7426
 5850SOL    HW229010   3.211   3.755   3.106 -0.0529 -0.6922 -0.4858
 5851SOL     OW29011   1.942   1.507   7.953  0.1053  0.2713 -0.5442
 5851SOL    HW129012   1.857   1.550   7.957  0.9467  1.8686  0.0867
 5851SOL    HW229013   1.999   1.566   8.003  1.5407 -1.3332 -0.2859
 5852SOL     OW29014   2.305   0.612  13.413 -0.2841  0.0735  0.4401
 5852SOL    HW129015   2.380   0.671  13.402 -1.4939  1.2298 -1.7151
 5852SOL    HW229016   2.229   0.664  13.387  0.2744  1.1280  0.9113
 5853SOL     OW29017   2.966   3.272  15.708  0.1519  0.4868  0.2889
 5853SOL    HW129018   2.938   3.357  15.674  1.1085  0.9681  0.7057
 5853SOL    HW229019   2.912   3.213  15.656 -0.6723  1.4566  0.0339
 5854SOL     OW29020   3.845   2.810   0.018  0.2453 -0.0436  0.0404
 5854SOL    HW129021   3.905   2.846   0.083 -0.4465  1.0098  0.1080
 5854SOL    HW229022   3.856   2.875  17.633  0.2427  0.9160  0.9380
 5855SOL     OW29023   1.334   3.710  15.979  0.5720 -0.3742 -0.2832
 5855SOL    HW129024   1.402   3.647  15.956 -0.7463 -1.0214 -2.3940
 5855SOL    HW229025   1.268   3.642  15.992  0.1950  0.6152  3.0219
 5856SOL     OW29026   1.994   0.028   4.437 -0.0628  1.1994  0.2384
 5856SOL    HW129027   1.936   4.677   4.463  1.6733 -0.1226  0.5154
 5856SOL    HW229028   1.946   0.102   4.475 -2.0783  0.4529 -0.8514
 5857SOL     OW29029   2.018   4.287   1.979  0.5590 -0.2541  0.4942
 5857SOL    HW129030   1.949   4.234   2.019 -0.0390  1.4755  1.7959
 5857SOL    HW229031   2.064   4.216   1.934 -0.9973 -1.1438  0.3103
 5858SOL     OW29032   0.710   1.942   7.727  0.0270  0.9977  0.4401
 5858SOL    HW129033   0.615   1.934   7.735  0.2660  1.2544  3.8054
 5858SOL    HW229034   0.717   1.946   7.632 -0.0219 -0.0968  0.4014
 5859SOL     OW29035   2.879   3.757  15.304 -0.6091 -0.1575  0.2571
 5859SOL    HW129036   2.849   3.798  15.385  0.1305  0.0679  0.4100
 5859SOL    HW229037   2.856   3.824  15.239 -0.2404 -1.2719 -1.0367
 5860SOL     OW29038   4.549   4.662   4.897  0.0866  0.1090  0.7551
 5860SOL    HW129039   4.454   4.648   4.901  0.5334 -2.6657  1.3571
 5860SOL    HW229040   4.555   0.006   4.827  0.4527 -0.2206  0.4866
 5861SOL     OW29041   2.277   1.493  13.094 -0.2352 -0.0933 -0.5407
 5861SOL    HW129042   2.194   1.447  13.078 -1.0755  1.1890  0.1132
 5861SOL    HW229043   2.271   1.500  13.189  1.7201  0.0383 -0.4379
 5862SOL     OW29044   3.217   0.829   4.697 -0.0439  0.0244 -0.2082
 5862SOL    HW129045   3.290   0.890   4.710 -0.5716  0.4336  0.8231
 5862SOL    HW229046   3.147   0.861   4.754  0.4636 -0.7361  0.8490
 5863SOL     OW29047   2.430   1.985   7.548 -0.6470  0.0020 -0.0597
 5863SOL    HW129048   2.468   1.918   7.492 -0.0300 -0.8544  1.3844
 5863SOL    HW229049   2.400   1.930   7.620 -2.6186  2.8960  1.3533
 5864SOL     OW29050   0.078   0.739   4.114 -0.6363  0.4464  0.1314
 5864SOL    HW129051   0.117   0.662   4.073 -0.1347  0.0296  1.3669
 5864SOL    HW229052   0.061   0.811   4.055  0.5240 -0.9130 -1.8502
 5865SOL     OW29053   1.988   0.717   5.011 -0.2757  0.6904 -0.5025
 5865SOL    HW129054   1.953   0.632   5.039  1.3439  0.2800  0.2497
 5865SOL    HW229055   1.949   0.778   5.075  0.0091  2.5532 -2.1052
 5866SOL     OW29056   1.685   1.026   8.536  0.2465  0.2219 -0.6262
 5866SOL    HW129057   1.626   1.053   8.466 -0.4334 -0.3654 -0.2794
 5866SOL    HW229058   1.725   1.110   8.560  0.1367  0.2973 -0.7090
 5867SOL     OW29059   0.272   3.297   4.472  0.5718  0.1215 -0.1149
 5867SOL    HW129060   0.268   3.336   4.384 -1.8136 -1.4615 -0.7037
 5867SOL    HW229061   0.186   3.323   4.502 -0.2200 -1.6748 -0.8466
 5868SOL     OW29062   2.933   2.858   3.724  0.1571 -0.5909 -0.2588
 5868SOL    HW129063   2.893   2.908   3.652  0.2446  1.7069  1.2752
 5868SOL    HW229064   2.998   2.913   3.769 -2.0085  2.1540 -0.4727
 5869SOL     OW29065   0.236   2.141   8.004  0.4894  0.1847 -0.6921
 5869SOL    HW129066   0.151   2.157   7.964 -1.1029 -0.6213  2.3269
 5869SOL    HW229067   0.306   2.190   7.961  0.1043  2.4519  1.2478
 5870SOL     OW29068   2.754   2.618   3.365 -0.3016  0.5767  0.1032
 5870SOL    HW129069   2.748   2.713   3.364 -0.0297  0.5998  3.8903
 5870SOL    HW229070   2.784   2.605   3.275 -0.1934  0.8238  0.1045
 5871SOL     OW29071   1.471   2.566   7.414  0.3085 -0.0116  0.1089
 5871SOL    HW129072   1.558   2.607   7.416 -0.5165  1.6685  1.5510
 5871SOL    HW229073   1.413   2.614   7.473 -0.3258 -3.0698  2.0037
 5872SOL     OW29074   0.582   4.168   8.688 -0.1309 -0.0434 -0.7214
 5872SOL    HW129075   0.529   4.140   8.763 -1.8508 -1.7798 -2.6073
 5872SOL    HW229076   0.556   4.258   8.668 -2.2923 -1.1798 -2.9491
 5873SOL     OW29077   4.170   0.918   5.965 -0.7888 -0.0249 -0.1133
 5873SOL    HW129078   4.254   0.896   6.003 -1.3817  1.3849  2.0223
 5873SOL    HW229079   4.154   0.829   5.935 -0.7822  0.0521 -0.3460
 5874SOL     OW29080   3.489   2.663   0.590  0.3755  0.6515  0.1758
 5874SOL    HW129081   3.466   2.732   0.651  1.4321  2.9065 -1.9799
 5874SOL    HW229082   3.524   2.596   0.649 -1.8426 -0.9894 -0.3308
 5875SOL     OW29083   0.385   3.100   3.500 -0.3008 -0.0431 -0.1381
 5875SOL    HW129084   0.330   3.041   3.448 -0.9868 -0.0634  0.6142
 5875SOL    HW229085   0.457   3.038   3.508  0.0042  0.6989  2.5938
 5876SOL     OW29086   3.248   3.184   9.218 -0.1817  0.0805  0.3299
 5876SOL    HW129087   3.179   3.197   9.284  0.3545  1.1112  0.6851
 5876SOL    HW229088   3.309   3.257   9.228  1.2843 -1.4640  2.3728
 5877SOL     OW29089   0.718   0.318  13.528  0.2275 -0.0112 -0.6364
 5877SOL    HW129090   0.735   0.334  13.435 -0.7254  0.2754 -0.7529
 5877SOL    HW229091   0.636   0.269  13.533  0.3117 -0.0340  0.4934
 5878SOL     OW29092   0.299   3.551   9.024 -0.7190  0.6397  0.1612
 5878SOL    HW129093   0.308   3.555   9.119 -1.5507 -0.1992  0.2867
 5878SOL    HW229094   0.357   3.475   9.017  2.0431  2.8936 -1.2728
 5879SOL     OW29095   2.660   4.189  11.048 -0.0325 -0.1083 -0.5761
 5879SOL    HW129096   2.641   4.276  11.015 -0.3750 -0.2036 -0.6361
 5879SOL    HW229097   2.734   4.208  11.105 -0.6669 -0.7533  0.4788
 5880SOL     OW29098   1.961   0.320  15.014  0.1998  0.1565  0.0929
 5880SOL    HW129099   1.926   0.261  15.080  0.7277  0.0753  0.3020
 5880SOL    HW229100   1.983   0.398  15.064 -0.6494 -0.4674  1.4400
 5881SOL     OW29101   4.109   2.963   8.727 -0.3675  0.1401 -0.5263
 5881SOL    HW129102   4.056   2.987   8.802 -1.8380  1.0749 -1.8737
 5881SOL    HW229103   4.182   2.925   8.776  0.3028  0.0732 -1.5663
 5882SOL     OW29104   3.996   3.966   5.327 -0.0366 -0.4657  0.0698
 5882SOL    HW129105   3.989   3.968   5.232  0.6321  0.1549  0.0313
 5882SOL    HW229106   3.920   3.910   5.338  0.8301 -1.2243  2.1789
 5883SOL     OW29107   2.796   2.225   8.938  0.7775 -0.4924 -0.1312
 5883SOL    HW129108   2.760   2.204   9.025  1.2709 -1.0646 -0.0634
 5883SOL    HW229109   2.753   2.164   8.877 -1.6170  1.3713 -0.3125
 5884SOL     OW29110   0.071   3.580  16.217  0.1138 -0.3255 -0.3455
 5884SOL    HW129111   0.154   3.597  16.260  0.0422 -0.6413 -0.0772
 5884SOL    HW229112   0.019   3.535  16.284  0.4707 -1.2289 -0.6780
 5885SOL     OW29113   1.556   1.480   0.016 -0.4721  0.1066 -0.0708
 5885SOL    HW129114   1.583   1.395  17.664  2.6590  1.7987 -1.7220
 5885SOL    HW229115   1.466   1.479  17.670 -0.5913 -0.3817  0.2978
 5886SOL     OW29116   2.662   1.967  13.934 -1.3549 -0.1641  0.0529
 5886SOL    HW129117   2.586   1.952  13.991  1.5450 -1.4606  3.5897
 5886SOL    HW229118   2.670   2.063  13.928 -2.5179 -0.2578 -3.0234
 5887SOL     OW29119   1.645   0.365   2.165 -0.1326 -0.9792 -0.2596
 5887SOL    HW129120   1.740   0.366   2.181 -0.4393  1.6206  1.2589
 5887SOL    HW229121   1.625   0.328   2.250 -1.0655 -1.0929 -0.5271
 5888SOL     OW29122   2.847   3.055   7.177 -0.0325  0.5517 -0.1216
 5888SOL    HW129123   2.822   3.002   7.101 -0.8522 -1.0412  1.2603
 5888SOL    HW229124   2.936   3.021   7.191 -1.7732 -3.0680  2.1909
 5889SOL     OW29125   0.229   1.747   3.590  0.0965  0.4960 -0.3368
 5889SOL    HW129126   0.155   1.709   3.637 -2.0650  1.6318 -2.8098
 5889SOL    HW229127   0.243   1.683   3.521  0.0990 -0.8477  0.9177
 5890SOL     OW29128   4.066   4.181  11.109 -0.1826  0.0115  0.4207
 5890SOL    HW129129   4.114   4.168  11.027  2.8564  3.0756  1.7216
 5890SOL    HW229130   4.061   4.275  11.123  1.1454  0.2145 -0.5252
 5891SOL     OW29131   0.436   3.878   7.130  0.0625  0.2003 -0.2944
 5891SOL    HW129132   0.359   3.828   7.103  0.7494 -0.9694 -0.0364
 5891SOL    HW229133   0.459   3.929   7.052  1.8734  1.6029  1.1503
 5892SOL     OW29134   1.828   4.482   3.393  0.3155 -0.4298  0.2515
 5892SOL    HW129135   1.834   4.578   3.396 -1.4315 -0.2767 -1.5662
 5892SOL    HW229136   1.747   4.458   3.438 -0.0286 -2.4603 -1.4628
 5893SOL     OW29137   2.796   3.288   7.359 -0.5857 -0.6339  0.0462
 5893SOL    HW129138   2.793   3.210   7.302  0.3774 -0.0110 -0.8480
 5893SOL    HW229139   2.854   3.261   7.430  2.4886  2.2166 -1.3627
 5894SOL     OW29140   1.472   2.030   8.322 -0.2190  0.1013  0.2784
 5894SOL    HW129141   1.487   2.115   8.280 -1.4593  0.1763  0.0057
 5894SOL    HW229142   1.396   2.003   8.272 -0.1891 -0.6210  0.6243
 5895SOL     OW29143   0.502   2.800   7.828  0.3484 -0.6187  0.5088
 5895SOL    HW129144   0.505   2.737   7.756  1.5667 -0.9109  0.8226
 5895SOL    HW229145   0.488   2.884   7.785 -3.6826 -1.3309  0.4496
 5896SOL     OW29146   4.018   3.221   4.940 -0.3031  0.3196 -0.2272
 5896SOL    HW129147   3.954   3.174   4.887 -1.4714  1.0080  0.5891
 5896SOL    HW229148   4.044   3.297   4.888 -1.2583  0.0545 -1.0909
 5897SOL     OW29149   0.011   0.384  10.983  0.1907 -0.2750 -0.2569
 5897SOL    HW129150   0.042   0.438  10.911 -0.9462 -0.7938 -1.1410
 5897SOL    HW229151   4.663   0.445  11.010 -0.1237 -0.5164 -0.4976
 5898SOL     OW29152   3.802   2.969   9.761  0.6459  0.5839 -0.1393
 5898SOL    HW129153   3.888   2.929   9.775  0.7554  0.4002 -1.3369
 5898SOL    HW229154   3.773   2.994   9.848  1.4603 -1.5897  0.7496
 5899SOL     OW29155   1.964   1.501   6.002 -0.4655 -0.0121  0.0441
 5899SOL    HW129156   1.900   1.430   6.006 -0.3366 -0.0331  1.7209
 5899SOL    HW229157   1.903   1.574   6.006 -0.8390 -0.1696 -3.1538
 5900SOL     OW29158   1.979   2.298   0.315 -0.6785  0.6615  0.0001
 5900SOL    HW129159   2.073   2.281   0.316 -0.8615 -0.3370 -0.0993
 5900SOL    HW229160   1.956   2.291   0.408  0.9762 -1.1183  0.2745
 5901SOL     OW29161   3.266   0.258   0.193 -0.1066 -0.0015 -0.1088
 5901SOL    HW129162   3.277   0.256   0.099 -0.6050 -1.6471 -0.1421
 5901SOL    HW229163   3.356   0.233   0.214 -0.4942  1.1565  2.9718
 5902SOL     OW29164   4.192   2.352   0.375  0.2687  0.2475 -0.2240
 5902SOL    HW129165   4.282   2.321   0.374 -0.0723 -0.7396  0.7060
 5902SOL    HW229166   4.177   2.351   0.469 -0.6466 -1.4333 -0.3844
 5903SOL     OW29167   2.478   2.253   7.342  0.5785  0.0494  0.1109
 5903SOL    HW129168   2.401   2.226   7.392 -0.0572  1.6104 -0.0222
 5903SOL    HW229169   2.548   2.256   7.408 -0.1985  0.6360  0.9206
 5904SOL     OW29170   2.504   1.873   8.806  0.6484 -0.6017  0.1460
 5904SOL    HW129171   2.420   1.835   8.831 -0.1360  0.4196 -0.9790
 5904SOL    HW229172   2.541   1.860   8.893  1.7812  1.5008 -0.0098
 5905SOL     OW29173   3.400   2.673   1.990 -0.3724  0.5769  0.7665
 5905SOL    HW129174   3.310   2.643   1.974 -0.0615  0.9997 -1.7049
 5905SOL    HW229175   3.426   2.614   2.061 -1.5855  0.1646  0.8758
 5906SOL     OW29176   4.327   1.569   9.125  0.1030 -0.3754 -0.1767
 5906SOL    HW129177   4.251   1.569   9.067  0.1576  0.2374 -0.2509
 5906SOL    HW229178   4.367   1.493   9.083  1.1136  0.2837 -0.4180
 5907SOL     OW29179   4.046   1.063   3.247 -0.0111  0.0986  0.6403
 5907SOL    HW129180   3.957   1.050   3.214  0.8445 -1.3076 -1.1160
 5907SOL    HW229181   4.037   1.107   3.331 -2.0185  0.5046  0.2206
 5908SOL     OW29182   0.598   2.234   4.097 -0.1741  0.2733  0.1749
 5908SOL    HW129183   0.525   2.284   4.060  0.8764  1.4020 -0.3539
 5908SOL    HW229184   0.541   2.170   4.140 -3.1729  3.4284  0.9407
 5909SOL     OW29185   1.337   1.082  12.912  0.4723  0.1124  0.6196
 5909SOL    HW129186   1.347   1.132  12.993  2.0726 -0.2437  0.6350
 5909SOL    HW229187   1.330   0.993  12.947 -1.3948 -0.6700 -1.6764
 5910SOL     OW29188   3.071   4.465  13.062  0.2732 -0.1809 -0.1852
 5910SOL    HW129189   2.985   4.493  13.093  0.0075 -1.2320  0.0270
 5910SOL    HW229190   3.090   4.392  13.121  2.0784 -0.0553 -0.6098
 5911SOL     OW29191   0.225   4.256   9.011  0.3911 -0.2363 -0.2750
 5911SOL    HW129192   0.199   4.194   9.079  0.3894  1.2703  1.1070
 5911SOL    HW229193   0.243   4.199   8.937 -3.1385 -0.8310 -0.6892
 5912SOL     OW29194   4.464   3.703   7.107  0.5338 -0.2593 -0.3094
 5912SOL    HW129195   4.387   3.714   7.052  0.5176  0.8069 -0.0646
 5912SOL    HW229196   4.430   3.755   7.179  0.5433  1.9332 -1.8788
 5913SOL     OW29197   4.290   3.849   6.702 -0.4416  0.3683 -0.0596
 5913SOL    HW129198   4.352   3.794   6.748 -0.7697 -0.4069 -0.5453
 5913SOL    HW229199   4.212   3.806   6.666 -1.5389  2.1397  0.2126
 5914SOL     OW29200   0.630   3.048  13.683 -0.0780 -0.4644  0.4794
 5914SOL    HW129201   0.592   2.990  13.749  3.8443 -2.9312  0.5568
 5914SOL    HW229202   0.708   3.000  13.657 -0.9914  0.0280 -3.2215
 5915SOL     OW29203   1.783   2.874   7.166  0.1456 -0.4602  0.2352
 5915SOL    HW129204   1.705   2.885   7.220  0.2770  2.9355 -0.2394
 5915SOL    HW229205   1.751   2.821   7.093 -2.6370 -0.8969  1.7658
 5916SOL     OW29206   3.263   2.204   3.754  0.8397 -0.5127 -0.1158
 5916SOL    HW129207   3.328   2.137   3.775 -0.5649 -1.2660  1.7891
 5916SOL    HW229208   3.303   2.268   3.695 -0.0552  0.8604  0.7467
 5917SOL     OW29209   2.852   2.516   5.197  0.3834  0.1818 -0.1271
 5917SOL    HW129210   2.860   2.571   5.119 -0.6884 -0.4203 -0.6608
 5917SOL    HW229211   2.761   2.522   5.227  1.3847  0.4305  2.8782
 5918SOL     OW29212   4.438   4.083  15.415 -0.1529 -0.3205 -0.2242
 5918SOL    HW129213   4.465   4.088  15.323 -1.0513 -1.5319 -0.5514
 5918SOL    HW229214   4.486   4.155  15.456 -1.7062  0.3092  0.4544
 5919SOL     OW29215   1.269   2.147   1.653  0.7372 -0.3117  0.9054
 5919SOL    HW129216   1.209   2.221   1.641 -0.5840 -0.9798  3.2597
 5919SOL    HW229217   1.349   2.195   1.633  0.6463  0.4623  2.3543
 5920SOL     OW29218   3.543   0.681   4.425  0.2635  0.0129  0.2556
 5920SOL    HW129219   3.612   0.616   4.410  0.4991  0.3004  0.1077
 5920SOL    HW229220   3.588   0.760   4.396  1.7264 -1.1820 -0.7482
 5921SOL     OW29221   2.372   2.430   5.610  0.5455 -0.0133  0.1469
 5921SOL    HW129222   2.302   2.454   5.549  1.5223 -1.4600 -1.5322
 5921SOL    HW229223   2.369   2.495   5.680  0.5794  1.7489 -1.4916
 5922SOL     OW29224   2.729   4.325  16.375  0.0977  0.3412  0.0058
 5922SOL    HW129225   2.775   4.319  16.459  0.4480 -0.0913 -0.2187
 5922SOL    HW229226   2.644   4.294  16.407 -0.2438  1.0622 -0.1941
 5923SOL     OW29227   4.167   4.613   1.273 -0.3064  0.1266  0.8829
 5923SOL    HW129228   4.225   4.681   1.308 -2.6426  2.4378  0.2291
 5923SOL    HW229229   4.185   4.632   1.181 -0.7829 -1.5557  0.4526
 5924SOL     OW29230   2.712   1.719   8.506  0.2183 -0.0897 -0.1896
 5924SOL    HW129231   2.753   1.805   8.509  1.8885 -0.8342 -1.5240
 5924SOL    HW229232   2.748   1.684   8.588 -0.5660  0.2191  0.2847
 5925SOL     OW29233   0.598   0.937   9.896  0.8256 -0.9038  0.2955
 5925SOL    HW129234   0.679   0.986   9.904  0.6047 -0.4341 -0.3280
 5925SOL    HW229235   0.634   0.884   9.825  0.0843  0.1228 -0.8327
 5926SOL     OW29236   1.524   2.675   1.957 -0.3733 -0.2399 -0.3165
 5926SOL    HW129237   1.524   2.770   1.944 -0.8133 -0.0054  1.4366
 5926SOL    HW229238   1.478   2.669   2.040 -0.1826 -2.7440 -0.4050
 5927SOL     OW29239   4.398   3.060  16.928 -0.1379 -0.3223 -0.3767
 5927SOL    HW129240   4.420   3.077  16.837  0.5664 -0.0682 -0.1576
 5927SOL    HW229241   4.459   3.120  16.970 -0.6715 -0.0089 -0.0420
 5928SOL     OW29242   3.355   0.432   8.801 -0.3680 -0.1024 -0.1963
 5928SOL    HW129243   3.388   0.514   8.836 -1.6904 -0.2855  1.4541
 5928SOL    HW229244   3.426   0.372   8.823  0.6156  1.2851  0.3808
 5929SOL     OW29245   0.437   4.650  13.446  0.2561 -0.9105  0.3915
 5929SOL    HW129246   0.489   4.639  13.367  0.2616  0.0580  0.2517
 5929SOL    HW229247   0.359   4.604  13.418  1.4623 -2.6478 -0.0903
 5930SOL     OW29248   3.866   0.416   6.359  0.5378  0.1937  0.1132
 5930SOL    HW129249   3.848   0.379   6.273  2.1682  0.6737 -0.4338
 5930SOL    HW229250   3.825   0.502   6.348  1.6731  0.9901  1.9607
 5931SOL     OW29251   2.844   4.048   5.836 -0.3044  0.1861  0.3700
 5931SOL    HW129252   2.868   4.109   5.766  1.2551  0.4342  1.1228
 5931SOL    HW229253   2.757   4.083   5.855  0.0454  0.8832  0.6902
 5932SOL     OW29254   0.376   1.019  17.226 -0.1999 -0.0235  0.0395
 5932SOL    HW129255   0.293   0.983  17.258 -0.7860  2.6307  1.5498
 5932SOL    HW229256   0.348   1.108  17.246  0.5581 -0.7160  4.2642
 5933SOL     OW29257   3.773   3.859   6.692 -0.2806  0.7161  0.0111
 5933SOL    HW129258   3.847   3.876   6.750 -0.9198 -1.6398  1.5258
 5933SOL    HW229259   3.701   3.833   6.751  0.8337 -0.9034  0.6619
 5934SOL     OW29260   0.504   1.764   2.753  0.4939 -0.5127  0.1106
 5934SOL    HW129261   0.525   1.775   2.660  1.5004 -3.8461 -0.0549
 5934SOL    HW229262   0.476   1.673   2.755 -0.6062 -0.1939 -0.9925
 5935SOL     OW29263   0.205   3.744  10.405  0.8347 -0.2762  0.1691
 5935SOL    HW129264   0.210   3.807  10.477  1.2973 -1.1792  0.9342
 5935SOL    HW229265   0.263   3.683  10.450 -1.0570 -1.6635  0.7189
 5936SOL     OW29266   0.131   2.423  12.788 -0.4749 -0.5465  0.0191
 5936SOL    HW129267   0.085   2.356  12.738  0.8022  0.2015 -2.2009
 5936SOL    HW229268   0.053   2.471  12.816 -0.2891 -0.2876  0.0879
 5937SOL     OW29269   0.795   0.232   2.852 -0.1165 -0.1967 -0.2749
 5937SOL    HW129270   0.865   0.204   2.793  1.1459 -0.0794  1.1666
 5937SOL    HW229271   0.765   0.153   2.897 -1.7756  0.7353  0.2690
 5938SOL     OW29272   0.931   2.552   8.441  0.3008  0.0405  0.5273
 5938SOL    HW129273   0.912   2.575   8.351  0.1009 -1.9405  0.0628
 5938SOL    HW229274   0.994   2.618   8.472  0.9608  0.0363 -0.8286
 5939SOL     OW29275   4.453   1.666   8.832  0.2402 -0.0003  0.5869
 5939SOL    HW129276   4.474   1.595   8.893  0.6164  0.3869  0.9098
 5939SOL    HW229277   4.536   1.714   8.829  0.6749 -0.9263 -3.4320
 5940SOL     OW29278   2.024   3.853  11.858  0.2828  0.3838  0.1537
 5940SOL    HW129279   2.053   3.800  11.784  2.9039  1.1952  0.5813
 5940SOL    HW229280   1.937   3.875  11.826  0.7880 -2.5680 -3.2866
 5941SOL     OW29281   1.662   1.748  11.830  0.3389 -0.1754 -0.2833
 5941SOL    HW129282   1.652   1.798  11.911  0.5402 -0.0750 -0.3175
 5941SOL    HW229283   1.673   1.659  11.863 -0.3983  0.1637  0.8722
 5942SOL     OW29284   0.467   0.002  15.158  0.8840  0.1259 -0.5889
 5942SOL    HW129285   0.421   4.646  15.124  1.0083  0.0250 -0.5311
 5942SOL    HW229286   0.496   4.684  15.240 -0.7119 -3.1642 -1.5614
 5943SOL     OW29287   2.508   1.313   5.962 -1.3307  0.1359 -0.3495
 5943SOL    HW129288   2.562   1.234   5.961 -0.4471  0.7511 -1.8798
 5943SOL    HW229289   2.550   1.375   5.903 -0.6248 -0.1497 -0.1362
 5944SOL     OW29290   1.304   3.147   4.710  0.0259  0.1189  0.4271
 5944SOL    HW129291   1.225   3.193   4.735  0.0745  0.4894 -0.0981
 5944SOL    HW229292   1.360   3.157   4.787  2.6470  0.1600 -1.4853
 5945SOL     OW29293   3.827   3.456   0.178  0.0034 -0.0144 -0.5894
 5945SOL    HW129294   3.861   3.515   0.111 -1.8202 -2.3401 -3.5678
 5945SOL    HW229295   3.855   3.507   0.253  0.2186 -0.7119 -0.1985
 5946SOL     OW29296   0.868   2.758   6.445 -0.6792 -0.5975 -0.2373
 5946SOL    HW129297   0.896   2.672   6.415 -1.8573 -1.2272  0.5049
 5946SOL    HW229298   0.793   2.768   6.386 -0.6616 -1.2514 -0.3693
 5947SOL     OW29299   0.801   4.045   9.612 -0.5245 -0.3822  0.5696
 5947SOL    HW129300   0.868   3.977   9.621 -0.6977 -0.5312  0.7122
 5947SOL    HW229301   0.828   4.075   9.526  1.7768  1.0225  1.7926
 5948SOL     OW29302   4.520   1.523   3.859 -0.5659  0.0327 -0.0760
 5948SOL    HW129303   4.490   1.449   3.912 -0.9980  0.3520  0.1253
 5948SOL    HW229304   4.562   1.579   3.925  0.1590 -0.0219 -0.4940
 5949SOL     OW29305   2.226   0.484  10.921 -0.5602  0.6090  0.3658
 5949SOL    HW129306   2.139   0.445  10.915  2.2094 -5.6712  1.3724
 5949SOL    HW229307   2.261   0.471  10.832  1.5079 -0.2975  1.3154
 5950SOL     OW29308   2.533   1.230   7.169 -0.4794 -0.5695 -0.1031
 5950SOL    HW129309   2.506   1.275   7.249  3.7130  1.8972 -0.0617
 5950SOL    HW229310   2.508   1.294   7.102 -4.5834 -1.0673  0.9344
 5951SOL     OW29311   2.162   0.992   4.148  0.0723  0.1903  0.3373
 5951SOL    HW129312   2.127   0.915   4.193 -0.8430  0.5720  0.2818
 5951SOL    HW229313   2.252   0.998   4.182  0.0958  3.3861 -0.3495
 5952SOL     OW29314   3.409   3.884   8.707  0.2798  0.4932 -0.5755
 5952SOL    HW129315   3.359   3.891   8.625  1.8000  0.9778 -1.4616
 5952SOL    HW229316   3.392   3.793   8.733  2.7291  0.0174 -0.6323
 5953SOL     OW29317   3.496   1.718   4.991 -0.2833 -0.7969  0.4535
 5953SOL    HW129318   3.460   1.807   4.995 -4.3315 -2.6267  4.7356
 5953SOL    HW229319   3.589   1.737   5.008 -0.1725 -0.9255 -0.0164
 5954SOL     OW29320   3.758   3.697  13.195  0.0546 -0.0217 -0.0892
 5954SOL    HW129321   3.737   3.637  13.266 -0.5971 -0.9468 -1.0502
 5954SOL    HW229322   3.672   3.728  13.169  0.2712  1.0655  0.5104
 5955SOL     OW29323   3.986   0.869   5.489 -0.2810 -0.6100  0.2476
 5955SOL    HW129324   4.000   0.922   5.568  0.0322 -2.3623  1.3748
 5955SOL    HW229325   3.900   0.831   5.506 -1.1320  0.9390 -0.5241
 5956SOL     OW29326   0.938   2.363   7.340  0.3809  0.3159 -0.1998
 5956SOL    HW129327   0.999   2.359   7.266 -0.4172 -0.3235 -0.8189
 5956SOL    HW229328   0.896   2.447   7.322  0.4587  0.1986 -0.9319
 5957SOL     OW29329   2.586   2.340   4.350 -0.0851  0.4646  0.2217
 5957SOL    HW129330   2.563   2.414   4.294 -1.2077  0.5294  0.7504
 5957SOL    HW229331   2.571   2.269   4.288  0.9961  0.2551  0.2096
 5958SOL     OW29332   3.728   2.634   8.828  0.0528  0.0244  0.4805
 5958SOL    HW129333   3.643   2.677   8.831 -1.3155 -2.5869 -2.1598
 5958SOL    HW229334   3.747   2.601   8.916 -0.2578 -0.2487  0.4421
 5959SOL     OW29335   4.452   4.462  13.535  0.5530  0.3884  0.3766
 5959SOL    HW129336   4.392   4.457  13.460 -0.5555 -0.6875  1.3469
 5959SOL    HW229337   4.398   4.420  13.601 -1.5567  2.9380  0.3007
 5960SOL     OW29338   1.189   2.219   7.680  0.3007  0.4613  0.0356
 5960SOL    HW129339   1.101   2.187   7.661  0.6627 -0.2480 -0.4087
 5960SOL    HW229340   1.166   2.311   7.666  0.5614  0.6821  1.0046
 5961SOL     OW29341   0.430   2.594   4.506  0.1383 -0.2372 -0.2901
 5961SOL    HW129342   0.454   2.507   4.473  0.2344 -0.0675 -0.6653
 5961SOL    HW229343   0.428   2.572   4.599 -0.2291 -3.1141 -0.9790
 5962SOL     OW29344   2.902   4.092  16.011 -0.0599 -0.0965 -0.2359
 5962SOL    HW129345   2.906   4.134  15.926  1.1775 -0.2099 -0.2417
 5962SOL    HW229346   2.967   4.142  16.060  0.9348  1.5486 -3.2365
 5963SOL     OW29347   1.428   1.199  17.105 -0.7529  0.2286  0.0522
 5963SOL    HW129348   1.334   1.187  17.117 -0.8591  1.0922  0.0914
 5963SOL    HW229349   1.441   1.171  17.014  0.8842  0.5001  0.1885
 5964SOL     OW29350   1.097   3.739   4.798  0.2930  0.2191 -0.7072
 5964SOL    HW129351   1.057   3.692   4.871 -1.8408 -0.3855 -2.2665
 5964SOL    HW229352   1.170   3.778   4.846  0.3003 -0.0905 -0.4697
 5965SOL     OW29353   2.863   3.314  13.943  0.2493 -0.2830 -0.2648
 5965SOL    HW129354   2.788   3.371  13.926  0.4677  0.5940  1.6951
 5965SOL    HW229355   2.867   3.263  13.862  1.0805  0.2544 -0.5646
 5966SOL     OW29356   2.591   0.382   8.818 -0.1789  0.0583  0.1511
 5966SOL    HW129357   2.616   0.389   8.726 -1.3706  0.9586 -0.1028
 5966SOL    HW229358   2.635   0.302   8.845  1.3391  0.7037 -0.4241
 5967SOL     OW29359   3.411   3.805   5.805  0.4602 -0.0891  0.3537
 5967SOL    HW129360   3.388   3.839   5.719  2.1170 -0.3034 -0.1669
 5967SOL    HW229361   3.362   3.723   5.803  1.3622 -0.6511  1.3793
 5968SOL     OW29362   4.022   4.129  14.794  0.1855 -0.2866 -0.2900
 5968SOL    HW129363   3.947   4.175  14.756  0.0972 -0.8828 -0.8372
 5968SOL    HW229364   4.074   4.114  14.715  1.6876  0.1536  0.6328
 5969SOL     OW29365   4.038   2.889   9.839  0.1039 -0.0502 -0.8533
 5969SOL    HW129366   4.088   2.959   9.797  1.0347 -0.1816  0.0425
 5969SOL    HW229367   4.088   2.878   9.920 -2.0672 -3.2762  0.0500
 5970SOL     OW29368   3.319   2.478   5.688 -0.1103 -0.5747 -0.1426
 5970SOL    HW129369   3.390   2.523   5.643 -0.6895 -1.3262 -1.8015
 5970SOL    HW229370   3.242   2.518   5.649  0.1721  0.0086 -0.0964
 5971SOL     OW29371   2.305   3.578   1.734 -0.0908  0.0427  0.0496
 5971SOL    HW129372   2.343   3.500   1.693 -0.6627 -0.7020  0.9454
 5971SOL    HW229373   2.350   3.645   1.682 -1.5493  0.0696 -1.1790
 5972SOL     OW29374   1.577   4.470   5.641 -0.1757 -0.2669  0.0243
 5972SOL    HW129375   1.637   4.421   5.584  1.2615  2.6142 -0.9393
 5972SOL    HW229376   1.507   4.404   5.634  1.0500 -1.5012 -0.5720
 5973SOL     OW29377   2.891   4.253   1.381 -0.5277 -0.8446 -0.3125
 5973SOL    HW129378   2.980   4.248   1.348 -0.6074  1.4317 -0.8985
 5973SOL    HW229379   2.858   4.164   1.371  0.5575 -1.5722  2.4236
 5974SOL     OW29380   1.315   0.901  17.657 -0.2500 -0.1066 -0.1585
 5974SOL    HW129381   1.235   0.949  17.679  0.2657  0.7756 -0.2458
 5974SOL    HW229382   1.377   0.973  17.657 -1.6453  1.0963  2.3335
 5975SOL     OW29383   1.478   1.418   0.345 -0.5522  0.3323 -0.1724
 5975SOL    HW129384   1.444   1.454   0.263  2.2815  1.1447 -1.0100
 5975SOL    HW229385   1.571   1.407   0.326 -0.3800 -1.0489  1.4616
 5976SOL     OW29386   0.434   2.607   3.419 -0.4139 -0.4557  0.6340
 5976SOL    HW129387   0.341   2.581   3.425 -1.0003  1.3310 -0.8584
 5976SOL    HW229388   0.454   2.589   3.327  1.9672  1.4862  0.7944
 5977SOL     OW29389   1.911   0.358   7.223  0.1855 -0.4279 -0.3024
 5977SOL    HW129390   1.911   0.433   7.163  2.4463 -0.6027 -0.5115
 5977SOL    HW229391   1.831   0.367   7.276  1.2630  3.5943  0.6652
 5978SOL     OW29392   1.484   0.526  10.604 -0.7190 -0.0019  0.1709
 5978SOL    HW129393   1.576   0.549  10.595 -0.0453 -1.5511  3.3444
 5978SOL    HW229394   1.453   0.518  10.514 -0.3713 -2.3276  0.2601
 5979SOL     OW29395   0.168   1.199   2.108  0.2836 -0.3898 -0.1579
 5979SOL    HW129396   0.251   1.224   2.069  0.0003 -1.1745 -1.2561
 5979SOL    HW229397   0.158   1.282   2.155  1.3073 -0.9279  1.0033
 5980SOL     OW29398   2.435   1.566  15.542  0.0612 -0.6130 -0.1480
 5980SOL    HW129399   2.494   1.642  15.540 -0.1871 -0.5482 -4.1934
 5980SOL    HW229400   2.352   1.613  15.531  0.6428 -0.3420 -3.2110
 5981SOL     OW29401   3.539   3.266   0.730  0.2876 -0.0823 -0.5639
 5981SOL    HW129402   3.510   3.288   0.819 -0.8177  0.0765 -0.9585
 5981SOL    HW229403   3.632   3.283   0.744 -0.2323  2.6962 -0.5381
 5982SOL     OW29404   2.681   0.997  10.047  0.6128  0.0891 -0.5258
 5982SOL    HW129405   2.589   0.974  10.062  0.5149  1.1739  0.5038
 5982SOL    HW229406   2.695   0.929   9.981  1.4710  0.2437 -0.4996
 5983SOL     OW29407   2.948   1.799   4.704  0.5171 -0.4189 -0.1966
 5983SOL    HW129408   2.938   1.892   4.722  1.5814  0.3886 -3.8936
 5983SOL    HW229409   2.911   1.791   4.616  1.3732  0.1291 -0.6017
 5984SOL     OW29410   4.320   3.199   7.232  0.1468 -0.3750 -0.1052
 5984SOL    HW129411   4.394   3.141   7.250 -0.5993 -1.1895  0.2969
 5984SOL    HW229412   4.334   3.224   7.140 -0.3100  2.0860  0.4870
 5985SOL     OW29413   2.304   0.054   8.048 -0.3581  0.0236  0.1162
 5985SOL    HW129414   2.308   0.061   8.143  0.4478 -0.5913  0.1317
 5985SOL    HW229415   2.379   0.108   8.024  0.0265 -1.2666 -1.5855
 5986SOL     OW29416   1.731   3.178   5.657  0.0119  0.1188  0.1386
 5986SOL    HW129417   1.748   3.086   5.677 -0.2772 -0.0233 -0.2660
 5986SOL    HW229418   1.681   3.165   5.577  1.5819  1.2497 -1.0435
 5987SOL     OW29419   3.875   3.911   2.467  0.1070 -0.5144  0.1634
 5987SOL    HW129420   3.906   3.853   2.536  0.4812  0.6412  0.9565
 5987SOL    HW229421   3.960   3.932   2.428 -0.0386  0.8854  0.5811
 5988SOL     OW29422   4.495   4.307  16.808 -0.5258  0.2832 -0.1605
 5988SOL    HW129423   4.560   4.258  16.859  0.5836 -0.3290 -2.1791
 5988SOL    HW229424   4.547   4.373  16.762  0.6592 -0.7981 -0.3634
 5989SOL     OW29425   2.480   0.706   9.428 -0.1065  0.2267  0.1378
 5989SOL    HW129426   2.439   0.770   9.487  1.0094  1.1397 -0.0719
 5989SOL    HW229427   2.562   0.693   9.476 -1.8930 -2.4849  2.4487
 5990SOL     OW29428   4.035   1.684  10.395  0.1780  0.3480  0.5522
 5990SOL    HW129429   4.078   1.756  10.441 -0.0549  0.5420  0.4700
 5990SOL    HW229430   4.026   1.619  10.464 -2.7233  0.4478  0.3071
 5991SOL     OW29431   3.462   1.615   6.026  0.1441  0.5615  0.4188
 5991SOL    HW129432   3.408   1.629   5.948 -0.6036 -0.1761  0.8152
 5991SOL    HW229433   3.391   1.622   6.089 -2.2674  1.1402 -2.3956
 5992SOL     OW29434   4.696   0.783   5.141 -0.0107 -0.2640 -0.3446
 5992SOL    HW129435   0.051   0.818   5.096 -0.8618 -0.1173 -1.6506
 5992SOL    HW229436   0.017   0.743   5.217 -0.5288 -2.6268 -1.3008
 5993SOL     OW29437   0.912   4.709  10.741 -0.0384 -0.5583  0.5321
 5993SOL    HW129438   0.862   4.656  10.804  1.7767 -0.7677  1.7695
 5993SOL    HW229439   0.887   4.670  10.657 -0.3272  0.2127  0.2640
 5994SOL     OW29440   0.052   3.398   8.025  0.0924 -0.7692 -1.1725
 5994SOL    HW129441   0.083   3.355   8.105 -0.6119  1.5118  0.3066
 5994SOL    HW229442   4.701   3.449   8.063 -0.0605 -1.9770  0.1684
 5995SOL     OW29443   2.037   3.918   5.651  0.0734  0.4237 -0.5925
 5995SOL    HW129444   2.098   3.944   5.581  0.9038 -0.6364 -0.2680
 5995SOL    HW229445   2.069   3.980   5.716 -0.0294  1.5184 -1.5805
 5996SOL     OW29446   1.518   4.647   9.960 -0.1792  0.0490  0.4245
 5996SOL    HW129447   1.426   4.663   9.979  0.0666  1.5911  0.2669
 5996SOL    HW229448   1.562   4.706  10.020  0.7332 -1.6515  1.4211
 5997SOL     OW29449   4.565   4.703   7.579 -0.1762 -0.3900 -0.4434
 5997SOL    HW129450   4.472   0.006   7.567  0.3666  2.1217  0.2015
 5997SOL    HW229451   4.599   0.061   7.535 -0.2265  0.3303  0.8065
 5998SOL     OW29452   2.035   2.310   5.788  0.3813  0.0632  0.4260
 5998SOL    HW129453   2.069   2.312   5.699 -0.5321  0.7899  0.0941
 5998SOL    HW229454   2.052   2.399   5.821 -4.0655  0.4871  1.5974
 5999SOL     OW29455   1.694   3.532  11.975  0.0167  0.4174 -0.6861
 5999SOL    HW129456   1.768   3.494  12.023 -0.6931 -0.7876 -0.5297
 5999SOL    HW229457   1.621   3.516  12.034 -0.0536  1.1001 -0.5973
 6000SOL     OW29458   3.174   4.684  14.100  0.3274  0.6455  0.0962
 6000SOL    HW129459   3.194   0.048  14.058 -1.6729  0.5606 -1.0208
 6000SOL    HW229460   3.235   4.700  14.171 -1.4284  0.5640  1.6148
 6001SOL     OW29461   0.175   4.023   9.165  0.0858  0.1618 -0.2053
 6001SOL    HW129462   0.135   3.938   9.143  0.9998  0.2078 -2.0144
 6001SOL    HW229463   0.145   4.029   9.256  0.3032 -0.6503 -0.0800
 6002SOL     OW29464   1.502   3.661  13.293 -0.1794 -0.0488  0.3815
 6002SOL    HW129465   1.535   3.747  13.267 -0.9501  0.2703  0.4816
 6002SOL    HW229466   1.409   3.666  13.274  0.3092 -3.4699 -3.0148
 6003SOL     OW29467   0.788   2.500  11.661  0.7096  0.1474 -0.1662
 6003SOL    HW129468   0.760   2.566  11.724  2.7788 -1.2436  2.2466
 6003SOL    HW229469   0.871   2.478  11.703 -0.5756 -0.7055  1.9405
 6004SOL     OW29470   3.930   0.088   5.653  0.0805 -0.1939 -0.0858
 6004SOL    HW129471   3.930   0.183   5.639  0.7593 -0.3240 -0.9490
 6004SOL    HW229472   3.952   0.066   5.563 -0.5735 -2.4504  0.3103
 6005SOL     OW29473   2.846   2.307  12.761  0.4175 -0.1789 -0.4907
 6005SOL    HW129474   2.907   2.274  12.827 -1.9123 -1.3662  1.0266
 6005SOL    HW229475   2.828   2.233  12.703 -1.3662 -0.2501  0.1571
 6006SOL     OW29476   3.174   4.564   5.927 -0.1357  0.1211  0.5789
 6006SOL    HW129477   3.096   4.511   5.944 -0.3201  0.0492 -0.5387
 6006SOL    HW229478   3.156   4.601   5.841 -0.6659 -2.3816 -0.3828
 6007SOL     OW29479   2.241   1.891   6.579  0.6282 -0.3183 -0.4096
 6007SOL    HW129480   2.249   1.985   6.587 -0.6178 -0.2448  0.0075
 6007SOL    HW229481   2.252   1.852   6.666  1.2019  0.4540 -0.1454
 6008SOL     OW29482   3.569   3.277  15.057 -0.6652  0.4052 -0.4697
 6008SOL    HW129483   3.652   3.239  15.085 -0.4894  1.4386  0.3938
 6008SOL    HW229484   3.531   3.196  15.022 -0.7997 -0.3149  1.3439
 6009SOL     OW29485   3.835   0.265  12.870 -0.1074 -0.3432 -0.5552
 6009SOL    HW129486   3.802   0.200  12.931 -1.5509  2.6268  1.8208
 6009SOL    HW229487   3.787   0.344  12.896 -1.4309 -0.2382 -3.3173
 6010SOL     OW29488   4.216   2.090   3.570 -0.1005 -0.0343 -0.0800
 6010SOL    HW129489   4.258   2.170   3.603 -1.8124  0.7444  0.2019
 6010SOL    HW229490   4.286   2.050   3.518 -0.0462  2.2752 -1.8276
 6011SOL     OW29491   0.754   2.992   2.794  0.0726 -0.4055  0.3313
 6011SOL    HW129492   0.754   2.920   2.731 -3.3167 -0.2260  0.1229
 6011SOL    HW229493   0.822   3.049   2.759  0.4973 -0.3556  1.2399
 6012SOL     OW29494   1.547   3.001   1.736  0.1084 -0.4877 -0.1701
 6012SOL    HW129495   1.635   2.967   1.719 -0.1119 -0.4962 -1.2814
 6012SOL    HW229496   1.569   3.071   1.798 -1.4283  1.9075 -2.3647
 6013SOL     OW29497   3.574   0.524   1.224  0.5249  0.3814 -0.5671
 6013SOL    HW129498   3.517   0.589   1.184 -0.0184  0.8144  0.9292
 6013SOL    HW229499   3.527   0.441   1.225 -2.1527  1.9499  2.0234
 6014SOL     OW29500   0.069   3.879   5.542  0.2036 -0.1594 -0.0797
 6014SOL    HW129501   0.133   3.927   5.489 -0.0326 -1.0267 -1.1466
 6014SOL    HW229502   0.116   3.797   5.559 -0.1113 -0.2512  0.3380
 6015SOL     OW29503   1.474   1.345   2.592  0.0367 -0.1858 -0.0853
 6015SOL    HW129504   1.511   1.313   2.510 -0.5617  0.9946 -0.8089
 6015SOL    HW229505   1.387   1.364   2.557  0.8105  0.1495 -1.8296
 6016SOL     OW29506   1.994   2.153   7.732  0.6080  0.4605  0.7556
 6016SOL    HW129507   1.966   2.091   7.664 -1.1061  2.3298 -0.2260
 6016SOL    HW229508   1.946   2.120   7.808 -0.7238 -0.2541 -0.4021
 6017SOL     OW29509   4.341   3.726  11.797 -0.1131 -0.2515 -0.1137
 6017SOL    HW129510   4.284   3.797  11.770 -1.0642 -2.4764 -4.0096
 6017SOL    HW229511   4.282   3.677  11.854  1.1490 -1.1682  0.4136
 6018SOL     OW29512   1.164   4.446   4.292 -0.0101 -0.2395 -0.0104
 6018SOL    HW129513   1.210   4.489   4.364 -1.4969  1.8090 -0.2982
 6018SOL    HW229514   1.220   4.473   4.219 -0.1732 -2.1909 -0.8489
 6019SOL     OW29515   3.229   2.318   8.039 -0.3463 -0.1057 -0.2807
 6019SOL    HW129516   3.234   2.223   8.050 -1.7331 -0.1635 -0.1590
 6019SOL    HW229517   3.195   2.323   7.950 -1.4204 -0.1276  0.1309
 6020SOL     OW29518   0.459   3.109   8.487 -0.2019  0.5535  0.3088
 6020SOL    HW129519   0.535   3.096   8.429 -0.9918 -0.8537 -0.4055
 6020SOL    HW229520   0.497   3.136   8.570  0.7450 -0.1018  0.0896
 6021SOL     OW29521   1.851   4.121   7.798  0.0956 -0.5108 -0.6611
 6021SOL    HW129522   1.830   4.092   7.886 -1.3080  0.9567 -0.5098
 6021SOL    HW229523   1.804   4.062   7.739 -2.7350 -0.6618  1.7811
 6022SOL     OW29524   3.938   1.277   5.751 -0.2699  0.2648 -0.3160
 6022SOL    HW129525   3.920   1.232   5.669 -0.2251  1.8282 -1.1864
 6022SOL    HW229526   3.861   1.334   5.753  0.6754  1.5462 -0.3795
 6023SOL     OW29527   4.705   2.898   9.329  0.1524  0.2638 -0.0876
 6023SOL    HW129528   4.671   2.954   9.399 -4.6243 -1.4145 -1.0868
 6023SOL    HW229529   0.021   2.823   9.376  0.1933  0.5549  0.3510
 6024SOL     OW29530   3.073   3.733   4.614 -0.2248  0.2476  0.3338
 6024SOL    HW129531   2.987   3.760   4.583 -0.9006 -1.9251  0.3400
 6024SOL    HW229532   3.080   3.781   4.696 -2.5398 -2.3754  2.0737
 6025SOL     OW29533   1.020   3.593   4.233 -0.0584 -0.3510 -0.0762
 6025SOL    HW129534   0.926   3.605   4.221  0.1895  0.8389 -0.7855
 6025SOL    HW229535   1.014   3.509   4.278  0.4277  0.0188  0.6806
 6026SOL     OW29536   1.401   0.012   7.766 -0.4058 -0.0968  0.6417
 6026SOL    HW129537   1.427   0.082   7.826 -0.6616  1.1107 -0.6471
 6026SOL    HW229538   1.478   4.677   7.754 -0.5657  0.2055 -1.6644
 6027SOL     OW29539   3.692   4.052   5.738  0.4415 -0.5136 -0.4734
 6027SOL    HW129540   3.691   3.980   5.675  2.1476  1.5856 -2.8800
 6027SOL    HW229541   3.784   4.067   5.759  0.7785 -1.8853 -0.9888
 6028SOL     OW29542   0.508   4.600   7.354  0.3542 -0.5292 -0.5608
 6028SOL    HW129543   0.552   4.521   7.323 -0.1571 -0.7679 -0.6944
 6028SOL    HW229544   0.556   4.664   7.303 -0.5939  0.3065 -0.4099
 6029SOL     OW29545   1.517   2.545  16.225  0.1574  0.1346 -0.6663
 6029SOL    HW129546   1.467   2.475  16.182 -2.0221  1.0865  0.3020
 6029SOL    HW229547   1.609   2.525  16.209 -0.7216 -3.2409 -1.5562
 6030SOL     OW29548   3.876   3.310   1.341  0.2517  0.1696  0.3873
 6030SOL    HW129549   3.955   3.294   1.392  1.6887  0.8055 -1.6225
 6030SOL    HW229550   3.809   3.251   1.375 -2.6912  2.2384 -1.8772
 6031SOL     OW29551   3.614   0.976   9.114  0.4294  0.6507  0.7011
 6031SOL    HW129552   3.555   1.044   9.149 -1.8922 -0.8381 -0.3392
 6031SOL    HW229553   3.659   0.949   9.194 -0.0553  1.4661  1.2535
 6032SOL     OW29554   2.755   1.085  14.049 -0.1482  0.2389  0.1811
 6032SOL    HW129555   2.841   1.093  14.007  0.7389  0.0035  1.9341
 6032SOL    HW229556   2.785   1.003  14.088  0.8606 -0.1258 -1.3995
 6033SOL     OW29557   1.160   0.027  12.418 -0.0933 -0.1356  0.8325
 6033SOL    HW129558   1.227   0.006  12.353 -2.2783 -0.7649 -1.2189
 6033SOL    HW229559   1.110   4.666  12.410  0.8319 -0.7385  1.1383
 6034SOL     OW29560   2.890   4.529  16.838  0.6347 -0.2349  0.0207
 6034SOL    HW129561   2.892   4.490  16.925  0.6876 -0.8052 -0.2369
 6034SOL    HW229562   2.842   4.609  16.861  2.5443  0.6823  0.8256
 6035SOL     OW29563   2.443   4.021  13.898  0.7789 -0.0665 -0.8410
 6035SOL    HW129564   2.370   3.961  13.914  1.0378  0.1402  1.0872
 6035SOL    HW229565   2.437   4.080  13.974  1.9162 -1.3909  0.2610
 6036SOL     OW29566   4.078   3.267   3.325  0.6053 -0.4519 -0.5310
 6036SOL    HW129567   4.081   3.198   3.391 -0.9941 -1.6632 -1.7509
 6036SOL    HW229568   4.039   3.339   3.374 -1.0259 -1.7703  0.0801
 6037SOL     OW29569   3.648   1.404   6.941 -0.2145  0.7989  0.2063
 6037SOL    HW129570   3.620   1.316   6.915 -0.3746  1.3350 -1.4856
 6037SOL    HW229571   3.574   1.430   6.996 -0.0624  0.6732  0.4671
 6038SOL     OW29572   3.802   4.492   3.547 -0.9124  0.8372  0.4553
 6038SOL    HW129573   3.890   4.527   3.533 -0.7866  0.2139 -0.3571
 6038SOL    HW229574   3.791   4.497   3.642  0.5905  0.2516  0.6601
 6039SOL     OW29575   4.272   0.674   2.531 -0.1350 -0.0284 -0.1176
 6039SOL    HW129576   4.292   0.728   2.608  1.0994  0.0802 -0.5128
 6039SOL    HW229577   4.359   0.648   2.501 -1.2016 -0.8002 -2.5370
 6040SOL     OW29578   3.388   2.920   7.392  0.5002 -0.0801 -1.0702
 6040SOL    HW129579   3.343   2.844   7.430  1.1559  0.0932  0.0535
 6040SOL    HW229580   3.373   2.973   7.470 -0.8636  1.5469 -2.4369
 6041SOL     OW29581   0.389   3.216   4.158  0.0047  0.6148 -0.2163
 6041SOL    HW129582   0.442   3.145   4.194  0.5735  1.1857  0.0734
 6041SOL    HW229583   0.302   3.176   4.165  0.2300  0.3330  1.1647
 6042SOL     OW29584   1.116   4.572   2.293  0.2374 -0.5361  0.5258
 6042SOL    HW129585   1.186   4.515   2.261 -1.1310 -0.9599 -1.7865
 6042SOL    HW229586   1.036   4.526   2.266  1.3213 -2.7993  1.2043
 6043SOL     OW29587   0.883   3.043  14.839  0.4491 -0.0234  0.3238
 6043SOL    HW129588   0.886   3.086  14.925 -0.5726 -0.8859  0.7952
 6043SOL    HW229589   0.819   2.973  14.852 -1.9637  2.3133  0.8908
 6044SOL     OW29590   2.532   0.675   4.924 -0.3073 -0.8494 -0.3375
 6044SOL    HW129591   2.450   0.708   4.961 -0.5710 -0.0735 -1.6010
 6044SOL    HW229592   2.514   0.583   4.906 -1.0854 -0.2768 -2.5995
 6045SOL     OW29593   1.961   2.820   1.828 -0.1120 -0.1162  0.7884
 6045SOL    HW129594   1.898   2.755   1.858 -2.1411  1.0124 -1.0933
 6045SOL    HW229595   1.940   2.830   1.735 -3.9534 -0.0442  1.7009
 6046SOL     OW29596   3.810   0.663  13.059 -0.6823  0.0340  0.7717
 6046SOL    HW129597   3.824   0.626  12.972 -0.7090 -1.6218  1.4588
 6046SOL    HW229598   3.733   0.613  13.085  0.7016 -2.2953  0.4080
 6047SOL     OW29599   2.251   0.486   5.312  0.2466  0.0411  0.2462
 6047SOL    HW129600   2.275   0.463   5.402 -0.1410  2.4046  0.9596
 6047SOL    HW229601   2.331   0.451   5.274 -0.6378  1.5786 -3.0413
 6048SOL     OW29602   2.018   2.533   0.164  0.1401 -0.1229  0.2988
 6048SOL    HW129603   2.001   2.469   0.233  0.8181 -2.2625 -1.4923
 6048SOL    HW229604   1.949   2.595   0.188  0.2703  0.3622 -0.6030
 6049SOL     OW29605   0.845   3.952   2.927  0.1550 -0.2623 -0.0629
 6049SOL    HW129606   0.814   3.861   2.922  2.1871 -0.7848 -3.0597
 6049SOL    HW229607   0.813   3.976   3.013  2.0916  1.2973  0.2272
 6050SOL     OW29608   1.551   2.112   7.371  0.1481  0.0527  0.3989
 6050SOL    HW129609   1.455   2.117   7.371  0.1974  0.8373  4.7051
 6050SOL    HW229610   1.570   2.192   7.419  1.0026  1.0023 -1.5503
 6051SOL     OW29611   3.032   1.764   8.468  0.0919 -0.2298 -0.2633
 6051SOL    HW129612   3.109   1.789   8.518 -1.5981  1.4834  1.4939
 6051SOL    HW229613   2.970   1.820   8.516  3.0466 -0.1704  3.4769
 6052SOL     OW29614   0.530   0.214   5.212  0.3530  0.2460  0.1496
 6052SOL    HW129615   0.494   0.208   5.123 -0.5937 -0.9640  0.6106
 6052SOL    HW229616   0.536   0.119   5.226 -1.4120 -0.0882 -1.1909
 6053SOL     OW29617   2.914   0.555   8.313 -0.1435  0.1510 -0.0178
 6053SOL    HW129618   2.978   0.516   8.373 -0.9403  1.9935  2.0536
 6053SOL    HW229619   2.955   0.640   8.294  1.4035 -0.3588  1.0550
 6054SOL     OW29620   3.225   3.986  14.267 -0.0353  0.1232 -0.2251
 6054SOL    HW129621   3.159   3.916  14.268 -1.8214  1.8363  1.5360
 6054SOL    HW229622   3.258   3.992  14.357  0.3349  5.5189 -0.7659
 6055SOL     OW29623   3.717   3.842   4.071  0.0501 -0.5293  0.3831
 6055SOL    HW129624   3.631   3.804   4.088  0.3673 -0.9480  1.0847
 6055SOL    HW229625   3.712   3.903   3.997  0.1426  0.7566  1.4327
 6056SOL     OW29626   4.221   4.671   0.995 -0.0270 -0.0788 -0.4108
 6056SOL    HW129627   4.285   4.626   0.940 -0.7213 -1.2848 -0.2184
 6056SOL    HW229628   4.172   0.006   0.934  0.0593 -0.0314 -0.4375
 6057SOL     OW29629   1.007   1.113  15.156  0.6561  0.3636 -0.1086
 6057SOL    HW129630   1.014   1.080  15.246 -3.0195  0.2962  0.1631
 6057SOL    HW229631   1.100   1.101  15.136  0.6290  1.2619 -0.7558
 6058SOL     OW29632   4.027   2.887   7.947  0.5516  0.3690 -0.3001
 6058SOL    HW129633   4.021   2.867   8.040 -0.0723 -0.0572 -0.4275
 6058SOL    HW229634   3.934   2.908   7.931 -0.1265 -1.0497  1.7884
 6059SOL     OW29635   4.411   0.083  13.400  0.4269  0.6807 -0.2359
 6059SOL    HW129636   4.378   0.146  13.465  0.7140  0.0098  0.5562
 6059SOL    HW229637   4.453   0.144  13.340 -0.3321  1.4038 -0.0332
 6060SOL     OW29638   1.099   3.668   0.646 -0.5712  0.0324 -0.3101
 6060SOL    HW129639   1.004   3.658   0.638 -0.1301 -3.3167 -1.2804
 6060SOL    HW229640   1.112   3.741   0.585  0.0570 -0.9505 -1.3637
 6061SOL     OW29641   3.830   0.151   1.084  0.4679 -0.0372  0.5615
 6061SOL    HW129642   3.754   0.118   1.036 -0.7670  0.1772  2.3665
 6061SOL    HW229643   3.790   0.145   1.171  1.8983 -2.2333  1.0692
 6062SOL     OW29644   3.766   0.066   3.439 -0.1161 -0.5506 -0.0801
 6062SOL    HW129645   3.789   0.089   3.529  0.6397 -0.1266 -0.3818
 6062SOL    HW229646   3.835   0.002   3.422  0.0521 -0.5038  0.4205
 6063SOL     OW29647   3.462   0.521  13.398  0.7584  0.5194  0.0549
 6063SOL    HW129648   3.426   0.445  13.443  1.8281 -0.3503 -0.5678
 6063SOL    HW229649   3.545   0.481  13.371 -0.9832 -2.3885 -0.9305
 6064SOL     OW29650   2.548   1.297   8.234 -0.4750 -0.1505 -0.2559
 6064SOL    HW129651   2.554   1.202   8.247  1.0975  0.3541  2.7080
 6064SOL    HW229652   2.611   1.328   8.299 -1.6793 -0.4793  1.0872
 6065SOL     OW29653   0.022   3.214  14.557 -0.3409 -0.1130  0.0008
 6065SOL    HW129654   4.666   3.220  14.499 -0.7767  1.6472  0.7547
 6065SOL    HW229655   0.029   3.121  14.576  2.0525 -0.1869 -1.2838
 6066SOL     OW29656   3.771   2.143   8.142 -0.4307  0.0035 -0.3213
 6066SOL    HW129657   3.779   2.077   8.211  0.7418  0.8000  0.2994
 6066SOL    HW229658   3.751   2.218   8.198  0.5704 -1.1778  1.6093
 6067SOL     OW29659   2.276   1.894  14.878 -0.1674 -0.1098  0.5792
 6067SOL    HW129660   2.328   1.830  14.830  0.0177  0.6956 -0.2988
 6067SOL    HW229661   2.288   1.965  14.816 -0.6970  1.2256  2.0049
 6068SOL     OW29662   0.383   3.784   6.872 -0.3900  0.0376 -0.3940
 6068SOL    HW129663   0.389   3.714   6.807 -0.6063 -0.6308  0.3154
 6068SOL    HW229664   0.349   3.853   6.815 -1.2406 -0.2269 -0.2029
 6069SOL     OW29665   1.239   1.082   3.989 -0.0868 -0.0380 -0.0978
 6069SOL    HW129666   1.296   1.132   3.930 -0.0170 -1.2558 -1.0620
 6069SOL    HW229667   1.307   1.075   4.056 -1.5185  0.4391  1.3906
 6070SOL     OW29668   0.530   3.057  12.604 -0.2115  0.1170 -0.0601
 6070SOL    HW129669   0.624   3.049  12.590  0.0306  0.1419  1.5030
 6070SOL    HW229670   0.491   3.017  12.526  0.4431 -0.1882 -0.2359
 6071SOL     OW29671   2.775   2.817   6.163  0.0669 -0.9866  0.3882
 6071SOL    HW129672   2.818   2.735   6.138 -0.4324 -1.4522  1.0414
 6071SOL    HW229673   2.823   2.848   6.240 -2.0374  0.9464  0.9202
 6072SOL     OW29674   0.840   4.510   5.610 -0.1122  0.3374 -0.4774
 6072SOL    HW129675   0.782   4.574   5.652 -0.4553 -0.8453  0.8406
 6072SOL    HW229676   0.899   4.569   5.564 -0.8277  1.1493 -0.3559
 6073SOL     OW29677   2.313   2.935   9.280 -0.2738  0.0377 -0.5393
 6073SOL    HW129678   2.406   2.938   9.259 -0.4467  1.5137 -1.0540
 6073SOL    HW229679   2.315   3.012   9.337 -2.2256 -2.6924  3.2608
 6074SOL     OW29680   1.418   0.189  15.741  0.5122 -0.6886  0.5770
 6074SOL    HW129681   1.482   0.145  15.797 -0.8557  0.9806  3.4459
 6074SOL    HW229682   1.333   0.160  15.775 -0.1274  1.2641  0.6799
 6075SOL     OW29683   1.549   4.423   4.030  0.0470  0.3557 -0.1506
 6075SOL    HW129684   1.498   4.348   4.059 -0.5497  0.1107 -1.8726
 6075SOL    HW229685   1.640   4.394   4.023 -0.3173 -0.6341 -0.6359
 6076SOL     OW29686   4.049   1.509  14.480  0.2509 -0.0831 -0.0026
 6076SOL    HW129687   4.138   1.510  14.513  0.5685 -0.0328 -0.8527
 6076SOL    HW229688   4.024   1.597  14.452  0.4022  0.7358  2.4313
 6077SOL     OW29689   3.704   2.329   8.341 -0.9460 -0.8511 -0.0127
 6077SOL    HW129690   3.707   2.413   8.296 -1.5476 -0.2559  1.0593
 6077SOL    HW229691   3.610   2.315   8.343 -0.9121 -0.5962  2.7808
 6078SOL     OW29692   0.903   2.763   1.542  0.6816  0.0783  0.3740
 6078SOL    HW129693   0.851   2.840   1.519 -0.1057 -0.2683  1.0238
 6078SOL    HW229694   0.841   2.691   1.530  0.7274 -0.2328  2.1299
 6079SOL     OW29695   3.135   0.337   8.979 -0.6830 -0.0043 -0.2942
 6079SOL    HW129696   3.202   0.381   8.926 -1.2980  1.6214  0.2644
 6079SOL    HW229697   3.172   0.322   9.066 -1.9811  1.2931  0.4934
 6080SOL     OW29698   1.919   0.802   7.325  0.0432  0.5043 -0.4429
 6080SOL    HW129699   1.853   0.869   7.306  0.8643  0.7004 -2.6211
 6080SOL    HW229700   1.951   0.818   7.413  1.6975 -0.8144 -0.8049
 6081SOL     OW29701   2.627   2.364   6.000  0.3110 -0.1148 -0.1289
 6081SOL    HW129702   2.676   2.335   6.077  0.0448  0.4192  0.2395
 6081SOL    HW229703   2.548   2.397   6.043  1.3124  0.9333  0.8896
 6082SOL     OW29704   3.511   4.465   9.080 -0.1847 -0.0540 -0.3001
 6082SOL    HW129705   3.561   4.424   9.009  0.5307  1.1458 -0.4969
 6082SOL    HW229706   3.422   4.447   9.052 -1.3876  1.6558  2.4640
 6083SOL     OW29707   2.247   4.383   5.858  0.0474 -0.1485 -0.6610
 6083SOL    HW129708   2.324   4.353   5.907  0.0804  0.4883 -0.3258
 6083SOL    HW229709   2.215   4.454   5.914  0.8589  0.1385 -0.5596
 6084SOL     OW29710   4.393   0.352   7.086 -0.1105 -0.2601 -0.1229
 6084SOL    HW129711   4.368   0.443   7.074 -0.1633 -0.3332 -0.5593
 6084SOL    HW229712   4.469   0.366   7.142  0.3252  0.1389 -0.8167
 6085SOL     OW29713   3.279   4.358   6.273  1.0828  0.0689  0.2861
 6085SOL    HW129714   3.258   4.265   6.273 -0.7992  0.4992  3.2112
 6085SOL    HW229715   3.194   4.398   6.291  0.7506 -0.6874  0.3670
 6086SOL     OW29716   3.919   1.430  16.231  0.1890  0.1434 -0.3464
 6086SOL    HW129717   4.007   1.469  16.228  0.6913 -1.0328 -0.7544
 6086SOL    HW229718   3.944   1.356  16.176  1.6649  2.0077 -2.2085
 6087SOL     OW29719   1.343   1.821   4.937  0.4532  0.4088 -0.0045
 6087SOL    HW129720   1.389   1.811   5.020  0.4115 -0.4150 -0.0795
 6087SOL    HW229721   1.251   1.812   4.964  0.6406 -0.3341  0.3810
 6088SOL     OW29722   1.175   3.278   5.200  0.3301 -0.6508  0.4199
 6088SOL    HW129723   1.159   3.216   5.129 -1.9586 -0.2870  0.6377
 6088SOL    HW229724   1.095   3.299   5.248  0.9362  2.3333  0.1003
 6089SOL     OW29725   0.468   1.491   2.755  0.4284 -0.0864 -0.2776
 6089SOL    HW129726   0.497   1.410   2.712 -1.2533 -0.6242 -0.3918
 6089SOL    HW229727   0.374   1.490   2.735  0.5334  0.9078 -0.8379
 6090SOL     OW29728   1.725   1.087  14.985 -0.3305  0.3512 -0.1586
 6090SOL    HW129729   1.742   1.045  14.901 -1.5638  1.4853 -0.9683
 6090SOL    HW229730   1.670   1.159  14.955 -0.2466  1.1304  1.5503
 6091SOL     OW29731   1.699   1.994  11.976 -0.3270  0.4711  0.1353
 6091SOL    HW129732   1.605   2.011  11.979 -1.0022 -3.0448 -0.4627
 6091SOL    HW229733   1.740   2.075  11.945  0.1033 -0.4050 -1.5388
 6092SOL     OW29734   4.602   2.682   5.170 -0.1128 -0.0401 -0.1258
 6092SOL    HW129735   4.639   2.615   5.228  0.8640 -0.5905 -1.3738
 6092SOL    HW229736   4.586   2.632   5.089  1.7213 -0.1483 -0.4044
 6093SOL     OW29737   0.511   3.327   6.723  0.2026 -0.4217  0.5838
 6093SOL    HW129738   0.443   3.260   6.722  0.2719 -0.4456 -2.4260
 6093SOL    HW229739   0.455   3.404   6.716  0.3277 -0.6398 -2.6524
 6094SOL     OW29740   1.087   2.703   8.773 -0.0641 -0.1294  0.0114
 6094SOL    HW129741   1.112   2.686   8.682  1.4806 -0.3360  0.4879
 6094SOL    HW229742   1.082   2.612   8.803 -0.6454 -0.5005 -1.2242
 6095SOL     OW29743   2.682   2.099   7.909  0.4388 -0.1538  0.2978
 6095SOL    HW129744   2.636   2.031   7.957 -0.4992  0.0882 -0.2495
 6095SOL    HW229745   2.671   2.172   7.969 -1.6070  0.4941 -0.8507
 6096SOL     OW29746   2.116   4.104   8.141  0.6250  0.0363 -0.0238
 6096SOL    HW129747   2.036   4.069   8.100  1.1989  0.8597 -1.8369
 6096SOL    HW229748   2.177   4.068   8.077  1.0806 -2.1783  1.6651
 6097SOL     OW29749   2.440   0.093   2.031 -0.0820 -0.6114  0.5677
 6097SOL    HW129750   2.478   0.049   1.956 -2.9757  0.4977 -1.5620
 6097SOL    HW229751   2.427   0.178   1.989 -0.5866 -2.8137 -3.7532
 6098SOL     OW29752   2.961   3.169  14.142 -0.5119 -0.5960 -0.1883
 6098SOL    HW129753   2.923   3.228  14.077 -2.4532 -1.8896 -0.2365
 6098SOL    HW229754   2.958   3.225  14.220 -1.4346  0.2048 -0.7912
 6099SOL     OW29755   0.240   4.111   3.450 -0.2640  0.6176  0.0847
 6099SOL    HW129756   0.241   4.017   3.434 -0.7834  0.6506 -0.1381
 6099SOL    HW229757   0.167   4.135   3.393  2.2414  1.6167 -2.7432
 6100SOL     OW29758   3.666   3.801   8.434 -0.5654  0.0501 -0.0232
 6100SOL    HW129759   3.721   3.723   8.420  1.4845  1.3608  0.6801
 6100SOL    HW229760   3.584   3.788   8.387 -1.0195  2.9667 -0.0363
 6101SOL     OW29761   3.677   0.335  15.957  0.1654 -0.1820  0.7026
 6101SOL    HW129762   3.601   0.338  16.016  1.4741  1.2668  2.3237
 6101SOL    HW229763   3.744   0.303  16.016 -1.2547  2.9677  4.0527
 6102SOL     OW29764   0.182   2.239   4.362  0.4300 -0.2101 -0.0620
 6102SOL    HW129765   0.203   2.216   4.271  0.4694  0.3492 -0.2001
 6102SOL    HW229766   0.256   2.204   4.411 -0.2572  0.0552  1.1528
 6103SOL     OW29767   3.107   0.759   8.320  0.2711  0.8323 -0.4115
 6103SOL    HW129768   3.105   0.815   8.398 -0.5881 -1.1421  0.9644
 6103SOL    HW229769   3.141   0.674   8.346 -0.6574 -0.0599 -2.1618
 6104SOL     OW29770   4.466   3.217   1.894 -0.6681 -0.5302  0.0349
 6104SOL    HW129771   4.401   3.159   1.855 -1.4824  1.5940 -1.7440
 6104SOL    HW229772   4.419   3.252   1.970 -0.2310  0.7593 -0.2906
 6105SOL     OW29773   4.481   2.937   4.565 -0.1475 -0.2612 -0.0717
 6105SOL    HW129774   4.555   2.913   4.510 -0.0462  0.1917 -0.1374
 6105SOL    HW229775   4.424   2.966   4.494  0.4989 -0.0747 -0.5088
 6106SOL     OW29776   1.051   3.081   5.634  0.3511  0.0089 -0.2856
 6106SOL    HW129777   1.082   3.000   5.675 -0.4341 -0.4403 -0.5784
 6106SOL    HW229778   1.087   3.069   5.546  0.6853 -0.8533 -0.0354
 6107SOL     OW29779   2.677   1.688   6.375 -0.1940 -0.1941  0.4304
 6107SOL    HW129780   2.611   1.622   6.353  1.0499 -1.7223  1.2810
 6107SOL    HW229781   2.728   1.699   6.294  0.9582  0.7414  1.2880
 6108SOL     OW29782   3.279   2.467   4.172 -0.2196 -0.4222  0.3485
 6108SOL    HW129783   3.306   2.480   4.263  4.3497 -0.7296 -0.9550
 6108SOL    HW229784   3.184   2.477   4.166 -0.1377 -0.7727 -1.5905
 6109SOL     OW29785   0.581   2.595   5.466 -0.4031  0.1083 -0.3176
 6109SOL    HW129786   0.658   2.648   5.486 -0.6210 -0.8742  3.1009
 6109SOL    HW229787   0.523   2.628   5.535 -2.4859  0.6045 -2.2889
 6110SOL     OW29788   3.922   3.970   8.629 -0.2040  0.0202  0.1408
 6110SOL    HW129789   3.989   3.931   8.573 -2.9429  0.0917 -3.2096
 6110SOL    HW229790   3.957   3.977   8.718 -1.5148 -1.0664  0.7543
 6111SOL     OW29791   2.846   1.378  11.368  0.2075  0.5566  0.3735
 6111SOL    HW129792   2.821   1.468  11.344  2.8454  0.7748 -1.5861
 6111SOL    HW229793   2.897   1.353  11.290 -0.3483 -0.1685  0.2414
 6112SOL     OW29794   1.690   2.461  10.300  0.3209 -0.2978 -0.4865
 6112SOL    HW129795   1.755   2.493  10.362  0.6080 -0.8499 -0.4985
 6112SOL    HW229796   1.688   2.536  10.241  0.2473  0.4607  0.4797
 6113SOL     OW29797   2.402   4.117   4.208  0.0730  0.6605  0.7817
 6113SOL    HW129798   2.382   4.133   4.116  1.5274  1.5573  0.6215
 6113SOL    HW229799   2.497   4.120   4.198  0.1784 -0.0019  1.6362
 6114SOL     OW29800   4.250   0.699   7.998  0.1739  0.4847  0.4088
 6114SOL    HW129801   4.247   0.711   7.903 -1.1674 -0.3664  0.3466
 6114SOL    HW229802   4.214   0.614   8.021  0.3916  0.1148 -0.5843
 6115SOL     OW29803   4.083   3.900  12.836 -0.2723 -0.3560 -0.1747
 6115SOL    HW129804   4.146   3.968  12.857 -0.9214  0.4134 -0.7253
 6115SOL    HW229805   4.003   3.931  12.879  0.1532  2.0994 -1.1849
 6116SOL     OW29806   3.304   3.375   7.138  0.3856  0.1377  0.1440
 6116SOL    HW129807   3.212   3.351   7.141  0.3901  0.1766  0.6646
 6116SOL    HW229808   3.351   3.297   7.167 -0.5109 -0.2665  0.4769
 6117SOL     OW29809   3.057   2.377  16.048 -0.6013  0.1662 -0.1787
 6117SOL    HW129810   2.980   2.374  16.104  2.3177 -0.9274  3.8475
 6117SOL    HW229811   3.088   2.467  16.054  1.2789 -0.5335  0.6617
 6118SOL     OW29812   2.564   2.513   1.150  0.2048  0.2943 -0.5260
 6118SOL    HW129813   2.611   2.448   1.204  1.0080  1.0874 -0.2698
 6118SOL    HW229814   2.494   2.454   1.122 -0.6224  1.0745 -0.1141
 6119SOL     OW29815   0.510   0.808  10.625  0.6159  0.1169 -0.5768
 6119SOL    HW129816   0.595   0.849  10.612  0.2026  0.8745 -0.8570
 6119SOL    HW229817   0.474   0.800  10.536 -1.2601 -3.1954  0.4816
 6120SOL     OW29818   2.076   3.341   4.308  0.3925 -0.6751 -0.3640
 6120SOL    HW129819   2.022   3.278   4.356  0.9926 -0.3346  0.7588
 6120SOL    HW229820   2.143   3.360   4.373  0.8938  2.1392 -1.6975
 6121SOL     OW29821   3.010   4.453   3.192 -0.7092 -0.1020 -0.2626
 6121SOL    HW129822   3.100   4.424   3.203  0.0043  2.4909  0.6997
 6121SOL    HW229823   2.977   4.368   3.165 -0.8331  0.2832 -1.3305
 6122SOL     OW29824   1.883   1.305  17.622 -0.1706 -0.0021  0.0173
 6122SOL    HW129825   1.962   1.289  17.570 -0.8959  0.8218 -1.3292
 6122SOL    HW229826   1.916   1.383  17.666 -0.0418  0.1654 -0.3775
 6123SOL     OW29827   1.506   3.810   5.688  0.4157 -0.6533  0.5727
 6123SOL    HW129828   1.544   3.777   5.769  2.7233 -0.6034 -0.4593
 6123SOL    HW229829   1.432   3.750   5.679  0.5663 -0.7583 -0.0051
 6124SOL     OW29830   1.848   1.932   8.664  0.0814  0.5605  0.3415
 6124SOL    HW129831   1.832   1.858   8.723  0.1578  1.4606  1.4697
 6124SOL    HW229832   1.770   1.918   8.610 -1.7706 -2.1384  3.6620
 6125SOL     OW29833   0.921   2.361  10.793  0.2112 -0.3212  0.1676
 6125SOL    HW129834   0.899   2.453  10.808  1.9854  0.3552 -1.3393
 6125SOL    HW229835   0.842   2.319  10.828  0.4595 -1.0046 -0.0973
 6126SOL     OW29836   1.434   4.091   8.365 -0.0592 -0.0909  0.3830
 6126SOL    HW129837   1.453   4.003   8.396  0.3031 -0.1426  0.0201
 6126SOL    HW229838   1.475   4.144   8.433 -0.6748  1.1406 -0.2017
 6127SOL     OW29839   0.347   1.111   4.107 -0.1473  0.0733  0.3372
 6127SOL    HW129840   0.392   1.122   4.191  0.7884 -0.1690 -0.1360
 6127SOL    HW229841   0.396   1.040   4.066 -1.2536 -0.6206  0.2339
 6128SOL     OW29842   2.752   0.797   3.176  0.1831 -0.0394  0.3537
 6128SOL    HW129843   2.706   0.876   3.203 -0.2825 -0.0538 -0.4068
 6128SOL    HW229844   2.685   0.750   3.126  0.6490  0.8863 -1.1396
 6129SOL     OW29845   1.937   0.495   9.931 -0.0704  0.0052  0.1358
 6129SOL    HW129846   1.985   0.454  10.004  1.8424  1.4967 -0.2752
 6129SOL    HW229847   1.914   0.579   9.971 -1.1818  0.6815 -1.9308
 6130SOL     OW29848   3.886   1.161   8.283  0.1681  1.0090 -0.0879
 6130SOL    HW129849   3.857   1.176   8.373 -2.9854  1.0365 -1.1203
 6130SOL    HW229850   3.973   1.123   8.293 -0.2596 -0.2775 -1.2472
 6131SOL     OW29851   4.141   0.880   8.744 -0.2344 -0.1763  0.4466
 6131SOL    HW129852   4.116   0.954   8.801 -1.3616 -2.0258  2.3534
 6131SOL    HW229853   4.055   0.840   8.735 -0.9672  1.1052  1.6050
 6132SOL     OW29854   2.585   4.449   8.239  0.1573  0.1993  0.1417
 6132SOL    HW129855   2.634   4.529   8.221 -0.9793  0.7001 -0.7402
 6132SOL    HW229856   2.630   4.414   8.316 -1.4499 -0.5004  0.7621
 6133SOL     OW29857   3.005   0.967  14.142 -0.3761 -0.0299  0.5075
 6133SOL    HW129858   3.099   0.954  14.157 -0.4147 -0.3579  0.4548
 6133SOL    HW229859   3.015   1.039  14.080 -1.0821 -0.1547  0.2527
 6134SOL     OW29860   1.868   4.495   7.538 -0.2426 -0.6826  0.5321
 6134SOL    HW129861   1.867   4.436   7.614 -0.7074 -0.4274  0.7257
 6134SOL    HW229862   1.817   4.564   7.582 -0.6808 -0.7605  0.1392
 6135SOL     OW29863   1.178   1.920   4.679 -0.0598 -0.1727  0.6292
 6135SOL    HW129864   1.264   1.952   4.706 -1.2346  2.2777  1.5086
 6135SOL    HW229865   1.119   1.928   4.754 -1.2771  0.4966 -0.3963
 6136SOL     OW29866   3.431   3.385  15.254 -0.1498 -0.2114 -0.5269
 6136SOL    HW129867   3.453   3.478  15.257 -1.5517  0.1054  0.1224
 6136SOL    HW229868   3.494   3.353  15.189  0.2293  0.4989 -0.5090
 6137SOL     OW29869   2.876   1.230   4.483  0.2396 -1.0899  0.7022
 6137SOL    HW129870   2.917   1.272   4.407  0.8057 -1.4128  0.8341
 6137SOL    HW229871   2.930   1.152   4.494  1.6286  0.0397  1.8916
 6138SOL     OW29872   1.246   1.486   1.250 -0.2452 -0.5023 -0.3065
 6138SOL    HW129873   1.201   1.441   1.321 -1.4462  0.6872 -0.3266
 6138SOL    HW229874   1.216   1.576   1.258  1.4957  0.1414 -0.9624
 6139SOL     OW29875   3.736   4.411   9.439 -0.1472  0.2778 -0.2961
 6139SOL    HW129876   3.740   4.486   9.381  0.2052  0.7841  0.3847
 6139SOL    HW229877   3.790   4.441   9.512 -0.6854 -0.8585  0.5825
 6140SOL     OW29878   2.176   2.669   9.450 -0.3286  0.4690 -0.3687
 6140SOL    HW129879   2.249   2.699   9.504  0.5461 -1.4289 -0.5221
 6140SOL    HW229880   2.147   2.746   9.400 -0.0861  0.0871 -1.1019
 6141SOL     OW29881   2.725   3.534   0.223 -0.1998  0.2914 -0.3765
 6141SOL    HW129882   2.679   3.465   0.175  2.3623 -0.8755 -1.1905
 6141SOL    HW229883   2.676   3.614   0.208  2.4134  1.9377 -0.1696
 6142SOL     OW29884   4.390   2.561   8.207 -0.0223 -0.2566  0.3117
 6142SOL    HW129885   4.466   2.601   8.250  0.9320 -1.0590 -0.6298
 6142SOL    HW229886   4.329   2.540   8.277  0.6357 -3.7889 -0.1725
 6143SOL     OW29887   3.724   0.691   1.390  0.4527  0.1003  0.3108
 6143SOL    HW129888   3.678   0.760   1.341  0.2856  0.0449  0.3894
 6143SOL    HW229889   3.704   0.625   1.323  1.8648  0.3433 -0.3581
 6144SOL     OW29890   4.112   4.631   7.710  0.0104 -0.1585 -0.2876
 6144SOL    HW129891   4.190   4.591   7.746 -0.2026  0.0200  0.3669
 6144SOL    HW229892   4.086   4.701   7.770 -0.4470 -0.0222 -0.6355
 6145SOL     OW29893   3.090   1.417   6.503  0.3683 -0.0463  0.0390
 6145SOL    HW129894   3.163   1.417   6.442  0.6638  2.0521  0.4120
 6145SOL    HW229895   3.023   1.370   6.453  1.6419 -2.8142  0.8790
 6146SOL     OW29896   2.832   1.677   3.425 -0.1332 -0.3451 -0.2543
 6146SOL    HW129897   2.773   1.635   3.488  0.4554 -1.7512 -0.6404
 6146SOL    HW229898   2.861   1.761   3.462  0.3422  0.4816 -2.5488
 6147SOL     OW29899   1.553   4.347   5.303  0.1874  0.3435 -0.1909
 6147SOL    HW129900   1.564   4.440   5.325 -0.1808  1.1959 -3.7113
 6147SOL    HW229901   1.476   4.328   5.358  1.1851  1.8080  1.7398
 6148SOL     OW29902   1.050   3.451   8.771 -0.4053  0.1728  0.5614
 6148SOL    HW129903   1.114   3.435   8.702 -2.3776  2.8630 -1.9009
 6148SOL    HW229904   1.052   3.360   8.800 -1.9273 -0.0867 -0.1577
 6149SOL     OW29905   0.106   3.755   8.086  0.1635 -0.6471 -0.0415
 6149SOL    HW129906   0.200   3.771   8.076 -0.4526  2.7367 -0.3262
 6149SOL    HW229907   0.081   3.826   8.145 -0.8516 -1.1545  0.1391
 6150SOL     OW29908   3.478   2.668   5.520  0.2552  0.4685 -0.7228
 6150SOL    HW129909   3.572   2.659   5.506  0.6837  1.1434  1.7478
 6150SOL    HW229910   3.435   2.634   5.441 -1.8515  2.5730 -0.4937
 6151SOL     OW29911   0.100   4.357   4.126 -0.5709  0.2389  0.0098
 6151SOL    HW129912   0.042   4.433   4.140 -1.8604 -0.9164  1.0454
 6151SOL    HW229913   0.040   4.285   4.149 -0.4581 -0.0738 -0.6958
 6152SOL     OW29914   3.186   3.015   7.710 -0.1799  0.3436  0.1570
 6152SOL    HW129915   3.102   3.008   7.665  0.0817  0.7217 -0.3830
 6152SOL    HW229916   3.167   2.994   7.802 -0.8852 -1.9713 -0.5181
 6153SOL     OW29917   2.401   2.137  14.464 -0.1782 -0.4016  0.1760
 6153SOL    HW129918   2.401   2.041  14.465 -1.5820 -0.4080  0.4554
 6153SOL    HW229919   2.482   2.160  14.419 -1.3253  1.1432 -1.0892
 6154SOL     OW29920   3.264   0.889   7.285  0.2691  0.3110  0.1842
 6154SOL    HW129921   3.199   0.918   7.221 -0.8577 -2.1584  0.2261
 6154SOL    HW229922   3.259   0.947   7.361  1.0303 -1.4400  1.5492
 6155SOL     OW29923   3.044   3.012   2.237  0.5868 -0.1828 -0.4455
 6155SOL    HW129924   2.993   3.003   2.156  0.4281  2.8912 -0.7055
 6155SOL    HW229925   3.054   2.922   2.268  1.5342  0.3216  0.7073
 6156SOL     OW29926   0.940   2.320   8.582  0.2686 -0.1655 -0.4032
 6156SOL    HW129927   1.010   2.367   8.627 -1.5281 -0.5904  2.8955
 6156SOL    HW229928   0.913   2.392   8.526  0.4091  0.7489  0.7139
 6157SOL     OW29929   2.141   3.121  10.583 -0.6265 -0.2471 -0.4292
 6157SOL    HW129930   2.230   3.138  10.553  0.7138 -2.0854  2.4831
 6157SOL    HW229931   2.103   3.090  10.501 -0.3771 -0.3023 -0.5251
 6158SOL     OW29932   4.502   3.539   4.048  0.3175 -0.2244 -0.5505
 6158SOL    HW129933   4.547   3.622   4.033 -1.1116  0.2293 -2.3031
 6158SOL    HW229934   4.442   3.559   4.120  1.1333 -1.3971  0.4547
 6159SOL     OW29935   4.307   1.010  17.379  0.3995 -0.1968  0.3517
 6159SOL    HW129936   4.352   0.926  17.380 -0.5169 -0.6901  0.8218
 6159SOL    HW229937   4.357   1.066  17.438  0.7120  1.9668 -1.9593
 6160SOL     OW29938   2.582   1.734  11.156 -0.4094 -0.2535  0.9171
 6160SOL    HW129939   2.598   1.805  11.094 -0.0529  0.3562  1.6945
 6160SOL    HW229940   2.582   1.667  11.088 -1.6139 -0.0860  0.7436
 6161SOL     OW29941   3.315   4.631   5.090 -0.1958  0.0899 -0.2617
 6161SOL    HW129942   3.304   4.567   5.020  3.1704  0.0754 -0.7856
 6161SOL    HW229943   3.346   4.706   5.039  3.7173 -0.5376  1.1535
 6162SOL     OW29944   1.765   2.885   6.330  0.7469 -0.4878  0.3339
 6162SOL    HW129945   1.839   2.910   6.384  0.9823 -0.9617  0.2297
 6162SOL    HW229946   1.777   2.959   6.270  1.5793 -0.1542  0.9162
 6163SOL     OW29947   3.287   1.923   6.503 -0.2850 -0.4046 -0.7453
 6163SOL    HW129948   3.377   1.946   6.480 -0.3120 -0.7643 -1.1905
 6163SOL    HW229949   3.293   1.831   6.528  1.5914 -0.0304  0.2144
 6164SOL     OW29950   4.321   2.527   8.905 -0.2717 -0.4827 -0.1655
 6164SOL    HW129951   4.407   2.569   8.898  0.4437 -1.6102  1.6904
 6164SOL    HW229952   4.282   2.551   8.821 -0.5958  1.4293  0.5394
 6165SOL     OW29953   3.755   4.654   6.089 -0.1198 -0.2564  0.2915
 6165SOL    HW129954   3.758   4.576   6.144 -0.1316  0.8844  1.9037
 6165SOL    HW229955   3.664   4.681   6.102  0.4898  1.6893  0.5053
 6166SOL     OW29956   3.486   1.975   4.112  0.0345  0.1078  0.0365
 6166SOL    HW129957   3.489   1.978   4.207  0.1054 -1.5074  0.0843
 6166SOL    HW229958   3.438   2.053   4.084  0.5235 -0.3656 -2.1491
 6167SOL     OW29959   0.222   4.139  17.046 -0.2378 -0.2105  0.2577
 6167SOL    HW129960   0.297   4.089  17.016 -0.1630 -0.2504  0.5124
 6167SOL    HW229961   0.249   4.170  17.132  2.0931 -1.6959  0.0563
 6168SOL     OW29962   4.148   3.649  14.413  0.5303 -0.5188 -0.5459
 6168SOL    HW129963   4.158   3.554  14.417 -1.2535 -0.7642 -1.5881
 6168SOL    HW229964   4.179   3.673  14.326  1.0324 -0.1910 -0.2691
 6169SOL     OW29965   2.105   3.766   7.556  0.1431  0.2684  0.6708
 6169SOL    HW129966   2.016   3.776   7.521  0.9035  0.4537 -1.1854
 6169SOL    HW229967   2.153   3.805   7.483 -1.6987  1.7850  0.2545
 6170SOL     OW29968   2.735   3.708   4.911 -0.0750  0.3513 -0.1802
 6170SOL    HW129969   2.690   3.633   4.873  0.0495 -0.1276  0.6212
 6170SOL    HW229970   2.667   3.742   4.969 -1.2493  0.4590 -1.6264
 6171SOL     OW29971   0.606   1.760  11.069 -0.3387  0.0908 -0.2232
 6171SOL    HW129972   0.547   1.728  11.000 -0.2765  0.8170 -0.6147
 6171SOL    HW229973   0.655   1.679  11.083 -1.7547 -0.5503  1.0274
 6172SOL     OW29974   2.973   1.183   7.829  0.2931 -0.5643 -0.0377
 6172SOL    HW129975   3.059   1.152   7.856 -0.1539 -0.0094  1.9887
 6172SOL    HW229976   2.947   1.246   7.896 -0.1935  0.4942 -1.2056
 6173SOL     OW29977   0.267   1.811  17.455  0.2094  0.0859  0.0067
 6173SOL    HW129978   0.262   1.719  17.479 -1.0326  0.2065  0.2244
 6173SOL    HW229979   0.356   1.831  17.484  1.3375 -1.2568 -2.5762
 6174SOL     OW29980   1.912   3.355   6.311  0.2971 -0.3901 -0.1472
 6174SOL    HW129981   1.876   3.426   6.365 -0.5703 -0.7765 -0.2134
 6174SOL    HW229982   1.964   3.403   6.247 -1.6334 -0.5624 -1.8289
 6175SOL     OW29983   4.287   1.289   3.822 -0.0576  0.3417  0.7766
 6175SOL    HW129984   4.264   1.335   3.903  2.1000 -1.4935  2.4319
 6175SOL    HW229985   4.228   1.214   3.823 -2.4800  2.2664  1.5650
 6176SOL     OW29986   4.331   4.391  10.604  0.0203 -0.1672 -0.8026
 6176SOL    HW129987   4.243   4.354  10.594  0.5631 -2.1547  1.7333
 6176SOL    HW229988   4.311   4.480  10.573 -3.5993 -0.3274  1.0825
 6177SOL     OW29989   2.036   3.730   2.677  0.9587  0.2287  0.3433
 6177SOL    HW129990   1.944   3.703   2.680  1.2428 -0.8270 -0.5088
 6177SOL    HW229991   2.072   3.680   2.604 -0.7495 -1.7690  0.8309
 6178SOL     OW29992   0.262   0.251   4.617 -0.1876 -0.6763 -0.0385
 6178SOL    HW129993   0.288   0.284   4.703 -0.8247 -0.9957  0.2773
 6178SOL    HW229994   0.285   0.159   4.630 -2.3242 -1.2714 -0.5253
 6179SOL     OW29995   4.468   4.658   8.839  0.0583 -0.5328 -0.1722
 6179SOL    HW129996   4.469   0.009   8.775  0.9131  1.5738  2.1875
 6179SOL    HW229997   4.542   4.602   8.817  0.7778 -0.5612  2.3777
 6180SOL     OW29998   0.845   3.130   8.314 -0.1894  0.1548  0.6001
 6180SOL    HW129999   0.822   3.065   8.380 -2.8910 -0.0183 -0.4950
 6180SOL    HW230000   0.759   3.135   8.273  0.2092  0.0458 -0.2504
 6181SOL     OW30001   0.041   0.299   5.865 -0.2578  0.6627 -1.0268
 6181SOL    HW130002   0.044   0.390   5.895 -2.8577  0.0351  1.1673
 6181SOL    HW230003   4.665   0.299   5.860 -0.1687 -1.4597 -2.5147
 6182SOL     OW30004   2.849   4.273   5.663  0.2425 -0.0155  0.6514
 6182SOL    HW130005   2.823   4.361   5.689  0.7264  0.6257 -1.0665
 6182SOL    HW230006   2.940   4.287   5.638  0.3983  0.9222  1.7451
 6183SOL     OW30007   3.481   4.047  15.842 -0.4409 -0.2718  0.3004
 6183SOL    HW130008   3.432   3.996  15.907  0.3179 -0.1417  0.9682
 6183SOL    HW230009   3.558   3.993  15.823 -0.8596 -0.8253  0.1876
 6184SOL     OW30010   2.406   2.551   6.082  0.3353 -0.1489 -0.0881
 6184SOL    HW130011   2.469   2.566   6.152 -1.3219  1.3879  1.0541
 6184SOL    HW230012   2.333   2.507   6.125 -1.6444  2.2127 -1.0678
 6185SOL     OW30013   2.904   1.022   6.812 -0.1770  0.1839  0.1567
 6185SOL    HW130014   2.895   0.927   6.803  1.9125 -0.1855  1.9224
 6185SOL    HW230015   2.998   1.034   6.803  0.0799 -2.5247 -0.9817
 6186SOL     OW30016   2.282   0.921  13.413 -0.6720 -1.2684 -0.6611
 6186SOL    HW130017   2.295   0.934  13.507  0.2725 -1.2401 -0.7960
 6186SOL    HW230018   2.372   0.930  13.383 -0.5928 -0.6279 -0.2216
 6187SOL     OW30019   3.803   3.675   7.089  0.3593  0.9123  0.0991
 6187SOL    HW130020   3.875   3.726   7.127  0.9610 -1.1257  1.6703
 6187SOL    HW230021   3.841   3.589   7.073 -2.2745 -0.3772  0.8384
 6188SOL     OW30022   1.328   1.257   1.881  0.2293 -0.0997  0.5004
 6188SOL    HW130023   1.291   1.171   1.860  2.5786 -0.5748 -1.7858
 6188SOL    HW230024   1.334   1.247   1.976 -1.1018 -0.6178  0.5323
 6189SOL     OW30025   1.641   0.754   4.333  0.1267 -0.0130  0.1321
 6189SOL    HW130026   1.572   0.743   4.398  0.1974  0.1626  0.2375
 6189SOL    HW230027   1.587   0.812   4.280 -1.4859 -0.6009  1.1455
 6190SOL     OW30028   1.251   1.954   7.376  0.2497 -0.6388  0.0037
 6190SOL    HW130029   1.254   2.048   7.359  0.3323 -0.6149  0.1496
 6190SOL    HW230030   1.341   1.937   7.403  0.7680  0.7363 -0.8814
 6191SOL     OW30031   4.441   0.239  15.139 -0.0400  0.6297  0.0819
 6191SOL    HW130032   4.390   0.315  15.166 -1.0161  0.2723 -0.7494
 6191SOL    HW230033   4.377   0.208  15.075  1.0256  1.2926 -1.2896
 6192SOL     OW30034   3.433   2.639   9.402 -0.0747  0.2356  0.1461
 6192SOL    HW130035   3.499   2.612   9.338 -0.0651 -1.6394  0.9575
 6192SOL    HW230036   3.361   2.657   9.342  1.8765  0.0173 -2.3100
 6193SOL     OW30037   1.019   4.445   7.640 -0.4114 -0.1879  0.2630
 6193SOL    HW130038   1.056   4.504   7.707 -0.4933  0.2339 -0.0659
 6193SOL    HW230039   1.029   4.500   7.563 -0.4881  0.4668  0.7197
 6194SOL     OW30040   0.649   1.958   7.119  0.5305  0.1599  0.1217
 6194SOL    HW130041   0.702   1.893   7.073  0.1249 -0.5323  0.6428
 6194SOL    HW230042   0.615   1.906   7.191 -0.4574 -0.5045 -0.8088
 6195SOL     OW30043   0.227   2.400   3.419 -0.1191 -0.7834  0.2388
 6195SOL    HW130044   0.135   2.397   3.394  0.1212  0.7777 -0.8283
 6195SOL    HW230045   0.222   2.388   3.514 -0.7269  2.9419  0.6925
 6196SOL     OW30046   2.427   4.220   9.121  0.1109  0.3532 -0.1844
 6196SOL    HW130047   2.464   4.297   9.164 -1.0822  0.7794  0.0701
 6196SOL    HW230048   2.380   4.256   9.046  0.8679  0.6803 -0.5020
 6197SOL     OW30049   1.089   4.480  12.445 -0.2025  0.0320  0.2263
 6197SOL    HW130050   1.128   4.404  12.488 -0.6444  0.0847  0.7208
 6197SOL    HW230051   1.076   4.435  12.361  1.0071  0.9229 -0.4321
 6198SOL     OW30052   2.157   1.738   7.319 -0.8017  0.0358  1.0394
 6198SOL    HW130053   2.175   1.662   7.263 -1.2653  0.6689  0.0311
 6198SOL    HW230054   2.077   1.776   7.284 -1.1099 -0.4956  1.1729
 6199SOL     OW30055   4.128   2.176   7.603  0.1276  0.1296  0.2950
 6199SOL    HW130056   4.218   2.167   7.574  0.2694 -1.3358  1.1964
 6199SOL    HW230057   4.138   2.202   7.694  3.0453  2.1233 -0.5808
 6200SOL     OW30058   3.705   2.492   7.860 -0.1841  0.2280  0.4004
 6200SOL    HW130059   3.674   2.408   7.894  0.1027 -0.8682 -2.0896
 6200SOL    HW230060   3.798   2.479   7.843 -0.5379 -1.2749 -0.3045
 6201SOL     OW30061   2.400   4.572   5.108  0.3514  0.2996 -0.6677
 6201SOL    HW130062   2.357   4.517   5.174  2.6119 -2.1983 -1.2673
 6201SOL    HW230063   2.477   4.603   5.156  1.1356 -0.8772 -1.1601
 6202SOL     OW30064   1.888   0.154  15.240  0.4343 -0.1652 -0.2996
 6202SOL    HW130065   1.876   0.135  15.333 -0.2592  2.4328  0.1404
 6202SOL    HW230066   1.966   0.204  15.262  0.3885 -0.2562  0.0743
 6203SOL     OW30067   3.246   1.621   2.702 -0.7894 -0.2452 -0.1244
 6203SOL    HW130068   3.298   1.686   2.654 -0.0234 -0.5819  0.2501
 6203SOL    HW230069   3.162   1.663   2.687 -0.2921  0.4510 -0.9688
 6204SOL     OW30070   1.855   2.553   1.149  0.4448 -0.0498 -0.0331
 6204SOL    HW130071   1.819   2.490   1.210  0.0763 -0.9076 -1.1430
 6204SOL    HW230072   1.951   2.543   1.148  0.5568  0.9474 -0.9490
 6205SOL     OW30073   3.054   3.533   3.542  0.2041  0.0920 -0.3951
 6205SOL    HW130074   3.029   3.619   3.575 -1.0061 -0.1762 -0.5841
 6205SOL    HW230075   2.978   3.517   3.486 -1.8881  1.2890  2.0903
 6206SOL     OW30076   1.514   4.007   2.828 -0.1097  0.3666  0.3775
 6206SOL    HW130077   1.433   4.029   2.874  0.1310 -0.5070  1.2185
 6206SOL    HW230078   1.511   3.914   2.849  0.7861  0.7245  2.1093
 6207SOL     OW30079   2.785   3.642   4.181  0.2148  0.4538  0.0172
 6207SOL    HW130080   2.711   3.691   4.218  1.2311  0.6199  1.8434
 6207SOL    HW230081   2.826   3.700   4.117  0.4483  2.0829  1.6273
 6208SOL     OW30082   2.118   4.518   2.932  0.2745 -0.2356 -0.7545
 6208SOL    HW130083   2.083   4.604   2.907 -1.0740 -0.8094 -0.8269
 6208SOL    HW230084   2.173   4.506   2.854 -1.1004  0.7403 -1.8802
 6209SOL     OW30085   1.028   2.808   3.412  0.2552  0.2272  0.1158
 6209SOL    HW130086   1.002   2.738   3.471 -2.8004 -0.8456 -2.4946
 6209SOL    HW230087   1.010   2.763   3.330  0.4811 -0.4670  0.4507
 6210SOL     OW30088   0.102   0.711   6.974 -0.3339 -0.0220  0.6255
 6210SOL    HW130089   0.099   0.619   6.946  1.4680  0.4867 -1.1891
 6210SOL    HW230090   0.195   0.717   6.993 -0.6030  0.6130  1.7351
 6211SOL     OW30091   0.143   3.352   9.646  0.4795  0.1804  0.1548
 6211SOL    HW130092   0.178   3.399   9.722  0.4658  0.5771 -0.0839
 6211SOL    HW230093   0.203   3.385   9.579  0.6511 -2.3376 -0.9176
 6212SOL     OW30094   3.114   3.846   5.801 -0.1778  0.1031  0.5025
 6212SOL    HW130095   3.105   3.830   5.895  1.6410 -0.2774  0.6053
 6212SOL    HW230096   3.052   3.785   5.762  0.8727  0.1159 -1.2269
 6213SOL     OW30097   2.414   2.269   5.190  0.7419 -0.2010  0.5393
 6213SOL    HW130098   2.347   2.313   5.137  0.9331  0.5666  0.9247
 6213SOL    HW230099   2.471   2.343   5.211 -0.5424  0.7266  0.7580
 6214SOL     OW30100   4.601   2.474   5.894  0.4683 -0.1989  0.1461
 6214SOL    HW130101   4.520   2.521   5.915 -0.0284 -1.0343  0.1024
 6214SOL    HW230102   4.632   2.455   5.983  3.8852 -0.0738 -1.0292
 6215SOL     OW30103   4.571   1.049   9.050  0.3919 -0.3104  0.1652
 6215SOL    HW130104   4.637   0.980   9.041 -0.6888 -1.3096 -0.0963
 6215SOL    HW230105   4.620   1.120   9.091  0.6325  0.2113 -1.0220
 6216SOL     OW30106   1.032   4.283  17.620  1.1444 -0.3284 -0.5540
 6216SOL    HW130107   1.005   4.347   0.002 -0.7899 -2.9713  1.2056
 6216SOL    HW230108   0.952   4.230  17.613  0.2792  0.7573  1.1674
 6217SOL     OW30109   3.773   3.325   9.585 -0.0308 -0.3774  0.4364
 6217SOL    HW130110   3.853   3.282   9.617 -0.0921 -1.0070 -0.2560
 6217SOL    HW230111   3.749   3.381   9.659 -0.3934  0.6527 -0.4612
 6218SOL     OW30112   3.867   3.877   0.430  0.4047  0.2457 -0.0721
 6218SOL    HW130113   3.909   3.898   0.346  0.3110 -0.8431 -0.3867
 6218SOL    HW230114   3.883   3.783   0.438 -1.0360 -0.1897 -2.1912
 6219SOL     OW30115   3.462   4.551   2.302  0.3378  0.1501 -0.0061
 6219SOL    HW130116   3.507   4.470   2.277  1.8886  0.5445  1.6008
 6219SOL    HW230117   3.443   4.536   2.394  0.4528  1.4286  0.2225
 6220SOL     OW30118   0.608   2.473  10.627 -0.1295 -0.5251 -0.3851
 6220SOL    HW130119   0.682   2.457  10.568  1.6666 -0.8061  1.9350
 6220SOL    HW230120   0.559   2.392  10.615 -2.2210  0.7966 -0.6391
 6221SOL     OW30121   3.441   2.002   7.305  0.4612 -0.1227 -0.4656
 6221SOL    HW130122   3.519   2.041   7.343  0.3443 -0.6839  0.3385
 6221SOL    HW230123   3.486   1.958   7.233 -2.1102 -2.8478 -0.4357
 6222SOL     OW30124   2.282   0.682   5.137  0.2190 -0.1423  0.0985
 6222SOL    HW130125   2.274   0.611   5.200  0.5147  0.5600  0.9338
 6222SOL    HW230126   2.245   0.641   5.059  1.8417 -0.9654 -0.2269
 6223SOL     OW30127   2.837   2.375   2.375  0.1772  0.4724 -0.1620
 6223SOL    HW130128   2.797   2.312   2.314 -0.4533  0.1621  0.5803
 6223SOL    HW230129   2.906   2.415   2.321  1.3373 -1.6064 -0.2517
 6224SOL     OW30130   1.106   4.212   5.290 -0.1949  0.4800  0.1483
 6224SOL    HW130131   1.111   4.168   5.375 -2.6836  0.4804  0.2692
 6224SOL    HW230132   1.166   4.281   5.320 -0.4966  0.7296  0.1769
 6225SOL     OW30133   1.109   0.445   8.923  0.0793  0.0174  0.0349
 6225SOL    HW130134   1.021   0.455   8.959  0.8862  0.5946  1.8460
 6225SOL    HW230135   1.089   0.383   8.853  0.5010 -0.7449  0.5990
 6226SOL     OW30136   0.689   0.230   0.869 -0.1765  0.1833 -0.7000
 6226SOL    HW130137   0.690   0.315   0.914  0.0170  0.5853 -1.4596
 6226SOL    HW230138   0.739   0.168   0.922 -0.6328 -0.3511 -0.8999
 6227SOL     OW30139   4.506   4.148   6.921  0.0380  0.6860 -0.1797
 6227SOL    HW130140   4.509   4.118   7.012  1.3316  0.3219 -0.3489
 6227SOL    HW230141   4.508   4.244   6.932 -0.5013  0.7901 -0.9883
 6228SOL     OW30142   0.453   2.590   1.233 -0.5653  0.1498 -0.5398
 6228SOL    HW130143   0.448   2.573   1.327  0.5530  1.9271 -0.1423
 6228SOL    HW230144   0.487   2.511   1.191 -0.4184 -0.6151  1.0242
 6229SOL     OW30145   0.486   4.373  16.470  0.4493 -0.3792  0.1750
 6229SOL    HW130146   0.415   4.427  16.506  0.2739 -0.1959 -0.4545
 6229SOL    HW230147   0.537   4.440  16.425  0.1285 -0.5403 -0.4266
 6230SOL     OW30148   0.339   0.385   1.204  0.3937 -0.1536 -0.4914
 6230SOL    HW130149   0.329   0.390   1.109  1.0597  0.7584 -0.5205
 6230SOL    HW230150   0.374   0.473   1.218  2.2420 -1.0122  0.2378
 6231SOL     OW30151   0.375   1.390   3.096 -0.3275  0.2083 -0.4666
 6231SOL    HW130152   0.364   1.364   3.188 -1.3502  0.0786 -0.6369
 6231SOL    HW230153   0.414   1.476   3.111  0.3129 -0.0783 -0.4677
 6232SOL     OW30154   1.236   2.257   5.350  0.0010  0.1641  0.2551
 6232SOL    HW130155   1.167   2.204   5.310 -0.1865  0.1520  0.5997
 6232SOL    HW230156   1.217   2.212   5.432  0.2403 -0.4068  0.0005
 6233SOL     OW30157   1.971   3.357   2.535  0.1523 -0.3086 -0.3636
 6233SOL    HW130158   2.028   3.430   2.513  0.6919 -0.3383  0.9234
 6233SOL    HW230159   2.022   3.310   2.601  0.5031 -2.6591 -2.3348
 6234SOL     OW30160   3.388   2.386   3.595  0.1790  0.1387  0.1150
 6234SOL    HW130161   3.338   2.463   3.624 -0.5797 -0.6377  0.8990
 6234SOL    HW230162   3.472   2.426   3.616  0.6985 -1.0022  0.2263
 6235SOL     OW30163   3.905   1.230   8.803 -0.0893  0.7637 -0.1214
 6235SOL    HW130164   3.859   1.278   8.872 -1.2817 -0.0312 -0.3739
 6235SOL    HW230165   3.960   1.169   8.852  0.3908 -0.5890 -2.3361
 6236SOL     OW30166   0.508   2.619   7.216 -0.1598  0.0012 -0.8781
 6236SOL    HW130167   0.469   2.665   7.142  0.3256  1.9109  0.0354
 6236SOL    HW230168   0.483   2.672   7.292 -0.9242 -1.1864 -0.3061
 6237SOL     OW30169   0.954   4.556   6.772  0.3922 -0.1600 -0.0313
 6237SOL    HW130170   0.946   4.466   6.740  1.7224 -0.8436  1.5995
 6237SOL    HW230171   1.025   4.548   6.836  2.2289  0.4461 -1.9932
 6238SOL     OW30172   1.171   1.743   3.401  0.3201  0.6029  0.0356
 6238SOL    HW130173   1.140   1.722   3.488  0.7552 -0.4604 -0.0678
 6238SOL    HW230174   1.266   1.750   3.410  0.3331 -1.5982  1.4879
 6239SOL     OW30175   1.754   1.571   4.511  0.1065  0.3056  0.5205
 6239SOL    HW130176   1.714   1.528   4.586  0.7838 -2.7011 -0.8291
 6239SOL    HW230177   1.826   1.508   4.501 -2.5823 -2.1290 -3.7153
 6240SOL     OW30178   2.632   0.103  14.994 -0.7351  0.5559 -0.3224
 6240SOL    HW130179   2.680   0.179  15.026  1.0569 -0.0394 -1.5861
 6240SOL    HW230180   2.615   0.131  14.904 -0.3718 -2.6244 -1.3951
 6241SOL     OW30181   2.411   3.410   7.854 -0.2934  0.2163 -0.4496
 6241SOL    HW130182   2.345   3.341   7.857  2.6452 -2.5492 -0.2785
 6241SOL    HW230183   2.366   3.476   7.801  0.1642  0.6970 -0.2382
 6242SOL     OW30184   3.737   1.232   6.525 -0.5198 -0.5429 -0.0476
 6242SOL    HW130185   3.659   1.208   6.576 -1.7641  2.6189 -0.4721
 6242SOL    HW230186   3.737   1.151   6.473  0.9258  0.0247 -0.8959
 6243SOL     OW30187   3.031   2.728   0.172 -0.0800 -0.5570  0.1261
 6243SOL    HW130188   3.049   2.753   0.263  0.3799  2.0294 -0.6918
 6243SOL    HW230189   3.069   2.640   0.166 -0.0444 -0.4275 -1.6999
 6244SOL     OW30190   3.676   3.633   5.236 -0.4435  0.4343  0.2398
 6244SOL    HW130191   3.605   3.632   5.172 -3.1325 -0.6049  3.2561
 6244SOL    HW230192   3.642   3.583   5.310  1.3685 -0.8390  0.2123
 6245SOL     OW30193   4.053   2.696  15.415 -0.3034  0.6192 -0.3270
 6245SOL    HW130194   4.041   2.677  15.322  3.5841 -0.3773 -0.5979
 6245SOL    HW230195   4.121   2.762  15.408  0.5900 -0.1322  1.2138
 6246SOL     OW30196   3.109   0.162   8.767 -0.2232 -0.7442  0.3480
 6246SOL    HW130197   3.166   0.085   8.770 -2.6686 -2.5064  1.8220
 6246SOL    HW230198   3.112   0.193   8.858 -2.8451 -0.7418  0.4350
 6247SOL     OW30199   0.794   0.307   4.204  0.1341 -0.4188  0.7455
 6247SOL    HW130200   0.873   0.267   4.167 -0.1381 -0.0693 -0.2232
 6247SOL    HW230201   0.730   0.238   4.188 -0.6006  0.7420 -1.3418
 6248SOL     OW30202   2.555   1.007   3.181  0.1352  0.3763 -0.2353
 6248SOL    HW130203   2.478   1.029   3.233  0.6776  0.9512  0.3314
 6248SOL    HW230204   2.586   1.093   3.152  1.1329  1.0358  2.8150
 6249SOL     OW30205   0.159   2.302   8.525 -0.2864 -0.2663 -0.5649
 6249SOL    HW130206   0.150   2.329   8.434 -1.6774 -0.6569 -0.5420
 6249SOL    HW230207   0.142   2.208   8.530  0.3918 -0.2606  1.9557
 6250SOL     OW30208   4.141   3.463   2.418  0.1595 -0.5053 -0.1685
 6250SOL    HW130209   4.188   3.474   2.335  0.8318  1.9825  0.5195
 6250SOL    HW230210   4.051   3.479   2.391 -0.7592 -3.2962  1.2631
 6251SOL     OW30211   2.413   1.728   3.032  0.4181  0.0070  0.3178
 6251SOL    HW130212   2.373   1.807   2.996 -1.1520 -0.4405  1.0641
 6251SOL    HW230213   2.487   1.766   3.079 -0.2290  1.0776  0.4807
 6252SOL     OW30214   4.152   4.268   6.006  0.6638 -0.0080 -0.1712
 6252SOL    HW130215   4.056   4.265   6.008  0.7157 -1.1172  0.8424
 6252SOL    HW230216   4.174   4.217   5.928 -0.8293  1.3581 -1.4846
 6253SOL     OW30217   4.500   0.153  12.691  0.0872 -0.1601  1.4307
 6253SOL    HW130218   4.523   0.157  12.784  2.8658  0.6347  0.6880
 6253SOL    HW230219   4.549   0.076  12.664 -1.9156 -1.3883  1.2615
 6254SOL     OW30220   3.644   1.035  16.649 -0.0809 -0.2800  0.8191
 6254SOL    HW130221   3.568   1.013  16.595  0.0983  3.2846 -0.8948
 6254SOL    HW230222   3.682   0.952  16.678  0.5909 -0.3379 -0.2346
 6255SOL     OW30223   1.926   1.913   1.638  0.0320 -0.2795 -0.0196
 6255SOL    HW130224   2.018   1.908   1.663  0.2914  0.7465 -0.7943
 6255SOL    HW230225   1.896   1.971   1.708 -3.7138  0.7253 -2.4411
 6256SOL     OW30226   1.186   2.272   6.632 -0.5361 -0.2374 -0.3143
 6256SOL    HW130227   1.279   2.271   6.650 -0.7833  1.4540  1.0158
 6256SOL    HW230228   1.179   2.212   6.558  1.6755 -0.7083 -0.1164
 6257SOL     OW30229   0.600   4.246  16.184  0.0656 -0.2850  0.7800
 6257SOL    HW130230   0.557   4.257  16.269 -2.3444 -0.3144 -0.4430
 6257SOL    HW230231   0.685   4.282  16.210 -1.1658  1.0748  2.9527
 6258SOL     OW30232   1.811   0.302   5.491 -0.0183  0.1855  0.6394
 6258SOL    HW130233   1.878   0.320   5.426 -0.5871  1.0589  0.2991
 6258SOL    HW230234   1.853   0.255   5.563 -0.0857  1.6555  1.6406
 6259SOL     OW30235   0.405   1.732  13.051 -0.3691  0.1347  0.5537
 6259SOL    HW130236   0.441   1.780  13.125 -0.3883 -0.6243  1.0520
 6259SOL    HW230237   0.438   1.645  13.071  0.7953  0.3973 -0.2328
 6260SOL     OW30238   0.632   3.953   5.294 -0.1568  0.0899 -0.6481
 6260SOL    HW130239   0.657   3.861   5.282  1.2513  0.4788 -0.7412
 6260SOL    HW230240   0.594   3.973   5.208  1.8835  2.4166 -1.0354
 6261SOL     OW30241   1.427   2.196   0.657  0.0791 -0.2630 -0.0805
 6261SOL    HW130242   1.446   2.157   0.572 -2.5809 -2.1955  0.2285
 6261SOL    HW230243   1.339   2.233   0.647  0.7259  0.8348 -1.6657
 6262SOL     OW30244   2.232   4.687   9.930  0.4454 -1.2266 -0.1713
 6262SOL    HW130245   2.160   4.626   9.944 -2.0379  2.3138  2.6571
 6262SOL    HW230246   2.303   4.642   9.977 -0.3427 -1.3374  0.9187
 6263SOL     OW30247   3.064   1.907   5.000 -0.5531  0.2350  0.6253
 6263SOL    HW130248   2.977   1.879   5.029 -0.4368 -2.1279 -1.3632
 6263SOL    HW230249   3.084   1.982   5.056 -0.4225 -0.4702  1.5164
 6264SOL     OW30250   2.221   4.321   6.167 -0.2333  0.1607 -0.7007
 6264SOL    HW130251   2.233   4.226   6.169 -2.8069 -0.1406  0.3277
 6264SOL    HW230252   2.285   4.356   6.228 -0.9188 -0.5441  0.4174
 6265SOL     OW30253   4.129   2.824  15.671 -0.0911 -0.0882 -0.3436
 6265SOL    HW130254   4.049   2.840  15.721  0.0380  0.6772 -0.3932
 6265SOL    HW230255   4.093   2.812  15.583  0.6189 -1.1443 -0.4916
 6266SOL     OW30256   3.120   1.448   6.776  0.1078  0.2819 -0.2071
 6266SOL    HW130257   3.178   1.523   6.790  0.0841 -0.0490  1.7791
 6266SOL    HW230258   3.072   1.471   6.696 -0.8148 -0.4654  0.1321
 6267SOL     OW30259   3.442   3.135  17.608 -0.0520  0.1912  0.4004
 6267SOL    HW130260   3.387   3.085  17.548 -0.1304 -0.0774  0.6992
 6267SOL    HW230261   3.532   3.116  17.579 -0.5971 -1.2436 -0.3577
 6268SOL     OW30262   3.579   2.374  16.401 -0.1822  0.0438  0.6126
 6268SOL    HW130263   3.659   2.363  16.348 -1.1366  1.1777 -1.0631
 6268SOL    HW230264   3.538   2.288  16.389 -0.2156  0.0689  0.5475
 6269SOL     OW30265   2.293   3.754  10.159 -0.5185  0.2027  0.7810
 6269SOL    HW130266   2.264   3.783  10.245 -2.2164 -1.6840  0.8210
 6269SOL    HW230267   2.259   3.823  10.101  0.7588  0.0770 -0.1298
 6270SOL     OW30268   3.930   3.438   7.073  0.0155 -0.3312 -0.0854
 6270SOL    HW130269   3.961   3.386   7.147  0.8938  0.5979  0.1986
 6270SOL    HW230270   3.971   3.395   6.998  0.4984  0.1878 -0.1158
 6271SOL     OW30271   4.186   3.445  12.171 -0.1731  0.7044 -0.1012
 6271SOL    HW130272   4.143   3.446  12.256  0.2302 -0.5755  0.1176
 6271SOL    HW230273   4.274   3.445  12.207 -0.6164 -0.3004  0.9920
 6272SOL     OW30274   0.135   0.402   2.620  0.3079  0.5848  0.4593
 6272SOL    HW130275   0.046   0.419   2.651  0.5530 -0.6446  1.8161
 6272SOL    HW230276   0.142   0.489   2.580 -1.2398  0.8048  0.6335
 6273SOL     OW30277   2.769   0.058   8.867  0.6918  0.4987  0.7579
 6273SOL    HW130278   2.835   4.714   8.896  2.0882  2.1863  1.3319
 6273SOL    HW230279   2.734   0.084   8.952 -3.0459 -0.4955 -0.4881
 6274SOL     OW30280   4.666   2.435   6.596  0.1404  0.0619 -0.2771
 6274SOL    HW130281   4.715   2.438   6.514  0.1561  0.1302 -0.2657
 6274SOL    HW230282   4.578   2.463   6.570 -1.0504 -2.7353  0.7410
 6275SOL     OW30283   1.985   4.339   6.332 -0.1170  0.1643 -0.3051
 6275SOL    HW130284   2.023   4.322   6.418 -2.3333 -0.3931  0.5476
 6275SOL    HW230285   2.066   4.348   6.280  0.6206  1.2120  1.0244
 6276SOL     OW30286   0.677   2.048   9.305 -0.0116  0.5529  0.3634
 6276SOL    HW130287   0.753   2.047   9.247  0.8334  1.5188  1.4640
 6276SOL    HW230288   0.683   2.138   9.336 -0.1033  0.7625 -0.2277
 6277SOL     OW30289   2.647   2.562  14.001  0.3695 -0.0785  0.6910
 6277SOL    HW130290   2.703   2.490  14.033 -0.0228 -1.8121 -2.5581
 6277SOL    HW230291   2.556   2.538  14.015  0.2563 -1.2860 -2.1364
 6278SOL     OW30292   2.553   1.064   8.362  0.1598  0.2132  0.4017
 6278SOL    HW130293   2.647   1.048   8.371  0.2498  0.5033 -0.0025
 6278SOL    HW230294   2.524   0.987   8.312  1.1418  0.4904 -0.5797
 6279SOL     OW30295   2.137   4.035   4.296  0.2106 -0.6506 -0.2047
 6279SOL    HW130296   2.214   4.059   4.245 -1.1453 -1.8182 -2.8191
 6279SOL    HW230297   2.129   4.105   4.360 -0.2235 -0.2293 -0.7263
 6280SOL     OW30298   4.126   0.644   5.908 -0.4611  1.3077 -0.3892
 6280SOL    HW130299   4.044   0.604   5.879  0.1274  1.4252 -2.2035
 6280SOL    HW230300   4.194   0.586   5.872 -2.8744 -0.3476 -2.2575
 6281SOL     OW30301   1.610   3.248   5.904  0.3467 -0.2262 -0.4298
 6281SOL    HW130302   1.567   3.165   5.882 -0.3208  0.3277 -1.2278
 6281SOL    HW230303   1.653   3.266   5.820 -3.2862  0.8517 -2.0690
 6282SOL     OW30304   3.945   2.669   7.257  0.0371 -0.1210  0.2275
 6282SOL    HW130305   3.928   2.577   7.241 -1.3010 -0.2466  2.3225
 6282SOL    HW230306   3.996   2.686   7.178 -1.7672  2.1856 -0.4654
 6283SOL     OW30307   1.632   4.080   6.943 -0.1302  0.1025  0.4180
 6283SOL    HW130308   1.614   4.022   6.868 -0.1722  0.8500 -0.1470
 6283SOL    HW230309   1.704   4.026   6.976 -0.4806 -1.4732 -1.3217
 6284SOL     OW30310   4.104   3.330   6.879  0.8253  0.3342 -0.5501
 6284SOL    HW130311   4.190   3.357   6.913  0.8201  1.0090 -1.0851
 6284SOL    HW230312   4.101   3.370   6.792  0.8057 -1.9155 -1.5720
 6285SOL     OW30313   4.229   2.251   7.864 -0.2546  0.4484  0.3469
 6285SOL    HW130314   4.309   2.220   7.906  1.6640  1.8651 -2.2183
 6285SOL    HW230315   4.175   2.252   7.943 -1.1457  0.6548 -0.2597
 6286SOL     OW30316   3.770   1.238  12.997 -0.1745 -0.4009  0.4943
 6286SOL    HW130317   3.784   1.165  13.058  1.1847  1.9556  3.0279
 6286SOL    HW230318   3.676   1.248  13.011 -0.0124  1.6315  0.0915
 6287SOL     OW30319   0.374   4.442  15.113 -0.0142  0.0279 -0.0892
 6287SOL    HW130320   0.378   4.361  15.061  0.2840  0.4989 -0.7921
 6287SOL    HW230321   0.294   4.484  15.081  0.1320  0.9619  0.8096
 6288SOL     OW30322   1.616   3.419   8.080  0.2600  0.6033 -0.2569
 6288SOL    HW130323   1.609   3.501   8.129  0.0344  0.1186  0.5173
 6288SOL    HW230324   1.685   3.372   8.126  0.1233  1.9641  1.3382
 6289SOL     OW30325   0.249   0.337   3.011 -0.0235  0.1070  0.3569
 6289SOL    HW130326   0.336   0.341   2.974 -0.3702  2.2144 -0.2124
 6289SOL    HW230327   0.222   0.245   3.007  1.9558 -0.4094 -0.6805
 6290SOL     OW30328   3.973   2.396   6.189 -0.2108 -0.6272 -0.5753
 6290SOL    HW130329   3.927   2.335   6.247  0.3018  0.0332  0.5315
 6290SOL    HW230330   3.941   2.483   6.213 -1.6740 -0.9713 -1.3003
 6291SOL     OW30331   2.627   1.523  12.967 -0.4453  0.1456 -0.4503
 6291SOL    HW130332   2.601   1.483  12.884 -1.3990  0.5929 -0.3664
 6291SOL    HW230333   2.665   1.450  13.016  1.2492  0.4374 -1.3143
 6292SOL     OW30334   1.936   0.815   6.592 -0.5502 -0.0438  0.0783
 6292SOL    HW130335   1.849   0.805   6.630  0.5904 -1.8770  2.2113
 6292SOL    HW230336   1.973   0.726   6.593  1.1590  0.6864  1.4102
 6293SOL     OW30337   3.849   2.906   7.011  0.1878  0.0560  0.3330
 6293SOL    HW130338   3.813   2.986   6.972 -0.3327 -0.2107  0.2572
 6293SOL    HW230339   3.881   2.939   7.095  0.4036 -1.5180  0.8737
 6294SOL     OW30340   1.933   0.980   7.807 -0.5283  0.9575  0.2426
 6294SOL    HW130341   1.963   1.067   7.778  1.3064  0.2006 -0.0839
 6294SOL    HW230342   1.838   0.992   7.800 -1.0341 -2.6256  0.8751
 6295SOL     OW30343   0.552   2.425   9.164 -0.0113  0.0798 -0.3840
 6295SOL    HW130344   0.641   2.401   9.136 -0.1280  0.1034 -0.7828
 6295SOL    HW230345   0.556   2.403   9.257  0.3758 -1.1319 -0.6881
 6296SOL     OW30346   2.184   4.364   4.503 -0.5703 -0.1170 -0.1519
 6296SOL    HW130347   2.127   4.400   4.571 -2.2392 -0.8678 -1.1333
 6296SOL    HW230348   2.203   4.443   4.453 -0.4680 -1.0720 -1.6237
 6297SOL     OW30349   3.359   3.422   3.179 -0.5823 -0.4900 -0.2652
 6297SOL    HW130350   3.299   3.406   3.251  0.7447  1.7794  1.3386
 6297SOL    HW230351   3.433   3.368   3.204 -1.8939 -2.1501  0.0306
 6298SOL     OW30352   1.570   4.144  16.740 -0.4896 -0.0998  0.0700
 6298SOL    HW130353   1.507   4.183  16.800 -0.6618  1.9338 -1.4505
 6298SOL    HW230354   1.531   4.058  16.725  0.0799 -0.0832 -1.5897
 6299SOL     OW30355   1.003   1.550   5.381  0.5114 -0.3340  0.1121
 6299SOL    HW130356   0.996   1.533   5.287  1.9376 -1.1247  0.1624
 6299SOL    HW230357   0.932   1.492   5.408  1.0593 -1.2805 -0.5140
 6300SOL     OW30358   4.600   1.381  16.190 -0.4195  0.4802 -0.3155
 6300SOL    HW130359   4.575   1.334  16.269 -0.3886  0.5255 -0.2783
 6300SOL    HW230360   4.685   1.417  16.216  0.1613 -1.2957  0.2513
 6301SOL     OW30361   1.273   2.314  15.405 -0.1537 -0.0523  0.1414
 6301SOL    HW130362   1.182   2.288  15.420 -0.4295  0.4069 -0.7692
 6301SOL    HW230363   1.322   2.246  15.452 -0.5783 -0.6989 -0.3492
 6302SOL     OW30364   2.781   3.146   8.921 -0.2800  0.3506  0.0346
 6302SOL    HW130365   2.698   3.118   8.882  0.2590  0.0141 -0.8553
 6302SOL    HW230366   2.775   3.089   8.998 -0.6185  2.8793  1.8960
 6303SOL     OW30367   0.912   1.872   2.321 -0.9977  0.1634  0.0195
 6303SOL    HW130368   0.927   1.813   2.395 -1.1642 -0.0208 -0.0942
 6303SOL    HW230369   0.898   1.959   2.358 -0.5153  0.7653 -1.2202
 6304SOL     OW30370   0.242   1.530  17.483  0.1753  0.0702 -0.0805
 6304SOL    HW130371   0.148   1.546  17.472  0.1231  1.3443  2.3179
 6304SOL    HW230372   0.249   1.445  17.441  0.5366 -0.7247  1.5934
 6305SOL     OW30373   0.398   2.805   4.352  0.0638  0.3604  0.5053
 6305SOL    HW130374   0.368   2.861   4.423 -0.7174  1.1407 -0.4388
 6305SOL    HW230375   0.384   2.720   4.394 -0.2158 -0.2069 -0.7168
 6306SOL     OW30376   2.478   1.961   6.984 -0.3713 -0.2494 -0.1288
 6306SOL    HW130377   2.569   1.948   7.010 -0.9226 -2.2077  0.8395
 6306SOL    HW230378   2.439   1.916   7.059  0.8793 -1.7666 -0.3880
 6307SOL     OW30379   1.448   4.257   5.069  0.6119 -0.0654 -0.1244
 6307SOL    HW130380   1.511   4.291   5.133  1.0355  1.2596 -1.2435
 6307SOL    HW230381   1.410   4.337   5.033  0.5397 -0.6417 -1.3004
 6308SOL     OW30382   3.252   3.175  13.406 -0.5055 -0.5457 -0.4341
 6308SOL    HW130383   3.325   3.224  13.368 -0.4808  0.5543  1.0758
 6308SOL    HW230384   3.209   3.136  13.330 -0.0269 -0.5987 -0.6811
 6309SOL     OW30385   3.278   1.164  16.375 -0.0091 -0.2866 -0.2024
 6309SOL    HW130386   3.336   1.237  16.354  0.7478 -1.2571 -1.4864
 6309SOL    HW230387   3.338   1.107  16.423  0.8907  0.5939 -0.2938
 6310SOL     OW30388   4.096   3.939   5.789 -0.6751  0.0509  0.4811
 6310SOL    HW130389   4.166   4.004   5.794 -0.6896 -0.0108  1.5374
 6310SOL    HW230390   4.033   4.007   5.763 -0.2513  0.3206  0.1749
 6311SOL     OW30391   3.799   2.743   6.822 -1.1918 -0.2075  0.0767
 6311SOL    HW130392   3.829   2.803   6.890  3.2642 -2.3096 -0.0761
 6311SOL    HW230393   3.736   2.691   6.873  0.2850 -2.2247 -0.1845
 6312SOL     OW30394   2.348   1.245  13.645  0.7792  0.5848 -0.1513
 6312SOL    HW130395   2.339   1.196  13.563 -0.6359  1.5280 -0.5529
 6312SOL    HW230396   2.374   1.330  13.610 -1.0435  0.1086 -2.6558
 6313SOL     OW30397   2.907   2.576   5.970  0.2739 -0.0233  0.3028
 6313SOL    HW130398   2.964   2.641   5.929  0.0347 -0.0024 -0.0005
 6313SOL    HW230399   2.978   2.520   6.001 -0.8075 -1.1415  0.7658
 6314SOL     OW30400   3.480   0.934   8.892 -0.1494  0.7548 -0.0957
 6314SOL    HW130401   3.536   0.965   8.964 -0.3371  0.1652  0.3031
 6314SOL    HW230402   3.489   1.015   8.842  2.7950  1.1630  1.0730
 6315SOL     OW30403   0.448   2.973   1.233 -0.2689  0.3763  0.0451
 6315SOL    HW130404   0.465   2.917   1.308 -0.8279  0.4288  0.2105
 6315SOL    HW230405   0.455   2.911   1.160  1.2343 -0.1394  0.6235
 6316SOL     OW30406   2.532   3.625   8.620  0.4819  0.7558  0.2235
 6316SOL    HW130407   2.568   3.701   8.666  0.5660  0.7171  0.2218
 6316SOL    HW230408   2.616   3.586   8.597  0.1995  0.6587 -0.6566
 6317SOL     OW30409   3.649   0.512  12.932  0.1429 -0.5439  0.6689
 6317SOL    HW130410   3.593   0.460  12.874 -0.7157 -1.0381  1.9327
 6317SOL    HW230411   3.587   0.582  12.955  2.2646  1.5385 -0.0255
 6318SOL     OW30412   3.991   1.065  13.436 -0.2529  0.2341  0.1650
 6318SOL    HW130413   4.075   1.079  13.392 -0.4627 -1.4279 -0.7625
 6318SOL    HW230414   3.959   1.148  13.472 -0.1317  0.0630  0.6747
 6319SOL     OW30415   1.438   3.433   4.807  0.2431 -0.2338 -0.2038
 6319SOL    HW130416   1.376   3.481   4.862  0.0770 -1.2328  0.4738
 6319SOL    HW230417   1.467   3.365   4.868 -0.4428 -0.9633 -0.7043
 6320SOL     OW30418   2.770   0.223   8.638 -0.1886  0.1025  0.5928
 6320SOL    HW130419   2.793   0.163   8.709  2.5782  2.3932  1.6157
 6320SOL    HW230420   2.854   0.263   8.614 -1.1082  0.9691 -1.1649
 6321SOL     OW30421   0.241   3.457   4.004  0.7405  0.1638  0.1974
 6321SOL    HW130422   0.329   3.422   3.992  1.8068  2.9026  0.1129
 6321SOL    HW230423   0.224   3.435   4.096  4.8320  1.4381  1.2610
 6322SOL     OW30424   1.471   1.630   5.398 -0.1221  0.0357 -0.1811
 6322SOL    HW130425   1.387   1.623   5.444 -0.0290  2.6584  0.3842
 6322SOL    HW230426   1.501   1.711   5.440 -1.6396 -0.1740  1.2884
 6323SOL     OW30427   1.834   2.185  11.631  0.2450  0.2652 -0.7984
 6323SOL    HW130428   1.820   2.090  11.635 -0.0865  0.3867  0.8719
 6323SOL    HW230429   1.803   2.199  11.541  1.8383 -0.6061 -1.4831
 6324SOL     OW30430   4.557   3.479   2.475  0.1209  0.3246  0.2347
 6324SOL    HW130431   4.612   3.431   2.414 -1.8495  0.1978 -1.4361
 6324SOL    HW230432   4.525   3.545   2.413  1.6410 -0.1285 -0.9999
 6325SOL     OW30433   2.002   3.426   4.877  0.2521 -0.2577  0.0911
 6325SOL    HW130434   1.952   3.346   4.861  1.8794 -0.8715 -1.9459
 6325SOL    HW230435   1.933   3.487   4.849 -0.2262 -0.1021  1.5747
 6326SOL     OW30436   0.555   2.334   1.139 -0.8097  0.1285 -0.1841
 6326SOL    HW130437   0.573   2.275   1.066 -0.8722  1.2014 -1.0557
 6326SOL    HW230438   0.598   2.286   1.210 -0.2637  2.0670  0.7755
 6327SOL     OW30439   1.923   2.281  12.482 -0.1548 -0.0319  0.2995
 6327SOL    HW130440   1.962   2.344  12.543 -3.1019  0.7172  1.4035
 6327SOL    HW230441   1.828   2.293  12.488 -0.3252 -1.7876  1.3446
 6328SOL     OW30442   4.167   1.914   5.914 -0.5604  0.1147  0.8419
 6328SOL    HW130443   4.123   1.844   5.867  0.1251  0.4989 -0.3719
 6328SOL    HW230444   4.197   1.873   5.995 -0.0436 -0.2439  0.4681
 6329SOL     OW30445   1.124   3.531  12.571 -0.6528 -0.1286 -0.1667
 6329SOL    HW130446   1.086   3.535  12.483  1.7798  0.9880 -1.1806
 6329SOL    HW230447   1.062   3.586  12.620  0.1286  0.8456 -0.2638
 6330SOL     OW30448   3.884   0.982   3.996 -0.0594 -0.7602 -0.0452
 6330SOL    HW130449   3.850   1.072   3.997  1.6665 -0.1075  0.3052
 6330SOL    HW230450   3.800   0.944   4.021 -0.6038 -0.2134 -1.0175
 6331SOL     OW30451   3.760   3.547   2.088 -0.2944 -0.1562  0.6646
 6331SOL    HW130452   3.694   3.487   2.122 -0.7317  0.1646  0.3761
 6331SOL    HW230453   3.712   3.628   2.068  0.1531  0.2022  1.0272
 6332SOL     OW30454   3.352   0.754   1.120  0.1829 -0.5779  0.4933
 6332SOL    HW130455   3.369   0.846   1.101 -2.1682 -0.3502 -0.5251
 6332SOL    HW230456   3.377   0.714   1.036  0.8486  3.5194 -1.2470
 6333SOL     OW30457   2.936   1.033  13.552  0.0575 -0.6588 -0.6213
 6333SOL    HW130458   3.004   1.101  13.550  0.8413 -1.4824 -1.4492
 6333SOL    HW230459   2.987   0.953  13.539  2.9295  1.1011 -0.2487
 6334SOL     OW30460   3.821   1.815  10.778 -0.3117 -0.0019 -0.0119
 6334SOL    HW130461   3.849   1.859  10.698  1.5961  0.0703  0.6890
 6334SOL    HW230462   3.788   1.884  10.835 -2.3875  0.2952 -1.5734
 6335SOL     OW30463   4.388   4.380  12.238 -0.0274 -0.4907  0.2892
 6335SOL    HW130464   4.323   4.388  12.168 -0.5453  3.7693  1.2410
 6335SOL    HW230465   4.379   4.461  12.288  0.4459 -0.4673  0.3395
 6336SOL     OW30466   1.839   3.309   8.225 -0.1219 -0.3554  0.5851
 6336SOL    HW130467   1.880   3.243   8.281 -2.4389 -2.8949 -0.7175
 6336SOL    HW230468   1.913   3.337   8.171  0.8091 -0.4408  1.8188
 6337SOL     OW30469   0.193   1.029   9.368  0.1335  0.3490  0.0580
 6337SOL    HW130470   0.245   1.110   9.362 -2.8598  2.3055  0.4854
 6337SOL    HW230471   0.110   1.050   9.326 -0.8563  0.3767  2.0534
 6338SOL     OW30472   2.872   2.285   7.098 -0.2773 -0.5761  0.2386
 6338SOL    HW130473   2.868   2.275   7.193  0.2867  1.3395  0.4678
 6338SOL    HW230474   2.836   2.204   7.062  0.3179 -0.8820  0.3284
 6339SOL     OW30475   4.682   2.728   3.948  0.2302  0.1405  0.5234
 6339SOL    HW130476   0.008   2.665   4.003 -3.2132 -0.6128  2.6166
 6339SOL    HW230477   0.034   2.789   3.940  0.7446 -0.0617  3.8355
 6340SOL     OW30478   3.210   3.287   3.970  0.1164 -0.4237 -0.2141
 6340SOL    HW130479   3.167   3.346   4.032  0.2042 -2.4173  1.7543
 6340SOL    HW230480   3.280   3.252   4.025  1.1225  1.7401 -0.1066
 6341SOL     OW30481   4.594   3.172   1.497 -0.3223  0.3877  0.3476
 6341SOL    HW130482   4.686   3.153   1.478  0.4683  2.8110  1.7564
 6341SOL    HW230483   4.597   3.265   1.518  0.0230  0.0345  1.8406
 6342SOL     OW30484   2.180   1.957   9.114  0.1240 -0.3935  0.1823
 6342SOL    HW130485   2.122   1.893   9.074  1.0586 -1.7606  1.0215
 6342SOL    HW230486   2.235   1.901   9.168  0.3860 -0.2956  0.0145
 6343SOL     OW30487   0.726   0.561   1.710  0.1350 -0.4405 -0.3620
 6343SOL    HW130488   0.773   0.513   1.641 -1.0795 -0.4867 -1.1606
 6343SOL    HW230489   0.705   0.491   1.771 -3.5067 -1.3197 -2.6025
 6344SOL     OW30490   1.172   1.907  11.296  0.0617  0.1217 -0.3469
 6344SOL    HW130491   1.174   1.862  11.380  0.5969 -0.1061 -0.4839
 6344SOL    HW230492   1.137   1.994  11.315 -0.6003  0.0146 -1.0480
 6345SOL     OW30493   0.866   4.438  14.660  0.0220 -0.3306 -0.0797
 6345SOL    HW130494   0.904   4.353  14.639  2.2166  0.7103 -0.3128
 6345SOL    HW230495   0.827   4.425  14.746 -0.4220  3.0041  0.2285
 6346SOL     OW30496   3.793   3.012   7.769 -0.1183  0.1721  0.0181
 6346SOL    HW130497   3.723   2.947   7.771 -1.1682  1.3267  0.8701
 6346SOL    HW230498   3.782   3.060   7.851 -0.1930 -2.2306  1.4270
 6347SOL     OW30499   2.442   0.784   0.799  0.7086 -0.2022  0.2062
 6347SOL    HW130500   2.495   0.837   0.739  0.8310  0.1937  0.6650
 6347SOL    HW230501   2.497   0.717   0.839 -2.0872 -2.6187 -0.0098
 6348SOL     OW30502   2.954   1.318   9.686  0.1072  0.0925  0.3921
 6348SOL    HW130503   2.886   1.367   9.732  1.5444  3.3244 -0.9381
 6348SOL    HW230504   2.977   1.373   9.612 -2.6838  1.2779  0.4178
 6349SOL     OW30505   2.471   0.753   5.355  0.4178  0.3178 -0.1014
 6349SOL    HW130506   2.519   0.673   5.376 -1.0846 -0.8282 -1.0954
 6349SOL    HW230507   2.439   0.735   5.266 -0.9929  3.1095 -0.1415
 6350SOL     OW30508   3.095   0.712   2.532 -0.7147 -0.6028  0.4644
 6350SOL    HW130509   3.042   0.670   2.600 -0.3968 -1.0625  0.4332
 6350SOL    HW230510   3.052   0.664   2.462  1.5232 -0.0081 -1.3086
 6351SOL     OW30511   0.364   3.347   5.513 -0.1361 -0.1938 -0.3097
 6351SOL    HW130512   0.285   3.293   5.509 -0.8933  1.1155 -2.3744
 6351SOL    HW230513   0.424   3.272   5.517  2.5288  2.0935  2.1980
 6352SOL     OW30514   4.261   2.365   4.147 -0.5224  0.0253  0.4736
 6352SOL    HW130515   4.290   2.448   4.110 -1.8762  0.7619  1.0602
 6352SOL    HW230516   4.234   2.305   4.077 -0.0833 -0.0757  0.3907
 6353SOL     OW30517   0.184   0.722   7.390  0.5138  0.1992 -0.0805
 6353SOL    HW130518   0.222   0.664   7.457 -1.3957 -1.9147 -0.8391
 6353SOL    HW230519   0.160   0.654   7.327  0.4156  1.1177 -1.0176
 6354SOL     OW30520   1.591   4.276   2.860  0.2289  0.6227 -0.2127
 6354SOL    HW130521   1.682   4.259   2.881 -1.0956 -3.2215  2.3907
 6354SOL    HW230522   1.552   4.193   2.831 -1.3335  1.0604  0.6018
 6355SOL     OW30523   2.703   2.777   8.628  0.1679 -0.2530 -0.5873
 6355SOL    HW130524   2.700   2.808   8.719  3.7213 -0.4632 -0.4207
 6355SOL    HW230525   2.685   2.683   8.632 -2.0277  0.1412 -0.9288
 6356SOL     OW30526   1.756   1.662   5.992 -0.3519 -0.2458  0.2462
 6356SOL    HW130527   1.661   1.658   5.996 -0.4071  1.6422  0.8637
 6356SOL    HW230528   1.779   1.730   6.056 -0.5048  0.7462 -0.7719
 6357SOL     OW30529   4.090   0.455   2.572 -0.6188 -0.5780  0.3267
 6357SOL    HW130530   4.129   0.541   2.559 -1.5478 -0.0707  0.9274
 6357SOL    HW230531   4.073   0.436   2.479  1.5361 -3.3841  0.5149
 6358SOL     OW30532   1.585   0.629   4.836  0.3650 -0.0175 -0.0600
 6358SOL    HW130533   1.643   0.582   4.896 -0.6428  0.3011  1.1691
 6358SOL    HW230534   1.616   0.719   4.841 -1.0473  0.5849 -1.9712
 6359SOL     OW30535   3.876   0.309   7.723  0.3055 -0.4263 -0.1127
 6359SOL    HW130536   3.786   0.290   7.750  0.8752  0.0898  2.1788
 6359SOL    HW230537   3.903   0.246   7.657  2.1634  0.6836 -0.4150
 6360SOL     OW30538   2.166   1.062   6.111  0.6755  0.3855  0.0267
 6360SOL    HW130539   2.225   1.029   6.043  0.0453  1.7467 -1.1673
 6360SOL    HW230540   2.169   1.000   6.184  0.7275 -0.8314 -1.0067
 6361SOL     OW30541   1.857   2.291   7.056  0.5891 -0.0480 -0.1094
 6361SOL    HW130542   1.888   2.203   7.035  0.3453  0.8012 -3.9939
 6361SOL    HW230543   1.830   2.280   7.147 -1.6854 -1.8676 -1.0066
 6362SOL     OW30544   0.452   2.234   3.293  0.1003  0.2148 -0.5319
 6362SOL    HW130545   0.494   2.320   3.296  0.0018  0.3985 -4.0477
 6362SOL    HW230546   0.358   2.251   3.289 -0.0491 -0.8051 -1.5822
 6363SOL     OW30547   0.654   4.525   5.284  0.1258 -0.3551 -0.3167
 6363SOL    HW130548   0.726   4.555   5.339  0.2021  0.1138 -0.6700
 6363SOL    HW230549   0.577   4.553   5.333 -1.3562 -0.1958 -2.6987
 6364SOL     OW30550   1.937   1.145   2.389 -0.1217  0.1558 -0.0280
 6364SOL    HW130551   1.892   1.181   2.313  0.4065  0.4744 -0.1889
 6364SOL    HW230552   1.908   1.207   2.455 -1.5507  1.3157 -1.7561
 6365SOL     OW30553   3.239   3.216   0.331 -0.3059 -0.3906 -0.1521
 6365SOL    HW130554   3.170   3.273   0.363  0.2583  0.0221  0.3363
 6365SOL    HW230555   3.257   3.261   0.249  1.1879 -0.5711  0.0719
 6366SOL     OW30556   4.618   3.018  16.432  0.5433  0.9379 -0.3248
 6366SOL    HW130557   4.676   2.953  16.471  0.8802 -0.1942 -2.7328
 6366SOL    HW230558   4.684   3.061  16.377  2.3469 -2.5795 -0.8838
 6367SOL     OW30559   4.424   2.122   4.471 -0.1986 -0.2690 -0.3380
 6367SOL    HW130560   4.409   2.033   4.442  0.0420  0.5292 -2.9194
 6367SOL    HW230561   4.373   2.113   4.551 -0.5114 -1.9417 -0.7289
 6368SOL     OW30562   0.772   1.822  16.518 -0.6260 -0.3903  0.0054
 6368SOL    HW130563   0.700   1.805  16.457 -2.2796  0.0612  1.8295
 6368SOL    HW230564   0.730   1.854  16.598 -3.1332  0.1279 -1.4858
 6369SOL     OW30565   0.828   0.825  15.945  0.5473  0.1912  0.3853
 6369SOL    HW130566   0.867   0.913  15.943 -0.0714  0.4506 -0.6038
 6369SOL    HW230567   0.890   0.776  15.999  1.3695  1.5008  0.6340
 6370SOL     OW30568   0.400   3.888  15.968 -0.4568  0.1216  0.7207
 6370SOL    HW130569   0.336   3.883  16.039 -0.3451  0.2201  0.8290
 6370SOL    HW230570   0.469   3.933  16.016 -0.5138  0.3987  0.5419
 6371SOL     OW30571   0.249   1.949   0.335  0.1292 -0.1590  0.7175
 6371SOL    HW130572   0.320   1.973   0.275  3.6455  0.3345  5.1607
 6371SOL    HW230573   0.246   1.854   0.327  1.2599 -0.1317 -0.0085
 6372SOL     OW30574   0.713   3.738   4.702 -0.9412 -0.0405  0.3743
 6372SOL    HW130575   0.670   3.795   4.638 -0.6717  0.8264  0.9617
 6372SOL    HW230576   0.793   3.789   4.716  0.4426 -1.6372 -1.5854
 6373SOL     OW30577   0.318   2.639   9.383 -0.7431  0.9527 -0.5549
 6373SOL    HW130578   0.330   2.548   9.410 -0.1474  0.9418 -0.8450
 6373SOL    HW230579   0.408   2.672   9.387 -0.4899 -0.1331  2.7392
 6374SOL     OW30580   4.575   0.286   2.499 -0.0625 -0.1470  0.0699
 6374SOL    HW130581   4.489   0.301   2.538 -0.4090  0.4453 -0.9262
 6374SOL    HW230582   4.605   0.376   2.513 -1.0349  0.2936 -0.6340
 6375SOL     OW30583   3.970   1.608   4.883 -0.4999 -0.0527 -0.4862
 6375SOL    HW130584   4.035   1.677   4.896  1.1285 -1.8471  0.8572
 6375SOL    HW230585   3.918   1.643   4.810 -0.6542 -0.4634 -0.5725
 6376SOL     OW30586   1.584   0.858   5.469  0.7417 -0.3003 -0.1856
 6376SOL    HW130587   1.644   0.923   5.505 -2.3594  2.2908  0.3186
 6376SOL    HW230588   1.631   0.779   5.496  1.0347 -0.5227 -1.3512
 6377SOL     OW30589   0.299   1.864   9.552  0.5221 -0.0662 -0.1395
 6377SOL    HW130590   0.308   1.949   9.595  1.5813 -0.1283 -0.2495
 6377SOL    HW230591   0.335   1.893   9.468 -1.4565  1.7436 -0.3548
 6378SOL     OW30592   1.238   2.886  14.425  0.4825  0.0561 -0.3246
 6378SOL    HW130593   1.196   2.939  14.492  0.9987  1.5434 -1.1934
 6378SOL    HW230594   1.191   2.923  14.350  2.4493  1.1238 -1.0285
 6379SOL     OW30595   3.038   4.369   5.069  0.5570  0.0943  0.0005
 6379SOL    HW130596   2.958   4.410   5.101 -2.0510 -2.6350 -2.9323
 6379SOL    HW230597   3.028   4.390   4.976  2.8540 -0.2220 -0.3331
 6380SOL     OW30598   3.127   0.795   5.172  0.3804 -0.3210 -1.2784
 6380SOL    HW130599   3.039   0.764   5.152 -0.8583  0.2328  3.3131
 6380SOL    HW230600   3.119   0.875   5.120  0.2533 -0.3019 -1.2294
 6381SOL     OW30601   4.351   4.687   4.597  0.1883 -0.1447  0.1327
 6381SOL    HW130602   4.404   0.030   4.645  1.8095 -1.4215  0.0394
 6381SOL    HW230603   4.323   0.010   4.516 -0.9171 -2.9732 -1.0121
 6382SOL     OW30604   1.755   2.223   5.419 -0.3279 -0.0117  0.4803
 6382SOL    HW130605   1.692   2.290   5.444 -1.0640 -0.1630 -0.9810
 6382SOL    HW230606   1.773   2.177   5.501  0.1697  1.0869  0.9779
 6383SOL     OW30607   1.541   3.581  17.548 -0.3195  0.5015 -0.6767
 6383SOL    HW130608   1.506   3.600  17.461 -1.5702 -1.9481 -0.7032
 6383SOL    HW230609   1.572   3.669  17.569  3.2576 -0.8034 -0.5076
 6384SOL     OW30610   3.157   0.905   7.910 -0.0693  0.3228 -0.1057
 6384SOL    HW130611   3.170   0.810   7.902 -1.8143 -0.0270  1.3947
 6384SOL    HW230612   3.224   0.935   7.848  0.6074 -0.6924  0.1376
 6385SOL     OW30613   1.329   4.621   8.100  0.2400  0.0321 -0.4502
 6385SOL    HW130614   1.243   4.597   8.067 -0.5613  0.0715  1.5740
 6385SOL    HW230615   1.312   4.600   8.192  2.1030  2.0313  0.3588
 6386SOL     OW30616   0.949   2.960   7.322  0.0941 -0.1280  0.0003
 6386SOL    HW130617   1.012   3.031   7.337 -2.2674  2.0610 -0.4388
 6386SOL    HW230618   0.903   2.954   7.405 -2.1159  2.2017 -1.0789
 6387SOL     OW30619   0.953   3.315   5.356 -0.1051 -0.6021  0.2435
 6387SOL    HW130620   0.873   3.367   5.359 -0.7805 -1.7266  1.3632
 6387SOL    HW230621   0.961   3.298   5.449  0.2186 -0.4911  0.2359
 6388SOL     OW30622   0.128   3.363   1.230 -0.2197  0.6541  0.0343
 6388SOL    HW130623   0.161   3.439   1.182  4.3094 -1.1928  0.2539
 6388SOL    HW230624   0.072   3.323   1.164  0.3045  0.7558 -0.4710
 6389SOL     OW30625   1.607   3.181   0.845 -0.2967 -0.3737 -0.0346
 6389SOL    HW130626   1.566   3.237   0.779  0.2700 -2.1413 -1.8625
 6389SOL    HW230627   1.701   3.184   0.827  0.0923  1.1067  2.2313
 6390SOL     OW30628   1.721   3.856   9.240 -0.4086  0.2371  0.2238
 6390SOL    HW130629   1.789   3.892   9.184 -0.9914  0.3479 -0.4191
 6390SOL    HW230630   1.733   3.770   9.198  0.7830  0.1812  0.6933
 6391SOL     OW30631   2.023   1.176  15.625  0.3000 -0.4291  0.4863
 6391SOL    HW130632   2.068   1.189  15.708  1.6593 -0.6940 -0.2094
 6391SOL    HW230633   1.974   1.258  15.615  1.6492  0.2069 -1.0291
 6392SOL     OW30634   3.978   3.668   8.522 -0.2924 -0.3909  0.1889
 6392SOL    HW130635   4.039   3.719   8.575  0.3312  0.7964 -1.6719
 6392SOL    HW230636   4.031   3.636   8.449  0.2566 -0.7195  0.7340
 6393SOL     OW30637   0.174   1.496   0.128  0.1780 -0.3901  0.2905
 6393SOL    HW130638   0.101   1.458   0.079  0.6556  0.2046 -0.8926
 6393SOL    HW230639   0.193   1.436   0.200  0.1849 -1.0141 -0.2318
 6394SOL     OW30640   3.129   1.789  13.113 -0.0141 -0.2367 -0.4045
 6394SOL    HW130641   3.156   1.857  13.052 -1.5961  0.9843  0.2604
 6394SOL    HW230642   3.144   1.838  13.194  1.1071 -0.9064 -0.2023
 6395SOL     OW30643   1.060   1.921   7.166  0.1638 -0.0187  0.2678
 6395SOL    HW130644   1.004   1.949   7.239  0.6626  0.2524  0.5447
 6395SOL    HW230645   1.147   1.935   7.203  0.1550 -0.0255  0.2914
 6396SOL     OW30646   2.629   4.327  13.317  0.7886  0.9707  0.4684
 6396SOL    HW130647   2.635   4.309  13.411 -0.9964 -2.8989 -0.1294
 6396SOL    HW230648   2.540   4.364  13.319  0.7477  0.7983  1.9400
 6397SOL     OW30649   2.169   3.365   5.187 -0.2474 -0.3989 -0.1171
 6397SOL    HW130650   2.166   3.275   5.155  0.5373  0.7639 -3.4725
 6397SOL    HW230651   2.079   3.390   5.166 -1.6088 -2.6940  2.8980
 6398SOL     OW30652   1.234   4.209   2.459  0.5957 -0.4011 -0.4066
 6398SOL    HW130653   1.240   4.134   2.400 -0.7030 -0.2734 -0.7048
 6398SOL    HW230654   1.183   4.264   2.399  0.5270  0.0753  0.0825
 6399SOL     OW30655   2.954   0.797   1.790 -0.1535 -0.0202  1.0857
 6399SOL    HW130656   2.890   0.864   1.812 -0.5390 -0.1772  0.4457
 6399SOL    HW230657   2.966   0.794   1.695 -0.6503  1.1355  0.9921
 6400SOL     OW30658   0.131   1.058   8.489  0.3997 -0.0850 -0.0101
 6400SOL    HW130659   0.064   1.102   8.542 -1.1724 -0.5683 -1.5831
 6400SOL    HW230660   0.132   1.119   8.416 -0.6136 -0.1275 -0.0684
 6401SOL     OW30661   3.476   4.701   2.060  0.3687  0.2909 -0.1179
 6401SOL    HW130662   3.446   4.670   2.146  0.8733 -2.7945 -1.0899
 6401SOL    HW230663   3.534   4.632   2.029  0.2931 -0.8391  2.2071
 6402SOL     OW30664   3.933   4.175   9.831  0.0959 -0.1570 -0.2559
 6402SOL    HW130665   3.953   4.177   9.924  0.5593  2.3960 -0.3876
 6402SOL    HW230666   3.985   4.103   9.796 -1.6898 -0.6827 -1.8336
 6403SOL     OW30667   4.464   2.511   3.452  0.2545 -0.4767 -0.2030
 6403SOL    HW130668   4.467   2.556   3.536  0.3933 -0.3493 -0.2781
 6403SOL    HW230669   4.493   2.585   3.399 -1.6405  1.6139  1.7332
 6404SOL     OW30670   2.526   1.601  10.250 -0.2952 -0.0898  0.2613
 6404SOL    HW130671   2.442   1.628  10.215  0.8467  1.1137 -1.5445
 6404SOL    HW230672   2.559   1.562  10.169  0.2068  0.4406  0.2164
 6405SOL     OW30673   1.377   3.138  14.562  0.9086 -0.4048 -0.3765
 6405SOL    HW130674   1.398   3.045  14.562 -0.1545 -0.6504 -1.1230
 6405SOL    HW230675   1.289   3.134  14.600  1.3185 -0.2660  0.5877
 6406SOL     OW30676   2.289   1.620  13.345  0.1312  0.1335  0.0436
 6406SOL    HW130677   2.328   1.696  13.301  0.5350  0.2062  0.5330
 6406SOL    HW230678   2.222   1.673  13.389 -0.0282  1.2376 -1.5097
 6407SOL     OW30679   0.966   3.368   6.631 -0.2005  0.2854  0.2872
 6407SOL    HW130680   0.890   3.343   6.579 -0.9425  1.1759  0.9488
 6407SOL    HW230681   0.933   3.338   6.716  2.2367 -1.0248  0.7784
 6408SOL     OW30682   4.502   4.713   1.548  0.4144  0.0914 -0.1280
 6408SOL    HW130683   4.426   0.051   1.545 -0.1166 -0.5325  1.3584
 6408SOL    HW230684   4.561   0.039   1.489 -0.1248  1.2144  0.2258
 6409SOL     OW30685   4.019   0.788  13.186 -0.0293  0.3216  0.1512
 6409SOL    HW130686   3.948   0.740  13.144 -0.9050  0.2031  1.7508
 6409SOL    HW230687   4.048   0.835  13.108 -0.5940  2.0810  1.0212
 6410SOL     OW30688   2.577   3.519   8.307 -0.3965  0.4249 -0.5402
 6410SOL    HW130689   2.539   3.533   8.393 -1.0740 -1.8512 -0.4626
 6410SOL    HW230690   2.499   3.513   8.251 -0.1365  1.6146 -1.0375
 6411SOL     OW30691   0.880   2.748  17.084 -0.6979  0.1484 -0.6853
 6411SOL    HW130692   0.875   2.740  17.180  3.0924  2.1518 -0.3470
 6411SOL    HW230693   0.922   2.666  17.061 -2.2244 -0.4922 -1.1668
 6412SOL     OW30694   3.676   3.890  15.475  0.2660 -0.1790 -0.4431
 6412SOL    HW130695   3.601   3.849  15.433 -0.1076  0.3567 -0.2944
 6412SOL    HW230696   3.677   3.984  15.458 -1.7023 -0.1978 -0.6064
 6413SOL     OW30697   2.172   2.548   7.689  0.6591  0.1254 -0.0419
 6413SOL    HW130698   2.149   2.641   7.678 -0.3690 -0.2472 -1.1544
 6413SOL    HW230699   2.175   2.542   7.784 -1.3653 -1.0956 -0.0431
 6414SOL     OW30700   0.501   1.977   3.331  0.0552  0.0522 -0.6315
 6414SOL    HW130701   0.544   1.947   3.251  2.3832  2.0941 -0.1485
 6414SOL    HW230702   0.483   2.070   3.320 -0.3204 -0.0630 -1.0189
 6415SOL     OW30703   3.997   3.409   8.086  0.2251 -0.0721  0.2249
 6415SOL    HW130704   3.993   3.446   7.998  0.2635 -1.8415 -0.5210
 6415SOL    HW230705   4.029   3.320   8.072 -1.4148 -0.6407  0.0687
 6416SOL     OW30706   2.656   4.110   6.767  0.1282 -0.2075 -0.0604
 6416SOL    HW130707   2.626   4.023   6.792 -0.3256  0.1353  0.5891
 6416SOL    HW230708   2.647   4.155   6.851 -1.8823 -0.9366  0.0999
 6417SOL     OW30709   1.829   2.465  11.300  0.1018  0.4954 -0.0603
 6417SOL    HW130710   1.745   2.462  11.346 -0.0066 -0.6762 -0.3432
 6417SOL    HW230711   1.799   2.409  11.229  0.1726 -0.2287  0.4826
 6418SOL     OW30712   3.393   2.695   8.728  0.0287 -0.3458  0.1034
 6418SOL    HW130713   3.425   2.620   8.678 -1.0702 -0.6716 -0.1018
 6418SOL    HW230714   3.381   2.655   8.815 -0.8853 -2.3581 -0.9407
 6419SOL     OW30715   0.621   0.370   5.642  0.0418  0.7511  0.5249
 6419SOL    HW130716   0.546   0.427   5.626  0.0728  1.0582  1.4972
 6419SOL    HW230717   0.579   0.296   5.686 -0.1483  2.6471  3.5300
 6420SOL     OW30718   1.628   3.959  11.212  0.0634  0.4136 -0.1720
 6420SOL    HW130719   1.663   4.038  11.253 -0.3703  1.2835 -1.4815
 6420SOL    HW230720   1.537   3.989  11.200  0.1464  0.6839 -0.1296
 6421SOL     OW30721   0.073   3.031  10.352 -0.2479  0.1049 -0.1998
 6421SOL    HW130722   0.072   2.936  10.359 -3.3495  0.1596  0.2373
 6421SOL    HW230723   0.120   3.050  10.433 -1.8109 -0.1750  0.7730
 6422SOL     OW30724   3.844   0.633   9.493 -0.1419 -0.3737 -0.6666
 6422SOL    HW130725   3.900   0.573   9.445 -0.8796 -0.8059 -0.9948
 6422SOL    HW230726   3.913   0.674   9.545 -1.8319 -0.1155  1.3867
 6423SOL     OW30727   0.608   1.265   7.027 -0.3145  0.0244 -0.0717
 6423SOL    HW130728   0.627   1.171   7.030 -0.0141  0.1671  3.2587
 6423SOL    HW230729   0.595   1.285   7.120 -0.2042  0.3280 -0.1236
 6424SOL     OW30730   0.472   2.487  16.863 -0.3811 -1.1407  0.2400
 6424SOL    HW130731   0.545   2.519  16.915 -0.3805  1.6814 -1.5272
 6424SOL    HW230732   0.393   2.530  16.896 -0.3753 -0.8736 -0.0916
 6425SOL     OW30733   2.823   4.583  14.167  0.1792 -0.1656 -0.2194
 6425SOL    HW130734   2.803   4.492  14.144 -1.3874 -0.1663  1.1391
 6425SOL    HW230735   2.746   4.606  14.218 -0.5746 -1.1594 -0.9158
 6426SOL     OW30736   0.001   4.551  12.323  0.4589 -0.0456  0.3973
 6426SOL    HW130737   4.701   4.638  12.288  1.4672 -0.2729 -0.7668
 6426SOL    HW230738   0.036   4.561  12.411  2.0025  2.9524 -0.5361
 6427SOL     OW30739   3.524   2.653  17.303  0.1546  0.0971 -0.3525
 6427SOL    HW130740   3.571   2.626  17.382  1.9575  1.3550 -1.0041
 6427SOL    HW230741   3.453   2.588  17.304 -0.6193  0.9528  1.6965
 6428SOL     OW30742   3.238   2.601   7.052  0.9044  0.1596  0.2210
 6428SOL    HW130743   3.298   2.536   7.086  0.4962 -1.0762 -1.4420
 6428SOL    HW230744   3.255   2.601   6.958  0.0534 -1.2216  0.0678
 6429SOL     OW30745   4.515   3.881   1.646  0.0375  0.2309  0.1161
 6429SOL    HW130746   4.610   3.885   1.659  0.1329  1.4012 -0.9875
 6429SOL    HW230747   4.505   3.838   1.561  0.4081 -1.8705  1.1190
 6430SOL     OW30748   3.720   0.929   6.830 -0.4945 -0.0818  0.0999
 6430SOL    HW130749   3.706   0.845   6.873 -0.7531  0.5130  1.1636
 6430SOL    HW230750   3.799   0.915   6.777  1.6133 -0.9243  3.4558
 6431SOL     OW30751   1.704   2.684   7.390  0.5664 -0.2214  0.7604
 6431SOL    HW130752   1.798   2.705   7.391  0.9824 -2.1041  2.4923
 6431SOL    HW230753   1.668   2.765   7.354 -0.9022 -1.1240  0.2284
 6432SOL     OW30754   2.990   3.583  15.895 -0.3694 -0.0649 -0.2748
 6432SOL    HW130755   2.986   3.599  15.801 -1.3492 -0.3073 -0.2699
 6432SOL    HW230756   3.020   3.671  15.920 -2.1275  1.0859 -2.1847
 6433SOL     OW30757   1.217   0.372   4.963  0.1209 -0.4609  0.4026
 6433SOL    HW130758   1.157   0.407   5.029 -0.0198 -1.7727  0.9695
 6433SOL    HW230759   1.255   0.458   4.943 -2.2546  0.8635  1.6073
 6434SOL     OW30760   2.914   0.944   2.894  0.7553  0.0410  0.6134
 6434SOL    HW130761   2.934   1.008   2.826 -2.7605  1.9086  1.3817
 6434SOL    HW230762   2.973   0.973   2.963  2.8602  0.5931 -1.4194
 6435SOL     OW30763   1.027   4.610  14.803 -0.2927 -0.4717 -0.0280
 6435SOL    HW130764   0.961   4.562  14.752 -1.3796 -0.2277  1.1333
 6435SOL    HW230765   1.080   4.646  14.731  1.1217 -1.2650  0.6206
 6436SOL     OW30766   3.729   2.480   3.273  0.3240  0.3355 -0.1012
 6436SOL    HW130767   3.633   2.481   3.270  0.3148  1.2396  0.3376
 6436SOL    HW230768   3.760   2.548   3.214 -2.4057  0.6423 -1.1743
 6437SOL     OW30769   2.314   4.626   9.209 -0.1618 -0.7945  0.2527
 6437SOL    HW130770   2.363   4.642   9.290  0.9554  2.7018 -1.1014
 6437SOL    HW230771   2.251   4.567   9.250  1.1479 -4.1616 -2.6751
 6438SOL     OW30772   4.149   0.303   7.197 -0.3305 -0.3757  0.1661
 6438SOL    HW130773   4.076   0.342   7.148  0.0033 -1.0267 -0.8353
 6438SOL    HW230774   4.221   0.324   7.138  0.4606 -0.2874  1.1506
 6439SOL     OW30775   0.735   1.903   8.885 -0.2619 -0.1217 -0.3569
 6439SOL    HW130776   0.806   1.858   8.931 -0.6445 -0.6628 -0.3035
 6439SOL    HW230777   0.729   1.972   8.951 -0.0846  1.4307 -1.9796
 6440SOL     OW30778   3.423   1.394  12.095  0.3503 -0.4521  0.1347
 6440SOL    HW130779   3.334   1.428  12.089 -0.0718 -1.4447  0.8986
 6440SOL    HW230780   3.453   1.385  12.004 -2.0245 -0.8232 -0.5940
 6441SOL     OW30781   3.832   0.715  16.730 -0.2008  0.6527 -0.0252
 6441SOL    HW130782   3.820   0.748  16.819  3.2556 -0.6550  0.9150
 6441SOL    HW230783   3.773   0.640  16.722 -0.2058  0.5314  1.1198
 6442SOL     OW30784   1.598   3.243   7.047 -0.9296 -0.0975 -0.2885
 6442SOL    HW130785   1.505   3.219   7.038 -0.8460  0.7385 -3.4126
 6442SOL    HW230786   1.611   3.259   7.141 -1.1673 -2.3858  0.1272
 6443SOL     OW30787   4.298   0.599   4.703 -0.4683 -0.5603 -0.3938
 6443SOL    HW130788   4.297   0.608   4.608 -0.9224 -2.4578 -0.5771
 6443SOL    HW230789   4.219   0.546   4.714 -2.1076  2.1260  0.6615
 6444SOL     OW30790   4.078   4.109   4.117 -0.4289 -0.6117 -0.2821
 6444SOL    HW130791   4.003   4.109   4.177 -2.0009  0.8463 -2.2033
 6444SOL    HW230792   4.155   4.102   4.173 -1.8665 -0.2488  1.7257
 6445SOL     OW30793   0.639   3.974  12.219 -0.1615  0.3466  0.3993
 6445SOL    HW130794   0.595   3.977  12.303  2.1580  0.6161  1.6028
 6445SOL    HW230795   0.696   3.898  12.232  0.4389  0.9841  1.4434
 6446SOL     OW30796   2.330   4.272  13.090  0.2517 -0.2068 -0.3628
 6446SOL    HW130797   2.244   4.283  13.048  0.4341  0.7371 -0.5028
 6446SOL    HW230798   2.351   4.365  13.097  0.0224 -0.2666  1.1358
 6447SOL     OW30799   1.519   3.202   0.525 -0.4623 -0.2927 -0.0074
 6447SOL    HW130800   1.447   3.214   0.587 -1.0941  0.3713 -0.8691
 6447SOL    HW230801   1.578   3.277   0.533 -0.0983 -0.4207 -1.4301
 6448SOL     OW30802   1.967   1.577   5.718 -0.4904  0.3021 -0.7082
 6448SOL    HW130803   1.964   1.647   5.653 -3.1419  0.0375 -0.8960
 6448SOL    HW230804   1.878   1.542   5.725 -0.4278  0.1250 -0.7905
 6449SOL     OW30805   3.576   3.232   3.193  0.8029  0.4912  0.0136
 6449SOL    HW130806   3.595   3.269   3.107 -0.1344 -1.0513 -0.8613
 6449SOL    HW230807   3.665   3.225   3.226  1.8128 -0.2950 -2.9593
 6450SOL     OW30808   0.624   1.440   9.869  0.1221 -0.0375  0.9942
 6450SOL    HW130809   0.684   1.495   9.920 -1.2555  0.6543  1.8866
 6450SOL    HW230810   0.646   1.463   9.779 -2.5028  1.9384  0.8397
 6451SOL     OW30811   3.560   1.141   2.300 -0.6878  0.0955  0.1829
 6451SOL    HW130812   3.624   1.186   2.245  0.6686 -0.8628  0.9875
 6451SOL    HW230813   3.616   1.103   2.367  1.3411  1.1673 -0.9034
 6452SOL     OW30814   1.975   0.898  15.321  0.1444 -0.2439 -0.1735
 6452SOL    HW130815   2.061   0.926  15.352  0.8714 -2.5209 -0.1179
 6452SOL    HW230816   1.918   0.913  15.396 -0.4707 -1.9875 -0.2898
 6453SOL     OW30817   0.417   0.105   9.670 -1.3401 -0.1564 -0.1220
 6453SOL    HW130818   0.437   0.184   9.621  0.5102 -0.3275  0.3421
 6453SOL    HW230819   0.506   0.081   9.698 -1.5095 -0.7968 -0.1183
 6454SOL     OW30820   0.702   4.495  12.394  0.0768  0.3409 -0.1496
 6454SOL    HW130821   0.742   4.533  12.472  1.0697  0.3257 -0.6589
 6454SOL    HW230822   0.767   4.515  12.327 -0.1923  2.6322  0.2712
 6455SOL     OW30823   2.377   1.345   7.380  0.0525 -0.2377  0.0033
 6455SOL    HW130824   2.310   1.282   7.404 -1.0280  0.6136 -0.8093
 6455SOL    HW230825   2.337   1.395   7.310  0.1255 -1.3911 -0.8598
 6456SOL     OW30826   4.297   2.584  14.967  0.5343 -0.0854 -0.3240
 6456SOL    HW130827   4.231   2.615  14.906 -1.3199  1.5274  2.4633
 6456SOL    HW230828   4.357   2.658  14.980  1.9916 -1.2680 -0.3836
 6457SOL     OW30829   2.387   4.432   9.857 -0.7171 -0.4722  0.2198
 6457SOL    HW130830   2.403   4.343   9.888  0.7253  0.8873  3.3566
 6457SOL    HW230831   2.294   4.430   9.836 -0.6593 -0.2791 -0.0612
 6458SOL     OW30832   3.614   1.861   8.813 -0.4526 -0.7139 -0.3253
 6458SOL    HW130833   3.665   1.942   8.813 -1.3119 -0.1679  0.9451
 6458SOL    HW230834   3.678   1.797   8.844 -0.5298 -0.0347  1.2601
 6459SOL     OW30835   0.146   3.392   4.246  0.3105  0.3803 -0.3173
 6459SOL    HW130836   0.126   3.481   4.274  0.9601  0.8728 -1.4169
 6459SOL    HW230837   0.056   3.358   4.242  0.5124 -0.0999 -0.7431
 6460SOL     OW30838   2.810   1.836   5.048 -0.1742 -0.6052  0.2183
 6460SOL    HW130839   2.750   1.865   4.979 -0.7149 -1.7420  0.1978
 6460SOL    HW230840   2.748   1.781   5.095 -0.9780 -0.9679 -1.2415
 6461SOL     OW30841   3.722   0.891  13.790 -0.2658  0.4510  0.7427
 6461SOL    HW130842   3.682   0.961  13.842 -0.5882  0.8167  0.0012
 6461SOL    HW230843   3.817   0.897  13.799 -0.2893  1.7266  0.2120
 6462SOL     OW30844   1.264   1.583  11.105 -0.2640  0.1757  0.1266
 6462SOL    HW130845   1.247   1.651  11.040  2.9627 -0.1646 -1.0560
 6462SOL    HW230846   1.334   1.629  11.151 -1.1391  1.2315  0.4171
 6463SOL     OW30847   1.827   2.084   7.955  0.2079  0.2569 -0.3203
 6463SOL    HW130848   1.894   2.122   8.012  1.5425  2.3209 -3.2878
 6463SOL    HW230849   1.751   2.134   7.986 -2.3213 -2.1557 -2.6997
 6464SOL     OW30850   2.538   2.187   1.509  0.3496 -0.5011 -0.5361
 6464SOL    HW130851   2.467   2.186   1.445 -0.7306  1.8936  0.6194
 6464SOL    HW230852   2.494   2.136   1.577 -1.9562  2.6474  0.3666
 6465SOL     OW30853   0.816   2.893   5.360 -0.8481 -0.9434  0.6263
 6465SOL    HW130854   0.832   2.814   5.308 -1.0173  0.3689 -1.4113
 6465SOL    HW230855   0.898   2.891   5.409  0.0180  0.8702 -0.7448
 6466SOL     OW30856   3.158   2.724  17.303 -0.1362  0.1393  0.1586
 6466SOL    HW130857   3.098   2.746  17.375  0.9391  0.3922  0.9847
 6466SOL    HW230858   3.103   2.741  17.226 -1.9472  2.0784  1.8605
 6467SOL     OW30859   3.798   3.127  15.167 -0.4144  0.6427 -0.2202
 6467SOL    HW130860   3.853   3.054  15.139 -1.2422  0.6158 -1.7418
 6467SOL    HW230861   3.860   3.196  15.147  0.2328  0.1531  0.0833
 6468SOL     OW30862   0.252   0.724   1.863 -0.3614  0.6055 -0.6032
 6468SOL    HW130863   0.250   0.775   1.944  3.8423  0.1991 -0.2373
 6468SOL    HW230864   0.340   0.685   1.859 -0.2527  1.1773 -3.2286
 6469SOL     OW30865   1.793   4.544   4.510 -0.0004  0.7950  0.3909
 6469SOL    HW130866   1.746   4.461   4.519 -0.0660  0.8633  0.6967
 6469SOL    HW230867   1.722   4.599   4.478 -0.3980 -0.0289 -0.1313
 6470SOL     OW30868   1.111   2.326  10.436  0.2931  0.4945 -0.4181
 6470SOL    HW130869   1.189   2.276  10.410 -1.0676 -0.4318 -2.7107
 6470SOL    HW230870   1.100   2.308  10.529  0.8688  1.5278 -0.1460
 6471SOL     OW30871   1.526   4.432   3.449 -1.0011 -0.2220 -0.2437
 6471SOL    HW130872   1.489   4.438   3.361 -1.6715 -2.2443 -0.0895
 6471SOL    HW230873   1.519   4.339   3.470  0.6094 -0.9444 -2.9131
 6472SOL     OW30874   1.946   4.523  14.450  0.4098  0.4898 -0.0583
 6472SOL    HW130875   1.858   4.487  14.440  0.7893 -0.1701 -0.9606
 6472SOL    HW230876   1.940   4.543  14.544 -2.1510  0.7657 -0.2696
 6473SOL     OW30877   1.619   4.518   9.756  0.3723  1.0643  0.1636
 6473SOL    HW130878   1.583   4.543   9.841 -0.7390  0.0733 -0.0215
 6473SOL    HW230879   1.538   4.479   9.725  1.1631 -0.6805  0.3184
 6474SOL     OW30880   3.389   0.292   2.074  0.2948 -0.5501 -0.3247
 6474SOL    HW130881   3.429   0.205   2.068 -1.8852 -1.6557  1.3330
 6474SOL    HW230882   3.436   0.340   2.005 -0.7313 -0.6341 -1.0805
 6475SOL     OW30883   2.060   3.162   9.451  0.0474  0.6707 -0.2320
 6475SOL    HW130884   2.141   3.213   9.453 -0.4870  1.5511 -1.1806
 6475SOL    HW230885   2.031   3.167   9.543 -0.1219 -0.9330 -0.2091
 6476SOL     OW30886   1.718   3.059  17.420 -0.3470  0.0196  0.4701
 6476SOL    HW130887   1.703   3.126  17.354 -0.4521  0.6724  1.1557
 6476SOL    HW230888   1.689   2.983  17.368  0.0915  0.3838 -0.3056
 6477SOL     OW30889   3.249   4.472   4.423  0.0865 -0.1189  0.1758
 6477SOL    HW130890   3.257   4.562   4.392 -0.3964 -0.7820 -1.9063
 6477SOL    HW230891   3.309   4.481   4.497  1.4527 -1.1318 -0.8091
 6478SOL     OW30892   2.776   4.511   9.148 -0.3062  0.0064 -0.1118
 6478SOL    HW130893   2.800   4.589   9.198 -0.6472 -0.7285  1.1955
 6478SOL    HW230894   2.690   4.485   9.182  0.0043  2.1276  2.2935
 6479SOL     OW30895   1.307   0.897   6.818  0.9523  0.0873 -0.0204
 6479SOL    HW130896   1.226   0.899   6.868  2.8614  0.0013  3.0511
 6479SOL    HW230897   1.313   0.991   6.801 -0.7167  0.1861 -0.0309
 6480SOL     OW30898   1.941   2.016   2.862  0.1788 -0.2337  0.6367
 6480SOL    HW130899   1.975   1.928   2.878 -1.9408 -1.8113 -3.5724
 6480SOL    HW230900   1.911   1.997   2.773  0.1657  0.8649  0.4067
 6481SOL     OW30901   4.490   2.777  14.903  0.4812 -0.3353 -0.0734
 6481SOL    HW130902   4.436   2.770  14.824  0.3879  0.4490 -0.0733
 6481SOL    HW230903   4.560   2.711  14.893 -0.4872 -1.3450 -0.1766
 6482SOL     OW30904   1.389   0.923   5.663  1.0498 -0.4030  0.6226
 6482SOL    HW130905   1.399   0.857   5.732  0.4983 -1.3987 -0.2630
 6482SOL    HW230906   1.439   0.880   5.594 -2.4762 -1.2524 -1.4291
 6483SOL     OW30907   4.288   0.023   7.488 -0.4391  0.4510 -0.5426
 6483SOL    HW130908   4.205   0.046   7.531 -0.0235  1.1995 -0.1491
 6483SOL    HW230909   4.257   4.668   7.438  1.5001  0.3069 -1.5358
 6484SOL     OW30910   2.467   0.784   7.096 -0.0447  0.1399  0.0781
 6484SOL    HW130911   2.391   0.839   7.078  0.6615  0.7608 -0.9793
 6484SOL    HW230912   2.522   0.831   7.033  0.7224 -1.8685 -0.7387
 6485SOL     OW30913   4.636   3.859   2.895 -0.7255  0.1663  0.3727
 6485SOL    HW130914   4.716   3.911   2.900 -1.4435  1.4620 -1.6407
 6485SOL    HW230915   4.669   3.797   2.831 -3.0703 -1.0420  0.3229
 6486SOL     OW30916   3.413   3.989   7.340 -0.7400 -0.3705 -0.6088
 6486SOL    HW130917   3.434   3.942   7.259 -0.7869 -0.2335 -0.7005
 6486SOL    HW230918   3.504   3.987   7.370 -0.3870  0.8909 -1.5860
 6487SOL     OW30919   1.843   2.401   4.733 -0.6647  0.0886 -0.1560
 6487SOL    HW130920   1.811   2.431   4.818  0.1034 -0.0984  0.1973
 6487SOL    HW230921   1.872   2.311   4.747 -0.2910  0.3793  0.9786
 6488SOL     OW30922   2.849   0.217   7.710  0.1271  0.0596 -0.3888
 6488SOL    HW130923   2.857   0.123   7.722  1.8928  0.3582  0.8219
 6488SOL    HW230924   2.926   0.248   7.758 -1.4254 -0.4256  2.4022
 6489SOL     OW30925   3.093   2.289   6.386 -0.5906 -0.0323  0.2102
 6489SOL    HW130926   3.148   2.338   6.447  0.5850 -3.2776  1.7553
 6489SOL    HW230927   3.037   2.244   6.449 -0.2665  0.6835  1.0146
 6490SOL     OW30928   0.952   0.898   9.092  0.3767  0.4825  0.0017
 6490SOL    HW130929   0.864   0.888   9.127 -0.3381  4.4961 -0.7359
 6490SOL    HW230930   0.994   0.820   9.129  2.1275  1.1871 -0.5072
 6491SOL     OW30931   0.249   2.932   6.081 -0.3484  0.1079  0.1283
 6491SOL    HW130932   0.226   2.995   6.149  3.2528  1.5560 -0.0180
 6491SOL    HW230933   0.290   2.859   6.125 -1.5713 -0.4890  0.2835
 6492SOL     OW30934   2.335   4.297  13.463  0.3666  0.4409 -0.3129
 6492SOL    HW130935   2.272   4.251  13.408 -1.0353 -0.1320  1.7795
 6492SOL    HW230936   2.353   4.225  13.524 -1.2021  1.7844  1.7747
 6493SOL     OW30937   4.546   2.763   3.419  0.2100  0.1500  0.3595
 6493SOL    HW130938   4.491   2.825   3.372 -0.4322  0.2264  1.2190
 6493SOL    HW230939   4.513   2.771   3.508  1.2493  0.5985  0.7078
 6494SOL     OW30940   3.751   2.086   5.998 -0.4365 -0.4105 -0.4153
 6494SOL    HW130941   3.792   2.059   5.916  0.8595 -0.0612  0.1135
 6494SOL    HW230942   3.757   2.181   5.986  0.3858 -0.6209 -1.6051
 6495SOL     OW30943   0.427   3.266   1.389 -0.4531  0.5871 -0.1330
 6495SOL    HW130944   0.411   3.193   1.330  0.5277  0.2169  0.0562
 6495SOL    HW230945   0.487   3.223   1.450 -0.5603 -0.0265 -0.4553
 6496SOL     OW30946   0.366   3.125   2.871 -0.0774 -0.1998 -0.0546
 6496SOL    HW130947   0.418   3.197   2.835 -1.4320  0.9383  0.2761
 6496SOL    HW230948   0.421   3.075   2.930  1.2779  2.6579  1.0803
 6497SOL     OW30949   2.252   1.045   5.430  0.4449  0.2284  0.0253
 6497SOL    HW130950   2.333   1.091   5.409  2.3699 -1.4815  3.7810
 6497SOL    HW230951   2.221   1.022   5.343  0.5869  0.0831  0.0134
 6498SOL     OW30952   4.174   1.475   1.328  0.0490 -0.2872  0.5549
 6498SOL    HW130953   4.238   1.415   1.290 -1.2172 -0.7583 -0.8286
 6498SOL    HW230954   4.181   1.552   1.272  1.8935 -1.3054 -0.5893
 6499SOL     OW30955   1.092   1.936   5.606 -0.0842 -0.5351 -0.1701
 6499SOL    HW130956   1.006   1.939   5.564 -0.3709 -0.9391  0.3766
 6499SOL    HW230957   1.111   1.842   5.603  3.4864  0.1322  1.6507
 6500SOL     OW30958   0.824   1.782  16.049  0.0625 -0.0831  0.1965
 6500SOL    HW130959   0.766   1.722  16.001  0.8343 -0.1951 -0.5901
 6500SOL    HW230960   0.899   1.776  15.990  0.3080  0.0388  0.4942
 6501SOL     OW30961   2.610   3.276   5.760 -0.0840  0.0985 -0.2331
 6501SOL    HW130962   2.556   3.215   5.812  2.8034 -1.4205  0.9806
 6501SOL    HW230963   2.547   3.342   5.731 -2.3264 -1.3752  1.2526
 6502SOL     OW30964   4.102   2.236   7.031 -0.1234 -0.0576 -0.0548
 6502SOL    HW130965   4.097   2.190   6.948  3.2663 -0.7473  0.1256
 6502SOL    HW230966   4.197   2.224   7.042 -0.0782 -0.2291 -0.6465
 6503SOL     OW30967   3.243   3.589   4.106  0.0036  0.1027  0.2094
 6503SOL    HW130968   3.189   3.649   4.054  1.0454  1.8958  1.1739
 6503SOL    HW230969   3.175   3.528   4.133  0.1334  0.0305  0.3721
 6504SOL     OW30970   4.500   2.260   4.245 -0.0402  0.2625  0.4455
 6504SOL    HW130971   4.489   2.201   4.319  2.9902 -0.2063  0.5154
 6504SOL    HW230972   4.411   2.265   4.209  0.2079 -2.8651 -0.5767
 6505SOL     OW30973   2.701   0.183   2.607 -0.2604 -0.2377 -0.2539
 6505SOL    HW130974   2.791   0.173   2.637  0.4151  5.1357 -0.4861
 6505SOL    HW230975   2.664   0.154   2.690 -1.8192  1.7075 -0.2560
 6506SOL     OW30976   4.611   3.656  11.657  0.0551 -0.1505  0.3287
 6506SOL    HW130977   4.559   3.605  11.595 -0.1756  1.5327 -0.8644
 6506SOL    HW230978   4.543   3.692  11.714  0.2966  1.5771 -0.4647
 6507SOL     OW30979   0.344   2.463   6.715  0.0604  0.2231  0.3985
 6507SOL    HW130980   0.300   2.450   6.799 -1.4478  1.4714 -0.1946
 6507SOL    HW230981   0.337   2.374   6.681 -2.4157  0.0911  1.2499
 6508SOL     OW30982   1.458   3.908  10.414 -0.2617  0.3226  0.1372
 6508SOL    HW130983   1.388   3.899  10.478  0.3822  0.1398  0.8050
 6508SOL    HW230984   1.446   3.993  10.371 -0.4685  0.6576  0.8647
 6509SOL     OW30985   4.519   2.602   9.820 -0.5258  0.4201  0.1241
 6509SOL    HW130986   4.456   2.660   9.777  1.3643  3.1577  1.0510
 6509SOL    HW230987   4.486   2.513   9.809 -2.0543  1.3138 -2.4442
 6510SOL     OW30988   1.114   0.128  14.046 -0.3856 -0.0364 -0.0285
 6510SOL    HW130989   1.043   0.071  14.015 -0.0890 -0.6169  0.3582
 6510SOL    HW230990   1.174   0.124  13.972 -0.5448 -1.0796 -0.1046
 6511SOL     OW30991   3.097   2.468   2.315 -0.4621 -0.2617  0.4799
 6511SOL    HW130992   3.114   2.379   2.282  2.3463  1.1011 -1.7371
 6511SOL    HW230993   3.157   2.469   2.389 -0.0536  2.2683  0.1157
 6512SOL     OW30994   2.775   3.981  17.170  0.3933 -0.4050  0.1251
 6512SOL    HW130995   2.777   4.067  17.212 -0.6741  0.1267 -0.8978
 6512SOL    HW230996   2.708   3.924  17.209 -0.6880  2.0818  1.9389
 6513SOL     OW30997   0.400   0.334   2.011  0.0499 -0.2843  0.1756
 6513SOL    HW130998   0.402   0.277   2.088  0.9939 -0.0217  0.3481
 6513SOL    HW230999   0.306   0.350   2.015  0.1337  0.3259 -0.1767
 6514SOL     OW31000   1.063   1.183   3.509 -0.1063 -0.8290 -0.7397
 6514SOL    HW131001   1.076   1.191   3.415 -1.0939  1.9507 -0.6417
 6514SOL    HW231002   1.001   1.254   3.526  0.2591 -0.3116 -1.6059
 6515SOL     OW31003   3.051   3.178   1.250  0.0979 -0.3399  0.5155
 6515SOL    HW131004   2.991   3.120   1.202 -0.1191  0.2155  0.1223
 6515SOL    HW231005   3.116   3.182   1.180 -0.7907 -0.7739 -0.3435
 6516SOL     OW31006   3.562   3.729   6.788 -0.0905 -0.3434 -0.0762
 6516SOL    HW131007   3.539   3.646   6.830 -1.8519  0.5796  0.7905
 6516SOL    HW231008   3.485   3.751   6.737 -0.2984 -0.4794  0.1782
 6517SOL     OW31009   2.314   3.748   9.852 -0.1282  0.1505  0.0414
 6517SOL    HW131010   2.227   3.779   9.879 -0.1653  0.5695 -0.5765
 6517SOL    HW231011   2.318   3.776   9.761  1.9631 -1.4328 -0.3300
 6518SOL     OW31012   0.861   0.840  16.482 -0.2061 -0.9151  0.0225
 6518SOL    HW131013   0.841   0.896  16.407  2.9017  0.4084  0.1986
 6518SOL    HW231014   0.780   0.792  16.502 -1.2389  1.0860  0.6131
 6519SOL     OW31015   1.436   3.212  11.429 -0.9377 -0.1321 -0.0648
 6519SOL    HW131016   1.353   3.259  11.419 -1.2225 -0.0101  2.8107
 6519SOL    HW231017   1.414   3.124  11.397 -4.3116  0.5473  0.3502
 6520SOL     OW31018   4.519   0.631  14.577  0.1138 -0.2258  0.3216
 6520SOL    HW131019   4.501   0.587  14.659  2.2744 -1.7736 -0.0317
 6520SOL    HW231020   4.567   0.564  14.527 -0.3520  1.4131 -2.3504
 6521SOL     OW31021   3.387   2.037   8.289  0.5514  0.0455  0.4367
 6521SOL    HW131022   3.474   2.000   8.297  0.4278 -1.0013 -3.0067
 6521SOL    HW231023   3.334   1.975   8.339  0.9174 -2.1635 -1.9077
 6522SOL     OW31024   3.004   3.403   8.558  0.3237 -0.3185  0.1367
 6522SOL    HW131025   2.967   3.345   8.625 -0.6932 -1.1335 -1.1247
 6522SOL    HW231026   3.041   3.337   8.500 -1.8796 -0.6707 -0.8643
 6523SOL     OW31027   3.803   2.174   3.960  0.1452 -0.3739  0.2870
 6523SOL    HW131028   3.872   2.240   3.971 -2.2275  2.1631 -0.0762
 6523SOL    HW231029   3.835   2.114   4.028  0.8588  0.6280  0.8529
 6524SOL     OW31030   0.347   0.570   2.427 -0.1984 -0.3594 -0.1821
 6524SOL    HW131031   0.432   0.548   2.387  0.1900  2.9968 -1.1875
 6524SOL    HW231032   0.357   0.664   2.414  0.9091 -0.4657 -0.1527
 6525SOL     OW31033   0.769   2.985   1.427  0.2743 -0.3564 -0.0589
 6525SOL    HW131034   0.733   2.929   1.357  1.5582 -0.5764 -0.5405
 6525SOL    HW231035   0.815   3.049   1.373 -1.1336 -1.3800 -2.5082
 6526SOL     OW31036   1.093   2.087   8.505  0.1892 -0.4002 -0.2287
 6526SOL    HW131037   1.051   2.173   8.512 -1.6368 -1.2724 -0.2696
 6526SOL    HW231038   1.154   2.099   8.577  1.1244  1.4806 -1.3480
 6527SOL     OW31039   1.769   0.370   1.811  0.9310 -0.2791 -0.4503
 6527SOL    HW131040   1.725   0.307   1.868 -0.6941 -0.1629 -1.5482
 6527SOL    HW231041   1.809   0.437   1.866  0.8720  0.8389 -1.7463
 6528SOL     OW31042   3.907   3.366  12.713 -0.7380 -0.3827 -0.0483
 6528SOL    HW131043   3.888   3.285  12.665 -2.2635 -1.2535  2.0882
 6528SOL    HW231044   4.002   3.351  12.714 -1.3152 -3.9789 -1.2313
 6529SOL     OW31045   1.661   1.613   3.399 -0.4615  0.2790 -0.1196
 6529SOL    HW131046   1.666   1.554   3.324  1.2969 -1.0221  1.0211
 6529SOL    HW231047   1.754   1.613   3.422 -0.1662  1.4601 -1.2784
 6530SOL     OW31048   2.080   0.063   0.044 -0.3590  0.7166  0.1931
 6530SOL    HW131049   2.031   4.716   0.090 -1.3516  1.9814  0.9718
 6530SOL    HW231050   2.171   0.050   0.070 -0.2005  0.1901 -0.6154
 6531SOL     OW31051   4.566   0.566   4.646 -0.2073 -0.4650 -0.0805
 6531SOL    HW131052   4.537   0.568   4.555 -2.5218 -0.8816  0.6487
 6531SOL    HW231053   4.482   0.565   4.691  0.0352  0.7668  0.4050
 6532SOL     OW31054   1.980   0.525   4.500 -0.4828  0.2165  0.2833
 6532SOL    HW131055   2.059   0.523   4.446 -1.0669 -0.3615 -0.5492
 6532SOL    HW231056   1.945   0.611   4.475 -2.6328 -0.9205 -0.5494
 6533SOL     OW31057   2.986   0.753   3.892  0.3196 -0.6101  0.3424
 6533SOL    HW131058   3.080   0.749   3.910 -0.0460  0.1129  2.4163
 6533SOL    HW231059   2.981   0.823   3.828  0.6985 -0.4373  0.5029
 6534SOL     OW31060   1.914   3.980   3.104  0.2082  0.2075  0.2655
 6534SOL    HW131061   1.826   3.942   3.098  1.0643 -1.8235  0.4262
 6534SOL    HW231062   1.934   3.984   3.010  1.3185  1.3013  0.5596
 6535SOL     OW31063   3.683   0.016   5.410 -0.4707  0.1326 -0.3854
 6535SOL    HW131064   3.602   4.701   5.373  0.1728 -0.3269 -1.3707
 6535SOL    HW231065   3.738   0.045   5.337 -1.4095 -0.6179 -1.3783
 6536SOL     OW31066   4.375   2.899  16.350  0.8609 -0.3063  0.7248
 6536SOL    HW131067   4.383   2.853  16.266  0.8771 -0.0561  0.5906
 6536SOL    HW231068   4.457   2.947  16.358  0.4486  0.4337  0.4854
 6537SOL     OW31069   0.787   0.135   1.157 -0.4782 -0.0722 -0.1784
 6537SOL    HW131070   0.747   0.049   1.149  0.4139 -0.4470 -0.5017
 6537SOL    HW231071   0.726   0.184   1.212  0.8340 -0.3464  1.4895
 6538SOL     OW31072   1.521   2.194   3.103  0.6223 -0.2674  0.1251
 6538SOL    HW131073   1.462   2.142   3.158 -1.5128 -0.3569 -2.1899
 6538SOL    HW231074   1.599   2.163   3.148 -0.0075  2.1646  2.8592
 6539SOL     OW31075   0.552   2.166   3.628 -0.0190  0.4864 -0.1210
 6539SOL    HW131076   0.475   2.159   3.571 -1.4696  1.6690  1.6787
 6539SOL    HW231077   0.622   2.126   3.577  0.2688  0.8071  0.0174
 6540SOL     OW31078   1.330   1.659   6.641 -0.4797 -0.6491  0.2283
 6540SOL    HW131079   1.239   1.666   6.670 -0.8106 -0.8209 -0.7884
 6540SOL    HW231080   1.370   1.580   6.677 -1.1415  0.3391  3.1596
 6541SOL     OW31081   4.027   1.680  10.129  0.3506 -0.5167 -0.1649
 6541SOL    HW131082   4.030   1.682  10.225 -2.3089 -0.6109 -0.0841
 6541SOL    HW231083   4.075   1.599  10.112  0.8540 -0.3782  0.5757
 6542SOL     OW31084   3.727   0.791   7.753  0.7818 -0.0862  0.2960
 6542SOL    HW131085   3.712   0.698   7.772 -2.1968  0.3558  0.0835
 6542SOL    HW231086   3.707   0.826   7.840  0.1130  0.4696 -0.0840
 6543SOL     OW31087   3.601   3.645   9.098  0.2023 -0.1900 -0.5962
 6543SOL    HW131088   3.619   3.735   9.069  2.1288 -0.2218  0.4916
 6543SOL    HW231089   3.668   3.605   9.042  2.6030  1.0455  1.4413
 6544SOL     OW31090   4.476   3.083  16.654  0.4213 -0.3244 -0.1070
 6544SOL    HW131091   4.518   3.042  16.578  1.4608  1.5280 -0.5302
 6544SOL    HW231092   4.411   3.141  16.615 -0.0770 -0.4137  0.5947
 6545SOL     OW31093   2.453   3.062  12.195 -0.2360 -0.0388  0.1037
 6545SOL    HW131094   2.458   3.020  12.109 -4.0281  0.6604 -0.4341
 6545SOL    HW231095   2.370   3.028  12.226 -1.1498  0.4028 -1.8421
 6546SOL     OW31096   1.675   4.062   0.447 -0.2996 -0.6644  0.1589
 6546SOL    HW131097   1.626   4.010   0.511 -1.3210 -2.8955 -2.4345
 6546SOL    HW231098   1.742   4.001   0.416  1.2328  1.4017 -0.5258
 6547SOL     OW31099   3.492   3.347   9.124 -0.2161 -0.0475  0.6408
 6547SOL    HW131100   3.560   3.371   9.186 -1.3014  1.4038  1.2650
 6547SOL    HW231101   3.542   3.274   9.086 -1.7020 -0.5722 -0.3011
 6548SOL     OW31102   2.660   3.284  12.482  0.0656 -0.4822 -0.1931
 6548SOL    HW131103   2.716   3.207  12.468 -1.3174 -1.8697  1.9764
 6548SOL    HW231104   2.594   3.253  12.544  0.2189  1.1171  0.7837
 6549SOL     OW31105   0.748   2.918   7.901 -0.1633  0.0963 -0.0379
 6549SOL    HW131106   0.694   2.976   7.956  0.7358 -0.9690  1.9768
 6549SOL    HW231107   0.682   2.857   7.866  1.5671 -2.1435  0.5810
 6550SOL     OW31108   1.313   2.807  16.549  0.3407  0.1072  0.4654
 6550SOL    HW131109   1.233   2.847  16.515  0.6765  0.6759  0.3442
 6550SOL    HW231110   1.288   2.769  16.633  0.1741 -0.0348  0.3535
 6551SOL     OW31111   1.652   0.682  12.170 -0.3041  0.3539 -0.2846
 6551SOL    HW131112   1.561   0.712  12.160  0.6107  2.9500 -0.8248
 6551SOL    HW231113   1.631   0.590  12.154  2.9094 -0.5768  0.8410
 6552SOL     OW31114   1.347   0.045   4.876  0.3851  0.0426 -0.2911
 6552SOL    HW131115   1.328   0.071   4.965  0.7833  2.0545 -0.7947
 6552SOL    HW231116   1.301   0.111   4.824 -0.7475 -0.8163 -0.3920
 6553SOL     OW31117   3.502   1.202   0.836 -0.1076  0.4369  0.4963
 6553SOL    HW131118   3.541   1.144   0.770  0.2998  0.1471  0.9969
 6553SOL    HW231119   3.477   1.278   0.783 -0.5698 -0.0169  0.0586
 6554SOL     OW31120   0.774   3.826   6.778 -0.3511 -0.1557 -0.5170
 6554SOL    HW131121   0.711   3.794   6.714 -0.5210 -1.3986  0.2579
 6554SOL    HW231122   0.770   3.921   6.767  4.2401  0.2146  1.0900
 6555SOL     OW31123   0.529   1.409   2.389 -0.2864  0.3027 -0.0458
 6555SOL    HW131124   0.485   1.478   2.440 -3.4312 -1.2773 -0.5839
 6555SOL    HW231125   0.528   1.328   2.440  0.6165 -0.0533 -0.5949
 6556SOL     OW31126   0.470   3.750   3.836 -0.1869 -0.0968  0.0289
 6556SOL    HW131127   0.526   3.700   3.896 -1.1344  1.0829  1.8677
 6556SOL    HW231128   0.463   3.699   3.755 -0.0178  0.4032 -0.3016
 6557SOL     OW31129   3.701   1.635   9.790  0.0682 -0.1682  0.1652
 6557SOL    HW131130   3.779   1.659   9.840  1.2809  1.0095 -2.2757
 6557SOL    HW231131   3.635   1.700   9.815  0.6071  0.7339 -0.7558
 6558SOL     OW31132   2.994   0.693   1.034  0.3297 -0.1113  0.2681
 6558SOL    HW131133   3.038   0.709   0.951 -0.1600 -0.4201 -0.0516
 6558SOL    HW231134   2.914   0.743   1.019 -0.4793 -0.9809  1.6114
 6559SOL     OW31135   0.332   0.807   3.911  0.3804  0.1552  0.4771
 6559SOL    HW131136   0.359   0.762   3.991 -0.6157  0.0036  0.7363
 6559SOL    HW231137   0.410   0.853   3.883 -0.3663 -0.1662 -2.1323
 6560SOL     OW31138   1.094   2.913   2.443 -0.2612 -0.4074  0.0221
 6560SOL    HW131139   1.184   2.888   2.422 -0.1121 -0.0741  0.2625
 6560SOL    HW231140   1.105   3.005   2.469  0.5509 -0.6801  0.6672
 6561SOL     OW31141   1.538   3.786   7.514 -0.1856 -0.2003  0.3317
 6561SOL    HW131142   1.525   3.753   7.425  1.3452  2.5785 -0.9456
 6561SOL    HW231143   1.561   3.703   7.555  0.0349  0.1947  1.0129
 6562SOL     OW31144   1.282   3.565   6.478 -0.6017  0.0945 -0.2251
 6562SOL    HW131145   1.360   3.570   6.533 -0.4776  2.3982 -0.6168
 6562SOL    HW231146   1.264   3.473   6.499  2.5035 -0.9311 -1.9677
 6563SOL     OW31147   1.880   1.861   3.624 -0.4903 -0.5659  0.1356
 6563SOL    HW131148   1.963   1.909   3.627  0.3025 -1.8619 -0.6385
 6563SOL    HW231149   1.826   1.934   3.653 -1.5201 -1.2303 -0.1150
 6564SOL     OW31150   0.062   3.355   3.394  0.5651  0.0540 -0.0376
 6564SOL    HW131151   4.712   3.330   3.455 -0.6880  0.0777 -1.4586
 6564SOL    HW231152   0.005   3.397   3.330 -0.7872 -2.2918 -0.3797
 6565SOL     OW31153   2.075   4.403   8.183  0.1430 -0.3370 -0.6820
 6565SOL    HW131154   2.082   4.447   8.098 -1.7595  0.6291 -0.3309
 6565SOL    HW231155   2.059   4.314   8.153 -0.0396  0.8505 -4.1365
 6566SOL     OW31156   3.678   0.443  14.077  0.6105 -0.1926  0.3015
 6566SOL    HW131157   3.714   0.519  14.122  0.9846 -1.3446  1.9520
 6566SOL    HW231158   3.724   0.378  14.129  0.4290 -0.8615 -0.3669
 6567SOL     OW31159   0.659   1.562   8.416 -0.2895 -0.6013 -0.3045
 6567SOL    HW131160   0.577   1.612   8.411  0.3586  0.6769  2.0746
 6567SOL    HW231161   0.651   1.542   8.509  0.4841  1.1133  0.1319
 6568SOL     OW31162   1.049   0.949   9.960  0.4603 -0.7269  0.6736
 6568SOL    HW131163   1.096   0.867   9.943  2.4952  0.5709  0.0464
 6568SOL    HW231164   1.124   1.009   9.966  0.0507 -0.0001 -1.3793
 6569SOL     OW31165   0.895   0.858  14.990  0.3028 -0.0949  0.2789
 6569SOL    HW131166   0.923   0.931  15.045  1.0454 -0.9693  1.0625
 6569SOL    HW231167   0.882   0.792  15.058 -2.8467  0.0526 -0.1731
 6570SOL     OW31168   3.222   1.885   6.132 -0.1512 -0.1138  1.0816
 6570SOL    HW131169   3.231   1.919   6.043  0.9409  0.8152  1.5492
 6570SOL    HW231170   3.164   1.948   6.174 -0.1344  2.1425 -2.2499
 6571SOL     OW31171   1.424   2.712   1.502 -0.0771 -0.0516  0.2571
 6571SOL    HW131172   1.501   2.713   1.446  0.4904 -1.7892  1.0275
 6571SOL    HW231173   1.407   2.805   1.519 -1.8520 -0.2370 -0.4904
 6572SOL     OW31174   1.636   2.258  10.507 -0.1499 -0.2656 -0.2128
 6572SOL    HW131175   1.639   2.320  10.434 -0.7874  0.6150  0.5004
 6572SOL    HW231176   1.542   2.242  10.520  0.4246 -1.6494  2.3162
 6573SOL     OW31177   2.039   0.802   7.592  0.0718  0.2781 -0.0382
 6573SOL    HW131178   2.116   0.841   7.551 -0.2586  2.0125  0.9798
 6573SOL    HW231179   2.024   0.877   7.649 -0.1148  0.6745 -0.6112
 6574SOL     OW31180   3.892   4.580   7.565  0.4412  0.1509 -0.2153
 6574SOL    HW131181   3.970   4.561   7.617  0.3009 -1.8245 -0.7213
 6574SOL    HW231182   3.903   4.674   7.550  2.5264 -0.0341  0.2501
 6575SOL     OW31183   2.376   2.567   3.906  0.0170 -0.1028  0.4007
 6575SOL    HW131184   2.334   2.504   3.964  0.3987  0.6326  1.4946
 6575SOL    HW231185   2.319   2.645   3.903  2.0698  1.2588 -2.8768
 6576SOL     OW31186   0.434   4.045   9.705  0.2500 -0.0388 -0.1462
 6576SOL    HW131187   0.478   4.007   9.629 -0.0612 -0.5083 -0.0939
 6576SOL    HW231188   0.354   4.086   9.671 -0.9692 -1.2566  1.2446
 6577SOL     OW31189   0.210   1.469   2.862 -0.1412 -0.0754 -0.7246
 6577SOL    HW131190   0.193   1.561   2.881  2.6313  0.9474 -3.0628
 6577SOL    HW231191   0.277   1.457   2.929  1.8314 -0.9678 -2.8585
 6578SOL     OW31192   3.992   4.292  16.960  0.4160 -0.5029  0.3171
 6578SOL    HW131193   3.963   4.214  16.913  0.8284 -1.4001  1.5608
 6578SOL    HW231194   3.990   4.360  16.892  0.6568 -0.1911  0.6250
 6579SOL     OW31195   1.366   4.423   5.938 -0.1583  0.2318  0.0454
 6579SOL    HW131196   1.276   4.436   5.967  0.5442  2.1372  1.3485
 6579SOL    HW231197   1.357   4.329   5.920  0.3106  0.7984 -3.0773
 6580SOL     OW31198   0.378   2.313  12.683  0.6604  0.4647 -0.0143
 6580SOL    HW131199   0.317   2.343  12.750  1.2683  0.1601  0.6694
 6580SOL    HW231200   0.316   2.309  12.609  0.3117  3.0764  0.1314
 6581SOL     OW31201   3.739   1.734   4.324 -0.3945 -0.3538  0.1874
 6581SOL    HW131202   3.724   1.652   4.371  3.5050 -1.1768 -0.0039
 6581SOL    HW231203   3.655   1.778   4.334  1.2280  2.8933 -0.3677
 6582SOL     OW31204   3.657   3.691   2.335 -0.7519  0.6486  0.5044
 6582SOL    HW131205   3.645   3.710   2.242 -1.1403 -0.0349  0.4220
 6582SOL    HW231206   3.741   3.730   2.362 -0.8278  2.2914 -1.6099
 6583SOL     OW31207   0.736   4.665   8.958 -0.2283 -0.5637 -0.0244
 6583SOL    HW131208   0.827   4.633   8.953  0.5836  1.8031 -0.2683
 6583SOL    HW231209   0.743   0.012   9.026  0.2414  0.2292 -0.8525
 6584SOL     OW31210   0.612   2.251  13.979  0.3740  0.4354  0.4245
 6584SOL    HW131211   0.556   2.238  13.903  1.9015  1.2860 -0.8599
 6584SOL    HW231212   0.553   2.231  14.052  1.5726  0.1017  1.3047
 6585SOL     OW31213   0.776   2.599  10.811 -0.2119  0.1067 -0.1438
 6585SOL    HW131214   0.761   2.693  10.810 -1.5509 -0.1046  0.1348
 6585SOL    HW231215   0.710   2.570  10.749 -0.5733  1.6393 -0.4665
 6586SOL     OW31216   3.638   2.032   0.021 -0.1933  0.1988  0.1620
 6586SOL    HW131217   3.547   2.039  17.676 -0.6448 -4.2273  0.4013
 6586SOL    HW231218   3.630   1.951   0.072  1.3913 -0.2487 -0.2926
 6587SOL     OW31219   2.613   2.552  13.343  0.2947 -0.0745  0.2339
 6587SOL    HW131220   2.612   2.591  13.431  0.5924 -0.9567  0.6352
 6587SOL    HW231221   2.670   2.480  13.370  0.0321 -0.5473 -0.4766
 6588SOL     OW31222   3.544   2.531   0.322  0.1152 -0.1509 -0.1357
 6588SOL    HW131223   3.625   2.481   0.332 -0.9352 -2.5385 -3.6900
 6588SOL    HW231224   3.570   2.608   0.373  0.2358 -1.7881  2.2492
 6589SOL     OW31225   1.343   0.255   3.562 -0.6446 -0.4975  0.0497
 6589SOL    HW131226   1.328   0.190   3.493  0.5759 -0.9246  0.1889
 6589SOL    HW231227   1.251   0.270   3.585 -0.5498 -1.7178  1.2744
 6590SOL     OW31228   0.898   4.609   2.972  0.4760 -0.1113  0.1726
 6590SOL    HW131229   0.986   4.588   3.003  0.8888  0.3254 -0.6942
 6590SOL    HW231230   0.849   4.590   3.052  0.4649 -1.0747 -0.0696
 6591SOL     OW31231   3.550   1.272  15.023  0.0513  0.4521  0.0469
 6591SOL    HW131232   3.592   1.330  15.087  0.1352 -0.2708  0.6634
 6591SOL    HW231233   3.498   1.216  15.082  2.1501 -1.5669  0.0155
 6592SOL     OW31234   2.368   3.547   8.129 -0.3696  0.2045  0.5615
 6592SOL    HW131235   2.399   3.614   8.068  1.3349 -1.0583  0.0581
 6592SOL    HW231236   2.339   3.478   8.070  1.0140  1.9111 -2.0999
 6593SOL     OW31237   3.649   2.782   0.410  0.0981  0.3801 -0.1745
 6593SOL    HW131238   3.727   2.809   0.460  0.5634  2.2247 -1.9197
 6593SOL    HW231239   3.597   2.749   0.483 -0.1507  1.7474  0.2713
 6594SOL     OW31240   4.469   1.994   3.478 -0.0522  0.4178 -0.1864
 6594SOL    HW131241   4.488   2.078   3.436  0.3390  0.6140  0.3881
 6594SOL    HW231242   4.514   2.010   3.561 -1.7409 -1.4038  1.0760
 6595SOL     OW31243   1.285   4.621  14.680 -0.3449 -0.0522 -0.0244
 6595SOL    HW131244   1.298   4.684  14.609 -1.0255  1.1720  0.9289
 6595SOL    HW231245   1.349   4.664  14.738  0.6677 -1.2265 -0.2708
 6596SOL     OW31246   1.376   1.987   3.839 -0.1308 -0.0145  0.2295
 6596SOL    HW131247   1.462   2.008   3.876 -1.7127  0.1756  3.8424
 6596SOL    HW231248   1.335   2.073   3.835 -1.4433 -0.6099  0.8269
 6597SOL     OW31249   3.412   1.511   7.065 -0.6417 -0.1913  0.2971
 6597SOL    HW131250   3.434   1.528   7.156 -1.1905 -2.3324  0.8306
 6597SOL    HW231251   3.375   1.424   7.075 -1.1224 -0.1889 -1.3874
 6598SOL     OW31252   3.055   1.321   7.061  0.4295  1.1367 -0.3380
 6598SOL    HW131253   3.057   1.377   6.983  1.9432  1.3527 -0.1523
 6598SOL    HW231254   3.149   1.304   7.070  0.2970  0.2903 -0.5485
 6599SOL     OW31255   3.389   1.558   8.877  0.6085 -0.3706 -0.3469
 6599SOL    HW131256   3.452   1.599   8.937 -0.8734 -1.0394  1.6669
 6599SOL    HW231257   3.309   1.563   8.929  0.5520  3.6279 -0.8504
 6600SOL     OW31258   1.445   1.411   5.844 -0.3629 -0.1962 -0.2120
 6600SOL    HW131259   1.415   1.468   5.914  1.0238  0.7150 -0.3613
 6600SOL    HW231260   1.412   1.330   5.885  0.4621  1.2050  3.2030
 6601SOL     OW31261   3.653   1.702   2.598 -0.0969 -0.0237  0.4028
 6601SOL    HW131262   3.707   1.744   2.530 -0.2680  2.2450  1.6694
 6601SOL    HW231263   3.570   1.728   2.559 -0.4423 -1.5011  0.1614
 6602SOL     OW31264   2.929   2.727  11.821  0.3712  0.1171 -0.4952
 6602SOL    HW131265   2.852   2.742  11.875 -0.1621 -2.0713 -0.6595
 6602SOL    HW231266   2.943   2.633  11.818  2.0642  0.4239 -2.5181
 6603SOL     OW31267   3.509   2.413   5.014 -0.2064 -0.3337 -0.5897
 6603SOL    HW131268   3.422   2.444   5.038 -0.6035 -0.1650 -2.3069
 6603SOL    HW231269   3.546   2.492   4.975 -1.7729  0.5560 -0.2759
 6604SOL     OW31270   4.587   3.287   4.227 -0.1929 -0.4843 -0.4095
 6604SOL    HW131271   4.535   3.345   4.171 -0.1876  0.0355  0.1264
 6604SOL    HW231272   4.604   3.211   4.171 -1.6593 -1.2379  0.1520
 6605SOL     OW31273   0.446   1.248   8.616  0.1044  0.3006  0.6543
 6605SOL    HW131274   0.433   1.155   8.598  0.3280  0.0674  1.6844
 6605SOL    HW231275   0.381   1.293   8.561  0.8182  0.3786 -0.1264
 6606SOL     OW31276   4.109   3.795   2.235 -0.1166  0.1970  0.9859
 6606SOL    HW131277   4.071   3.832   2.156  1.0617  0.1558  0.3994
 6606SOL    HW231278   4.178   3.756   2.181 -3.6447 -3.7810 -0.7287
 6607SOL     OW31279   0.047   2.034   4.508 -0.6664 -0.2999  0.5834
 6607SOL    HW131280   0.033   2.123   4.540 -2.4890 -0.2120 -0.4835
 6607SOL    HW231281   0.141   2.031   4.491 -1.1927  0.5384 -2.4633
 6608SOL     OW31282   2.834   0.249   3.244 -0.1328  0.2371 -0.3532
 6608SOL    HW131283   2.909   0.208   3.201  1.3094  2.1055  0.3585
 6608SOL    HW231284   2.886   0.317   3.286  0.8746 -2.2753  2.5269
 6609SOL     OW31285   2.591   3.956   3.850 -0.2334 -1.0837  0.1440
 6609SOL    HW131286   2.527   3.899   3.893 -0.7935  1.3053  2.4352
 6609SOL    HW231287   2.559   4.033   3.897  0.6302 -0.2730 -0.5724
 6610SOL     OW31288   1.861   1.714  10.058 -0.5585  0.0291  0.3720
 6610SOL    HW131289   1.803   1.694   9.984  0.3985  0.4907 -0.5027
 6610SOL    HW231290   1.929   1.647  10.048 -1.3439 -0.9863  1.8688
 6611SOL     OW31291   1.442   1.259  16.073 -0.0090 -0.3766  0.0890
 6611SOL    HW131292   1.480   1.340  16.108  0.1406 -0.6044  0.4613
 6611SOL    HW231293   1.401   1.213  16.147 -0.4898  0.3142  0.2454
 6612SOL     OW31294   2.314   2.845   1.447  0.1396 -0.1568 -0.0418
 6612SOL    HW131295   2.376   2.912   1.477 -1.0114  0.5340  0.7720
 6612SOL    HW231296   2.242   2.867   1.506 -0.2458  0.8628 -0.8892
 6613SOL     OW31297   4.549   1.548   7.033  0.4010 -0.2496 -0.1336
 6613SOL    HW131298   4.597   1.561   6.951  1.3772  2.4536  0.8649
 6613SOL    HW231299   4.508   1.464   7.011  0.9807 -0.4349 -0.5066
 6614SOL     OW31300   2.320   4.590   3.635 -0.1282  0.0618  0.8352
 6614SOL    HW131301   2.396   4.578   3.577 -0.4243  0.4679  0.3595
 6614SOL    HW231302   2.329   4.683   3.658  1.2347  0.4821 -1.3738
 6615SOL     OW31303   1.571   1.319   6.608 -0.3369  0.1977  0.9947
 6615SOL    HW131304   1.558   1.273   6.526  1.7164  0.9557  0.2474
 6615SOL    HW231305   1.653   1.365   6.593  0.2066 -1.2230 -0.3253
 6616SOL     OW31306   1.389   0.652   7.590  0.0831 -0.3879 -0.0745
 6616SOL    HW131307   1.427   0.668   7.676 -0.3833  0.4163 -0.0157
 6616SOL    HW231308   1.336   0.574   7.609  1.6677 -0.9332  2.0538
 6617SOL     OW31309   1.181   0.388  14.140  0.5418 -0.2962 -0.8744
 6617SOL    HW131310   1.134   0.313  14.103 -1.4186  0.2259  0.5429
 6617SOL    HW231311   1.271   0.365  14.117  0.3225  0.1458 -2.2346
 6618SOL     OW31312   1.213   0.712   9.932 -0.2255  0.2903 -0.5793
 6618SOL    HW131313   1.263   0.768   9.871 -0.8871  0.1968 -1.2044
 6618SOL    HW231314   1.272   0.700  10.006 -0.7614  1.9472  0.1252
 6619SOL     OW31315   0.924   1.700   1.279  0.6953  0.1058  0.1000
 6619SOL    HW131316   1.019   1.710   1.270  0.6508  0.5825  0.1452
 6619SOL    HW231317   0.886   1.735   1.198 -0.4329 -1.6641 -0.1383
 6620SOL     OW31318   4.707   2.768  10.276  0.3923  0.1145  0.3318
 6620SOL    HW131319   4.665   2.696  10.323  0.1742 -0.0818 -0.1594
 6620SOL    HW231320   0.056   2.719  10.231 -1.6276 -3.1747  0.8021
 6621SOL     OW31321   2.394   3.593   2.532  0.0166  0.1883 -0.4920
 6621SOL    HW131322   2.373   3.679   2.567  0.0162  0.0500 -0.1502
 6621SOL    HW231323   2.487   3.610   2.518 -0.1746  1.8406  0.2137
 6622SOL     OW31324   4.210   3.444   5.986  0.0300 -0.2089  0.1754
 6622SOL    HW131325   4.170   3.435   5.899 -1.5286  2.6395  0.5633
 6622SOL    HW231326   4.193   3.359   6.026  0.4808 -1.1901 -1.7458
 6623SOL     OW31327   3.115   1.004   8.157  0.6465 -0.9150 -0.0741
 6623SOL    HW131328   3.112   0.929   8.216 -0.3211 -1.2813 -0.5945
 6623SOL    HW231329   3.136   0.978   8.068 -0.0006 -0.7915 -0.2646
 6624SOL     OW31330   4.108   3.978   9.877  0.4697 -0.2188  0.0728
 6624SOL    HW131331   4.117   4.016   9.965 -0.7175 -0.6751  0.4024
 6624SOL    HW231332   4.069   3.894   9.901 -0.9716  0.6800  0.9421
 6625SOL     OW31333   3.019   4.397   8.465  0.6662 -0.3421  0.2171
 6625SOL    HW131334   3.099   4.347   8.478  0.8086 -0.6283 -1.8188
 6625SOL    HW231335   3.045   4.467   8.526 -0.7496 -0.0600  0.4942
 6626SOL     OW31336   3.688   2.664   5.803 -0.7142  0.7040  0.2272
 6626SOL    HW131337   3.684   2.644   5.709 -3.6033  1.2890  0.2227
 6626SOL    HW231338   3.776   2.630   5.817  0.0925  1.7623 -2.1468
 6627SOL     OW31339   4.121   2.581   3.610 -0.1509  0.1333  0.6661
 6627SOL    HW131340   4.192   2.635   3.643  0.2272  1.1004 -1.7030
 6627SOL    HW231341   4.149   2.568   3.519  0.0303  2.3629  0.3976
 6628SOL     OW31342   1.619   4.501   7.215  0.3181  0.1913  0.9168
 6628SOL    HW131343   1.707   4.478   7.186 -0.3958 -1.3106 -0.0768
 6628SOL    HW231344   1.571   4.429   7.175  2.1037  0.4194 -1.6296
 6629SOL     OW31345   2.634   1.296   1.426 -0.5805  0.0200 -0.1501
 6629SOL    HW131346   2.713   1.340   1.458  0.7066 -1.8292 -0.8040
 6629SOL    HW231347   2.652   1.203   1.430 -1.4672 -0.1827 -0.9102
 6630SOL     OW31348   1.399   4.612  16.934 -0.6104  0.7638  0.4862
 6630SOL    HW131349   1.372   4.565  16.855 -2.7605 -0.0539  1.6954
 6630SOL    HW231350   1.492   4.622  16.917 -0.7871  2.2242  0.3977
 6631SOL     OW31351   2.070   1.489   3.570  0.1591 -0.3113  0.9802
 6631SOL    HW131352   2.064   1.447   3.656 -1.7883  0.9594  1.4373
 6631SOL    HW231353   1.989   1.462   3.528  1.3461 -0.9912 -0.8857
 6632SOL     OW31354   4.616   0.229  13.209  1.2338  0.4695 -0.2629
 6632SOL    HW131355   4.662   0.296  13.160 -2.6107  2.3806 -1.2483
 6632SOL    HW231356   4.664   0.222  13.291 -1.6790 -0.4259  1.3563
 6633SOL     OW31357   2.497   1.592   7.092 -0.2673  0.2930 -0.3035
 6633SOL    HW131358   2.524   1.551   7.010 -0.1638 -0.1337 -0.0549
 6633SOL    HW231359   2.580   1.633   7.118 -0.3946 -0.3146  1.0570
 6634SOL     OW31360   2.679   2.155   7.547  0.2242  0.1097  0.3389
 6634SOL    HW131361   2.692   2.170   7.641  3.6656 -1.8079  0.1712
 6634SOL    HW231362   2.605   2.095   7.537 -1.7598  2.4750  0.9590
 6635SOL     OW31363   0.425   2.364   0.251  0.3965 -0.4614  0.5207
 6635SOL    HW131364   0.496   2.328   0.198 -0.4793 -0.1855 -0.8609
 6635SOL    HW231365   0.378   2.413   0.182  2.3058 -1.0994 -1.2295
 6636SOL     OW31366   4.080   2.151  13.073  0.2678  0.3352  0.1347
 6636SOL    HW131367   4.057   2.204  12.997  2.0345  1.2124  0.2040
 6636SOL    HW231368   4.045   2.206  13.143  0.2463 -2.1054  2.0406
 6637SOL     OW31369   2.374   2.714   1.924 -0.6044 -0.2775 -0.4428
 6637SOL    HW131370   2.292   2.730   1.971 -1.3457 -2.4606 -0.9693
 6637SOL    HW231371   2.438   2.701   1.994 -1.6323 -2.0801  0.1688
 6638SOL     OW31372   4.458   3.597   8.333 -0.1408  0.5689  0.2110
 6638SOL    HW131373   4.416   3.516   8.363 -0.7174  1.1294  0.8800
 6638SOL    HW231374   4.498   3.569   8.250 -1.4773  0.7470 -0.4887
 6639SOL     OW31375   1.785   0.073   1.331 -0.6249  0.1771 -0.3490
 6639SOL    HW131376   1.732   0.015   1.277  0.2341 -0.6541 -0.3195
 6639SOL    HW231377   1.764   0.161   1.302 -0.8750  0.2765  0.1336
 6640SOL     OW31378   3.251   0.291   3.062 -0.6154 -0.1549 -0.3292
 6640SOL    HW131379   3.320   0.325   3.119 -0.0358  0.2194 -1.2663
 6640SOL    HW231380   3.229   0.371   3.015 -1.5650 -0.8088 -1.0178
 6641SOL     OW31381   3.500   1.015   7.160 -0.1617 -0.9191 -0.3222
 6641SOL    HW131382   3.551   0.953   7.212 -1.2065 -2.2637 -0.9037
 6641SOL    HW231383   3.417   0.968   7.157 -0.1713 -0.9619  0.8334
 6642SOL     OW31384   0.282   4.040   5.714 -0.3534 -0.1844 -0.3171
 6642SOL    HW131385   0.321   4.116   5.757 -0.1407 -1.0116  0.9545
 6642SOL    HW231386   0.278   4.083   5.629  0.0718 -0.9507 -0.7212
 6643SOL     OW31387   4.335   3.855   2.017  0.3228  0.6059 -0.0814
 6643SOL    HW131388   4.425   3.827   2.036 -0.1029 -2.0056 -1.8815
 6643SOL    HW231389   4.351   3.940   1.975  0.1066  1.2928  1.2288
 6644SOL     OW31390   3.984   4.121   3.017 -0.0023  0.2092  0.1112
 6644SOL    HW131391   3.997   4.157   2.930 -0.9505 -1.2239 -0.6224
 6644SOL    HW231392   4.022   4.035   3.000 -0.1222  0.0837  0.4689
 6645SOL     OW31393   1.596   4.613   7.989 -0.5433 -0.3945  0.0451
 6645SOL    HW131394   1.606   4.536   7.933  0.7706 -0.3706  0.2395
 6645SOL    HW231395   1.511   4.606   8.033 -0.3449  2.6409  0.9138
 6646SOL     OW31396   0.035   2.644   6.146  0.1718 -0.0626 -0.1220
 6646SOL    HW131397   4.706   2.568   6.176  1.5245  0.5484  3.6423
 6646SOL    HW231398   0.056   2.690   6.227 -0.4164  2.1331 -1.1970
 6647SOL     OW31399   0.172   4.493   1.038  0.7678  0.2223  0.1285
 6647SOL    HW131400   0.194   4.405   1.069 -2.6450 -1.0292 -1.0183
 6647SOL    HW231401   0.076   4.500   1.034  0.9138  2.4021  0.0884
 6648SOL     OW31402   0.396   4.247  15.959  0.5320 -0.2316 -0.0690
 6648SOL    HW131403   0.334   4.245  16.032  2.3879 -2.4557  1.4718
 6648SOL    HW231404   0.471   4.263  16.017  2.1480 -2.0129 -1.6738
 6649SOL     OW31405   0.685   2.473  16.222 -0.1242 -0.2774 -0.5769
 6649SOL    HW131406   0.670   2.391  16.269 -2.8852  0.5939  0.0815
 6649SOL    HW231407   0.605   2.515  16.252  0.4532 -0.7800  1.6423
 6650SOL     OW31408   1.415   2.420   2.995 -0.4004 -0.3146 -0.2101
 6650SOL    HW131409   1.446   2.335   3.024 -3.4002 -0.6327  2.0457
 6650SOL    HW231410   1.482   2.430   2.928 -2.3317 -0.4941 -2.1569
 6651SOL     OW31411   2.279   2.388  15.232  0.0245  0.0626  0.0692
 6651SOL    HW131412   2.324   2.377  15.316 -0.9338  1.7432  0.7950
 6651SOL    HW231413   2.348   2.357  15.172 -0.2645  1.1793 -0.8441
 6652SOL     OW31414   3.589   1.606   9.081  0.1821 -0.0823 -0.0449
 6652SOL    HW131415   3.590   1.605   9.177  0.0828  1.3276 -0.0310
 6652SOL    HW231416   3.651   1.676   9.061 -1.6210  1.1660 -1.2354
 6653SOL     OW31417   4.636   3.746  10.438 -0.1301 -0.3367 -0.1216
 6653SOL    HW131418   4.658   3.840  10.440 -0.5080 -0.2615  0.4456
 6653SOL    HW231419   0.005   3.712  10.448 -1.4620 -3.4892  0.8936
 6654SOL     OW31420   1.209   0.712   2.322 -0.2216 -0.0140  0.4500
 6654SOL    HW131421   1.266   0.746   2.391 -0.0700 -0.0730  0.3531
 6654SOL    HW231422   1.211   0.619   2.342 -1.5017  0.2400  1.7695
 6655SOL     OW31423   4.437   0.355   9.211 -0.5605  0.2638 -0.6143
 6655SOL    HW131424   4.481   0.286   9.161 -0.7900 -1.0183  0.9361
 6655SOL    HW231425   4.456   0.335   9.303 -0.1062  1.0170 -0.5475
 6656SOL     OW31426   2.930   4.323   6.782 -0.3885  0.3664  0.2314
 6656SOL    HW131427   2.979   4.384   6.838 -0.4582  0.8162 -0.1945
 6656SOL    HW231428   2.904   4.251   6.840 -0.2704 -0.9289 -1.3510
 6657SOL     OW31429   2.139   4.119  14.111 -0.3646  0.3014  0.1330
 6657SOL    HW131430   2.147   4.167  14.028  2.1569 -0.8953 -0.3078
 6657SOL    HW231431   2.222   4.073  14.119 -1.2068 -1.3541 -0.7739
 6658SOL     OW31432   4.618   4.386   1.060  0.2334  0.2401 -0.2427
 6658SOL    HW131433   4.627   4.307   1.006  0.6088 -0.7430  1.2694
 6658SOL    HW231434   4.556   4.357   1.127  2.9812 -0.1488  2.0812
 6659SOL     OW31435   0.923   1.820   2.060  0.1772 -0.6052 -0.6510
 6659SOL    HW131436   0.918   1.836   2.154  1.5448 -3.4184 -0.1020
 6659SOL    HW231437   1.015   1.802   2.040  0.6669  2.4127 -1.1144
 6660SOL     OW31438   2.874   2.017   0.607  0.5184  0.0283 -0.2283
 6660SOL    HW131439   2.937   1.958   0.565 -0.2420 -0.1744 -1.1000
 6660SOL    HW231440   2.915   2.020   0.694  2.2853  1.3127 -1.1031
 6661SOL     OW31441   0.816   3.545   1.893 -0.3279  0.5768  0.0396
 6661SOL    HW131442   0.766   3.464   1.889  2.1854 -1.0414  1.8109
 6661SOL    HW231443   0.798   3.574   1.983  0.6071  2.4032 -0.3508
 6662SOL     OW31444   2.533   4.369   2.405 -0.4647 -0.2933  0.3006
 6662SOL    HW131445   2.582   4.452   2.399 -2.6686  1.2022  3.3131
 6662SOL    HW231446   2.472   4.384   2.332  0.8180 -0.0070 -0.7320
 6663SOL     OW31447   2.517   0.216   8.012  0.5506  0.2608 -0.5290
 6663SOL    HW131448   2.581   0.236   8.081 -0.8295 -0.0935  0.8529
 6663SOL    HW231449   2.574   0.225   7.935  1.0972  2.2342  0.1095
 6664SOL     OW31450   0.528   0.991   7.393  0.0028 -0.1552 -0.2938
 6664SOL    HW131451   0.609   0.940   7.399 -0.3927 -0.6539  0.8792
 6664SOL    HW231452   0.500   0.972   7.303 -1.8280  1.1926 -0.0235
 6665SOL     OW31453   2.803   2.931   2.381  0.6127  0.0136  0.2074
 6665SOL    HW131454   2.740   3.000   2.400  1.0423  0.0700  1.4311
 6665SOL    HW231455   2.887   2.976   2.382 -0.5134  2.1368 -1.1438
 6666SOL     OW31456   0.997   0.784  11.225 -0.3229 -0.6558  0.1658
 6666SOL    HW131457   1.046   0.847  11.278 -1.7592 -1.6153  2.6158
 6666SOL    HW231458   1.059   0.712  11.219  1.5953  0.9271  0.8911
 6667SOL     OW31459   0.842   3.108   3.862 -0.2977  0.4061 -0.4507
 6667SOL    HW131460   0.904   3.072   3.798 -0.8889  1.4463 -1.6144
 6667SOL    HW231461   0.767   3.141   3.812 -0.5026  0.2682 -0.2323
 6668SOL     OW31462   4.132   3.960  14.338  0.2943  0.3921  0.0161
 6668SOL    HW131463   4.046   3.980  14.301  0.6613  0.7030 -0.6727
 6668SOL    HW231464   4.154   3.880  14.289 -0.5377 -0.1096  0.4591
 6669SOL     OW31465   4.404   2.623   4.833  0.1251 -0.3531 -0.4068
 6669SOL    HW131466   4.495   2.605   4.813  0.5997  1.3585  0.2567
 6669SOL    HW231467   4.412   2.717   4.849 -0.6000 -0.2674 -0.5313
 6670SOL     OW31468   3.077   3.287   6.495  0.2425 -0.6186 -0.2165
 6670SOL    HW131469   3.078   3.194   6.520  0.3161 -0.1277  1.5926
 6670SOL    HW231470   3.038   3.324   6.575 -3.0609 -1.9207 -1.2202
 6671SOL     OW31471   1.074   3.708   1.931 -0.1251  0.1074  0.2629
 6671SOL    HW131472   0.989   3.665   1.916  0.2839  0.2828 -2.5068
 6671SOL    HW231473   1.104   3.647   1.998 -0.1311  0.3233  0.4603
 6672SOL     OW31474   2.689   2.335   8.447  0.0810  0.6085  0.0311
 6672SOL    HW131475   2.658   2.384   8.523 -0.7470  2.5203 -1.5379
 6672SOL    HW231476   2.767   2.284   8.469  0.4039  0.6333 -1.0703
 6673SOL     OW31477   3.754   4.380   1.435 -0.4052 -0.1657  0.3230
 6673SOL    HW131478   3.800   4.447   1.385 -0.6737 -0.4976 -0.3651
 6673SOL    HW231479   3.787   4.295   1.407  0.4151  0.6067 -1.0257
 6674SOL     OW31480   4.577   3.765   3.876  0.1189 -0.0147  0.0489
 6674SOL    HW131481   4.570   3.861   3.882  1.0051 -0.0368  1.3997
 6674SOL    HW231482   4.669   3.761   3.850  0.1336 -0.6634  0.2071
 6675SOL     OW31483   0.594   3.213   8.213  0.3165 -0.6405  0.4258
 6675SOL    HW131484   0.524   3.258   8.260  2.5991  1.8624  1.4023
 6675SOL    HW231485   0.639   3.287   8.172 -2.5456  0.9560  0.1785
 6676SOL     OW31486   0.735   4.446  10.662  0.4296  0.0890 -0.8684
 6676SOL    HW131487   0.746   4.477  10.752  2.7119  1.9949 -1.8107
 6676SOL    HW231488   0.682   4.369  10.685  1.6258 -0.4188  0.1801
 6677SOL     OW31489   0.918   0.889   1.638  0.2305 -0.0183 -0.4977
 6677SOL    HW131490   0.925   0.830   1.562 -0.2158 -0.7276  0.0156
 6677SOL    HW231491   0.981   0.958   1.618 -0.3254  0.4072 -0.7743
 6678SOL     OW31492   4.047   0.477   1.318  0.4410 -0.0835  0.8460
 6678SOL    HW131493   4.047   0.501   1.226  0.6319  1.5296  1.2752
 6678SOL    HW231494   4.032   0.552   1.376 -0.9847  0.2314  0.0605
 6679SOL     OW31495   3.432   3.698   4.884  0.4255  0.2667 -0.8964
 6679SOL    HW131496   3.403   3.717   4.795 -2.2011 -0.8951 -0.2986
 6679SOL    HW231497   3.527   3.699   4.874  0.6942 -2.8690  1.2055
 6680SOL     OW31498   3.940   1.265   6.008  0.4220 -0.1830  0.2327
 6680SOL    HW131499   4.035   1.268   6.015  0.3090 -0.0909  1.7378
 6680SOL    HW231500   3.938   1.294   5.917  2.0738 -0.1426  0.2146
 6681SOL     OW31501   1.418   1.137   9.732  0.1130 -0.3837  0.2084
 6681SOL    HW131502   1.425   1.043   9.749 -2.8275 -0.7884 -0.8397
 6681SOL    HW231503   1.456   1.177   9.810 -1.2779  0.3248  0.5255
 6682SOL     OW31504   1.361   2.467  14.483 -0.3393 -0.1456  0.2171
 6682SOL    HW131505   1.452   2.437  14.485 -0.0298  0.9529  3.2772
 6682SOL    HW231506   1.370   2.562  14.495 -0.4102  0.0839 -1.4589
 6683SOL     OW31507   3.583   1.368  14.711 -0.2523  0.1003 -0.2370
 6683SOL    HW131508   3.492   1.372  14.740 -0.1607 -1.2961  0.2472
 6683SOL    HW231509   3.624   1.355  14.796 -1.8214  0.2525  0.5315
 6684SOL     OW31510   0.037   0.394   6.301  0.1019 -0.0108 -0.4826
 6684SOL    HW131511   4.709   0.323   6.343 -1.5910 -0.2187 -2.7513
 6684SOL    HW231512   0.100   0.337   6.256  1.3713 -0.3774  1.8038
 6685SOL     OW31513   1.045   2.864   6.630 -0.3959  0.1340 -0.3388
 6685SOL    HW131514   0.986   2.819   6.570  1.2831 -1.0985 -1.0681
 6685SOL    HW231515   1.101   2.787   6.641 -0.1900  0.4232  0.6614
 6686SOL     OW31516   0.421   2.989   7.362  0.5860 -0.2002  0.1958
 6686SOL    HW131517   0.421   3.050   7.288 -0.0707 -1.5760 -0.9428
 6686SOL    HW231518   0.361   2.919   7.335 -0.3631  0.1245  1.4728
 6687SOL     OW31519   0.497   1.787   2.481  0.5932  0.5172 -0.1739
 6687SOL    HW131520   0.533   1.763   2.396 -1.1016  1.6298 -1.2048
 6687SOL    HW231521   0.454   1.872   2.469  2.7888  1.5414 -0.8095
 6688SOL     OW31522   4.559   3.106   6.415  0.7523  0.2872 -0.0780
 6688SOL    HW131523   4.515   3.187   6.441 -1.5626 -1.6425  2.0447
 6688SOL    HW231524   4.543   3.045   6.488 -1.2218  0.9607  0.0361
 6689SOL     OW31525   2.070   3.872   7.120 -0.8972  0.1272  0.8758
 6689SOL    HW131526   2.047   3.962   7.102  2.3403  0.5621 -1.1389
 6689SOL    HW231527   2.006   3.831   7.062  0.5183 -1.5330  0.4544
 6690SOL     OW31528   1.908   3.879  13.121 -0.0637  0.8036 -1.0504
 6690SOL    HW131529   1.966   3.902  13.194 -2.9213 -0.3197  1.6048
 6690SOL    HW231530   1.964   3.813  13.081 -1.1124 -0.0376 -1.1091
 6691SOL     OW31531   0.333   3.709  14.467 -0.0716 -0.2678  0.4996
 6691SOL    HW131532   0.393   3.756  14.525  0.4898  0.6840 -0.8427
 6691SOL    HW231533   0.333   3.622  14.506  0.2157 -0.7917 -0.6652
 6692SOL     OW31534   1.803   3.420   2.808 -0.2637  0.3092 -0.2203
 6692SOL    HW131535   1.801   3.505   2.763  1.6947  0.6093  0.2580
 6692SOL    HW231536   1.795   3.365   2.730 -2.4138  1.9233 -1.1431
 6693SOL     OW31537   2.164   2.922   8.064 -0.1462 -0.5696 -0.2830
 6693SOL    HW131538   2.097   2.922   7.996 -1.0959  2.0048  0.6432
 6693SOL    HW231539   2.197   2.833   8.063 -1.3401 -1.0099 -0.4959
 6694SOL     OW31540   0.154   2.389   4.644  0.3017  0.0809 -0.0359
 6694SOL    HW131541   0.072   2.352   4.611 -0.3005 -0.7349  2.3356
 6694SOL    HW231542   0.208   2.395   4.565 -0.9241  0.4424 -0.8352
 6695SOL     OW31543   2.298   4.206   5.091 -0.1883  0.0986 -0.8175
 6695SOL    HW131544   2.366   4.230   5.027  1.1797  0.6495  0.8309
 6695SOL    HW231545   2.363   4.157   5.142 -0.7450 -0.1372 -0.3378
 6696SOL     OW31546   1.434   0.442   8.386 -0.4415 -0.4491  0.3698
 6696SOL    HW131547   1.444   0.486   8.471  2.3056  1.8220 -1.1071
 6696SOL    HW231548   1.406   0.522   8.341  2.1536 -0.6845 -1.6696
 6697SOL     OW31549   3.826   1.032  14.564 -0.3921 -0.2987  0.4462
 6697SOL    HW131550   3.815   1.126  14.574  0.0877 -0.1615 -0.4038
 6697SOL    HW231551   3.821   1.019  14.470  0.7377 -0.1900  0.3716
 6698SOL     OW31552   4.338   2.571   1.692 -0.7345 -0.2918  0.1220
 6698SOL    HW131553   4.432   2.554   1.687 -0.8084 -0.1509 -1.7425
 6698SOL    HW231554   4.325   2.666   1.699 -0.0448 -0.1171 -0.9677
 6699SOL     OW31555   2.498   4.642   5.575  0.7802  0.2379  0.6367
 6699SOL    HW131556   2.437   4.570   5.558  0.2801  0.5950  0.9092
 6699SOL    HW231557   2.441   4.699   5.627 -0.3159 -1.0566  0.8619
 6700SOL     OW31558   4.680   4.630   6.371  0.2062 -0.0609 -0.1667
 6700SOL    HW131559   4.669   4.548   6.420  1.3838 -0.6180 -0.8175
 6700SOL    HW231560   4.590   4.649   6.346  0.3548  0.8555  0.0189
 6701SOL     OW31561   0.248   3.529   1.051 -0.0791 -0.0561  0.0161
 6701SOL    HW131562   0.273   3.620   1.032  0.5533 -0.5716 -1.6164
 6701SOL    HW231563   0.209   3.505   0.968 -1.2316  0.3436  0.4441
 6702SOL     OW31564   3.496   2.502   8.538 -0.3057 -0.3697 -0.5261
 6702SOL    HW131565   3.478   2.571   8.474 -1.2069 -2.7417 -2.8304
 6702SOL    HW231566   3.505   2.429   8.477  0.9738 -2.4146  2.0722
 6703SOL     OW31567   3.620   4.019   0.494 -0.0017  0.2412  0.0381
 6703SOL    HW131568   3.708   4.004   0.458 -0.6200 -2.3134 -0.4335
 6703SOL    HW231569   3.579   3.939   0.461 -2.1290  1.1570  0.4778
 6704SOL     OW31570   0.339   2.172   1.747 -0.1681 -0.3726  0.3369
 6704SOL    HW131571   0.387   2.244   1.706  0.0956  0.1355  1.5446
 6704SOL    HW231572   0.405   2.104   1.755  0.8057  0.5975  0.5175
 6705SOL     OW31573   0.575   2.066   6.843  0.1773  0.3557 -0.4087
 6705SOL    HW131574   0.616   2.152   6.836 -0.2271  0.4709 -1.3596
 6705SOL    HW231575   0.586   2.042   6.935 -1.9443  2.5500  0.4076
 6706SOL     OW31576   0.721   0.928   2.934  0.0033  0.1711 -0.4368
 6706SOL    HW131577   0.743   0.853   2.879 -0.0545 -0.1741  0.0099
 6706SOL    HW231578   0.768   0.918   3.017 -1.5704  0.6565  0.5174
 6707SOL     OW31579   3.685   2.935   8.222 -0.0744  0.5187  0.0066
 6707SOL    HW131580   3.738   2.865   8.261 -0.4840  0.3493  0.2610
 6707SOL    HW231581   3.616   2.961   8.283  0.6491 -0.4978  1.2534
 6708SOL     OW31582   2.280   4.191   2.032 -0.6926 -0.1339 -0.3871
 6708SOL    HW131583   2.361   4.216   1.987  1.3739 -3.7224  1.3815
 6708SOL    HW231584   2.292   4.234   2.117 -0.9327 -2.1441  0.6648
 6709SOL     OW31585   2.111   2.843   4.749 -0.2009 -0.6040  0.0350
 6709SOL    HW131586   2.184   2.846   4.687  0.4947  0.3148  0.8924
 6709SOL    HW231587   2.081   2.752   4.751 -0.2551 -0.5506  1.8408
 6710SOL     OW31588   1.130   4.047   8.161 -0.4459  0.1474  0.1782
 6710SOL    HW131589   1.182   4.040   8.241 -0.6794 -0.3312  0.2878
 6710SOL    HW231590   1.145   3.965   8.113 -1.0986  0.2899 -0.2758
 6711SOL     OW31591   2.320   1.344   8.707 -0.5311  0.1139 -0.3886
 6711SOL    HW131592   2.273   1.428   8.711 -1.8323 -0.5377 -1.7194
 6711SOL    HW231593   2.406   1.365   8.742 -0.7228 -0.0697  0.1815
 6712SOL     OW31594   4.215   4.147   6.244  0.2371  0.0166  0.1275
 6712SOL    HW131595   4.171   4.064   6.224  1.3162 -0.2717 -1.0488
 6712SOL    HW231596   4.199   4.195   6.163 -0.8316  1.3167  1.1149
 6713SOL     OW31597   1.376   3.181  16.620 -0.4706  0.6333 -0.2551
 6713SOL    HW131598   1.371   3.158  16.713 -1.4258  1.7822 -0.0087
 6713SOL    HW231599   1.302   3.129  16.587  0.1117 -0.6573  0.4741
 6714SOL     OW31600   2.414   0.128  10.255 -0.8312 -0.3982  0.4862
 6714SOL    HW131601   2.393   0.063  10.322 -0.0778 -0.3875  0.7340
 6714SOL    HW231602   2.358   0.105  10.181 -0.2629 -1.0515  0.2677
 6715SOL     OW31603   2.948   1.334   9.005 -0.4104  0.5275 -0.3942
 6715SOL    HW131604   2.887   1.319   9.078 -0.6469 -1.4400 -1.0144
 6715SOL    HW231605   2.929   1.423   8.976 -0.2061  0.6025 -0.3034
 6716SOL     OW31606   2.656   2.604   2.028 -0.1033 -0.1811  0.5337
 6716SOL    HW131607   2.655   2.638   2.117  2.2307  1.9425 -0.2244
 6716SOL    HW231608   2.576   2.552   2.028  0.5272 -1.2194 -3.2215
 6717SOL     OW31609   2.842   0.548  14.826 -0.1417 -0.9592  0.0541
 6717SOL    HW131610   2.854   0.454  14.813 -1.7780 -1.4674  2.1770
 6717SOL    HW231611   2.800   0.544  14.912 -1.5582 -0.9705 -0.6361
 6718SOL     OW31612   1.462   2.324  10.262 -0.3979  0.0462 -0.4593
 6718SOL    HW131613   1.397   2.390  10.237 -0.1228  0.0779 -1.0971
 6718SOL    HW231614   1.534   2.384  10.282 -0.0577 -0.1962 -0.9427
 6719SOL     OW31615   0.184   4.218   2.552 -0.0299  0.1366 -1.1435
 6719SOL    HW131616   0.223   4.279   2.614 -1.2527  0.7566 -0.9725
 6719SOL    HW231617   0.268   4.185   2.520 -0.7869 -1.6372 -1.3089
 6720SOL     OW31618   3.762   1.821  15.665 -0.2070  0.3862 -0.7344
 6720SOL    HW131619   3.824   1.788  15.600  0.0891 -3.3931  1.4762
 6720SOL    HW231620   3.694   1.857  15.608  0.2305 -0.4883 -1.8131
 6721SOL     OW31621   3.288   1.201   5.423 -0.1375  0.5217  0.0917
 6721SOL    HW131622   3.209   1.200   5.369  0.4286 -2.2159 -0.6659
 6721SOL    HW231623   3.268   1.282   5.470  3.2271  1.8022 -0.6409
 6722SOL     OW31624   0.338   3.748   1.693 -0.2718  0.1134  0.5160
 6722SOL    HW131625   0.348   3.668   1.640 -0.2868 -0.6875  1.7278
 6722SOL    HW231626   0.425   3.786   1.686  0.4142 -1.1777  2.1271
 6723SOL     OW31627   4.490   4.213   3.896 -0.0318 -0.0844 -0.8265
 6723SOL    HW131628   4.429   4.142   3.914  0.6501 -0.6041 -0.5579
 6723SOL    HW231629   4.544   4.177   3.825 -0.7664 -1.8327 -0.4903
 6724SOL     OW31630   4.429   4.385   4.167  0.3296  0.0939 -0.2484
 6724SOL    HW131631   4.339   4.380   4.199  1.0954 -0.2738  1.8791
 6724SOL    HW231632   4.442   4.290   4.167 -0.6916 -0.0532  1.7756
 6725SOL     OW31633   4.081   3.153   8.016  0.5690 -0.3052 -0.0330
 6725SOL    HW131634   4.171   3.126   8.035  0.2529 -1.1434  0.2973
 6725SOL    HW231635   4.047   3.076   7.969  0.1534 -0.2045  0.0988
 6726SOL     OW31636   4.656   3.948  10.910 -0.1099  0.6122  0.8273
 6726SOL    HW131637   4.579   3.907  10.871  0.9409 -0.4908 -0.1205
 6726SOL    HW231638   4.714   3.871  10.908 -0.0101  0.7302 -1.2739
 6727SOL     OW31639   2.266   2.031   8.420 -0.2750 -0.3330  0.3718
 6727SOL    HW131640   2.206   2.050   8.492  2.3846  2.0254  1.9639
 6727SOL    HW231641   2.326   1.973   8.466  1.4152  0.9749 -0.1866
 6728SOL     OW31642   4.370   2.205   7.029  0.1487 -0.1115 -0.0654
 6728SOL    HW131643   4.404   2.264   6.962  0.5543 -0.1330  0.1240
 6728SOL    HW231644   4.406   2.122   6.996 -2.2526 -1.3472  0.4139
 6729SOL     OW31645   4.284   4.619   2.739  0.1582 -0.4633 -0.8493
 6729SOL    HW131646   4.300   4.688   2.805 -2.2655 -1.5094  0.8055
 6729SOL    HW231647   4.189   4.612   2.746  0.1509 -1.3086 -1.9879
 6730SOL     OW31648   3.208   3.945   0.253  0.0394  0.0570  0.2976
 6730SOL    HW131649   3.184   3.966   0.343 -1.9865 -1.4039  0.0834
 6730SOL    HW231650   3.255   3.862   0.261 -0.2793 -0.1099  0.4556
 6731SOL     OW31651   4.135   2.273   1.359  0.0177  0.4756 -0.1887
 6731SOL    HW131652   4.116   2.286   1.452  0.2411 -0.0188 -0.0746
 6731SOL    HW231653   4.215   2.325   1.362  2.2274 -3.0957  1.7731
 6732SOL     OW31654   2.724   1.419   5.549  0.4316  0.2804  0.7122
 6732SOL    HW131655   2.787   1.346   5.548  1.3448  1.0540  2.2949
 6732SOL    HW231656   2.761   1.467   5.475 -0.4106 -1.6905 -1.0164
 6733SOL     OW31657   3.626   3.365   7.819 -0.3260 -0.1832 -0.1971
 6733SOL    HW131658   3.634   3.310   7.896 -1.2880 -1.7169 -1.2035
 6733SOL    HW231659   3.718   3.385   7.801 -0.5252 -0.3007 -1.3249
 6734SOL     OW31660   2.486   3.882   5.267 -0.2950  0.6962  0.3881
 6734SOL    HW131661   2.417   3.861   5.330 -0.7271  0.6722 -0.0955
 6734SOL    HW231662   2.468   3.823   5.193  0.3475  1.8237 -0.6641
 6735SOL     OW31663   0.643   1.437   1.798  0.3074  0.3323 -0.1918
 6735SOL    HW131664   0.710   1.485   1.846  2.5437 -2.0820 -0.8941
 6735SOL    HW231665   0.692   1.360   1.768 -1.1138 -0.1678 -1.2356
 6736SOL     OW31666   0.729   1.510  11.044  0.3502  0.0323 -0.1777
 6736SOL    HW131667   0.809   1.556  11.021  1.1853 -1.8902 -1.0933
 6736SOL    HW231668   0.748   1.468  11.128 -0.2825  2.4350  1.1454
 6737SOL     OW31669   4.420   2.127   7.983  0.6243  0.3376  0.0317
 6737SOL    HW131670   4.460   2.157   8.064 -0.0013  1.0883  0.0670
 6737SOL    HW231671   4.357   2.067   8.023 -0.4972  1.6533  0.2496
 6738SOL     OW31672   3.093   3.777   3.939  0.2008 -0.3211 -0.5699
 6738SOL    HW131673   3.122   3.853   3.888  0.7287 -0.5377 -0.5864
 6738SOL    HW231674   2.998   3.788   3.947  0.3561  0.2102  0.4413
 6739SOL     OW31675   1.643   0.939   2.688 -0.5696 -0.0498 -0.2335
 6739SOL    HW131676   1.731   0.977   2.686 -0.8329  0.5441 -0.7336
 6739SOL    HW231677   1.656   0.875   2.758  0.7854 -0.0415 -0.4598
 6740SOL     OW31678   1.138   1.106  15.758  0.2352 -0.0098  0.0979
 6740SOL    HW131679   1.214   1.160  15.778  0.3182  1.0646 -3.1269
 6740SOL    HW231680   1.091   1.105  15.842  0.8613  0.7964  0.4568
 6741SOL     OW31681   4.651   3.739   8.818  0.0183 -0.2821  0.1425
 6741SOL    HW131682   4.658   3.700   8.731 -0.4120  2.1419 -0.9827
 6741SOL    HW231683   4.669   3.663   8.873  0.9276 -1.2441 -1.4631
 6742SOL     OW31684   2.534   4.493   3.494 -0.6783  0.5009  0.4189
 6742SOL    HW131685   2.496   4.406   3.502 -0.0874 -0.0713 -3.3062
 6742SOL    HW231686   2.570   4.495   3.406 -0.0314  1.5428  0.7037
 6743SOL     OW31687   1.935   3.518  12.388  0.0693  0.0868  0.1783
 6743SOL    HW131688   1.858   3.468  12.360 -1.2114  1.7188  0.7401
 6743SOL    HW231689   2.008   3.456  12.379  0.6696  0.8258 -0.0406
 6744SOL     OW31690   0.438   1.476   4.994  0.1457  0.2703  0.1978
 6744SOL    HW131691   0.434   1.398   4.939 -1.4415 -0.2268  1.0052
 6744SOL    HW231692   0.346   1.484   5.020  0.2924  0.7109  0.5772
 6745SOL     OW31693   4.636   0.866  12.606 -0.1570  0.0720 -0.3441
 6745SOL    HW131694   4.680   0.888  12.524  0.3987 -1.7231 -0.5228
 6745SOL    HW231695   4.609   0.945  12.652  0.8527  0.0203  0.3355
 6746SOL     OW31696   1.915   0.765   4.335  0.5532 -0.4126  0.0795
 6746SOL    HW131697   1.914   0.720   4.251 -1.1430  1.1353 -0.7068
 6746SOL    HW231698   1.827   0.742   4.363  0.1953 -1.5251 -1.9839
 6747SOL     OW31699   3.733   3.606   7.605  0.3290  0.3746  0.3129
 6747SOL    HW131700   3.774   3.675   7.552 -1.7415  0.6754 -0.8912
 6747SOL    HW231701   3.755   3.528   7.554 -1.4850 -0.2568  0.5167
 6748SOL     OW31702   1.628   4.503   6.885 -0.4683 -0.1140  0.3493
 6748SOL    HW131703   1.622   4.563   6.960 -1.1422 -0.6718  0.7353
 6748SOL    HW231704   1.534   4.484   6.875 -0.4086 -0.1071 -0.2261
 6749SOL     OW31705   4.121   3.485   5.714  0.1628  0.4406  0.1291
 6749SOL    HW131706   4.197   3.426   5.710 -0.5552 -0.3563 -1.5699
 6749SOL    HW231707   4.170   3.566   5.729 -1.3478  1.7331 -2.0079
 6750SOL     OW31708   4.164   1.702  11.831  0.4769 -0.3339  0.6857
 6750SOL    HW131709   4.197   1.731  11.915  0.2809 -0.1639  0.7042
 6750SOL    HW231710   4.176   1.609  11.850 -0.3505 -1.0311 -2.0725
 6751SOL     OW31711   4.539   2.449   5.040 -0.0020 -0.0898  0.4209
 6751SOL    HW131712   4.626   2.447   5.000  0.2008 -0.6719  0.9024
 6751SOL    HW231713   4.531   2.361   5.077 -0.2967 -1.5715 -3.1832
 6752SOL     OW31714   4.316   4.391   3.171 -0.8999 -0.2141 -0.0635
 6752SOL    HW131715   4.302   4.327   3.242 -0.3777  0.1127  0.3365
 6752SOL    HW231716   4.354   4.328   3.110  0.5721  1.4031 -0.8047
 6753SOL     OW31717   2.200   3.947  13.788  0.3795  0.2691  0.0075
 6753SOL    HW131718   2.204   4.042  13.794  1.1272  0.4986 -3.6995
 6753SOL    HW231719   2.251   3.936  13.707 -1.4983 -0.6014 -1.0717
 6754SOL     OW31720   1.144   2.744   5.143 -0.0270  0.5333  0.2889
 6754SOL    HW131721   1.071   2.739   5.082 -0.1806 -0.4616  0.5569
 6754SOL    HW231722   1.175   2.834   5.134  1.5575 -0.3191 -2.8736
 6755SOL     OW31723   1.544   2.599  16.532 -0.3665  0.1486 -0.7541
 6755SOL    HW131724   1.627   2.603  16.578 -0.2608  0.8738 -1.0091
 6755SOL    HW231725   1.498   2.534  16.585  1.7248 -0.4534  0.3219
 6756SOL     OW31726   4.596   2.152  15.155  0.2319  0.0427  0.1062
 6756SOL    HW131727   4.630   2.095  15.087 -1.1404 -0.9452  0.2368
 6756SOL    HW231728   4.658   2.224  15.156  0.1295  0.1143  2.2963
 6757SOL     OW31729   3.967   0.268   2.733 -0.3705  0.6469  0.4001
 6757SOL    HW131730   4.006   0.331   2.673 -2.0272 -1.0065 -2.4458
 6757SOL    HW231731   4.026   0.290   2.804 -1.3412  0.7770  1.1624
 6758SOL     OW31732   3.938   4.518   1.005 -0.8447  0.1019  0.2446
 6758SOL    HW131733   3.988   4.468   1.070  1.3105  0.2540 -1.3354
 6758SOL    HW231734   4.000   4.536   0.935 -0.9301 -0.0162  0.1383
 6759SOL     OW31735   4.669   1.045   2.926  0.0605 -0.8079  0.4432
 6759SOL    HW131736   4.697   1.029   2.836 -0.4595 -1.7385  0.4451
 6759SOL    HW231737   4.700   0.965   2.967 -1.6742 -2.2254 -1.0244
 6760SOL     OW31738   2.532   1.439   1.651  0.0274  0.2084  0.6628
 6760SOL    HW131739   2.538   1.358   1.599  0.9286  0.9584 -0.4106
 6760SOL    HW231740   2.488   1.501   1.592  0.2248  1.1541  1.5199
 6761SOL     OW31741   4.349   3.399   7.641  0.0163 -0.3892 -0.1764
 6761SOL    HW131742   4.421   3.345   7.673  0.3302 -1.2127 -2.2918
 6761SOL    HW231743   4.278   3.357   7.688 -0.6727  1.8321  0.7493
 6762SOL     OW31744   0.758   1.374   5.699  0.1281 -0.2005  0.2786
 6762SOL    HW131745   0.791   1.285   5.683  0.0028 -0.0906 -0.6099
 6762SOL    HW231746   0.667   1.371   5.726  0.0721  1.1208  0.2193
 6763SOL     OW31747   2.478   3.539   2.847 -0.2695  0.3989  0.0453
 6763SOL    HW131748   2.441   3.511   2.764  1.9773 -0.6840 -0.6036
 6763SOL    HW231749   2.437   3.625   2.845 -0.0625  0.4305 -2.3965
 6764SOL     OW31750   4.262   3.919   7.567  0.0289 -0.3759  0.0589
 6764SOL    HW131751   4.324   3.849   7.592  2.9347  1.9157 -0.6821
 6764SOL    HW231752   4.193   3.907   7.632 -1.2013  0.6774 -1.0727
 6765SOL     OW31753   4.378   1.553   3.621  0.4867 -0.3582 -0.5623
 6765SOL    HW131754   4.435   1.491   3.575 -0.5963 -3.6907  2.6331
 6765SOL    HW231755   4.402   1.536   3.712  0.4488  1.0893 -0.2750
 6766SOL     OW31756   2.952   4.636   1.207 -0.0335  0.2352  0.4053
 6766SOL    HW131757   2.949   4.716   1.154  0.7424  0.1112  0.1647
 6766SOL    HW231758   2.866   4.634   1.247  0.8314  1.1182  2.3418
 6767SOL     OW31759   0.778   2.929   6.765 -0.0668  0.2705 -0.2707
 6767SOL    HW131760   0.716   2.934   6.838 -2.3339 -0.3817 -2.1698
 6767SOL    HW231761   0.813   2.842   6.782  0.7958  0.4670 -1.0580
 6768SOL     OW31762   2.170   4.115   8.656  0.1469  0.0847  0.6280
 6768SOL    HW131763   2.149   4.144   8.567  0.9744 -1.4000 -0.0448
 6768SOL    HW231764   2.238   4.048   8.646  0.3070  0.1311  1.4150
 6769SOL     OW31765   2.452   4.117   7.049  0.5289  0.1123 -0.4584
 6769SOL    HW131766   2.524   4.177   7.029  0.1402  0.6922 -0.1351
 6769SOL    HW231767   2.492   4.056   7.111  1.5227  1.2971  0.0843
 6770SOL     OW31768   1.866   0.939  15.578  0.8263  0.5788  0.3120
 6770SOL    HW131769   1.777   0.952  15.610  0.3784 -1.6631  0.0259
 6770SOL    HW231770   1.907   1.022  15.601  2.0029 -0.3170  1.5124
 6771SOL     OW31771   0.266   3.219  17.334  0.0508  0.3350 -0.0872
 6771SOL    HW131772   0.170   3.214  17.326  0.1810 -1.8386 -0.3134
 6771SOL    HW231773   0.284   3.310  17.310 -1.6079  0.6795 -0.0821
 6772SOL     OW31774   4.351   0.854   6.950 -0.1940 -0.1639  0.1333
 6772SOL    HW131775   4.398   0.935   6.970 -0.6953  0.3845 -0.9023
 6772SOL    HW231776   4.281   0.850   7.014 -0.7309  1.4304 -0.3429
 6773SOL     OW31777   1.994   0.209  14.768 -0.1193  0.2453  0.1933
 6773SOL    HW131778   1.992   0.237  14.859 -0.3968  1.7933 -0.2978
 6773SOL    HW231779   1.925   0.142  14.768  1.3654 -1.2754  1.6397
 6774SOL     OW31780   4.006   0.980   9.590  0.3133 -0.2117  0.5317
 6774SOL    HW131781   3.949   1.044   9.632 -0.8566  0.1912 -1.6408
 6774SOL    HW231782   4.069   1.031   9.540 -3.4031  3.8570 -0.0459
 6775SOL     OW31783   0.412   4.184   2.937 -0.1144  0.5103  0.2971
 6775SOL    HW131784   0.486   4.135   2.900 -0.4866  0.4745 -0.4018
 6775SOL    HW231785   0.446   4.272   2.927  2.5929 -0.3883  1.5099
 6776SOL     OW31786   1.938   2.028   6.914 -0.3509  0.5722  0.4351
 6776SOL    HW131787   2.031   2.035   6.893 -0.5044 -0.7272 -0.6361
 6776SOL    HW231788   1.906   1.965   6.849  0.4448 -0.2825  0.8704
 6777SOL     OW31789   0.817   0.425   4.552 -0.4562  0.4905 -0.2017
 6777SOL    HW131790   0.797   0.391   4.465 -2.0025  1.6162 -0.2845
 6777SOL    HW231791   0.785   0.358   4.611 -0.6187  0.5882 -0.1799
 6778SOL     OW31792   4.695   1.301   8.052 -0.0720  0.4836 -0.7249
 6778SOL    HW131793   4.707   1.251   8.133  0.3934 -0.0210 -1.1047
 6778SOL    HW231794   0.015   1.386   8.073  1.8975 -0.4451 -0.6977
 6779SOL     OW31795   4.175   2.505   5.145  0.1606 -0.7868  0.2943
 6779SOL    HW131796   4.090   2.468   5.169 -1.2086  1.0003 -1.7937
 6779SOL    HW231797   4.222   2.428   5.114  1.1049  0.1260 -0.5665
 6780SOL     OW31798   2.240   0.768   5.554 -0.0673  0.5494 -0.0554
 6780SOL    HW131799   2.177   0.840   5.555 -3.3239 -2.2453 -1.4721
 6780SOL    HW231800   2.307   0.803   5.495 -0.7979  0.1673 -1.1291
 6781SOL     OW31801   4.524   3.533  14.511 -0.4081 -0.0184  0.3703
 6781SOL    HW131802   4.554   3.565  14.596  0.2339 -0.5735  0.3569
 6781SOL    HW231803   4.551   3.597  14.445 -1.9130  0.0334 -0.1813
 6782SOL     OW31804   0.652   2.514  12.691  0.4788 -0.8133 -0.1216
 6782SOL    HW131805   0.611   2.435  12.726  0.4349 -0.4738  0.5771
 6782SOL    HW231806   0.579   2.566  12.657 -0.0542 -0.1170  2.1397
 6783SOL     OW31807   0.006   0.560   7.703  0.2634  0.1248  0.9540
 6783SOL    HW131808   0.020   0.639   7.755 -0.5228  0.7140  0.2745
 6783SOL    HW231809   4.656   0.521   7.755 -1.0295  2.4190  0.9422
 6784SOL     OW31810   1.973   1.971   9.941  0.1593  1.0567  0.1047
 6784SOL    HW131811   1.961   1.902  10.006  0.2101  0.2425 -0.7554
 6784SOL    HW231812   1.907   2.031   9.975  1.0392  1.3351  1.3499
 6785SOL     OW31813   0.231   1.409   8.542 -0.3146 -0.4300  0.1962
 6785SOL    HW131814   0.147   1.423   8.499 -0.0914 -0.9556 -0.4101
 6785SOL    HW231815   0.295   1.470   8.503 -1.5870 -1.1719 -3.1156
 6786SOL     OW31816   4.284   0.583   3.416  0.4151 -0.6566 -0.0440
 6786SOL    HW131817   4.345   0.513   3.440 -0.9400 -1.9123 -0.2400
 6786SOL    HW231818   4.315   0.612   3.331  3.1969  0.3420  1.3422
 6787SOL     OW31819   3.463   0.465   5.726  0.6050  0.1340  0.7610
 6787SOL    HW131820   3.458   0.382   5.773  0.4804  0.0839  0.6582
 6787SOL    HW231821   3.497   0.430   5.644 -2.2639 -1.4040  0.2132
 6788SOL     OW31822   3.514   1.694  11.495 -0.0957 -0.3320 -0.2946
 6788SOL    HW131823   3.601   1.661  11.473  0.3562  1.0218 -0.5044
 6788SOL    HW231824   3.471   1.722  11.414  0.9206  0.9050 -0.4063
 6789SOL     OW31825   3.786   1.883   7.823  0.2029  0.7216  0.1847
 6789SOL    HW131826   3.785   1.814   7.757 -0.0995 -0.2787  1.2359
 6789SOL    HW231827   3.792   1.841   7.909  0.7697  3.1778  1.3422
 6790SOL     OW31828   3.779   2.404   0.435 -0.0982  0.4216  0.9181
 6790SOL    HW131829   3.813   2.334   0.380  0.3119 -0.0119  1.7230
 6790SOL    HW231830   3.738   2.347   0.499  0.5708 -0.8547  0.2086
 6791SOL     OW31831   4.285   4.362  15.202  0.2819 -0.1290 -0.0877
 6791SOL    HW131832   4.320   4.280  15.237 -0.4229  0.2545  1.5401
 6791SOL    HW231833   4.251   4.335  15.117 -1.4243  1.4233  0.1037
 6792SOL     OW31834   4.142   1.702  11.553  0.2317  0.1387  0.0406
 6792SOL    HW131835   4.188   1.698  11.637  1.5627 -0.1033 -0.7005
 6792SOL    HW231836   4.117   1.609  11.553 -1.1015  0.5032  2.7170
 6793SOL     OW31837   3.108   2.421   1.468  0.2576 -0.0855  0.2551
 6793SOL    HW131838   3.190   2.430   1.517  1.0597 -2.2013 -0.7434
 6793SOL    HW231839   3.076   2.505   1.501 -0.0930 -0.5773  1.1725
 6794SOL     OW31840   2.972   3.175   6.199 -0.4800  0.2192  0.0420
 6794SOL    HW131841   2.947   3.121   6.275 -1.9504  0.2184 -0.4452
 6794SOL    HW231842   2.974   3.255   6.251  1.2558  1.1852 -1.5297
 6795SOL     OW31843   3.318   4.411   1.978  0.5459  0.0164  0.3022
 6795SOL    HW131844   3.328   4.498   2.017 -1.9235 -0.4053  1.9108
 6795SOL    HW231845   3.407   4.386   1.952  0.7040  1.6695 -0.7081
 6796SOL     OW31846   2.281   0.466  10.615 -0.0174  0.7792  0.2578
 6796SOL    HW131847   2.335   0.387  10.620 -1.9432 -0.4745  1.6380
 6796SOL    HW231848   2.343   0.539  10.618  1.3340 -0.3569  0.2418
 6797SOL     OW31849   0.980   3.834  10.536 -0.9346 -0.3714  0.0035
 6797SOL    HW131850   0.942   3.836  10.624  1.1995 -0.7469  0.9437
 6797SOL    HW231851   0.903   3.828  10.480 -1.6112  0.3689  0.8450
 6798SOL     OW31852   0.310   0.812   0.796 -0.0156  0.3441  0.5771
 6798SOL    HW131853   0.345   0.838   0.711 -0.7193 -1.3271 -0.2292
 6798SOL    HW231854   0.391   0.794   0.844 -0.9257 -0.5275  1.7957
 6799SOL     OW31855   2.825   2.145   4.414 -0.2401 -0.2146 -0.0338
 6799SOL    HW131856   2.750   2.119   4.468  0.2005 -2.7521 -0.6383
 6799SOL    HW231857   2.804   2.116   4.325  1.3553  0.4841 -0.6285
 6800SOL     OW31858   3.698   1.378   8.893 -0.0622  0.4391 -0.1445
 6800SOL    HW131859   3.631   1.440   8.924 -0.3540 -0.7194  1.4967
 6800SOL    HW231860   3.775   1.434   8.906  0.2353 -0.6474  2.7658
 6801SOL     OW31861   3.410   1.663   5.532  0.4772 -0.0797  0.4101
 6801SOL    HW131862   3.408   1.659   5.436 -3.3686 -0.0438  0.4863
 6801SOL    HW231863   3.434   1.755   5.542 -0.6442 -0.0739  2.8449
 6802SOL     OW31864   0.069   0.472   5.096  0.2664 -0.3504 -0.3360
 6802SOL    HW131865   0.033   0.545   5.145 -1.1085 -0.8513 -0.6089
 6802SOL    HW231866   0.027   0.398   5.140  0.9036 -0.6703 -0.2639
 6803SOL     OW31867   2.996   0.364  15.754 -0.8741  0.0911 -0.0265
 6803SOL    HW131868   3.006   0.416  15.834 -0.3406 -2.0551  1.2954
 6803SOL    HW231869   2.955   0.427  15.695  1.1302  1.5258  0.0882
 6804SOL     OW31870   3.647   1.552   8.146  1.0396  0.0493  0.7483
 6804SOL    HW131871   3.552   1.555   8.131  0.9908 -0.7492  0.8758
 6804SOL    HW231872   3.687   1.527   8.062  1.1735  0.3480  0.7221
 6805SOL     OW31873   0.244   1.208  17.495  0.1758 -0.0248 -0.0722
 6805SOL    HW131874   0.203   1.176  17.415  1.2775 -2.6909  0.4184
 6805SOL    HW231875   0.334   1.216  17.464 -0.2560  0.0444 -1.2979
 6806SOL     OW31876   1.074   1.147   3.226  0.0705  0.0839  0.6002
 6806SOL    HW131877   0.982   1.140   3.198 -0.1091  1.3504  0.8600
 6806SOL    HW231878   1.113   1.067   3.191  1.4337  1.1694 -0.3265
 6807SOL     OW31879   0.155   4.017  11.216  0.3644 -0.5266  0.3408
 6807SOL    HW131880   0.176   3.951  11.149 -0.7973 -1.7220  1.1643
 6807SOL    HW231881   0.183   4.099  11.176  0.3117 -1.9727 -2.7031
 6808SOL     OW31882   1.982   3.266   9.020  0.3525 -0.1732  0.0515
 6808SOL    HW131883   1.980   3.180   8.979 -2.9447 -0.7172  1.3602
 6808SOL    HW231884   1.977   3.332   8.951 -1.0021  0.6373  0.9305
 6809SOL     OW31885   3.611   2.129   7.916 -0.6131  0.0615 -0.3428
 6809SOL    HW131886   3.634   2.127   8.009  2.6707 -1.8350 -1.1598
 6809SOL    HW231887   3.655   2.048   7.888 -2.5862 -0.5711 -1.6518
 6810SOL     OW31888   2.732   0.259  11.707 -0.0039  0.7301 -0.0392
 6810SOL    HW131889   2.776   0.279  11.789  0.5207 -0.1617 -0.1133
 6810SOL    HW231890   2.680   0.187  11.742  1.9984  0.0885  1.5940
 6811SOL     OW31891   3.068   1.848   0.536  0.6489  0.1413 -0.0615
 6811SOL    HW131892   3.037   1.765   0.500 -1.6269  1.1545 -0.4211
 6811SOL    HW231893   3.161   1.833   0.521  0.1723 -2.6434 -0.2705
 6812SOL     OW31894   0.245   3.546   7.870 -0.0382  0.0803  0.0372
 6812SOL    HW131895   0.181   3.511   7.932 -0.3351  2.1501  0.9125
 6812SOL    HW231896   0.187   3.537   7.794 -2.8137 -4.5259  2.7533
 6813SOL     OW31897   0.557   2.514  13.063 -0.2005  0.1102 -0.5091
 6813SOL    HW131898   0.610   2.446  13.022 -0.5097 -0.7218  0.4754
 6813SOL    HW231899   0.464   2.508  13.041  0.1737 -0.8395 -1.8769
 6814SOL     OW31900   0.533   1.733  10.484  0.5182 -0.4815 -0.0899
 6814SOL    HW131901   0.610   1.703  10.437  0.2041 -0.5290 -0.5750
 6814SOL    HW231902   0.578   1.804  10.529  1.4777 -1.1239 -0.0439
 6815SOL     OW31903   1.535   1.174   2.338 -0.1158  0.6306  0.1391
 6815SOL    HW131904   1.563   1.088   2.371 -1.2187 -0.6507 -2.2135
 6815SOL    HW231905   1.590   1.177   2.260 -3.0329 -0.9103 -1.9722
 6816SOL     OW31906   2.422   3.559  17.254  0.2111  0.2042 -0.4696
 6816SOL    HW131907   2.343   3.614  17.259 -0.1236 -0.1648 -1.7730
 6816SOL    HW231908   2.396   3.479  17.300 -1.4087 -0.6820 -2.9345
 6817SOL     OW31909   1.075   3.083   1.512  0.3415  0.2075 -0.4091
 6817SOL    HW131910   1.035   3.137   1.444 -0.6734 -0.7810 -0.5863
 6817SOL    HW231911   1.140   3.149   1.535 -1.5510  1.0385  2.6035
 6818SOL     OW31912   4.567   3.033   4.079  0.3888  0.1188  0.0130
 6818SOL    HW131913   4.535   2.970   4.143  1.2319  0.4039  0.7139
 6818SOL    HW231914   4.494   3.058   4.023  2.0049  2.1592 -1.1933
 6819SOL     OW31915   4.215   1.475   7.030 -0.2507  0.4898 -0.3384
 6819SOL    HW131916   4.304   1.441   7.028  0.2319  1.6666  1.0581
 6819SOL    HW231917   4.177   1.411   6.970 -1.8612  0.0826  1.1144
 6820SOL     OW31918   3.688   0.828  16.918  0.0283  0.1104 -0.5142
 6820SOL    HW131919   3.600   0.822  16.879  0.2489  0.8302 -1.1200
 6820SOL    HW231920   3.679   0.921  16.940 -0.9027  0.3460 -1.8400
 6821SOL     OW31921   2.148   2.333   8.580  0.2300 -0.7060 -0.1941
 6821SOL    HW131922   2.079   2.385   8.621  0.8027 -0.0036 -0.1298
 6821SOL    HW231923   2.100   2.253   8.560  1.6965 -1.4103 -0.9199
 6822SOL     OW31924   3.238   0.757   6.295  0.2002 -0.2144 -0.2067
 6822SOL    HW131925   3.226   0.800   6.210  0.5542  0.0641 -0.1185
 6822SOL    HW231926   3.296   0.692   6.254  0.2650 -0.0542 -0.3695
 6823SOL     OW31927   3.309   1.545   4.763 -0.5086  0.4800 -0.2006
 6823SOL    HW131928   3.280   1.468   4.715 -0.0908  1.1669 -1.5629
 6823SOL    HW231929   3.355   1.509   4.838  0.0894  0.1083 -0.7491
 6824SOL     OW31930   2.778   1.614   6.887  0.4606 -0.9768  0.1750
 6824SOL    HW131931   2.777   1.633   6.793 -0.7146 -0.1662  0.3419
 6824SOL    HW231932   2.713   1.544   6.888 -1.9394  1.2390  2.3835
 6825SOL     OW31933   1.883   4.347   2.941  0.0075 -0.3027  0.0989
 6825SOL    HW131934   1.841   4.425   2.905 -1.0263 -0.7805  0.2700
 6825SOL    HW231935   1.976   4.372   2.940  0.0012 -0.2603  0.4879
 6826SOL     OW31936   1.595   4.274   0.299 -0.3304 -0.0299  0.2822
 6826SOL    HW131937   1.510   4.292   0.338 -0.8665  0.7043 -1.2150
 6826SOL    HW231938   1.625   4.196   0.345 -2.9897 -1.8364 -1.0695
 6827SOL     OW31939   3.470   0.904   3.819 -0.2403  0.1907 -0.3548
 6827SOL    HW131940   3.526   0.873   3.890 -1.3774  1.2448  0.9891
 6827SOL    HW231941   3.513   0.874   3.739  1.4410 -1.3447  1.1233
 6828SOL     OW31942   3.975   1.964   4.890  0.0764  0.6646 -0.6169
 6828SOL    HW131943   4.041   1.899   4.869 -1.5552 -0.6885 -1.5617
 6828SOL    HW231944   3.890   1.921   4.877  1.3256 -2.2844  1.1695
 6829SOL     OW31945   0.010   4.575   5.067  0.3763 -0.3726 -0.1412
 6829SOL    HW131946   4.660   4.599   5.127  0.3022 -0.1071 -0.3345
 6829SOL    HW231947   4.678   4.593   4.990  0.9856 -0.2872 -0.5351
 6830SOL     OW31948   1.956   0.618  13.063 -0.3268 -0.1806  0.1113
 6830SOL    HW131949   1.906   0.563  13.002  1.8988 -2.5650  0.4699
 6830SOL    HW231950   2.034   0.566  13.084 -0.1685 -0.0579 -0.1634
 6831SOL     OW31951   2.693   0.866   6.391 -0.1350 -0.1981  0.0134
 6831SOL    HW131952   2.636   0.832   6.460 -0.9787  2.6026  0.6886
 6831SOL    HW231953   2.628   0.893   6.325 -2.0681 -1.2352  1.4823
 6832SOL     OW31954   3.300   1.886  16.902  0.1665 -0.1470 -0.2843
 6832SOL    HW131955   3.216   1.852  16.932  1.0505 -0.9897  1.2347
 6832SOL    HW231956   3.277   1.979  16.891  0.9814  0.3460  2.2576
 6833SOL     OW31957   4.026   0.951   4.516  0.4455  0.1574 -0.7603
 6833SOL    HW131958   4.020   1.045   4.498 -0.7039 -0.0258 -1.3180
 6833SOL    HW231959   3.940   0.927   4.482 -0.2594  0.9827  0.4307
 6834SOL     OW31960   1.773   1.988  14.246  0.1253  0.2272  0.3361
 6834SOL    HW131961   1.842   1.939  14.200  0.2600 -1.8196  2.6964
 6834SOL    HW231962   1.824   2.008  14.324 -0.7035 -1.2168  1.2395
 6835SOL     OW31963   2.119   0.881   6.320  0.2799 -0.5950 -0.2380
 6835SOL    HW131964   2.043   0.826   6.339  0.6145 -0.5165  1.3934
 6835SOL    HW231965   2.153   0.891   6.409 -0.2094 -1.8956  0.0969
 6836SOL     OW31966   2.285   1.753   9.260 -0.4495  0.5183 -0.1305
 6836SOL    HW131967   2.355   1.689   9.263 -2.0952 -1.4012 -2.8097
 6836SOL    HW231968   2.225   1.707   9.320  0.1473 -1.8864 -1.4095
 6837SOL     OW31969   0.530   2.603   7.661  0.3809  0.0790  0.5999
 6837SOL    HW131970   0.521   2.590   7.566  3.7649  0.2595  0.2304
 6837SOL    HW231971   0.451   2.558   7.690 -0.8344  0.7808 -1.5868
 6838SOL     OW31972   4.181   2.169   4.356  0.2148  0.2423  0.2699
 6838SOL    HW131973   4.198   2.216   4.274 -1.5800 -0.9227 -0.7659
 6838SOL    HW231974   4.236   2.223   4.413  2.4026 -0.9986 -0.7149
 6839SOL     OW31975   0.810   3.295   7.675 -0.1926  0.6126 -0.0376
 6839SOL    HW131976   0.861   3.227   7.632  0.1601  0.0612  1.2366
 6839SOL    HW231977   0.738   3.244   7.713  1.7009 -0.3160  2.3802
 6840SOL     OW31978   0.740   3.658   4.301 -0.3162  0.4712 -0.0978
 6840SOL    HW131979   0.765   3.733   4.355  1.4303  0.3252 -0.7331
 6840SOL    HW231980   0.646   3.654   4.321 -0.2336  0.0021  0.2026
 6841SOL     OW31981   3.332   3.624   9.093 -0.1963  0.4515 -0.3527
 6841SOL    HW131982   3.385   3.545   9.087 -3.1205 -1.4836 -1.1779
 6841SOL    HW231983   3.378   3.688   9.038 -0.1666  1.2502  0.6017
 6842SOL     OW31984   3.721   1.206   2.062 -0.3254  0.3163 -0.6495
 6842SOL    HW131985   3.699   1.152   1.986  0.2931 -0.2218 -0.4525
 6842SOL    HW231986   3.781   1.268   2.021  1.3532 -1.0690 -0.3100
 6843SOL     OW31987   1.846   4.439   6.643  0.2480  0.4572 -0.6686
 6843SOL    HW131988   1.935   4.403   6.636 -0.2120 -0.8011 -0.0542
 6843SOL    HW231989   1.811   4.390   6.717 -0.4717 -3.0204 -3.3066
 6844SOL     OW31990   2.629   0.408   7.248 -0.1229  0.1698  0.0808
 6844SOL    HW131991   2.553   0.371   7.202 -0.2610  0.7782 -0.1742
 6844SOL    HW231992   2.651   0.333   7.303  0.0685  0.5657  0.5465
 6845SOL     OW31993   4.603   1.759   8.579 -0.3650  0.5271  0.2288
 6845SOL    HW131994   4.668   1.776   8.511  1.3141  0.5186  1.8308
 6845SOL    HW231995   4.522   1.785   8.534 -1.0840 -2.8624 -0.4495
 6846SOL     OW31996   0.247   3.336   3.153 -0.0445 -0.1211 -0.2307
 6846SOL    HW131997   0.181   3.383   3.203  1.3318  1.1165  0.4127
 6846SOL    HW231998   0.194   3.303   3.081 -0.3710  1.4037 -0.6830
 6847SOL     OW31999   2.709   2.931   5.898 -0.4204  0.2231 -0.0841
 6847SOL    HW132000   2.780   2.987   5.929  0.8627 -0.2078 -2.2141
 6847SOL    HW232001   2.729   2.874   5.972  1.2727  2.7912  1.4297
 6848SOL     OW32002   3.576   4.642   6.468  0.2935  0.3589  0.1638
 6848SOL    HW132003   3.560   4.559   6.424 -0.8767 -0.8625  2.8797
 6848SOL    HW232004   3.489   4.664   6.500  0.2598 -1.2617  1.1363
 6849SOL     OW32005   2.177   0.827  17.199 -0.5690 -0.3490 -0.1396
 6849SOL    HW132006   2.217   0.741  17.211  1.1066  0.4261 -0.2614
 6849SOL    HW232007   2.090   0.815  17.239 -0.6668  1.1639  0.0865
 6850SOL     OW32008   3.535   4.459  11.131 -0.3645 -0.5271  0.0535
 6850SOL    HW132009   3.492   4.443  11.215  0.7100  0.0153  0.7133
 6850SOL    HW232010   3.593   4.382  11.126  2.2661  1.5391 -1.0571
 6851SOL     OW32011   4.708   1.736   4.760  0.1450 -0.5554  0.1345
 6851SOL    HW132012   0.044   1.771   4.829  1.2851  2.0026 -2.1020
 6851SOL    HW232013   4.647   1.688   4.818  0.0630 -0.9298 -0.2581
 6852SOL     OW32014   1.757   3.696   2.677 -0.0331  0.0567  0.8575
 6852SOL    HW132015   1.697   3.709   2.604 -1.1054 -1.4207  1.4699
 6852SOL    HW232016   1.689   3.705   2.744 -0.2049 -0.5004  0.7619
 6853SOL     OW32017   1.623   0.722   8.257 -0.1979 -0.0501 -0.0016
 6853SOL    HW132018   1.712   0.703   8.287 -0.5000  2.8190  2.7089
 6853SOL    HW232019   1.573   0.745   8.336  2.3151  0.0906  1.5388
 6854SOL     OW32020   2.157   2.529   4.161 -0.3091 -0.4251  0.6271
 6854SOL    HW132021   2.157   2.440   4.196 -1.9461 -0.7606 -0.1963
 6854SOL    HW232022   2.132   2.571   4.243 -0.7747 -0.9957  0.7740
 6855SOL     OW32023   3.165   4.344   9.712  0.5639 -0.7089 -0.4291
 6855SOL    HW132024   3.205   4.268   9.671 -0.0024  0.6908 -3.5517
 6855SOL    HW232025   3.148   4.321   9.804 -0.8351  1.7965 -0.0423
 6856SOL     OW32026   1.029   1.592  13.818  0.1304 -0.2208  0.0916
 6856SOL    HW132027   1.014   1.567  13.910  0.8986 -1.2765 -0.0660
 6856SOL    HW232028   0.957   1.544  13.775 -0.4645  0.5236  0.2613
 6857SOL     OW32029   1.783   0.081   0.164 -0.2056  0.4068  0.6324
 6857SOL    HW132030   1.822   0.088   0.251  0.8796  1.2209  0.0898
 6857SOL    HW232031   1.739   4.717   0.172 -1.4199  0.7943 -2.0802
 6858SOL     OW32032   2.132   4.177   8.403 -0.0892 -0.1117 -0.2666
 6858SOL    HW132033   2.141   4.153   8.310 -0.9985 -0.3165 -0.2974
 6858SOL    HW232034   2.124   4.271   8.388 -3.7615 -0.5833 -1.2792
 6859SOL     OW32035   3.719   3.085   9.996 -0.1401  0.2236 -0.0286
 6859SOL    HW132036   3.657   3.125  10.056 -1.8931 -0.8621 -1.0984
 6859SOL    HW232037   3.772   3.160   9.970 -1.5472  0.4827 -2.1347
 6860SOL     OW32038   0.808   1.509  11.662 -0.5645 -0.0950  0.1941
 6860SOL    HW132039   0.872   1.459  11.611 -2.2753 -2.7063  0.6130
 6860SOL    HW232040   0.825   1.467  11.745  0.2218 -0.3954 -0.1240
 6861SOL     OW32041   4.162   4.552  14.216 -0.0303 -0.2521  0.2322
 6861SOL    HW132042   4.186   4.574  14.307 -3.2838  0.7849  0.8280
 6861SOL    HW232043   4.130   4.463  14.229 -4.3523  1.3031  0.0143
 6862SOL     OW32044   3.637   2.478   6.177 -1.1894 -0.2203  0.2381
 6862SOL    HW132045   3.590   2.473   6.260 -0.1805 -3.9634  0.5861
 6862SOL    HW232046   3.681   2.561   6.190 -0.4005 -0.5275 -0.4741
 6863SOL     OW32047   3.942   4.613   9.028  0.0640 -0.4063  0.3300
 6863SOL    HW132048   3.983   4.604   9.115  1.1942  1.0207 -0.0372
 6863SOL    HW232049   4.018   4.626   8.970 -0.3057 -0.7347 -0.2237
 6864SOL     OW32050   4.394   1.184   8.695 -0.3326 -0.0948  0.4087
 6864SOL    HW132051   4.354   1.173   8.609  0.0027 -1.0617  0.3755
 6864SOL    HW232052   4.328   1.233   8.745 -0.9495  0.1909 -0.6914
 6865SOL     OW32053   3.404   3.005   3.299  0.0436  0.3446  0.3109
 6865SOL    HW132054   3.334   3.053   3.344 -0.0789  0.1430  0.3352
 6865SOL    HW232055   3.454   3.073   3.254  1.3670 -0.7302  0.1797
 6866SOL     OW32056   2.589   2.502  12.989 -0.1067  0.1690 -0.2744
 6866SOL    HW132057   2.513   2.485  13.045 -0.4824  1.3007 -0.4320
 6866SOL    HW232058   2.619   2.585  13.028  2.0898 -0.2715 -1.0247
 6867SOL     OW32059   4.158   3.890   9.397 -0.1665  0.0763  0.0994
 6867SOL    HW132060   4.216   3.918   9.327  2.9148 -0.9221  2.2438
 6867SOL    HW232061   4.179   3.797   9.405 -0.6498 -0.1196 -1.0189
 6868SOL     OW32062   2.854   4.565   3.389 -0.2490 -0.5849 -0.6644
 6868SOL    HW132063   2.896   4.535   3.308  1.4082 -1.8094  0.6357
 6868SOL    HW232064   2.777   4.509   3.376 -0.6512  0.3871 -2.4161
 6869SOL     OW32065   3.433   0.890   6.518  0.0463  0.0508 -0.0121
 6869SOL    HW132066   3.346   0.883   6.556  0.5577  1.3444  1.3913
 6869SOL    HW232067   3.412   0.879   6.425  3.5586 -1.1044 -0.6907
 6870SOL     OW32068   2.380   2.295  17.439 -0.7915  0.0151  0.1046
 6870SOL    HW132069   2.463   2.321  17.477 -0.2326 -1.1758 -0.2821
 6870SOL    HW232070   2.397   2.311  17.346  0.5043  1.7094  0.6464
 6871SOL     OW32071   0.766   2.638   4.778  0.6596  0.2963 -0.1365
 6871SOL    HW132072   0.684   2.592   4.758  2.0024 -1.4943 -1.5062
 6871SOL    HW232073   0.791   2.660   4.688  1.6404 -0.2035  0.0124
 6872SOL     OW32074   0.450   0.930   9.336  0.2192  0.0587  0.5268
 6872SOL    HW132075   0.433   0.839   9.359 -0.4656  0.4948  1.7091
 6872SOL    HW232076   0.366   0.974   9.349 -0.3464 -1.5036  2.1940
 6873SOL     OW32077   3.973   4.495   2.655 -0.0487 -0.1478  0.1695
 6873SOL    HW132078   4.001   4.578   2.694 -2.4399  1.7386 -2.1472
 6873SOL    HW232079   4.057   4.456   2.632 -1.2218 -0.9689 -2.7415
 6874SOL     OW32080   3.597   3.779   2.085 -0.1903  0.3909  0.5244
 6874SOL    HW132081   3.506   3.771   2.056  0.3711  0.9821 -1.3779
 6874SOL    HW232082   3.627   3.861   2.046 -1.1952 -0.6371 -2.3968
 6875SOL     OW32083   4.716   4.607   3.553 -0.3657  0.3919 -0.3150
 6875SOL    HW132084   4.649   4.649   3.500 -0.9450  0.6344  0.5989
 6875SOL    HW232085   0.017   4.684   3.605  1.2610  0.8670 -1.6796
 6876SOL     OW32086   1.383   0.654  12.388 -0.4140  0.7118 -0.0843
 6876SOL    HW132087   1.395   0.721  12.455  1.4954  0.4372 -0.1375
 6876SOL    HW232088   1.455   0.599  12.419 -0.3663  0.9791  0.2856
 6877SOL     OW32089   1.197   1.725  17.301 -0.1467  0.0332 -0.3830
 6877SOL    HW132090   1.224   1.740  17.210  0.8036  0.6856  0.0083
 6877SOL    HW232091   1.114   1.678  17.292 -0.1743 -0.2162  1.2859
 6878SOL     OW32092   4.365   0.091  13.020 -0.2050  0.6629  0.6915
 6878SOL    HW132093   4.351   0.184  13.000 -1.4730  0.6846  1.6572
 6878SOL    HW232094   4.439   0.088  13.080  0.4176  1.6334 -0.0224
 6879SOL     OW32095   0.593   0.701  15.901 -0.2933  0.3099 -0.0003
 6879SOL    HW132096   0.665   0.764  15.902  0.1136 -0.1887  2.8273
 6879SOL    HW232097   0.613   0.653  15.821  0.5288  0.3644  0.1721
 6880SOL     OW32098   2.461   3.692   7.106  0.1377 -0.0148  0.2124
 6880SOL    HW132099   2.492   3.602   7.100  1.4746  0.3994  0.7449
 6880SOL    HW232100   2.367   3.683   7.090  0.2786  2.4848 -1.9346
 6881SOL     OW32101   3.105   0.059   7.612  0.6167 -0.0628  0.3691
 6881SOL    HW132102   3.179   0.075   7.670 -0.0913  1.4889  0.8492
 6881SOL    HW232103   3.040   0.017   7.668  1.3730 -0.9693  0.5672
 6882SOL     OW32104   4.417   1.367   1.208  0.3424  0.6157  0.4794
 6882SOL    HW132105   4.418   1.427   1.134  2.3519  1.3821  1.1431
 6882SOL    HW232106   4.415   1.282   1.163  0.3468  0.7972  0.1399
 6883SOL     OW32107   2.830   1.044   8.358  0.3959 -0.5026 -0.4174
 6883SOL    HW132108   2.882   0.971   8.391 -3.0367 -1.9874  1.7604
 6883SOL    HW232109   2.900   1.106   8.338 -0.2497  0.0403 -1.0032
 6884SOL     OW32110   0.451   3.995  16.930  0.7713 -0.0045  0.4721
 6884SOL    HW132111   0.544   4.017  16.933  0.1237  2.7261  1.5401
 6884SOL    HW232112   0.439   4.034  16.843  2.8575 -0.7086 -0.1366
 6885SOL     OW32113   2.517   0.208  15.306 -0.8181 -0.4322  0.3875
 6885SOL    HW132114   2.480   0.221  15.219  2.0590 -3.5696 -1.2954
 6885SOL    HW232115   2.455   0.145  15.344  0.1966 -0.9755  1.1298
 6886SOL     OW32116   4.668   2.888  11.396  0.3344 -0.2494  0.4626
 6886SOL    HW132117   4.695   2.973  11.362  0.3357 -0.2864  0.3722
 6886SOL    HW232118   4.679   2.829  11.323  1.2860 -2.4518  2.3908
 6887SOL     OW32119   3.574   0.097  12.735  0.4849 -0.2322  0.4547
 6887SOL    HW132120   3.564   0.168  12.798  0.8531  0.2797 -0.0659
 6887SOL    HW232121   3.641   0.041  12.775 -0.3815 -0.5888  1.3898
 6888SOL     OW32122   0.541   0.284   7.955 -0.4866 -0.5030 -0.3739
 6888SOL    HW132123   0.458   0.250   7.988 -1.0705 -0.3190 -1.6577
 6888SOL    HW232124   0.546   0.248   7.866 -2.4793 -0.1348 -0.6302
 6889SOL     OW32125   2.106   3.504   2.904  0.3308  0.4383 -0.6487
 6889SOL    HW132126   2.172   3.572   2.892  0.8349  0.0331 -0.1779
 6889SOL    HW232127   2.082   3.522   2.995  1.3117 -0.9142 -0.1190
 6890SOL     OW32128   2.555   2.563   7.754 -0.3432 -0.0187  0.5667
 6890SOL    HW132129   2.513   2.513   7.684 -1.7756  0.9785  0.7165
 6890SOL    HW232130   2.639   2.520   7.768  0.0577  0.6688  0.2741
 6891SOL     OW32131   4.091   4.582   9.241  0.2437  0.1366  0.3062
 6891SOL    HW132132   4.099   4.509   9.302  1.0612 -0.4898 -0.5599
 6891SOL    HW232133   4.153   4.638   9.288  1.1081 -2.4146  2.2142
 6892SOL     OW32134   0.492   2.326   4.995 -0.2655 -0.1807  0.1217
 6892SOL    HW132135   0.567   2.271   5.018 -2.1857 -1.6457  2.8935
 6892SOL    HW232136   0.476   2.366   5.081  0.1730 -1.1985  0.6657
 6893SOL     OW32137   1.425   0.936   4.249  0.0077 -0.2931  0.2614
 6893SOL    HW132138   1.350   0.933   4.309 -0.6050 -0.4644 -0.5164
 6893SOL    HW232139   1.436   1.029   4.230 -1.1152 -0.1724  0.2114
 6894SOL     OW32140   2.754   0.936   8.895 -0.2016  0.2816  0.1262
 6894SOL    HW132141   2.715   0.850   8.879  0.7069 -0.2858  0.9555
 6894SOL    HW232142   2.734   0.974   8.809 -2.7377  2.5981  1.7549
 6895SOL     OW32143   2.249   2.916   5.292  0.2375  0.3301  0.6666
 6895SOL    HW132144   2.264   2.833   5.336  3.6886  0.1044 -0.9524
 6895SOL    HW232145   2.239   2.977   5.365  0.9606  0.5846  0.5539
 6896SOL     OW32146   0.201   2.687   2.526  0.0092 -0.1700  0.3566
 6896SOL    HW132147   0.158   2.743   2.462 -0.0355 -0.4152  0.1690
 6896SOL    HW232148   0.285   2.670   2.484 -0.8684  1.1415 -1.9281
 6897SOL     OW32149   1.491   3.532   5.133 -0.0963  0.2142 -0.5676
 6897SOL    HW132150   1.571   3.480   5.131 -0.1289  0.0877  1.1215
 6897SOL    HW232151   1.511   3.581   5.213 -0.8822  0.4811 -0.5257
 6898SOL     OW32152   2.342   1.422   5.691 -0.2093 -0.2545  0.1390
 6898SOL    HW132153   2.431   1.421   5.726 -0.7160  0.4020  1.4578
 6898SOL    HW232154   2.359   1.356   5.623 -1.3531  0.0854 -0.4861
 6899SOL     OW32155   0.666   0.061   3.029 -0.2425  0.0145 -0.1880
 6899SOL    HW132156   0.672   0.102   3.116 -1.5527  0.0516 -0.1129
 6899SOL    HW232157   0.676   4.689   3.053  1.0442  0.1657 -0.1067
 6900SOL     OW32158   0.469   1.717   7.838 -0.4806 -0.8454 -0.1578
 6900SOL    HW132159   0.530   1.674   7.898  0.4516  2.0898  1.0001
 6900SOL    HW232160   0.392   1.660   7.841 -1.3267  0.3740  1.0960
 6901SOL     OW32161   3.882   4.657  11.031 -0.5529  0.1595 -0.7787
 6901SOL    HW132162   3.851   0.024  11.056  0.8416  0.6220 -0.6488
 6901SOL    HW232163   3.965   4.694  11.002 -1.6438  1.9290 -1.6387
 6902SOL     OW32164   1.577   2.971   3.149 -0.6062 -1.3963  0.4869
 6902SOL    HW132165   1.554   2.923   3.069  3.0019 -0.8429 -0.8760
 6902SOL    HW232166   1.532   2.919   3.216 -2.4666  0.2822  0.5358
 6903SOL     OW32167   1.797   2.312   0.875  0.4289 -0.1131 -0.0946
 6903SOL    HW132168   1.853   2.235   0.884 -0.9685 -1.0128  0.7891
 6903SOL    HW232169   1.796   2.357   0.960  1.6964 -0.9239  0.3475
 6904SOL     OW32170   0.065   0.474   8.154  0.1279  0.5419 -0.4128
 6904SOL    HW132171   0.110   0.552   8.122 -1.6284  1.9177  0.4353
 6904SOL    HW232172   0.077   0.478   8.249 -2.9139 -0.5651  0.0000
 6905SOL     OW32173   2.956   0.157   2.706 -0.7164  0.3850 -0.3135
 6905SOL    HW132174   2.962   0.071   2.665 -1.1900  0.7187 -1.1033
 6905SOL    HW232175   3.051   0.167   2.719 -0.3976 -0.9997 -1.5067
 6906SOL     OW32176   0.506   1.134  14.118  0.1020  0.0860 -0.0024
 6906SOL    HW132177   0.462   1.109  14.199 -1.8780 -0.5798 -1.2903
 6906SOL    HW232178   0.488   1.055  14.066 -1.3498  0.5781 -0.2405
 6907SOL     OW32179   2.053   2.093   3.176 -0.2552  0.1008  0.0317
 6907SOL    HW132180   2.107   2.154   3.227 -0.6187  0.7209 -0.3291
 6907SOL    HW232181   2.000   2.041   3.236  1.2656 -2.4127 -0.7897
 6908SOL     OW32182   3.953   4.683  11.869 -0.1177 -0.0048  0.4138
 6908SOL    HW132183   4.037   4.719  11.898 -0.2258  2.4315 -2.3487
 6908SOL    HW232184   3.893   4.715  11.936 -0.3494  0.9123 -0.2362
 6909SOL     OW32185   0.395   2.124   4.813 -0.1459 -0.1605 -0.0202
 6909SOL    HW132186   0.444   2.164   4.885 -0.8467 -0.4051  0.5924
 6909SOL    HW232187   0.307   2.160   4.819 -0.5857 -1.1592 -0.4367
 6910SOL     OW32188   1.153   4.471  13.673  0.2657 -0.1766 -0.3980
 6910SOL    HW132189   1.071   4.450  13.628 -0.2739  1.6509 -0.2672
 6910SOL    HW232190   1.135   4.456  13.765 -1.1517  1.1436 -0.4500
 6911SOL     OW32191   1.027   1.582  12.197  0.1507  0.0339  0.0029
 6911SOL    HW132192   1.044   1.676  12.192 -2.4306  0.5701  1.4287
 6911SOL    HW232193   1.083   1.561  12.272 -2.0374 -0.0981  1.5899
 6912SOL     OW32194   4.003   0.806   3.785  0.5082  0.4670  0.1592
 6912SOL    HW132195   4.036   0.835   3.870 -2.1147 -1.1452  1.7018
 6912SOL    HW232196   3.932   0.869   3.773 -0.2591 -1.0332 -3.1434
 6913SOL     OW32197   3.539   2.031   6.536  0.1159  0.1507  0.0464
 6913SOL    HW132198   3.602   2.034   6.464  1.0104  1.0807  0.8644
 6913SOL    HW232199   3.584   1.981   6.605  2.7384 -0.5785 -2.1975
 6914SOL     OW32200   0.562   3.230  14.866 -0.1294 -0.2223 -0.3594
 6914SOL    HW132201   0.589   3.182  14.787 -1.3846 -1.0211 -0.2993
 6914SOL    HW232202   0.500   3.293  14.829  1.8443  2.8605  1.5372
 6915SOL     OW32203   4.185   4.471  14.530 -0.5324  0.3529 -0.0021
 6915SOL    HW132204   4.120   4.517  14.584 -1.2323 -0.5621 -0.0674
 6915SOL    HW232205   4.244   4.458  14.604 -1.3458  3.2824  1.1891
 6916SOL     OW32206   2.582   1.552  11.780 -0.0111  0.3792  0.1727
 6916SOL    HW132207   2.498   1.574  11.740 -0.2733  0.8527  0.9646
 6916SOL    HW232208   2.640   1.621  11.750  0.6577 -0.2250  0.0737
 6917SOL     OW32209   1.239   4.679   8.515 -0.3697  0.5955 -0.1517
 6917SOL    HW132210   1.147   4.705   8.510 -0.1540  1.1403 -1.3774
 6917SOL    HW232211   1.280   0.027   8.462  1.4095 -0.7579 -0.5403
 6918SOL     OW32212   0.727   1.214   8.771 -0.1538 -0.0432 -0.5333
 6918SOL    HW132213   0.655   1.265   8.733  1.1559  2.2582  0.0285
 6918SOL    HW232214   0.679   1.137   8.801  1.0807 -1.1302 -1.3534
 6919SOL     OW32215   4.712   0.353   8.797 -0.0718  0.2399 -0.3785
 6919SOL    HW132216   4.720   0.444   8.770  0.9616  0.2289 -0.1150
 6919SOL    HW232217   4.627   0.353   8.841 -0.1170 -0.4456 -0.4626
 6920SOL     OW32218   4.282   0.898   5.340 -0.0254 -0.1574  0.3948
 6920SOL    HW132219   4.212   0.949   5.299  0.7790  1.1830  0.6866
 6920SOL    HW232220   4.227   0.864   5.411 -1.3231 -1.0591 -1.0344
 6921SOL     OW32221   1.518   4.275   7.089 -0.1123  0.5470  0.2264
 6921SOL    HW132222   1.458   4.308   7.021 -1.5064 -1.3598  0.5428
 6921SOL    HW232223   1.552   4.205   7.034 -2.7395 -0.9437  0.4773
 6922SOL     OW32224   0.672   4.051   3.483  0.0403 -0.3608  0.3705
 6922SOL    HW132225   0.598   4.081   3.536  0.7375 -0.6859  1.5283
 6922SOL    HW232226   0.744   4.091   3.532  1.3016 -4.4138  1.7923
 6923SOL     OW32227   2.571   3.876   6.883  0.0105 -0.3924  0.2072
 6923SOL    HW132228   2.481   3.905   6.869 -0.0380 -1.1427 -1.0746
 6923SOL    HW232229   2.576   3.857   6.976  2.6416  2.4206  0.6128
 6924SOL     OW32230   0.976   3.794  15.959 -0.5367  0.0328 -0.1767
 6924SOL    HW132231   0.924   3.788  15.879  0.9652 -1.3126 -1.0612
 6924SOL    HW232232   0.994   3.704  15.987  0.8947  0.4165  0.1180
 6925SOL     OW32233   1.260   0.629   0.915  0.0791  0.6052  0.2084
 6925SOL    HW132234   1.258   0.656   0.824 -4.0724  0.8847  0.3750
 6925SOL    HW232235   1.354   0.621   0.928 -0.1109 -1.2189  0.4468
 6926SOL     OW32236   2.412   1.724  13.018  0.2195  0.1999 -0.0173
 6926SOL    HW132237   2.381   1.774  13.093 -0.0263 -2.3356  1.5899
 6926SOL    HW232238   2.361   1.643  13.025 -1.2388  1.0852 -0.4028
 6927SOL     OW32239   1.975   0.698   2.626  0.3034  0.1706  0.4901
 6927SOL    HW132240   1.907   0.720   2.562 -0.2982  1.4707  1.5896
 6927SOL    HW232241   2.036   0.767   2.601  0.1033 -0.3183 -1.3994
 6928SOL     OW32242   1.404   0.417  13.795  0.3673  0.2000  0.1147
 6928SOL    HW132243   1.391   0.505  13.832 -0.2325  0.5680 -0.9836
 6928SOL    HW232244   1.342   0.360  13.842  0.2355  1.3938  1.4023
 6929SOL     OW32245   1.469   1.618   4.487 -0.5698 -0.3926  0.1423
 6929SOL    HW132246   1.559   1.637   4.458 -0.8825  0.7913 -0.0748
 6929SOL    HW232247   1.469   1.663   4.572 -2.5657 -0.9270  0.4232
 6930SOL     OW32248   3.898   3.120  10.293  0.1493 -0.1662 -0.3197
 6930SOL    HW132249   3.814   3.074  10.284  0.7437 -1.5993  1.4765
 6930SOL    HW232250   3.873   3.193  10.236 -0.8387 -0.4452 -0.2434
 6931SOL     OW32251   3.897   3.455   2.298  0.4489  0.3423 -0.0557
 6931SOL    HW132252   3.931   3.380   2.249 -0.2071  0.6590 -1.0101
 6931SOL    HW232253   3.829   3.489   2.240 -1.4574 -3.6734 -0.2012
 6932SOL     OW32254   2.849   2.924   5.619  0.2010 -0.1846  0.2607
 6932SOL    HW132255   2.781   2.888   5.676  0.1946 -0.1836  0.2537
 6932SOL    HW232256   2.860   2.839   5.577  1.0291  0.4697 -0.8358
 6933SOL     OW32257   2.500   2.039   2.270  0.0747  0.1847  0.3029
 6933SOL    HW132258   2.451   2.108   2.314  0.9551 -0.3061  2.0432
 6933SOL    HW232259   2.517   1.978   2.342 -0.3492  0.9591  1.0494
 6934SOL     OW32260   1.198   2.216   2.838 -0.2904  0.2110  0.4618
 6934SOL    HW132261   1.123   2.260   2.877 -1.0686  0.8244 -1.7040
 6934SOL    HW232262   1.193   2.135   2.887  1.8441  0.3309  0.8819
 6935SOL     OW32263   0.823   2.227  11.617  0.0511  0.6238  0.2309
 6935SOL    HW132264   0.793   2.315  11.592  0.7385  1.1419  1.2446
 6935SOL    HW232265   0.870   2.244  11.699  0.4353  4.5102 -0.7868
 6936SOL     OW32266   0.063   0.330  16.886  0.2825  0.2340 -0.2338
 6936SOL    HW132267   0.007   0.407  16.896 -0.1520 -0.1617  0.3695
 6936SOL    HW232268   0.013   0.273  16.943  1.6922 -0.1383  0.6418
 6937SOL     OW32269   0.457   1.791  16.083 -0.7076 -0.0192  0.1912
 6937SOL    HW132270   0.411   1.802  15.999  0.4078  0.5555 -0.3350
 6937SOL    HW232271   0.524   1.728  16.054 -2.1222 -0.8916 -1.2317
 6938SOL     OW32272   2.569   3.138   8.339  0.7436  0.1758  0.3955
 6938SOL    HW132273   2.600   3.200   8.404 -1.2326  1.0035  0.5421
 6938SOL    HW232274   2.545   3.066   8.396  2.0063 -0.5198  0.0578
 6939SOL     OW32275   4.100   2.880   9.524  0.3043 -0.1076 -0.9222
 6939SOL    HW132276   4.034   2.943   9.549  0.5138 -0.0678 -0.4827
 6939SOL    HW232277   4.098   2.821   9.599 -1.5667 -0.7872 -1.4932
 6940SOL     OW32278   1.912   4.687   3.752 -0.4679 -0.1436  0.5616
 6940SOL    HW132279   1.848   4.675   3.822 -1.6241 -1.2177 -0.6840
 6940SOL    HW232280   1.861   4.690   3.672 -1.1750  0.5024  1.0367
 6941SOL     OW32281   0.716   3.410  15.120  0.0362 -0.0183 -0.2161
 6941SOL    HW132282   0.661   3.458  15.058 -0.8563  0.7901  1.2072
 6941SOL    HW232283   0.731   3.478  15.186 -2.2146  0.5814 -0.3315
 6942SOL     OW32284   3.472   0.048   8.427  0.1431 -0.4383 -0.2781
 6942SOL    HW132285   3.392   0.013   8.468  0.7813 -1.9024 -0.2839
 6942SOL    HW232286   3.535   4.699   8.406 -0.6225 -1.0820 -0.4294
 6943SOL     OW32287   2.640   4.120   6.188 -0.4623 -0.4700 -0.9794
 6943SOL    HW132288   2.650   4.078   6.273 -1.1922  1.8684  0.2823
 6943SOL    HW232289   2.694   4.198   6.200  0.6636 -1.5932  1.3305
 6944SOL     OW32290   3.193   0.831  10.568  0.4111  0.1887  0.1572
 6944SOL    HW132291   3.120   0.889  10.548  1.4445  1.0469 -1.1502
 6944SOL    HW232292   3.239   0.843  10.485  1.8395 -2.3032  0.5882
 6945SOL     OW32293   1.599   0.381   9.054  0.4408 -0.6006 -0.3277
 6945SOL    HW132294   1.593   0.305   9.113 -2.5071  0.1569  0.3584
 6945SOL    HW232295   1.506   0.382   9.030 -0.0938 -2.6043  1.6127
 6946SOL     OW32296   3.491   2.036  15.145  0.3114 -0.5126  0.3240
 6946SOL    HW132297   3.522   1.972  15.081 -1.3769 -0.9343 -0.0741
 6946SOL    HW232298   3.412   2.058  15.094  0.8153 -2.7790 -1.4499
 6947SOL     OW32299   2.483   4.704   2.532  0.5964  0.4169 -0.4604
 6947SOL    HW132300   2.544   0.058   2.533  3.0530 -1.6034  0.6947
 6947SOL    HW232301   2.512   4.649   2.459 -0.5942  1.8586 -2.0320
 6948SOL     OW32302   4.640   3.858  14.455 -0.3596  0.5289  0.3078
 6948SOL    HW132303   4.564   3.814  14.417 -0.7463  1.1689  0.3531
 6948SOL    HW232304   4.693   3.796  14.504 -0.7873  0.0748  0.1972
 6949SOL     OW32305   1.077   1.531   2.081  0.2668  0.3792 -0.6654
 6949SOL    HW132306   1.028   1.533   2.164  2.3979  2.5067  0.5560
 6949SOL    HW232307   1.009   1.537   2.014  0.6795  0.7265 -1.0452
 6950SOL     OW32308   2.214   3.785   2.071 -0.4820  0.3058  0.0917
 6950SOL    HW132309   2.157   3.710   2.051 -0.8562  0.7263 -0.4048
 6950SOL    HW232310   2.199   3.856   2.009 -2.6161 -0.5192 -0.3479
 6951SOL     OW32311   0.734   2.135   3.144 -0.3120  0.6186 -0.0747
 6951SOL    HW132312   0.742   2.126   3.239  4.0525 -2.9847 -0.8014
 6951SOL    HW232313   0.734   2.042   3.121 -1.1640  0.4760  0.4922
 6952SOL     OW32314   0.807   2.091   3.851  0.3270 -0.0682 -0.0137
 6952SOL    HW132315   0.717   2.119   3.867  0.2939 -0.1351 -0.0794
 6952SOL    HW232316   0.804   2.001   3.885  0.1125 -0.5466 -1.2751
 6953SOL     OW32317   1.289   1.663   0.270 -0.1001 -0.3448  0.3388
 6953SOL    HW132318   1.220   1.688   0.331  0.3635  1.4425  0.1155
 6953SOL    HW232319   1.259   1.695   0.185 -0.8985  0.4759  0.9333
 6954SOL     OW32320   3.862   0.767   1.761  0.1672  0.3919 -0.5445
 6954SOL    HW132321   3.899   0.693   1.810  0.6552  1.4177  0.6164
 6954SOL    HW232322   3.779   0.727   1.735  0.0337  0.1402  0.2490
 6955SOL     OW32323   0.890   1.683   7.748 -0.5164  0.2844 -0.1209
 6955SOL    HW132324   0.800   1.714   7.738 -0.3432  0.5062 -0.9734
 6955SOL    HW232325   0.936   1.716   7.671 -1.8606  0.7385 -0.7354
 6956SOL     OW32326   2.329   4.010   5.865 -0.4637  0.5573  0.1231
 6956SOL    HW132327   2.362   3.983   5.780  0.1450  0.1391  0.4921
 6956SOL    HW232328   2.408   4.061   5.886  1.5681 -2.2014 -0.7656
 6957SOL     OW32329   1.728   2.212  12.887 -0.2103 -0.1527 -0.1644
 6957SOL    HW132330   1.758   2.129  12.848  0.5691 -0.4466  1.0524
 6957SOL    HW232331   1.731   2.191  12.980  1.8032 -0.2139 -0.2236
 6958SOL     OW32332   0.632   1.463  14.621  0.2158 -0.1729  0.5931
 6958SOL    HW132333   0.618   1.535  14.560 -1.4396 -0.7378  0.3177
 6958SOL    HW232334   0.550   1.414  14.613  1.4934 -2.2798  0.4548
 6959SOL     OW32335   1.742   4.275   5.090  0.3454 -0.1416 -0.5551
 6959SOL    HW132336   1.731   4.366   5.061  0.8475  0.0387 -0.1872
 6959SOL    HW232337   1.772   4.280   5.181 -1.3232  0.5174 -0.0473
 6960SOL     OW32338   2.229   1.328   5.980  0.1393  0.3353 -0.4649
 6960SOL    HW132339   2.239   1.251   6.037  0.5961  0.7904  0.0740
 6960SOL    HW232340   2.318   1.356   5.960  0.2584 -1.2423 -2.1203
 6961SOL     OW32341   0.157   0.842   2.983 -0.3589  0.0206  0.0318
 6961SOL    HW132342   0.214   0.914   3.009  0.8918 -1.5025  1.4810
 6961SOL    HW232343   0.228   0.788   2.948 -0.1991  0.4212 -0.2673
 6962SOL     OW32344   3.377   2.530  16.471  0.0406  0.1160  0.3037
 6962SOL    HW132345   3.462   2.495  16.446  1.3463  2.1936  1.8020
 6962SOL    HW232346   3.313   2.471  16.431  0.2191 -0.7918  1.3799
 6963SOL     OW32347   2.768   3.786   4.656 -0.1297 -0.1029  0.2313
 6963SOL    HW132348   2.758   3.805   4.749  1.4294  0.4857  0.2779
 6963SOL    HW232349   2.704   3.834   4.604  0.4092  0.6519  0.2540
 6964SOL     OW32350   1.589   3.888   7.918  0.3668  0.0013 -0.2102
 6964SOL    HW132351   1.561   3.971   7.955  0.6770  0.4695 -1.0228
 6964SOL    HW232352   1.633   3.850   7.995 -1.7289  0.4568  1.1977
 6965SOL     OW32353   3.712   0.444  11.001 -0.6774  0.0617 -0.2799
 6965SOL    HW132354   3.672   0.502  10.937  0.1271  1.2787  0.3063
 6965SOL    HW232355   3.690   0.487  11.084 -0.9523  1.4881 -1.0933
 6966SOL     OW32356   4.626   0.553   2.629  0.1666  0.0598 -0.0981
 6966SOL    HW132357   4.585   0.617   2.571 -1.1662 -1.3171 -0.6807
 6966SOL    HW232358   4.649   0.615   2.698 -1.6199  1.2000 -0.5117
 6967SOL     OW32359   2.934   1.649   4.134  0.1797 -0.3308 -0.2157
 6967SOL    HW132360   2.951   1.743   4.144 -0.2075 -0.1378 -1.3919
 6967SOL    HW232361   2.924   1.648   4.039 -0.0353  1.3307 -0.2142
 6968SOL     OW32362   3.728   3.039  16.528  0.3322 -0.7534 -0.6156
 6968SOL    HW132363   3.813   3.027  16.487  0.3565 -2.7313  0.0380
 6968SOL    HW232364   3.754   3.100  16.597 -2.6694  1.6176 -1.5295
 6969SOL     OW32365   3.261   4.208   7.447  0.1678  0.2467  0.0353
 6969SOL    HW132366   3.307   4.137   7.402 -1.6542  0.8460 -2.7488
 6969SOL    HW232367   3.258   4.177   7.537 -2.8386 -0.3719 -0.2847
 6970SOL     OW32368   4.203   0.151   8.884 -0.1397 -0.7365 -0.0143
 6970SOL    HW132369   4.117   0.171   8.920  0.1175  1.3425 -0.5235
 6970SOL    HW232370   4.195   0.064   8.846 -0.4828 -0.2007 -1.1806
 6971SOL     OW32371   3.789   3.173  12.434 -0.1172 -0.3103 -0.3023
 6971SOL    HW132372   3.858   3.163  12.369  1.3363 -0.3643  1.2542
 6971SOL    HW232373   3.712   3.179  12.377  1.3320  0.7966 -2.1234
 6972SOL     OW32374   2.173   1.627   4.114 -0.1062 -0.4735 -0.0154
 6972SOL    HW132375   2.207   1.550   4.068  0.0336 -0.7407  0.5368
 6972SOL    HW232376   2.223   1.697   4.073 -2.2779  0.5939 -0.8215
 6973SOL     OW32377   3.804   2.229   6.356  0.1709  0.0423  0.0389
 6973SOL    HW132378   3.780   2.141   6.328 -0.9472  0.5706 -0.6374
 6973SOL    HW232379   3.715   2.264   6.366  0.2153 -0.3387  1.9567
 6974SOL     OW32380   0.737   4.203   6.095 -0.4225 -0.1981  0.0754
 6974SOL    HW132381   0.665   4.187   6.155 -0.7343  0.7462 -0.0450
 6974SOL    HW232382   0.806   4.148   6.133 -1.2927 -0.8841  0.6610
 6975SOL     OW32383   1.390   4.096  13.064 -0.4981 -0.0236 -0.4460
 6975SOL    HW132384   1.464   4.060  13.015 -0.8969 -1.0066 -0.3323
 6975SOL    HW232385   1.439   4.138  13.134 -1.0200 -1.1885  0.6124
 6976SOL     OW32386   2.033   1.700   4.343 -0.5810 -0.5916 -0.0427
 6976SOL    HW132387   2.001   1.611   4.356  0.3804 -0.9069  0.1596
 6976SOL    HW232388   2.062   1.691   4.252  1.1354  0.2830  0.4195
 6977SOL     OW32389   4.545   1.437   1.460  0.0947  0.5259  0.3400
 6977SOL    HW132390   4.524   1.387   1.539 -1.2622  2.2442  1.0947
 6977SOL    HW232391   4.501   1.381   1.396 -2.7494  1.9957  0.9941
 6978SOL     OW32392   3.213   1.523  17.560  0.2609 -0.2275  0.0951
 6978SOL    HW132393   3.303   1.552  17.545  0.0863 -0.7089 -1.8742
 6978SOL    HW232394   3.223   1.441  17.512  1.8916 -0.5720  1.0283
 6979SOL     OW32395   3.589   1.452  16.499 -0.7013  0.0576 -0.2914
 6979SOL    HW132396   3.682   1.452  16.477 -1.0846  1.2924 -1.8781
 6979SOL    HW232397   3.585   1.390  16.572  1.7281  0.5496  0.2584
 6980SOL     OW32398   4.371   4.358   8.245  0.0873  0.5261  0.2553
 6980SOL    HW132399   4.360   4.274   8.289  1.5341 -0.2232 -0.8211
 6980SOL    HW232400   4.280   4.382   8.226  0.1330 -2.7577 -4.0240
 6981SOL     OW32401   1.631   1.988   5.968 -0.0405  0.0872  0.3034
 6981SOL    HW132402   1.642   1.950   6.055  2.1099  2.5664  1.1232
 6981SOL    HW232403   1.643   2.079   5.995  0.8843  0.6880 -2.1369
 6982SOL     OW32404   0.827   1.061   6.664  0.2463  0.3971  0.4191
 6982SOL    HW132405   0.843   1.070   6.758 -0.0322 -1.5119  0.6611
 6982SOL    HW232406   0.732   1.069   6.670  0.0200 -1.5491 -0.6405
 6983SOL     OW32407   0.582   3.593  13.647 -0.3049  0.3436  0.7225
 6983SOL    HW132408   0.579   3.497  13.647  1.6990  0.2648  0.9072
 6983SOL    HW232409   0.499   3.610  13.604 -0.2955  0.3024  0.6877
 6984SOL     OW32410   2.696   4.217   5.434  0.4973  0.7365  0.6426
 6984SOL    HW132411   2.740   4.133   5.435  0.6237  0.7581 -2.1685
 6984SOL    HW232412   2.720   4.238   5.524  0.8268  1.6330  0.3476
 6985SOL     OW32413   1.658   2.372  13.316 -0.3640  0.4446  0.2982
 6985SOL    HW132414   1.725   2.431  13.280  0.7247 -1.7707 -1.3067
 6985SOL    HW232415   1.664   2.298  13.256 -1.3829  0.2274  0.4578
 6986SOL     OW32416   3.453   4.374   3.835  0.3069  0.3101 -0.0647
 6986SOL    HW132417   3.479   4.370   3.743 -0.8996  3.1429 -0.5208
 6986SOL    HW232418   3.531   4.416   3.873  0.6896  0.0252 -0.5371
 6987SOL     OW32419   1.472   1.875   7.530  0.3013  0.0828  0.0064
 6987SOL    HW132420   1.567   1.884   7.523  0.0698  1.6670 -1.3178
 6987SOL    HW232421   1.461   1.934   7.605  3.7520  0.7569 -0.0228
 6988SOL     OW32422   3.927   0.233   2.052  0.2720 -0.0190  0.0764
 6988SOL    HW132423   3.993   0.252   1.986 -0.4831  0.9206 -0.4092
 6988SOL    HW232424   3.976   0.179   2.115  0.8246 -0.1195 -0.4425
 6989SOL     OW32425   0.894   0.414  11.168  0.1908  0.6143  1.2913
 6989SOL    HW132426   0.958   0.461  11.220  0.7000 -0.1042  1.3162
 6989SOL    HW232427   0.856   0.350  11.227 -0.7110  0.8565  0.9855
 6990SOL     OW32428   2.002   3.098   1.824 -0.2948 -0.0170  0.7694
 6990SOL    HW132429   1.966   3.017   1.787  0.0052 -0.0802  0.6233
 6990SOL    HW232430   2.065   3.122   1.756 -1.1820 -0.8884 -0.3641
 6991SOL     OW32431   3.499   1.903   0.266 -0.2529  0.7323  0.3928
 6991SOL    HW132432   3.411   1.884   0.297 -0.3362  0.3024 -0.0920
 6991SOL    HW232433   3.484   1.861   0.181  1.4445  0.8378  0.0394
 6992SOL     OW32434   3.122   2.865   1.528 -0.2152 -0.0943 -0.4163
 6992SOL    HW132435   3.155   2.791   1.579 -1.1708 -0.0578  0.2430
 6992SOL    HW232436   3.165   2.846   1.444  1.7307 -0.0119  0.5616
 6993SOL     OW32437   1.661   3.852   6.406 -0.0683 -0.2950  0.3524
 6993SOL    HW132438   1.710   3.787   6.456  1.9546 -0.3115 -1.6543
 6993SOL    HW232439   1.717   3.930   6.410  0.5725 -0.8773  2.3919
 6994SOL     OW32440   2.518   4.645   5.863  0.1240  0.1761  0.3794
 6994SOL    HW132441   2.596   4.691   5.893 -1.0984  1.1649  2.1095
 6994SOL    HW232442   2.528   4.630   5.769  0.0247  0.7059  0.2850
 6995SOL     OW32443   3.439   3.748   7.930 -0.7325 -0.4896  0.0911
 6995SOL    HW132444   3.445   3.843   7.941  0.7772 -0.4635 -0.9926
 6995SOL    HW232445   3.437   3.726   7.837  0.8091  2.3690 -0.6021
 6996SOL     OW32446   0.322   1.536   6.378 -0.8015  0.0479 -0.1253
 6996SOL    HW132447   0.230   1.544   6.400 -0.5463 -0.0692  0.9758
 6996SOL    HW232448   0.366   1.527   6.463  1.8659 -0.3283 -1.5390
 6997SOL     OW32449   2.225   2.373   2.661 -0.0327  0.2085  0.7754
 6997SOL    HW132450   2.212   2.281   2.639 -1.3748  0.7406 -0.7120
 6997SOL    HW232451   2.264   2.363   2.748 -3.5763  1.8718  2.5541
 6998SOL     OW32452   2.907   2.190   3.478 -0.1729 -0.1220 -0.1626
 6998SOL    HW132453   2.950   2.153   3.555  1.4492 -0.0897 -1.0677
 6998SOL    HW232454   2.944   2.277   3.471  0.9449 -0.7238 -1.6253
 6999SOL     OW32455   2.789   4.077   7.274 -0.0400  0.0158 -0.1448
 6999SOL    HW132456   2.754   4.145   7.332 -1.2436 -1.1432  0.4924
 6999SOL    HW232457   2.725   4.007   7.272 -0.8858  0.7740  0.8233
 7000SOL     OW32458   1.218   2.909   1.077 -0.1218 -0.0065 -1.1379
 7000SOL    HW132459   1.310   2.899   1.052  0.4332  2.3096  0.0413
 7000SOL    HW232460   1.188   2.834   1.025 -1.1900 -1.6124  1.8012
 7001SOL     OW32461   0.761   0.714   8.836  0.2550  0.0605  0.3317
 7001SOL    HW132462   0.854   0.710   8.860  0.3267  0.8401  0.1958
 7001SOL    HW232463   0.759   0.675   8.748 -0.8482  1.3960 -0.2378
 7002SOL     OW32464   1.132   0.333   6.060 -0.1582 -0.2563 -0.7222
 7002SOL    HW132465   1.164   0.297   5.977 -0.4658  2.0133 -1.8225
 7002SOL    HW232466   1.135   0.253   6.113  0.7359 -0.2615 -0.7742
 7003SOL     OW32467   2.205   0.498  13.070  0.5236  0.1813 -0.3832
 7003SOL    HW132468   2.224   0.419  13.019  1.0348 -1.6538  2.5836
 7003SOL    HW232469   2.272   0.482  13.136  0.3154  0.9791  0.0171
 7004SOL     OW32470   1.165   2.694  16.297 -0.1301 -0.1182  0.0621
 7004SOL    HW132471   1.096   2.641  16.257  0.9030 -1.4733  0.0567
 7004SOL    HW232472   1.153   2.781  16.258 -0.1459  0.1688  0.7122
 7005SOL     OW32473   0.945   1.102   7.800 -0.6793 -0.4263 -0.2475
 7005SOL    HW132474   1.008   1.174   7.795 -2.9963  1.6326  0.1313
 7005SOL    HW232475   0.978   1.041   7.866  1.0746  1.4863  0.6284
 7006SOL     OW32476   4.507   1.297   1.680 -0.1470 -0.7698 -0.4995
 7006SOL    HW132477   4.441   1.232   1.655 -2.0772  0.3232  1.7898
 7006SOL    HW232478   4.491   1.306   1.774  0.5640 -0.7419 -0.3827
 7007SOL     OW32479   2.004   0.135   2.605  0.2507  0.3793 -0.1359
 7007SOL    HW132480   2.090   0.135   2.563  0.9926  0.8670  1.3551
 7007SOL    HW232481   1.983   0.227   2.588  0.1849  0.4869  0.5019
 7008SOL     OW32482   3.549   2.579   7.644  0.2261  0.1956 -0.5746
 7008SOL    HW132483   3.604   2.528   7.703 -1.1142 -2.4155 -1.5883
 7008SOL    HW232484   3.572   2.665   7.680 -0.3136 -0.0825  0.4353
 7009SOL     OW32485   4.052   2.595   4.899  0.6915  0.0937 -0.3262
 7009SOL    HW132486   3.985   2.551   4.952  0.4545 -2.2418 -2.5558
 7009SOL    HW232487   4.130   2.580   4.952  1.5440  1.2703 -1.2366
 7010SOL     OW32488   1.892   4.241   3.754 -0.2119 -0.1206 -0.0706
 7010SOL    HW132489   1.821   4.239   3.819  1.5609  0.7583  1.8671
 7010SOL    HW232490   1.944   4.309   3.797  0.5366  0.7626 -2.3846
 7011SOL     OW32491   2.289   3.757   3.680  0.3223 -1.8816  0.1238
 7011SOL    HW132492   2.363   3.729   3.734  0.5321 -2.7291 -0.6184
 7011SOL    HW232493   2.298   3.701   3.603 -2.0134 -1.9206 -0.1196
 7012SOL     OW32494   0.866   2.230   4.141  0.1662 -0.3907  0.7079
 7012SOL    HW132495   0.775   2.214   4.117 -0.0497  0.8774  0.6848
 7012SOL    HW232496   0.910   2.165   4.085 -0.0704 -0.7385  0.9219
 7013SOL     OW32497   0.418   2.559   6.452 -0.0522  0.4285  0.1674
 7013SOL    HW132498   0.384   2.525   6.534  1.1144 -1.0699  0.0410
 7013SOL    HW232499   0.480   2.489   6.429  0.7408  0.9406  0.7535
 7014SOL     OW32500   1.988   2.323  12.207  0.5759 -0.1236  0.6242
 7014SOL    HW132501   2.040   2.401  12.185  0.3307 -0.3139 -0.6191
 7014SOL    HW232502   2.023   2.293  12.291 -0.1021  0.3983  1.0891
 7015SOL     OW32503   1.877   0.431   9.428 -0.0066 -0.5302 -0.4107
 7015SOL    HW132504   1.932   0.419   9.350 -0.8934 -1.8842 -0.8401
 7015SOL    HW232505   1.878   0.526   9.429 -0.8571 -0.5138 -0.9977
 7016SOL     OW32506   0.142   0.407   4.840 -0.0967  0.3237 -0.4108
 7016SOL    HW132507   0.079   0.390   4.910 -0.0135  1.9633  0.0617
 7016SOL    HW232508   0.185   0.484   4.875 -0.8739 -0.6597  2.6886
 7017SOL     OW32509   4.426   1.601   7.908 -0.2021  0.2915  0.0371
 7017SOL    HW132510   4.497   1.642   7.859  0.0501  0.2212  0.3442
 7017SOL    HW232511   4.442   1.508   7.892 -0.7167  0.6848 -2.9026
 7018SOL     OW32512   2.131   0.571   5.703 -0.3255 -0.0912  0.8112
 7018SOL    HW132513   2.161   0.631   5.635  0.3208 -1.6337 -0.2746
 7018SOL    HW232514   2.171   0.611   5.781 -1.0836  1.4840  0.3970
 7019SOL     OW32515   0.621   1.422   1.335  0.0414  0.0187  0.0562
 7019SOL    HW132516   0.620   1.462   1.422  1.6804  0.4140 -0.0990
 7019SOL    HW232517   0.620   1.328   1.351  0.8985  0.1229  0.7441
 7020SOL     OW32518   2.332   4.113   7.625  0.0419  0.1173  0.5161
 7020SOL    HW132519   2.236   4.106   7.627 -0.0357  0.6481 -1.7063
 7020SOL    HW232520   2.343   4.060   7.545 -1.0304 -1.7886  1.6164
 7021SOL     OW32521   2.179   0.046  13.127 -0.0320  0.0855  0.6740
 7021SOL    HW132522   2.085   0.066  13.130 -0.2992 -1.1567  0.5714
 7021SOL    HW232523   2.201   0.129  13.169  0.3291  0.2141  0.2186
 7022SOL     OW32524   1.976   2.340   3.975 -0.4244  0.0031 -0.3886
 7022SOL    HW132525   1.968   2.271   4.042  0.7363 -0.3006 -0.5685
 7022SOL    HW232526   2.022   2.404   4.029 -1.2188 -0.3197  0.6945
 7023SOL     OW32527   1.017   2.271   8.200 -0.2409  0.3321 -0.1099
 7023SOL    HW132528   1.017   2.286   8.105 -1.3114  1.4563  0.0560
 7023SOL    HW232529   1.004   2.177   8.205  2.6577  0.0511  1.9932
 7024SOL     OW32530   2.225   1.686   8.556  0.2257  0.0249  0.0881
 7024SOL    HW132531   2.154   1.737   8.518  0.0958 -0.1458  0.1005
 7024SOL    HW232532   2.310   1.726   8.535  1.7403 -2.0892  2.1961
 7025SOL     OW32533   0.716   2.426  15.951  0.0926 -0.0830 -0.2007
 7025SOL    HW132534   0.696   2.511  15.912 -0.1287  0.1404  0.3994
 7025SOL    HW232535   0.724   2.448  16.044  1.9364 -0.6040 -0.2293
 7026SOL     OW32536   0.277   1.245  13.192  0.3349 -0.6503  0.0150
 7026SOL    HW132537   0.302   1.159  13.224  2.7980 -0.3937 -1.2910
 7026SOL    HW232538   0.279   1.292  13.276  1.2879 -1.0165  0.1910
 7027SOL     OW32539   0.864   3.077   6.459  0.3054  0.6110  0.0481
 7027SOL    HW132540   0.922   3.005   6.437 -0.8239 -0.2817  0.0047
 7027SOL    HW232541   0.923   3.142   6.497 -1.1134  1.8384  0.1594
 7028SOL     OW32542   0.444   1.310   7.939 -0.3478  0.2834  0.4977
 7028SOL    HW132543   0.524   1.263   7.915 -1.8544 -1.8081 -0.3808
 7028SOL    HW232544   0.389   1.282   7.866  3.4672 -0.1940 -2.1863
 7029SOL     OW32545   3.017   3.834   2.772 -0.2584 -0.3415 -0.2406
 7029SOL    HW132546   2.984   3.744   2.782  1.8913 -0.9074  1.9078
 7029SOL    HW232547   3.098   3.832   2.824  1.2232 -1.4341 -2.5849
 7030SOL     OW32548   1.261   1.831  13.940  0.5131 -0.1782  0.0049
 7030SOL    HW132549   1.246   1.914  13.985 -1.7460 -0.1316 -0.8427
 7030SOL    HW232550   1.290   1.781  14.017  0.9473  0.4743  0.2695
 7031SOL     OW32551   3.425   1.385   1.410  0.3375  0.0005 -0.2095
 7031SOL    HW132552   3.419   1.474   1.375  2.1976  0.6731  1.1648
 7031SOL    HW232553   3.495   1.389   1.476  0.6221 -0.2966 -0.4985
 7032SOL     OW32554   0.293   4.028   5.251 -0.3872 -0.3624 -0.2563
 7032SOL    HW132555   0.253   3.954   5.207 -0.4449 -0.4394 -0.0727
 7032SOL    HW232556   0.339   4.073   5.180 -0.5440  1.6280  0.8979
 7033SOL     OW32557   2.579   2.089   5.304  0.3273 -0.2698 -0.1781
 7033SOL    HW132558   2.526   2.141   5.243 -0.6745  0.2000  1.1043
 7033SOL    HW232559   2.588   2.005   5.260 -0.0814 -0.1338 -0.5256
 7034SOL     OW32560   0.823   0.398   5.817  0.4072  0.6980  0.3780
 7034SOL    HW132561   0.740   0.395   5.769 -0.2248 -0.4090  1.5098
 7034SOL    HW232562   0.881   0.443   5.757  0.3043 -0.4345 -0.5690
 7035SOL     OW32563   1.041   4.429  11.627 -0.7690 -0.2954  0.0516
 7035SOL    HW132564   1.016   4.357  11.569 -1.4571  1.3719 -1.7082
 7035SOL    HW232565   1.042   4.502  11.565  0.2852  0.8876  1.4601
 7036SOL     OW32566   1.961   4.318   2.370 -0.4455 -0.2368 -0.1140
 7036SOL    HW132567   2.031   4.359   2.421 -2.9562  0.5184  2.7052
 7036SOL    HW232568   2.012   4.241   2.345 -1.8953 -1.5430  1.0080
 7037SOL     OW32569   3.302   1.746   8.366 -0.5283  0.5527 -0.6372
 7037SOL    HW132570   3.327   1.655   8.383  1.7956  1.2276 -0.4307
 7037SOL    HW232571   3.210   1.745   8.393 -0.3414  0.6279  0.0014
 7038SOL     OW32572   1.351   3.797   3.257  0.0970 -0.1265 -0.1358
 7038SOL    HW132573   1.442   3.827   3.265 -0.0143  0.0130  0.5972
 7038SOL    HW232574   1.309   3.847   3.326 -0.7503 -1.8180  0.5551
 7039SOL     OW32575   0.442   0.151   7.732 -0.2461 -0.1031 -0.2158
 7039SOL    HW132576   0.354   0.147   7.771 -1.3172  1.1840 -2.5259
 7039SOL    HW232577   0.437   0.066   7.688 -0.5233 -0.7232  1.0091
 7040SOL     OW32578   1.186   0.017   5.361  0.1858  0.0414 -0.0194
 7040SOL    HW132579   1.219   0.077   5.294  0.7508 -0.3926 -0.1270
 7040SOL    HW232580   1.239   0.042   5.437  0.1104  0.4794 -0.1144
 7041SOL     OW32581   1.548   1.772   0.276 -0.3443 -0.1570 -0.0565
 7041SOL    HW132582   1.541   1.806   0.187 -2.1543 -1.8518 -0.5552
 7041SOL    HW232583   1.470   1.724   0.305  0.3769 -2.2233 -1.4760
 7042SOL     OW32584   4.509   3.384   0.289 -0.3152  0.6229 -0.2423
 7042SOL    HW132585   4.516   3.351   0.199 -0.6307  0.2081 -0.1121
 7042SOL    HW232586   4.432   3.338   0.322  0.5061 -0.7046 -0.1962
 7043SOL     OW32587   4.446   3.993   3.599  0.1835  0.0308 -0.1395
 7043SOL    HW132588   4.380   3.968   3.664 -0.1126 -1.5536 -1.0621
 7043SOL    HW232589   4.523   4.000   3.656 -0.5706  0.3665  0.8411
 7044SOL     OW32590   4.439   0.658   6.379 -0.7002 -0.1457 -0.1672
 7044SOL    HW132591   4.410   0.749   6.382  0.4767  0.1704  1.7070
 7044SOL    HW232592   4.412   0.636   6.469  1.1243 -0.0367  0.4034
 7045SOL     OW32593   3.936   1.672   0.073 -0.3980 -0.2920  0.7111
 7045SOL    HW132594   3.942   1.765   0.055 -1.2024 -0.4773 -0.5358
 7045SOL    HW232595   4.027   1.655   0.096 -0.1998  0.5483  0.5261
 7046SOL     OW32596   1.283   1.078   9.989 -0.3092 -0.1228 -0.4456
 7046SOL    HW132597   1.264   1.099  10.080  1.0643  0.5202 -0.2958
 7046SOL    HW232598   1.348   1.148   9.972 -0.9795  1.0879  2.0412
 7047SOL     OW32599   1.540   1.412   1.225 -0.3258 -0.0769 -0.1992
 7047SOL    HW132600   1.545   1.382   1.316  0.4741 -0.8700 -0.5011
 7047SOL    HW232601   1.466   1.471   1.238 -1.7742 -1.6855 -1.0983
 7048SOL     OW32602   4.113   2.183   8.814 -0.0807 -0.6135 -0.0354
 7048SOL    HW132603   4.162   2.186   8.732 -0.0073 -0.0841  0.0242
 7048SOL    HW232604   4.175   2.211   8.881  0.0315 -2.9500  0.8210
 7049SOL     OW32605   2.080   4.464   8.544 -0.2777  0.1204 -0.0012
 7049SOL    HW132606   2.102   4.462   8.637  0.3383  3.1375 -0.0740
 7049SOL    HW232607   2.136   4.530   8.503  0.4138 -0.8968 -0.6980
 7050SOL     OW32608   0.713   4.500   6.907 -0.0103 -0.1694  0.0961
 7050SOL    HW132609   0.761   4.519   6.827  1.1147  0.9751  1.0576
 7050SOL    HW232610   0.769   4.546   6.970 -1.8381 -0.1559  1.7308
 7051SOL     OW32611   0.409   0.392   8.658  0.0625  0.2309 -0.1995
 7051SOL    HW132612   0.415   0.443   8.739  2.2853 -2.2263  1.1909
 7051SOL    HW232613   0.354   0.323   8.695  0.0909  0.2037 -0.2085
 7052SOL     OW32614   4.683   3.629   4.335 -0.3501 -0.0268 -0.1137
 7052SOL    HW132615   0.001   3.684   4.403 -0.5423  0.7115 -0.5984
 7052SOL    HW232616   4.603   3.603   4.380 -1.6296  1.8484 -1.2893
 7053SOL     OW32617   3.970   2.454   5.909 -0.3143 -0.0119 -0.4951
 7053SOL    HW132618   4.028   2.398   5.857  1.5345  1.4521 -0.0393
 7053SOL    HW232619   3.981   2.424   5.999  1.5819 -0.5636 -0.8908
 7054SOL     OW32620   1.209   1.698   3.119 -0.1842 -0.4031  0.2299
 7054SOL    HW132621   1.167   1.753   3.185  0.4553  0.7928 -0.3571
 7054SOL    HW232622   1.214   1.609   3.154  1.0875 -0.4981 -0.1772
 7055SOL     OW32623   2.225   1.874   2.389 -0.0215  0.5648  0.2162
 7055SOL    HW132624   2.202   1.946   2.331  0.4190  2.0318  1.8644
 7055SOL    HW232625   2.249   1.808   2.324  0.6755 -0.4304  1.4653
 7056SOL     OW32626   3.856   2.120   7.612  0.3551  0.4162  0.5036
 7056SOL    HW132627   3.842   2.162   7.697 -1.6857  1.4263 -0.3307
 7056SOL    HW232628   3.951   2.127   7.607  0.2116  0.3222 -2.2756
 7057SOL     OW32629   1.623   2.942   4.891 -0.2947  0.2466  0.4131
 7057SOL    HW132630   1.717   2.947   4.873 -0.1858  2.1311  1.4705
 7057SOL    HW232631   1.594   2.922   4.802  0.7834  0.6566 -0.0273
 7058SOL     OW32632   2.832   0.372   4.218  0.0357  0.4127  0.1844
 7058SOL    HW132633   2.762   0.436   4.205 -0.1274  0.0955 -0.5295
 7058SOL    HW232634   2.788   0.296   4.178  1.5789 -0.6084  0.4366
 7059SOL     OW32635   2.093   3.122   2.232  0.3866 -0.6320 -0.0784
 7059SOL    HW132636   2.132   3.078   2.307 -0.5287 -1.5961 -0.1711
 7059SOL    HW232637   2.174   3.151   2.190  0.1926  0.0746  0.0381
 7060SOL     OW32638   3.839   3.679  15.491 -0.3543 -0.1533  0.2217
 7060SOL    HW132639   3.794   3.656  15.572  1.6738 -0.0453  1.3757
 7060SOL    HW232640   3.794   3.762  15.476 -1.8623 -0.6375  2.1553
 7061SOL     OW32641   4.354   0.376  12.975  0.4533  0.1651 -0.3962
 7061SOL    HW132642   4.448   0.377  12.993  0.2578 -0.6100  0.6137
 7061SOL    HW232643   4.319   0.443  13.033 -1.7036 -0.1666 -1.3035
 7062SOL     OW32644   2.690   0.002   8.172 -0.0123  0.1887  0.3222
 7062SOL    HW132645   2.690   0.096   8.157 -3.1419  0.1600 -0.0063
 7062SOL    HW232646   2.641   4.719   8.254  1.8282 -1.3995  1.3464
 7063SOL     OW32647   1.771   3.357   3.694  0.1739 -0.3495  0.2324
 7063SOL    HW132648   1.722   3.397   3.765  0.2587  0.9619 -0.4621
 7063SOL    HW232649   1.705   3.300   3.653 -0.9989  0.6115  0.8068
 7064SOL     OW32650   0.197   3.272   6.090  0.2367 -0.1805 -0.0639
 7064SOL    HW132651   0.147   3.195   6.116  0.1337  0.0317  0.3687
 7064SOL    HW232652   0.272   3.270   6.150  1.7870 -0.1234 -1.9924
 7065SOL     OW32653   0.310   1.786   3.227  0.6649  0.1635  0.2825
 7065SOL    HW132654   0.236   1.825   3.273  0.7746  1.0003 -0.2443
 7065SOL    HW232655   0.385   1.830   3.269  0.5407  1.9185 -1.3332
 7066SOL     OW32656   3.005   2.541  12.944  0.5908 -0.2210 -0.8097
 7066SOL    HW132657   2.962   2.512  12.864 -1.2421  0.7992 -0.2008
 7066SOL    HW232658   3.092   2.511  12.920  1.0152 -0.0274  0.5030
 7067SOL     OW32659   3.178   0.982  15.313  0.1503 -0.3966  0.1954
 7067SOL    HW132660   3.215   0.898  15.339  1.2587  0.6592  2.0389
 7067SOL    HW232661   3.153   0.959  15.224 -0.0751  0.7029 -0.0289
 7068SOL     OW32662   0.369   3.151  13.523  0.1755 -0.2164  0.6090
 7068SOL    HW132663   0.459   3.143  13.491  0.7370 -1.2119  2.3798
 7068SOL    HW232664   0.360   3.061  13.553 -1.8538 -0.5163 -0.8842
 7069SOL     OW32665   0.797   1.199   1.711  0.3009  0.0438 -0.6883
 7069SOL    HW132666   0.752   1.178   1.629 -0.9234  1.9265 -0.4935
 7069SOL    HW232667   0.886   1.188   1.680  0.2892 -0.5408 -0.5155
 7070SOL     OW32668   0.958   1.606   4.112 -0.3329  0.2128 -0.2353
 7070SOL    HW132669   1.017   1.533   4.127 -1.4232 -0.7502 -0.6111
 7070SOL    HW232670   0.881   1.555   4.087 -0.1701 -1.4296  2.6594
 7071SOL     OW32671   3.226   0.207   2.772  0.3899  0.1243 -0.2513
 7071SOL    HW132672   3.218   0.201   2.867 -0.0983  2.2527 -0.1646
 7071SOL    HW232673   3.283   0.282   2.755 -2.0215  1.9309 -0.3043
 7072SOL     OW32674   0.399   0.880   2.440 -0.0007 -0.3990  1.0168
 7072SOL    HW132675   0.411   0.928   2.522  1.7682  0.0068  0.5305
 7072SOL    HW232676   0.431   0.941   2.373 -1.5707  0.4886  1.0729
 7073SOL     OW32677   3.438   3.017   8.727  0.4602  0.2167 -0.6632
 7073SOL    HW132678   3.358   3.051   8.687 -2.2967 -3.0785  2.1068
 7073SOL    HW232679   3.430   3.043   8.819 -0.6272  1.0081 -0.9889
 7074SOL     OW32680   1.493   2.462   6.805 -0.3809 -0.4066 -0.3020
 7074SOL    HW132681   1.564   2.500   6.857  0.4514 -2.0543 -0.2410
 7074SOL    HW232682   1.527   2.480   6.717 -0.2667  1.1273  0.0589
 7075SOL     OW32683   1.419   2.100  11.527  0.0424  0.3911 -0.1944
 7075SOL    HW132684   1.341   2.070  11.573  0.2805  0.8414  0.4968
 7075SOL    HW232685   1.426   2.191  11.555  1.3480  0.3222 -0.3004
 7076SOL     OW32686   3.065   1.456  12.922  0.1522 -0.1072 -0.3964
 7076SOL    HW132687   3.028   1.507  12.851 -0.1163  1.8698  1.1704
 7076SOL    HW232688   2.997   1.389  12.929  0.6736 -0.6758 -0.7340
 7077SOL     OW32689   4.223   0.163   6.729 -0.2796  0.0445  0.3745
 7077SOL    HW132690   4.135   0.126   6.733 -0.2642  0.0029  0.3282
 7077SOL    HW232691   4.218   0.254   6.699  3.5434  0.2122  0.2134
 7078SOL     OW32692   0.731   3.694   7.758  0.1216 -0.2316 -0.0273
 7078SOL    HW132693   0.763   3.782   7.778  1.0113 -1.2401  2.9197
 7078SOL    HW232694   0.793   3.670   7.690 -1.2095  0.5705 -1.5270
 7079SOL     OW32695   0.607   2.180   8.698  0.3695 -0.6794  0.3049
 7079SOL    HW132696   0.644   2.125   8.629  2.1589  3.2036 -1.8216
 7079SOL    HW232697   0.560   2.252   8.655  2.4681  0.4512 -0.0825
 7080SOL     OW32698   1.706   3.393  11.742  0.0889 -0.3303  0.1844
 7080SOL    HW132699   1.698   3.441  11.825  0.2291  0.4789 -0.2692
 7080SOL    HW232700   1.785   3.436  11.709 -0.0799  0.5491  0.9513
 7081SOL     OW32701   0.378   1.299   9.382 -0.1944 -0.7147  0.9540
 7081SOL    HW132702   0.470   1.275   9.388 -0.0368  0.0212  1.5573
 7081SOL    HW232703   0.359   1.329   9.471 -1.7169  0.3166  0.3035
 7082SOL     OW32704   1.217   3.956  14.033  0.0425 -0.1966  0.5176
 7082SOL    HW132705   1.265   3.942  14.114  0.5362 -0.1949  0.2286
 7082SOL    HW232706   1.143   3.898  14.051  1.1152 -1.8161 -0.2732
 7083SOL     OW32707   3.483   4.644   7.710  0.1011 -0.2343 -0.0960
 7083SOL    HW132708   3.414   4.710   7.725  2.8072  3.0653 -2.1474
 7083SOL    HW232709   3.557   4.698   7.736 -1.9124  1.9429  1.1190
 7084SOL     OW32710   1.460   1.085  15.293  0.6977  0.1384  0.0419
 7084SOL    HW132711   1.419   1.100  15.378 -3.7287 -0.2049 -2.0095
 7084SOL    HW232712   1.383   1.104  15.239  1.3786  1.5355 -0.4673
 7085SOL     OW32713   4.439   4.669   1.806  0.5159  0.1585  0.3862
 7085SOL    HW132714   4.479   4.665   1.719 -0.2092 -3.3825  0.2199
 7085SOL    HW232715   4.419   0.041   1.820 -1.3751 -0.1966 -0.0423
 7086SOL     OW32716   1.226   3.307   2.170 -0.2730  0.4176  0.1467
 7086SOL    HW132717   1.241   3.353   2.252  0.4239 -0.4269  0.4946
 7086SOL    HW232718   1.318   3.284   2.158 -0.2973  0.8266 -0.8236
 7087SOL     OW32719   4.157   0.305  13.572  0.0668 -0.1058  0.0599
 7087SOL    HW132720   4.177   0.322  13.480 -2.1540 -0.4226 -0.4972
 7087SOL    HW232721   4.197   0.218  13.576  1.5459  0.4882 -1.8784
 7088SOL     OW32722   3.101   4.289   2.525  0.1113  0.6522 -0.4190
 7088SOL    HW132723   3.054   4.214   2.562  0.1524  1.2645  0.8744
 7088SOL    HW232724   3.040   4.317   2.457 -1.0694  0.1086  0.4357
 7089SOL     OW32725   2.485   3.328   3.984 -0.3353  0.0812 -0.3132
 7089SOL    HW132726   2.560   3.339   4.043 -0.1528  1.0880 -0.7367
 7089SOL    HW232727   2.431   3.333   4.062 -0.5264  1.6433 -0.5627
 7090SOL     OW32728   0.146   2.457   6.392  0.0596  0.0170  0.3096
 7090SOL    HW132729   0.242   2.460   6.384  0.0156  1.3446  0.2586
 7090SOL    HW232730   0.125   2.545   6.425  1.0365  0.7750 -1.0963
 7091SOL     OW32731   4.117   0.361  10.912  1.0742  0.4660 -0.4659
 7091SOL    HW132732   4.090   0.275  10.943 -0.5055  0.3117 -2.3187
 7091SOL    HW232733   4.044   0.375  10.852  0.3891 -1.8393 -0.1454
 7092SOL     OW32734   2.673   0.838   0.438 -0.2059  0.0061 -0.3285
 7092SOL    HW132735   2.712   0.925   0.431  0.8491 -0.5449 -1.3390
 7092SOL    HW232736   2.689   0.833   0.532  1.7189  0.1049 -0.6534
 7093SOL     OW32737   2.017   1.165   4.513 -0.0418  0.0041 -0.4345
 7093SOL    HW132738   1.945   1.138   4.457 -0.8865  0.8202  0.2599
 7093SOL    HW232739   2.078   1.092   4.515 -1.5170 -1.2073 -0.0085
 7094SOL     OW32740   3.752   0.164   5.923  0.1426 -0.1187  0.1114
 7094SOL    HW132741   3.742   0.124   5.837 -1.1897  1.1907 -0.3420
 7094SOL    HW232742   3.786   0.091   5.975 -2.8786 -2.3322 -1.0112
 7095SOL     OW32743   3.747   2.389   7.381 -0.6773 -0.5929  0.1826
 7095SOL    HW132744   3.738   2.296   7.400 -0.6103 -0.6779 -0.2062
 7095SOL    HW232745   3.840   2.389   7.404 -0.6911 -1.6379  0.2199
 7096SOL     OW32746   4.317   3.185   2.143 -0.3221 -0.2282  0.4439
 7096SOL    HW132747   4.221   3.183   2.140 -0.3690  2.7164 -0.2764
 7096SOL    HW232748   4.339   3.122   2.211  1.9292 -1.2856 -1.2712
 7097SOL     OW32749   2.449   0.001   4.256  0.1587 -0.3678 -0.2018
 7097SOL    HW132750   2.376   4.659   4.258 -0.4108  0.3038 -0.3624
 7097SOL    HW232751   2.406   0.085   4.267  0.0983 -0.3641 -0.4803
 7098SOL     OW32752   0.168   3.483  14.230  0.1845 -0.5118  0.1384
 7098SOL    HW132753   0.127   3.493  14.144 -0.4519  3.0444  0.8672
 7098SOL    HW232754   0.131   3.562  14.270  1.2646 -0.5044  1.1238
 7099SOL     OW32755   2.747   1.705  17.004  0.8804  0.1182 -0.2717
 7099SOL    HW132756   2.803   1.628  17.007  1.7893  0.8620  1.8297
 7099SOL    HW232757   2.759   1.715  16.909 -0.7746 -0.1120 -0.5045
 7100SOL     OW32758   3.471   2.429   0.031  0.5063  0.3461  0.0938
 7100SOL    HW132759   3.503   2.512  17.680  1.2160 -0.2256 -0.6337
 7100SOL    HW232760   3.438   2.380  17.639 -3.3161 -0.0268  1.9895
 7101SOL     OW32761   3.933   0.359   8.049  0.1992  0.0136 -0.6591
 7101SOL    HW132762   3.901   0.307   8.123 -0.4471 -0.1961 -1.0898
 7101SOL    HW232763   3.919   0.297   7.977 -3.0561  0.4812 -0.3927
 7102SOL     OW32764   2.135   2.387   6.758 -1.0830 -0.3414 -0.4224
 7102SOL    HW132765   2.125   2.455   6.825 -1.6792  2.2130 -3.1042
 7102SOL    HW232766   2.149   2.448   6.685  1.2735 -1.1783 -0.6621
 7103SOL     OW32767   3.003   2.614   1.678 -0.2477  0.3829  0.4883
 7103SOL    HW132768   2.934   2.558   1.641  2.5011 -2.5444 -0.2029
 7103SOL    HW232769   2.950   2.658   1.745 -3.1989 -0.6597 -1.1534
 7104SOL     OW32770   3.746   0.089   8.065 -0.9907 -0.1202 -0.7687
 7104SOL    HW132771   3.702   0.119   8.145 -1.7301 -0.2963 -1.1070
 7104SOL    HW232772   3.698   0.011   8.038 -1.3564 -0.3575  0.5537
 7105SOL     OW32773   0.402   0.757   6.882  0.2128  0.4892  0.1481
 7105SOL    HW132774   0.380   0.692   6.816  0.3913  0.7693 -0.1830
 7105SOL    HW232775   0.436   0.696   6.948  1.7020 -0.4271 -1.4680
 7106SOL     OW32776   1.941   2.141   8.849  0.0445 -0.0441  0.4917
 7106SOL    HW132777   1.861   2.180   8.813 -0.7521 -0.4760  1.7742
 7106SOL    HW232778   1.943   2.066   8.790 -0.8264  0.5991 -0.3613
 7107SOL     OW32779   0.366   3.164  12.312 -0.4841  0.1975  0.6925
 7107SOL    HW132780   0.361   3.150  12.217  0.8194 -0.7255  0.7593
 7107SOL    HW232781   0.397   3.078  12.337  0.0840  0.3353  0.4530
 7108SOL     OW32782   1.405   0.728   6.295 -0.4169  0.3741 -0.2301
 7108SOL    HW132783   1.386   0.639   6.265 -0.6941  0.2336  0.3716
 7108SOL    HW232784   1.341   0.748   6.363  0.9129  2.1585  0.4878
 7109SOL     OW32785   3.330   3.424   9.372  0.1775  0.1522 -0.1920
 7109SOL    HW132786   3.322   3.511   9.333  1.8982 -0.2621 -1.4668
 7109SOL    HW232787   3.425   3.419   9.383  0.3101  1.0029 -0.9193
 7110SOL     OW32788   4.570   1.891  14.858 -0.1159 -0.1751  0.4084
 7110SOL    HW132789   4.560   1.986  14.847  0.0701 -0.0812  1.0204
 7110SOL    HW232790   4.602   1.886  14.949  0.0611 -1.6299  0.2688
 7111SOL     OW32791   1.379   2.019   3.276 -0.1808 -0.4776  0.6639
 7111SOL    HW132792   1.346   2.024   3.366 -2.0961 -0.7014 -0.0294
 7111SOL    HW232793   1.381   1.924   3.264  0.4937 -0.3129 -0.4494
 7112SOL     OW32794   1.168   1.388   0.302 -0.1641 -0.2476  0.4123
 7112SOL    HW132795   1.085   1.425   0.271 -1.3944 -1.1048  2.6550
 7112SOL    HW232796   1.221   1.467   0.311 -1.5311  1.0416 -2.7998
 7113SOL     OW32797   3.218   0.504   8.361  0.5690 -0.0867 -0.9258
 7113SOL    HW132798   3.223   0.456   8.278 -1.3609 -0.3311 -0.9140
 7113SOL    HW232799   3.270   0.461   8.429 -0.6635  0.3190  0.2796
 7114SOL     OW32800   4.589   3.367   9.546 -0.7191  0.0668  0.0283
 7114SOL    HW132801   4.684   3.370   9.562 -0.3952 -2.2127 -1.4525
 7114SOL    HW232802   4.555   3.420   9.618 -1.6766 -1.7162  0.8763
 7115SOL     OW32803   1.122   2.023  16.433  0.1456 -0.1043  0.4802
 7115SOL    HW132804   1.083   1.946  16.392  1.3270 -0.5070  0.1292
 7115SOL    HW232805   1.196   1.983  16.478  0.8727  0.0373 -0.6183
 7116SOL     OW32806   3.478   0.366  12.763  0.3539  0.2555  0.8035
 7116SOL    HW132807   3.391   0.371  12.723 -0.0380 -0.7350  1.5382
 7116SOL    HW232808   3.528   0.421  12.703 -1.4336  2.1248  1.0091
 7117SOL     OW32809   2.050   1.762   3.815  0.7062 -0.1032  0.1572
 7117SOL    HW132810   2.011   1.834   3.864 -2.2956 -0.2923 -1.9827
 7117SOL    HW232811   1.985   1.760   3.745  0.1400  1.8045  0.6404
 7118SOL     OW32812   1.269   4.391   4.667  0.0376  0.6503 -0.9632
 7118SOL    HW132813   1.194   4.346   4.628 -0.8421  0.5462  0.8618
 7118SOL    HW232814   1.280   4.467   4.610  0.8839  0.3807 -1.1522
 7119SOL     OW32815   2.434   2.426   2.052 -0.6305  0.1111  0.5609
 7119SOL    HW132816   2.345   2.419   2.018  0.5923 -1.0516 -2.4091
 7119SOL    HW232817   2.480   2.347   2.022 -3.8465 -0.7181 -2.1065
 7120SOL     OW32818   2.356   2.806   4.909 -0.0800 -0.4503 -0.1420
 7120SOL    HW132819   2.285   2.834   4.851  0.2286 -1.8028 -1.1648
 7120SOL    HW232820   2.416   2.879   4.925  0.7166 -1.1646  0.1014
 7121SOL     OW32821   2.118   2.754   7.125  0.5938 -0.5280 -0.0958
 7121SOL    HW132822   2.186   2.749   7.191  0.3948  0.5747  0.1923
 7121SOL    HW232823   2.036   2.763   7.173  0.6236 -0.6298 -0.0263
 7122SOL     OW32824   3.533   1.285   2.689 -0.6585  0.7173 -0.0206
 7122SOL    HW132825   3.616   1.334   2.687  1.0634 -2.2108  0.4108
 7122SOL    HW232826   3.490   1.333   2.618 -1.4885 -1.9061 -1.3004
 7123SOL     OW32827   0.519   4.486   6.133  0.5494  0.0819 -0.2426
 7123SOL    HW132828   0.587   4.484   6.064  1.4561  0.3885  0.6401
 7123SOL    HW232829   0.532   4.397   6.167 -3.0957 -0.1750  0.3755
 7124SOL     OW32830   1.692   2.360  12.224  0.2528  0.7992  0.2616
 7124SOL    HW132831   1.651   2.343  12.308  0.1104  0.2816  0.0890
 7124SOL    HW232832   1.706   2.267  12.209 -1.0097  0.7311 -0.5059
 7125SOL     OW32833   3.895   2.232   4.844  0.1794 -0.4402 -0.0107
 7125SOL    HW132834   3.836   2.251   4.917  1.0538 -1.2189  0.8972
 7125SOL    HW232835   3.908   2.141   4.871 -0.3209 -0.4095  0.3374
 7126SOL     OW32836   3.881   4.648   2.444  0.3543 -0.1279 -0.1195
 7126SOL    HW132837   3.793   4.612   2.432  0.9560 -1.5162 -0.3647
 7126SOL    HW232838   3.913   4.583   2.506 -1.0563 -0.8883 -0.1877
 7127SOL     OW32839   3.009   2.646  11.532  0.1221  0.0618 -0.0634
 7127SOL    HW132840   2.984   2.714  11.595  0.5770  0.1839 -0.0123
 7127SOL    HW232841   2.928   2.611  11.495  0.6201 -0.8850 -0.2692
 7128SOL     OW32842   1.179   1.975   2.969 -0.0912  0.0808  0.7109
 7128SOL    HW132843   1.266   1.940   2.951 -0.3385 -0.6948  1.0752
 7128SOL    HW232844   1.118   1.913   2.930  1.2319 -0.9820  0.3302
 7129SOL     OW32845   4.654   3.451  10.031 -0.2688  0.6356  0.3170
 7129SOL    HW132846   4.664   3.386  10.100 -0.7793  0.7504  0.4981
 7129SOL    HW232847   4.644   3.527  10.089 -0.7254  0.0988  0.9322
 7130SOL     OW32848   2.820   3.215   2.808  0.5864  1.0419  0.0828
 7130SOL    HW132849   2.843   3.253   2.723  0.7912  0.9536  0.0994
 7130SOL    HW232850   2.809   3.288   2.868  1.9748  2.0403 -0.8838
 7131SOL     OW32851   2.779   2.380  14.768  0.2702  0.1606 -0.4678
 7131SOL    HW132852   2.708   2.400  14.829  0.4940 -0.2188 -0.0881
 7131SOL    HW232853   2.842   2.324  14.813  0.5582  0.7732 -0.1089
 7132SOL     OW32854   3.965   2.805   2.557 -0.2067  0.0943  0.1366
 7132SOL    HW132855   3.934   2.714   2.559 -0.5411  0.0724 -5.6644
 7132SOL    HW232856   3.973   2.807   2.462  0.0853  0.7032  0.1734
 7133SOL     OW32857   0.669   1.149   1.490  0.0322 -0.5989  0.4784
 7133SOL    HW132858   0.622   1.069   1.514  1.3319 -0.5220  3.3072
 7133SOL    HW232859   0.707   1.119   1.407  1.4886  1.0722  0.5467
 7134SOL     OW32860   2.052   2.201   9.101 -0.1720  0.0440  0.1564
 7134SOL    HW132861   2.004   2.187   9.019  0.8993 -1.0744 -0.2857
 7134SOL    HW232862   2.103   2.121   9.116  1.3830  1.0115 -0.0765
 7135SOL     OW32863   4.687   2.181   7.917  0.5791  0.2799  0.0138
 7135SOL    HW132864   4.600   2.156   7.948  0.9611 -0.3279  0.6044
 7135SOL    HW232865   4.688   2.274   7.939  0.8919 -0.4205  2.9934
 7136SOL     OW32866   3.034   1.618   5.137  0.2405  0.1645  1.0371
 7136SOL    HW132867   3.081   1.536   5.147 -0.4583 -0.5768 -1.9773
 7136SOL    HW232868   3.032   1.628   5.042 -1.2274 -0.3685  1.0155
 7137SOL     OW32869   1.000   1.954   0.719  0.0994  0.0430  0.0545
 7137SOL    HW132870   0.986   1.912   0.804  1.6291  0.0654  0.3178
 7137SOL    HW232871   1.079   1.904   0.701 -0.1052  0.5419 -2.2289
 7138SOL     OW32872   3.686   2.210   4.648 -0.0727 -0.4006  0.4768
 7138SOL    HW132873   3.741   2.277   4.687  0.4293  0.2895 -1.4284
 7138SOL    HW232874   3.659   2.163   4.727  2.8289 -2.0117  0.4993
 7139SOL     OW32875   1.544   1.181   4.950  0.1830  0.1975  0.0220
 7139SOL    HW132876   1.544   1.238   5.027  1.5768  1.0685 -0.6399
 7139SOL    HW232877   1.637   1.164   4.937  0.1520 -1.2531  1.5944
 7140SOL     OW32878   3.257   3.598  12.412  0.7740 -0.0183 -0.4582
 7140SOL    HW132879   3.215   3.673  12.452  0.8068 -0.7098  0.8530
 7140SOL    HW232880   3.347   3.611  12.443  0.8002 -2.0691  0.2780
 7141SOL     OW32881   1.353   2.757   3.957 -0.1791  0.0473 -0.0383
 7141SOL    HW132882   1.316   2.790   3.875  0.9358  0.8886 -0.2135
 7141SOL    HW232883   1.321   2.667   3.960  0.6108 -0.1924  1.0612
 7142SOL     OW32884   0.396   2.980   7.653  0.1436 -0.1442  0.1204
 7142SOL    HW132885   0.354   2.962   7.568  0.8979 -2.1769  0.1673
 7142SOL    HW232886   0.327   3.018   7.706  0.6936  0.9594  0.0510
 7143SOL     OW32887   1.863   3.234   5.135  0.2951 -0.3045  0.2832
 7143SOL    HW132888   1.902   3.321   5.143  0.0079 -0.2754  1.4742
 7143SOL    HW232889   1.800   3.247   5.065 -1.9402 -1.2505  2.1212
 7144SOL     OW32890   1.057   0.813   8.276 -0.2117 -0.0136  0.0417
 7144SOL    HW132891   1.055   0.777   8.365 -0.2630  1.3464  0.5918
 7144SOL    HW232892   0.972   0.856   8.266  0.1425  0.0860 -2.5825
 7145SOL     OW32893   4.297   0.417   3.763  0.3580 -0.1601  0.1798
 7145SOL    HW132894   4.358   0.354   3.724  0.9321  0.0775  0.6950
 7145SOL    HW232895   4.211   0.389   3.732 -0.0934 -2.7721  3.8030
 7146SOL     OW32896   0.656   0.811  14.807  0.3850 -0.5377  0.1448
 7146SOL    HW132897   0.688   0.735  14.758 -3.2157 -0.9922 -1.4793
 7146SOL    HW232898   0.738   0.844  14.846 -1.2404  0.3666  2.7891
 7147SOL     OW32899   4.034   3.389   6.598 -0.4115 -0.6930  0.8376
 7147SOL    HW132900   4.001   3.311   6.553 -1.2993 -0.6905  1.4976
 7147SOL    HW232901   3.972   3.453   6.563 -0.1950 -1.7530 -1.4863
 7148SOL     OW32902   1.383   3.908   7.162 -0.1692 -0.2475  0.2336
 7148SOL    HW132903   1.328   3.933   7.088 -1.1869  1.4234  1.5662
 7148SOL    HW232904   1.468   3.922   7.122 -1.1594 -1.0783 -2.1541
 7149SOL     OW32905   2.533   1.122   3.821 -0.1733 -0.4093 -0.6397
 7149SOL    HW132906   2.439   1.106   3.825 -0.0369 -0.9975  0.2078
 7149SOL    HW232907   2.564   1.049   3.769  0.5884 -0.6648  0.1629
 7150SOL     OW32908   2.323   0.235   3.990 -0.5715  0.6468 -0.3920
 7150SOL    HW132909   2.360   0.168   3.931 -0.4722  1.4800 -1.2770
 7150SOL    HW232910   2.236   0.235   3.951 -0.6668  1.6264 -0.1672
 7151SOL     OW32911   3.193   1.894  13.363 -0.0138  0.0676 -0.3044
 7151SOL    HW132912   3.248   1.968  13.389  0.7645 -1.1047  1.4596
 7151SOL    HW232913   3.259   1.825  13.369 -0.3327 -0.0785  1.5469
 7152SOL     OW32914   0.138   0.517   3.643 -0.1989  0.1165 -0.0018
 7152SOL    HW132915   0.093   0.551   3.566  0.2233  0.7296  0.0227
 7152SOL    HW232916   0.227   0.540   3.619  0.2630 -0.3585  1.2352
 7153SOL     OW32917   3.726   0.694   6.299  0.0865 -0.5551  0.5275
 7153SOL    HW132918   3.642   0.668   6.261 -1.2498  0.0126  3.1130
 7153SOL    HW232919   3.778   0.724   6.224  0.6360  3.3061  2.4413
 7154SOL     OW32920   2.372   2.761   9.621  0.2153 -0.1953 -0.1766
 7154SOL    HW132921   2.364   2.818   9.698 -2.2224  0.5165 -0.9821
 7154SOL    HW232922   2.462   2.773   9.589  0.5513 -1.4471  0.2996
 7155SOL     OW32923   3.612   1.417   1.605  0.1503  0.5739  0.2180
 7155SOL    HW132924   3.571   1.345   1.654 -1.6440 -0.5161 -2.8601
 7155SOL    HW232925   3.572   1.492   1.650  1.0922  0.6859  0.8778
 7156SOL     OW32926   1.506   0.169   6.873 -0.0918 -0.2700 -0.3375
 7156SOL    HW132927   1.522   0.099   6.937 -3.8739 -1.9232 -1.2034
 7156SOL    HW232928   1.524   0.250   6.922  0.1905 -1.0033  0.7887
 7157SOL     OW32929   2.686   3.358   4.159 -0.1772  0.2489 -0.0338
 7157SOL    HW132930   2.677   3.341   4.253  0.3206  0.2633  0.0158
 7157SOL    HW232931   2.715   3.449   4.152  0.7785  0.0684  1.5669
 7158SOL     OW32932   2.571   1.035   6.984  0.0501 -0.1422  0.2984
 7158SOL    HW132933   2.623   1.093   6.928  0.0508  0.7625  1.2567
 7158SOL    HW232934   2.553   1.097   7.054 -1.0657  0.5100 -0.5644
 7159SOL     OW32935   4.028   0.691   1.487 -0.2507 -0.0760  0.3947
 7159SOL    HW132936   3.943   0.725   1.514 -1.4531 -1.4831 -1.6210
 7159SOL    HW232937   4.082   0.760   1.525 -0.3823 -0.4207  1.2029
 7160SOL     OW32938   2.361   4.563  13.426  0.0738  0.0905  0.3514
 7160SOL    HW132939   2.378   4.482  13.474  0.3323 -0.2152 -0.2576
 7160SOL    HW232940   2.276   4.586  13.464 -0.7589 -2.2753 -0.1359
 7161SOL     OW32941   0.727   0.895   9.302  0.1440  0.4006 -0.6393
 7161SOL    HW132942   0.715   0.801   9.291 -1.5851  0.3398  1.6522
 7161SOL    HW232943   0.639   0.926   9.323  0.5863  0.6130  0.9391
 7162SOL     OW32944   0.851   3.358   2.494 -0.3886 -0.0061  0.1390
 7162SOL    HW132945   0.808   3.434   2.456 -0.9205  1.3754  3.4809
 7162SOL    HW232946   0.816   3.373   2.582  0.2777  2.1986  0.0147
 7163SOL     OW32947   1.631   2.301   3.613  0.1190  0.1827 -0.3608
 7163SOL    HW132948   1.716   2.284   3.654  0.7215  1.4871 -1.0483
 7163SOL    HW232949   1.669   2.324   3.528 -1.5035  1.8445 -0.6288
 7164SOL     OW32950   2.299   2.037   5.929  0.3677 -0.2259  0.1033
 7164SOL    HW132951   2.277   2.130   5.924  3.0064  0.3892 -0.2087
 7164SOL    HW232952   2.269   1.999   5.847  1.3439 -1.4147  0.2955
 7165SOL     OW32953   1.830   2.456   6.005  0.0963  0.4603  0.0133
 7165SOL    HW132954   1.904   2.437   5.948 -0.1325 -0.4797  0.0341
 7165SOL    HW232955   1.851   2.536   6.053 -0.8906  0.4183  0.5052
 7166SOL     OW32956   4.674   1.314  13.064  0.1319 -0.2101 -0.0603
 7166SOL    HW132957   4.669   1.263  12.983  2.7662  0.5344 -0.6862
 7166SOL    HW232958   4.598   1.276  13.108 -0.2044 -0.8877 -1.2223
 7167SOL     OW32959   1.795   3.409   3.416 -0.2091 -0.2451  0.0536
 7167SOL    HW132960   1.727   3.345   3.396 -0.3767  0.1786 -0.7473
 7167SOL    HW232961   1.787   3.410   3.512 -1.3018  2.0449 -0.0589
 7168SOL     OW32962   4.113   4.439  10.908  0.1187  0.0865 -0.2635
 7168SOL    HW132963   4.208   4.439  10.912  0.0947  3.2779  0.4905
 7168SOL    HW232964   4.087   4.464  10.997  0.2576 -1.4788  0.2050
 7169SOL     OW32965   0.372   0.075  16.255  0.1370  0.3846 -0.1852
 7169SOL    HW132966   0.307   0.005  16.254  2.2503 -1.5562  0.7207
 7169SOL    HW232967   0.336   0.134  16.321 -2.6503 -0.9939 -0.4556
 7170SOL     OW32968   3.494   1.028   5.794  0.6512  0.1953  0.5397
 7170SOL    HW132969   3.501   1.088   5.720 -0.9860  0.1207  0.3353
 7170SOL    HW232970   3.416   0.979   5.768  1.5154 -1.5733  1.2041
 7171SOL     OW32971   2.555   3.736   7.957 -0.1618 -0.1611  0.3425
 7171SOL    HW132972   2.526   3.809   8.012  0.6370  1.2495 -1.0835
 7171SOL    HW232973   2.646   3.730   7.987 -0.4790  0.6774  1.4715
 7172SOL     OW32974   1.469   1.759   7.867 -0.2956 -0.1157 -0.0454
 7172SOL    HW132975   1.406   1.831   7.872 -0.4205 -0.2314  0.0737
 7172SOL    HW232976   1.512   1.779   7.950 -0.0685  0.4988 -0.3118
 7173SOL     OW32977   4.497   4.591  10.727 -0.3146 -0.3060 -0.4912
 7173SOL    HW132978   4.563   4.641  10.678 -1.5644  0.3363 -1.5138
 7173SOL    HW232979   4.421   4.600  10.669  1.2394  0.4238 -2.4256
 7174SOL     OW32980   3.789   3.060  16.954  0.5730  0.4729 -0.2166
 7174SOL    HW132981   3.852   3.011  16.901 -1.3239  1.1296 -3.0222
 7174SOL    HW232982   3.723   3.084  16.890 -0.2449  0.7095  0.7072
 7175SOL     OW32983   0.102   1.084   0.752  0.4496 -0.2619  0.1027
 7175SOL    HW132984   0.175   1.123   0.704  1.6141 -0.1736  1.9558
 7175SOL    HW232985   0.135   1.046   0.833  0.4058  0.0551  0.2674
 7176SOL     OW32986   2.100   2.874   2.594 -0.0049 -0.0127  0.3115
 7176SOL    HW132987   2.006   2.891   2.594  0.2952  1.7569 -0.4254
 7176SOL    HW232988   2.110   2.779   2.591  0.2472  0.0242 -0.1441
 7177SOL     OW32989   3.845   0.138   7.493  0.2829 -0.4670  0.0528
 7177SOL    HW132990   3.885   0.133   7.406 -2.2347 -0.4944 -1.1126
 7177SOL    HW232991   3.754   0.135   7.464 -0.1075 -1.8376  1.4135
 7178SOL     OW32992   2.283   4.361   2.246 -0.5989 -0.5064  0.0698
 7178SOL    HW132993   2.263   4.391   2.335  3.1488 -1.5884  1.2627
 7178SOL    HW232994   2.259   4.436   2.192 -0.6233  1.4769  2.8637
 7179SOL     OW32995   3.826   4.276  10.130  0.1006 -0.2455 -0.2511
 7179SOL    HW132996   3.783   4.262  10.214 -1.1557  2.4153 -0.4301
 7179SOL    HW232997   3.796   4.366  10.112 -0.2996 -0.3108  0.0958
 7180SOL     OW32998   2.030   4.320   2.672 -0.4584  0.1804 -0.3910
 7180SOL    HW132999   1.940   4.288   2.669 -1.2049  2.2595  0.4155
 7180SOL    HW233000   2.040   4.394   2.613  0.4677 -1.1987 -1.9840
 7181SOL     OW33001   1.215   2.551   6.060 -0.0849 -0.6079  0.3134
 7181SOL    HW133002   1.133   2.504   6.047 -0.4080  0.6551 -2.2080
 7181SOL    HW233003   1.275   2.489   6.103  1.0852 -0.4564 -1.0829
 7182SOL     OW33004   1.361   2.221  10.612  0.1435 -0.2462 -0.0889
 7182SOL    HW133005   1.384   2.175  10.692 -3.4367 -0.7699  0.6372
 7182SOL    HW233006   1.269   2.243  10.628  0.3474 -0.9420  1.9740
 7183SOL     OW33007   3.835   0.069   6.474 -0.5940  0.0721 -0.3016
 7183SOL    HW133008   3.767   0.005   6.453 -1.3900  0.2478  1.7450
 7183SOL    HW233009   3.885   0.071   6.392  0.5215  0.8740  0.3950
 7184SOL     OW33010   1.358   0.435  15.681  0.2012 -0.2907  0.1693
 7184SOL    HW133011   1.363   0.344  15.711 -1.5363 -1.2215 -2.3864
 7184SOL    HW233012   1.446   0.460  15.655 -0.4428  0.4715 -1.2394
 7185SOL     OW33013   2.498   2.909   8.046 -0.5079 -0.0734 -0.1486
 7185SOL    HW133014   2.455   2.931   8.128 -0.3920 -0.1393 -0.0692
 7185SOL    HW233015   2.510   2.815   8.058  0.5762  0.1803  0.7345
 7186SOL     OW33016   2.998   4.052  11.084  0.0043 -0.4410  0.0593
 7186SOL    HW133017   2.944   4.127  11.109 -0.2679 -0.4945 -0.3580
 7186SOL    HW233018   2.933   3.984  11.068  1.1890 -1.9822  1.7734
 7187SOL     OW33019   0.627   1.625   5.912 -0.1234  0.0590  0.5409
 7187SOL    HW133020   0.574   1.546   5.899 -0.7113  0.4224  0.7099
 7187SOL    HW233021   0.709   1.592   5.949 -1.1952 -1.3033  1.7600
 7188SOL     OW33022   2.534   3.728   5.617 -0.3647 -0.2530  0.1729
 7188SOL    HW133023   2.595   3.749   5.689 -0.0092 -0.9249  0.0688
 7188SOL    HW233024   2.593   3.704   5.546  0.0212 -0.0538  0.4208
 7189SOL     OW33025   4.461   1.522  11.796  0.0344 -0.2519  0.0142
 7189SOL    HW133026   4.367   1.541  11.797  0.1091  0.0464  1.8410
 7189SOL    HW233027   4.463   1.440  11.748 -0.3021  0.1674 -0.7229
 7190SOL     OW33028   3.905   1.709  15.473  0.0654 -0.2887 -0.1897
 7190SOL    HW133029   3.984   1.722  15.525  0.8076  0.2027 -1.4220
 7190SOL    HW233030   3.902   1.615  15.490 -2.7107 -0.4293 -1.4994
 7191SOL     OW33031   1.955   1.205  15.229  0.0671  0.1973  0.2764
 7191SOL    HW133032   2.031   1.219  15.286  1.0942  2.5490 -1.6636
 7191SOL    HW233033   1.994   1.198  15.142  0.7622 -1.0961  0.6881
 7192SOL     OW33034   0.344   3.939   2.704  0.2173  0.6938 -0.4046
 7192SOL    HW133035   0.433   3.972   2.716 -0.2448  1.4508  0.9295
 7192SOL    HW233036   0.331   3.952   2.610 -0.8414  2.0219 -0.0789
 7193SOL     OW33037   0.992   3.567  15.194  0.4535  0.2937 -0.3156
 7193SOL    HW133038   0.912   3.583  15.245 -0.5410 -0.2012 -1.6939
 7193SOL    HW233039   0.977   3.600  15.105 -0.4977  0.5642 -0.0635
 7194SOL     OW33040   2.473   1.343   2.487  0.1675 -0.3729  0.1408
 7194SOL    HW133041   2.505   1.360   2.398 -0.6543  1.8305  0.2849
 7194SOL    HW233042   2.458   1.248   2.483 -0.7905 -0.2175 -0.1323
 7195SOL     OW33043   0.332   0.636   2.964  0.2702  0.3265  0.3330
 7195SOL    HW133044   0.396   0.648   2.893  0.1327 -1.6741 -0.1356
 7195SOL    HW233045   0.321   0.541   2.960  2.1836  0.0909  0.6581
 7196SOL     OW33046   2.684   4.135   6.499  0.1152  0.1486 -0.0608
 7196SOL    HW133047   2.681   4.118   6.594  0.2088 -1.7974 -0.4054
 7196SOL    HW233048   2.606   4.189   6.489 -0.3033 -0.8264 -1.9767
 7197SOL     OW33049   4.336   0.657   3.163 -0.0609  0.1380 -0.0622
 7197SOL    HW133050   4.272   0.638   3.094 -0.0494  0.4263 -0.1558
 7197SOL    HW233051   4.319   0.751   3.175  0.3044  0.1770  0.1473
 7198SOL     OW33052   2.610   4.560  11.516  0.6522 -0.3545 -0.0650
 7198SOL    HW133053   2.588   4.566  11.609 -0.2189  0.9707 -0.3430
 7198SOL    HW233054   2.640   4.647  11.489  0.2510 -0.0730  0.3955
 7199SOL     OW33055   4.651   0.797   9.224 -0.1919  0.4341  0.0880
 7199SOL    HW133056   4.702   0.825   9.147 -1.4316 -0.7853 -1.1627
 7199SOL    HW233057   4.591   0.734   9.184  0.6587  0.5960 -1.4789
 7200SOL     OW33058   1.496   0.311   7.547 -0.2271  0.1487 -0.0635
 7200SOL    HW133059   1.434   0.375   7.583  1.2104  1.0647  0.7961
 7200SOL    HW233060   1.444   0.231   7.537 -2.2760  1.1342  2.5426
 7201SOL     OW33061   2.154   1.500  13.589 -0.2848  0.9709 -0.2389
 7201SOL    HW133062   2.235   1.507  13.538 -0.4185  1.8652 -0.3345
 7201SOL    HW233063   2.104   1.422  13.563 -0.8541  0.8349  1.3103
 7202SOL     OW33064   0.064   2.822  16.513 -0.0556 -0.1215 -0.6878
 7202SOL    HW133065   0.079   2.825  16.607  0.7982  0.2922 -0.8276
 7202SOL    HW233066   0.134   2.766  16.480  1.7033  1.3905  0.4830
 7203SOL     OW33067   2.145   1.954  16.953 -0.6794  0.6597 -0.2929
 7203SOL    HW133068   2.198   2.030  16.929  1.8456 -0.1594  2.6495
 7203SOL    HW233069   2.088   1.998  17.016 -1.4075  2.2452 -2.0622
 7204SOL     OW33070   4.099   0.299   6.415  0.5157 -0.3246 -0.1781
 7204SOL    HW133071   4.085   0.220   6.362 -0.1961  0.1703 -0.7387
 7204SOL    HW233072   4.028   0.349   6.375 -0.8276 -0.8594  1.5409
 7205SOL     OW33073   4.349   1.593   6.752 -0.5324 -0.3239  0.2576
 7205SOL    HW133074   4.295   1.516   6.770 -0.0522 -0.1813  2.3839
 7205SOL    HW233075   4.289   1.630   6.687  0.3950  1.1438  0.2445
 7206SOL     OW33076   4.013   3.982   7.347 -0.2760  0.1075  0.2770
 7206SOL    HW133077   4.038   4.015   7.261  2.9809 -3.1338 -0.0173
 7206SOL    HW233078   4.044   4.060   7.393  3.1106 -0.3697 -1.1940
 7207SOL     OW33079   1.214   1.957   0.399  0.0125  0.1550 -0.3072
 7207SOL    HW133080   1.141   1.970   0.338 -0.8672 -0.1493  0.6835
 7207SOL    HW233081   1.167   1.950   0.481 -0.8259 -0.7345 -0.8654
 7208SOL     OW33082   0.509   4.254   6.286  0.3357 -0.0379 -0.3033
 7208SOL    HW133083   0.549   4.307   6.355  3.1006  0.4342 -2.2603
 7208SOL    HW233084   0.429   4.230   6.332 -0.7684  2.4751 -0.9434
 7209SOL     OW33085   0.511   4.463   2.949 -0.2748  0.2764 -0.0406
 7209SOL    HW133086   0.518   4.538   2.890 -1.2947 -2.5106 -3.7265
 7209SOL    HW233087   0.466   4.493   3.027  0.2483 -1.0561  0.7731
 7210SOL     OW33088   0.069   1.917   3.888  0.1971  0.1877 -0.4246
 7210SOL    HW133089   0.096   2.003   3.855  1.5180  0.0634  0.3130
 7210SOL    HW233090   0.151   1.881   3.922  0.5781  0.4578 -1.0480
 7211SOL     OW33091   1.552   2.331   9.221 -1.0957  0.0105  0.3065
 7211SOL    HW133092   1.522   2.240   9.225  0.7330 -0.5372  1.4412
 7211SOL    HW233093   1.642   2.319   9.188 -0.7683 -0.7555  1.4840
 7212SOL     OW33094   3.896   3.004   3.055 -0.1823 -0.2425 -0.2405
 7212SOL    HW133095   3.848   2.998   2.973 -1.9740  0.4643  0.7532
 7212SOL    HW233096   3.948   3.084   3.043  0.3220 -0.7158 -1.1883
 7213SOL     OW33097   2.179   0.902   7.252  0.0897 -0.5872 -0.1671
 7213SOL    HW133098   2.215   0.926   7.167  1.8301 -0.1895  0.6820
 7213SOL    HW233099   2.108   0.841   7.230  0.6302  0.0673 -3.7543
 7214SOL     OW33100   0.988   1.933   4.220 -0.3816  0.0492  0.1874
 7214SOL    HW133101   0.995   2.001   4.287  1.3091 -0.7371  0.8241
 7214SOL    HW233102   1.029   1.976   4.145  0.0961 -0.2191  0.2917
 7215SOL     OW33103   0.756   4.647   8.671 -0.5116  0.2366 -0.1986
 7215SOL    HW133104   0.769   4.621   8.762 -0.4468  0.8061 -0.0484
 7215SOL    HW233105   0.685   4.585   8.652  1.1264 -0.9889 -2.3165
 7216SOL     OW33106   3.165   4.108   6.245  0.3142  0.2540  0.2948
 7216SOL    HW133107   3.095   4.046   6.266 -0.0129  0.2962 -0.7182
 7216SOL    HW233108   3.157   4.106   6.150  1.1357  0.7320  0.2184
 7217SOL     OW33109   2.590   1.898   0.527  0.1118  0.2484  0.1619
 7217SOL    HW133110   2.603   1.883   0.620 -0.1677 -0.2681  0.1138
 7217SOL    HW233111   2.641   1.823   0.497 -0.1499  0.7326 -1.4819
 7218SOL     OW33112   1.631   4.680  11.762 -0.1999 -0.8005  0.6423
 7218SOL    HW133113   1.725   4.696  11.762 -0.4739  0.8501  0.6824
 7218SOL    HW233114   1.613   4.638  11.677  1.7527 -2.7802  1.2223
 7219SOL     OW33115   0.514   3.408  12.303 -0.0944 -0.7645  0.0125
 7219SOL    HW133116   0.509   3.413  12.399 -0.9445  3.1336 -0.2414
 7219SOL    HW233117   0.453   3.337  12.283 -1.3865  0.1477  0.7121
 7220SOL     OW33118   1.859   3.724   2.342 -0.1955 -0.0636  0.8113
 7220SOL    HW133119   1.827   3.806   2.379  0.4363  0.4134  0.2813
 7220SOL    HW233120   1.934   3.720   2.401  0.4867  0.2325 -0.0480
 7221SOL     OW33121   0.459   2.804   1.034 -0.4294 -0.4271  0.3263
 7221SOL    HW133122   0.440   2.755   0.955 -0.7679 -0.9656  0.7415
 7221SOL    HW233123   0.456   2.728   1.093  2.2797 -0.2534  0.7030
 7222SOL     OW33124   3.825   2.675  11.825  0.3217 -0.0222  0.0078
 7222SOL    HW133125   3.742   2.711  11.855 -0.3998 -0.3343 -1.6327
 7222SOL    HW233126   3.886   2.745  11.850  0.2534 -0.5147  1.5504
 7223SOL     OW33127   0.053   2.015   6.579 -0.3834  0.0967 -0.0381
 7223SOL    HW133128   0.147   2.010   6.565 -0.6554 -2.9349 -0.6971
 7223SOL    HW233129   0.046   2.090   6.638 -0.2563 -1.5408  2.0632
 7224SOL     OW33130   2.968   2.492   4.240  0.2423 -0.5955 -0.4065
 7224SOL    HW133131   2.933   2.562   4.185 -0.1464 -1.3468 -1.1100
 7224SOL    HW233132   2.932   2.418   4.192 -0.7959 -1.2356  1.3455
 7225SOL     OW33133   3.949   0.036   1.508 -0.1689  0.4189  0.2648
 7225SOL    HW133134   3.925   4.682   1.454 -1.3569  3.1743 -2.9700
 7225SOL    HW233135   4.001   0.092   1.450  0.2820 -1.4289 -1.0934
 7226SOL     OW33136   1.037   0.393  12.577 -0.2410  0.2072  0.6271
 7226SOL    HW133137   1.027   0.444  12.657  0.5215  0.8039  0.3433
 7226SOL    HW233138   1.067   0.467  12.524  1.2744 -2.1405 -1.8237
 7227SOL     OW33139   4.530   3.220   5.901  0.1285 -0.2060 -0.5596
 7227SOL    HW133140   4.528   3.204   5.995  0.6782  0.2487 -0.4728
 7227SOL    HW233141   4.615   3.189   5.869 -0.1564  0.5561 -2.0503
 7228SOL     OW33142   1.081   0.728   0.412  0.1116 -0.1743  0.5006
 7228SOL    HW133143   1.112   0.699   0.326 -0.5556  2.0028 -0.4619
 7228SOL    HW233144   1.052   0.816   0.391 -0.3682 -0.4599 -0.0366
 7229SOL     OW33145   2.057   4.030  12.494  0.1731  0.4200  0.2909
 7229SOL    HW133146   1.967   4.061  12.483  0.4091  0.7739 -0.6349
 7229SOL    HW233147   2.054   4.043  12.589  0.6963  1.6870  0.1417
 7230SOL     OW33148   2.999   4.036  13.123 -0.7583 -0.0054 -0.5981
 7230SOL    HW133149   3.028   3.973  13.056  1.9256 -2.0127  2.4747
 7230SOL    HW233150   2.909   4.005  13.135 -1.0730  0.6108 -1.3706
 7231SOL     OW33151   3.327   3.734   9.354 -0.2475  0.2500  0.2855
 7231SOL    HW133152   3.328   3.710   9.261 -2.4506 -0.9370  0.5493
 7231SOL    HW233153   3.241   3.773   9.368 -0.4682 -0.2840  0.4582
 7232SOL     OW33154   3.158   2.690   5.580  0.8697  0.2379  0.1853
 7232SOL    HW133155   3.171   2.774   5.538  0.2001  0.4780  0.4493
 7232SOL    HW233156   3.069   2.673   5.549  0.8263 -0.3434  0.6139
 7233SOL     OW33157   1.554   3.454   5.734  0.6594 -0.1049  0.6496
 7233SOL    HW133158   1.623   3.506   5.692 -0.7396  2.4506  1.5293
 7233SOL    HW233159   1.594   3.408   5.808 -2.1967 -1.6345  1.2158
 7234SOL     OW33160   4.400   0.902   8.642 -0.1034 -0.5541  0.5508
 7234SOL    HW133161   4.408   0.991   8.676 -2.3540  0.4932 -1.6884
 7234SOL    HW233162   4.310   0.879   8.662 -0.8043  0.4030 -1.4708
 7235SOL     OW33163   4.015   2.367   7.458 -0.5305 -0.7377 -0.3204
 7235SOL    HW133164   4.057   2.294   7.504 -0.9641  0.6895  2.3148
 7235SOL    HW233165   4.091   2.426   7.452 -0.6985 -0.4479  0.3744
 7236SOL     OW33166   3.060   2.873   5.811 -0.4224  0.4864 -0.0682
 7236SOL    HW133167   3.007   2.911   5.881  1.7541 -0.1489  1.9506
 7236SOL    HW233168   3.013   2.901   5.733 -1.8597  0.8898  0.9550
 7237SOL     OW33169   3.771   0.866   8.383 -0.1566 -0.6382 -0.4041
 7237SOL    HW133170   3.756   0.905   8.470  0.5203  1.0964 -1.0599
 7237SOL    HW233171   3.805   0.783   8.416  2.3407 -0.3758 -2.2907
 7238SOL     OW33172   1.528   4.315   4.570 -0.7848 -0.2849 -0.3388
 7238SOL    HW133173   1.507   4.358   4.487  2.2898 -0.8102 -1.3850
 7238SOL    HW233174   1.458   4.352   4.624 -1.0206  0.7123 -1.3351
 7239SOL     OW33175   0.880   3.760   7.507  0.2059 -0.1309 -0.1827
 7239SOL    HW133176   0.840   3.761   7.420 -2.3367 -2.0385  0.9736
 7239SOL    HW233177   0.908   3.669   7.521 -1.1205 -0.4392  0.4895
 7240SOL     OW33178   2.334   3.999  13.171 -0.3087  0.0397 -0.0076
 7240SOL    HW133179   2.333   4.082  13.123  1.0247  0.1384  0.1314
 7240SOL    HW233180   2.427   3.980  13.156 -1.0082 -1.4347 -2.5472
 7241SOL     OW33181   0.531   1.568   1.606  0.2923  0.8133  0.2220
 7241SOL    HW133182   0.618   1.591   1.573  0.1479 -0.0409 -0.7443
 7241SOL    HW233183   0.556   1.500   1.669  1.2807  1.7869  0.8786
 7242SOL     OW33184   1.795   0.415   7.964  0.0910  0.2567 -0.3964
 7242SOL    HW133185   1.743   0.405   7.884  0.4017  1.2958 -0.7305
 7242SOL    HW233186   1.805   0.510   7.968  0.2051  0.2339 -0.1516
 7243SOL     OW33187   2.412   3.325   2.489 -0.4620 -0.1838  0.4443
 7243SOL    HW133188   2.388   3.417   2.496  2.0178  0.2785  2.6141
 7243SOL    HW233189   2.423   3.300   2.581 -1.5128 -3.1756 -0.2257
 7244SOL     OW33190   4.507   1.908  13.352 -0.1942  0.2762  0.0121
 7244SOL    HW133191   4.513   1.968  13.427  0.7158 -0.4907  0.5533
 7244SOL    HW233192   4.599   1.906  13.327  0.2772  2.8807  1.5453
 7245SOL     OW33193   3.971   0.484  11.273  0.0240 -0.0897 -0.3883
 7245SOL    HW133194   3.882   0.495  11.307  0.1325 -2.0692  0.5236
 7245SOL    HW233195   3.959   0.511  11.182 -0.9169  0.6600 -0.0378
 7246SOL     OW33196   0.565   3.902  10.152  0.3276 -0.3440  0.5515
 7246SOL    HW133197   0.521   3.818  10.136 -0.1208 -0.4387  2.3728
 7246SOL    HW233198   0.639   3.884  10.209  1.1083 -3.6053 -1.4815
 7247SOL     OW33199   0.412   4.219   6.757  0.0837 -0.7162  0.1586
 7247SOL    HW133200   0.321   4.238   6.735 -0.1547 -1.5656  0.4025
 7247SOL    HW233201   0.412   4.130   6.720  1.0338 -0.1023 -1.3505
 7248SOL     OW33202   2.258   0.962   6.997  0.5119 -0.3041 -0.1037
 7248SOL    HW133203   2.185   0.973   6.937 -1.6387  1.7464  2.8529
 7248SOL    HW233204   2.317   1.030   6.963  1.4153  0.1825  2.4474
 7249SOL     OW33205   1.521   0.030   4.440 -0.1016 -0.5261 -0.8107
 7249SOL    HW133206   1.518   0.119   4.473  0.3860  0.4830 -3.4945
 7249SOL    HW233207   1.514   0.040   4.345 -1.6996 -0.1760 -0.6513
 7250SOL     OW33208   0.104   2.730  13.096  0.6724  0.1642  0.3458
 7250SOL    HW133209   0.017   2.768  13.108 -0.2120 -1.0995 -2.0028
 7250SOL    HW233210   0.124   2.695  13.182 -0.5799 -0.5595  0.3329
 7251SOL     OW33211   1.466   0.318   3.003 -0.0165  0.0668 -0.5712
 7251SOL    HW133212   1.474   0.242   2.945 -0.9347 -0.7583  0.3850
 7251SOL    HW233213   1.375   0.333   2.980 -1.1763  0.5623  4.3856
 7252SOL     OW33214   0.123   2.793  12.828  0.3869  0.4066 -0.0685
 7252SOL    HW133215   0.102   2.789  12.921 -0.4090 -0.8235 -0.2937
 7252SOL    HW233216   0.055   2.852  12.794 -0.6255  0.3574  1.8645
 7253SOL     OW33217   1.145   4.249  16.823 -0.5259 -1.0026 -0.1244
 7253SOL    HW133218   1.233   4.228  16.852 -0.3273  1.1682  0.8876
 7253SOL    HW233219   1.126   4.333  16.866 -1.8526 -1.2524 -0.2152
 7254SOL     OW33220   3.211   0.491  17.680 -0.2771  0.2358 -0.1005
 7254SOL    HW133221   3.133   0.542   0.018 -1.3332 -1.4953  0.1676
 7254SOL    HW233222   3.270   0.492   0.071 -0.1153  2.1055 -0.2376
 7255SOL     OW33223   2.857   2.174   5.865 -0.1204  0.0503  0.5145
 7255SOL    HW133224   2.811   2.210   5.941  0.3211  2.2555 -0.2663
 7255SOL    HW233225   2.870   2.250   5.808  0.2526  0.4471  1.1300
 7256SOL     OW33226   1.664   1.096   0.728 -0.3354 -0.1442 -0.3883
 7256SOL    HW133227   1.578   1.074   0.765 -1.9670  0.9412 -3.5051
 7256SOL    HW233228   1.664   1.187   0.757 -1.7537  0.7706 -3.2631
 7257SOL     OW33229   2.733   4.097   4.976 -0.3538 -0.5153  0.1218
 7257SOL    HW133230   2.732   4.076   4.883  0.3604  0.9734 -0.2092
 7257SOL    HW233231   2.657   4.154   4.980 -0.3269 -0.5507  1.2655
 7258SOL     OW33232   0.104   0.259   8.504  0.0304 -0.2083 -0.2236
 7258SOL    HW133233   0.102   0.354   8.506  2.2008 -0.2442  3.0869
 7258SOL    HW233234   0.102   0.243   8.410 -1.7588  0.2630 -0.2774
 7259SOL     OW33235   1.990   2.268   4.984 -0.0898  0.7813 -0.0767
 7259SOL    HW133236   1.929   2.246   5.054 -0.0874  0.3747 -0.2003
 7259SOL    HW233237   1.968   2.206   4.914  1.6529  1.3820 -1.1565
 7260SOL     OW33238   4.494   4.412   6.920 -0.3233 -0.0809 -0.3026
 7260SOL    HW133239   4.461   4.501   6.930 -1.7565 -0.5073 -1.2714
 7260SOL    HW233240   4.507   4.421   6.825 -2.6434  0.1175 -0.5995
 7261SOL     OW33241   4.521   0.487   5.915 -0.1161 -0.0307  0.3081
 7261SOL    HW133242   4.510   0.582   5.920 -0.9082 -0.1167  0.2487
 7261SOL    HW233243   4.501   0.473   6.008 -1.6920  0.8122  0.0908
 7262SOL     OW33244   2.933   2.453  12.551 -0.1839  0.0160 -0.0184
 7262SOL    HW133245   2.936   2.379  12.490 -2.3479  0.1083 -0.2548
 7262SOL    HW233246   2.893   2.408  12.626  0.2343 -0.0905  0.1387
 7263SOL     OW33247   0.195   2.935   2.775  0.0788  0.3828 -0.6434
 7263SOL    HW133248   0.259   2.991   2.819  1.0713 -1.9628  0.9415
 7263SOL    HW233249   0.242   2.889   2.704  0.9256  0.0933  0.1101
 7264SOL     OW33250   2.864   1.215   7.588  0.1807  0.7475 -0.0739
 7264SOL    HW133251   2.906   1.194   7.671 -0.4138 -1.5521 -0.3519
 7264SOL    HW233252   2.775   1.246   7.607  0.0599  0.8212 -0.7488
 7265SOL     OW33253   2.305   0.996   4.622  0.0110  0.0083  0.0190
 7265SOL    HW133254   2.361   0.935   4.574 -2.2018 -0.2871 -2.1781
 7265SOL    HW233255   2.222   0.949   4.631 -0.1119 -0.1004 -1.6483
 7266SOL     OW33256   4.225   2.617  15.837  0.5687 -0.2350 -0.6178
 7266SOL    HW133257   4.183   2.671  15.770 -1.1244 -1.2345 -0.3436
 7266SOL    HW233258   4.236   2.541  15.780  1.3688 -0.0479 -0.7179
 7267SOL     OW33259   1.807   2.740   0.095  0.1111  0.0408  0.1347
 7267SOL    HW133260   1.886   2.773   0.139 -1.4845  1.9149  1.6007
 7267SOL    HW233261   1.736   2.752   0.159  0.5245 -0.1726  0.6322
 7268SOL     OW33262   2.982   1.751  15.255  0.4689 -0.9240 -0.3332
 7268SOL    HW133263   2.962   1.670  15.303  1.6237 -0.2110  1.3200
 7268SOL    HW233264   3.075   1.758  15.236 -0.0848 -1.5082 -3.1748
 7269SOL     OW33265   3.663   4.526   8.002 -0.6561 -0.2908 -0.1163
 7269SOL    HW133266   3.646   4.477   7.922 -0.0589  0.0254 -0.4347
 7269SOL    HW233267   3.571   4.527   8.029 -0.8651  1.3083 -0.9406
 7270SOL     OW33268   1.967   1.141   5.019 -0.1630  0.7911  0.4587
 7270SOL    HW133269   2.053   1.179   5.004  1.3826 -2.8546 -0.0222
 7270SOL    HW233270   1.961   1.074   4.951 -0.1529  0.6430  0.6040
 7271SOL     OW33271   0.191   2.641   7.131  0.0380 -0.1107 -0.2004
 7271SOL    HW133272   0.113   2.658   7.183  0.5371 -0.1675  0.5641
 7271SOL    HW233273   0.217   2.730   7.109 -0.8296 -0.2403 -1.7872
 7272SOL     OW33274   0.840   3.798   6.445 -0.2965  0.4392 -0.3629
 7272SOL    HW133275   0.911   3.862   6.433  0.3309 -0.3683 -0.9636
 7272SOL    HW233276   0.889   3.716   6.440 -0.7278  0.0627  1.4348
 7273SOL     OW33277   1.771   0.283  16.996 -0.4710 -0.0016 -0.5063
 7273SOL    HW133278   1.733   0.220  16.934 -0.8676 -0.5915  0.3245
 7273SOL    HW233279   1.828   0.220  17.041  1.9771  2.0745 -0.6930
 7274SOL     OW33280   3.509   3.200  12.471  0.7781 -0.1947 -0.2048
 7274SOL    HW133281   3.525   3.210  12.565 -1.3119 -2.2905  0.3992
 7274SOL    HW233282   3.425   3.245  12.461  1.3312  0.6960 -0.8429
 7275SOL     OW33283   2.110   1.443   8.456  0.4812 -0.0352 -0.0787
 7275SOL    HW133284   2.181   1.394   8.416  1.6303  1.2381  0.3966
 7275SOL    HW233285   2.138   1.533   8.476  1.7658 -0.1688 -1.2906
 7276SOL     OW33286   3.841   1.823   5.152  0.5306 -0.0970 -0.4289
 7276SOL    HW133287   3.915   1.854   5.100  0.0474  0.8063 -0.5796
 7276SOL    HW233288   3.804   1.909   5.172  0.1558 -0.7549  1.6491
 7277SOL     OW33289   4.072   0.313   2.325  0.2167  0.0172  0.2552
 7277SOL    HW133290   4.149   0.319   2.269 -1.0410  2.4057 -1.2033
 7277SOL    HW233291   4.073   0.226   2.367  2.7564 -0.0725  0.0020
 7278SOL     OW33292   4.627   2.110   2.661  0.2930  0.0104  0.3589
 7278SOL    HW133293   4.584   2.121   2.746  1.7677 -2.3996  1.4087
 7278SOL    HW233294   4.678   2.191   2.660  0.9497 -0.3958  1.8486
 7279SOL     OW33295   0.095   0.208  13.473 -0.0995  0.3700  0.5568
 7279SOL    HW133296   0.041   0.150  13.526  0.1940  0.1090  0.5697
 7279SOL    HW233297   0.150   0.260  13.531 -2.0305 -1.5742  4.1016
 7280SOL     OW33298   1.233   2.408   4.407 -0.2175  0.1356  0.2939
 7280SOL    HW133299   1.162   2.434   4.465  0.1449  1.5043  0.1222
 7280SOL    HW233300   1.304   2.407   4.471  2.7334  1.7195 -2.9472
 7281SOL     OW33301   1.805   2.092   4.345 -0.4130  0.4507 -0.8055
 7281SOL    HW133302   1.817   2.164   4.407 -0.7048 -1.3851  1.3774
 7281SOL    HW233303   1.719   2.059   4.372 -0.9532  0.9731 -1.9006
 7282SOL     OW33304   3.213   2.825  11.970  0.3798 -1.0095  0.3666
 7282SOL    HW133305   3.171   2.821  11.884  2.9820  2.3682 -1.0560
 7282SOL    HW233306   3.157   2.773  12.027  0.4389 -2.5915 -1.0002
 7283SOL     OW33307   2.628   3.729   6.169  0.5900 -0.4459 -0.3633
 7283SOL    HW133308   2.698   3.792   6.156  0.2745  0.4949  2.4605
 7283SOL    HW233309   2.625   3.726   6.265 -0.5023 -0.0806 -0.3800
 7284SOL     OW33310   0.303   1.887   0.978  0.1474 -0.1684  0.6660
 7284SOL    HW133311   0.335   1.960   1.032  0.3770  0.0461  0.2406
 7284SOL    HW233312   0.318   1.928   0.892  0.1660 -0.6514  0.4379
 7285SOL     OW33313   3.248   0.162  17.407  0.2334 -0.3231  0.3812
 7285SOL    HW133314   3.297   0.126  17.481  1.2737  1.2353  0.4608
 7285SOL    HW233315   3.278   0.253  17.413  1.0619 -0.5278 -0.7510
 7286SOL     OW33316   2.171   1.534  16.746 -0.5388  0.3290  0.1278
 7286SOL    HW133317   2.242   1.597  16.758  0.1987 -0.4278 -0.2599
 7286SOL    HW233318   2.095   1.572  16.789 -1.6390 -1.3286 -0.3615
 7287SOL     OW33319   0.016   2.333  14.743  0.4235  0.7023 -0.6366
 7287SOL    HW133320   4.710   2.274  14.673  1.0121  1.1268 -1.2087
 7287SOL    HW233321   0.077   2.399  14.710 -1.3426  1.4569 -2.3786
 7288SOL     OW33322   4.197   0.310  13.991 -0.2965  0.4028 -0.2692
 7288SOL    HW133323   4.134   0.379  13.971  1.4544  1.8055 -0.8929
 7288SOL    HW233324   4.183   0.312  14.086 -2.5642 -0.0631 -0.5973
 7289SOL     OW33325   1.631   1.613  12.534  0.3395 -0.2872 -0.4081
 7289SOL    HW133326   1.715   1.567  12.534  0.5261  0.0606 -1.1926
 7289SOL    HW233327   1.654   1.693  12.486 -1.7985  0.4217 -0.2415
 7290SOL     OW33328   2.760   0.868   1.012 -0.2007 -0.7571  0.1476
 7290SOL    HW133329   2.708   0.948   1.019  0.4774 -0.2971 -0.0449
 7290SOL    HW233330   2.692   0.804   1.033  0.2445 -1.0141  0.7938
 7291SOL     OW33331   4.711   3.052   4.741 -0.2573 -0.3064 -0.4138
 7291SOL    HW133332   4.678   3.022   4.656  0.9388  0.1419 -1.0315
 7291SOL    HW233333   4.661   3.131   4.762 -0.1253 -0.5706  0.8909
 7292SOL     OW33334   2.136   2.469   5.466  0.2557  0.2195 -0.6475
 7292SOL    HW133335   2.076   2.542   5.452 -1.9342 -1.7200 -1.5498
 7292SOL    HW233336   2.088   2.399   5.419  0.0450 -1.0178  1.4241
 7293SOL     OW33337   2.544   4.116   0.378 -0.1446 -0.1294  0.4018
 7293SOL    HW133338   2.501   4.107   0.463 -2.5936 -0.4417 -0.8686
 7293SOL    HW233339   2.615   4.056   0.400  0.3914  0.3874  0.0860
 7294SOL     OW33340   3.346   2.798   3.105  0.2763 -0.5800 -0.3513
 7294SOL    HW133341   3.419   2.819   3.048  2.0197 -0.7568  1.8294
 7294SOL    HW233342   3.358   2.865   3.172  0.6643 -2.6309  1.6251
 7295SOL     OW33343   4.402   2.092   6.213  0.2266  0.1371  0.1122
 7295SOL    HW133344   4.349   2.013   6.227 -0.2549  0.1788 -1.5265
 7295SOL    HW233345   4.337   2.134   6.157  1.8150 -0.8810 -2.4906
 7296SOL     OW33346   1.545   2.898  16.703 -0.2164 -0.5779  0.4692
 7296SOL    HW133347   1.599   2.971  16.674  1.1831 -2.6164 -1.9782
 7296SOL    HW233348   1.481   2.882  16.634  0.1601  0.6953 -0.1629
 7297SOL     OW33349   0.741   0.543   0.591 -0.4851  0.5983  0.5177
 7297SOL    HW133350   0.674   0.483   0.623 -1.2117  1.3333  0.3729
 7297SOL    HW233351   0.712   0.581   0.508 -2.8452 -0.4707  0.8683
 7298SOL     OW33352   2.246   2.402   5.008  0.1293 -0.2962  0.2998
 7298SOL    HW133353   2.156   2.381   4.981 -0.0668  0.9885 -0.0461
 7298SOL    HW233354   2.242   2.493   5.039 -0.6849 -0.7654  1.5609
 7299SOL     OW33355   2.992   0.224   8.310  0.5253 -0.1065  0.2586
 7299SOL    HW133356   3.016   0.272   8.388  0.2927  1.5939 -0.7189
 7299SOL    HW233357   2.896   0.223   8.318  0.4744  0.5830 -0.2360
 7300SOL     OW33358   0.912   1.735   7.043  0.3908 -0.2040 -0.0672
 7300SOL    HW133359   0.910   1.647   7.080 -3.1748 -0.7351 -1.5041
 7300SOL    HW233360   0.969   1.781   7.104 -0.1044  2.4614 -1.6355
 7301SOL     OW33361   2.454   4.552   4.834  0.9192 -0.2697 -0.5921
 7301SOL    HW133362   2.392   4.549   4.907  0.1623  0.5287 -1.1911
 7301SOL    HW233363   2.514   4.482   4.860  0.2685 -0.1197  1.2987
 7302SOL     OW33364   3.615   3.339   7.377 -0.1034  0.7942 -0.0214
 7302SOL    HW133365   3.613   3.428   7.342 -1.4702 -0.3830 -2.9038
 7302SOL    HW233366   3.536   3.333   7.430 -1.0966 -2.1010 -1.8525
 7303SOL     OW33367   0.468   3.713  11.175  0.4280  0.1398  0.3835
 7303SOL    HW133368   0.451   3.693  11.267 -1.7309  1.9841  0.4054
 7303SOL    HW233369   0.436   3.803  11.173 -0.1750 -0.0515  1.1961
 7304SOL     OW33370   1.567   3.748   2.256  0.4877 -0.1046  0.2980
 7304SOL    HW133371   1.604   3.692   2.324  2.0153  1.9894  1.1772
 7304SOL    HW233372   1.631   3.759   2.186 -0.2705 -0.9726 -0.5384
 7305SOL     OW33373   0.274   0.015  11.253  0.0159  0.3884 -0.5449
 7305SOL    HW133374   0.229   0.100  11.257 -1.4313 -0.2925 -2.2805
 7305SOL    HW233375   0.326   0.012  11.333 -2.2902  1.6241  0.9889
 7306SOL     OW33376   4.001   3.319  15.145  0.1899  0.4098  0.3269
 7306SOL    HW133377   4.094   3.300  15.135  0.0950  0.2934 -0.3576
 7306SOL    HW233378   4.003   3.409  15.179 -2.3069  1.0804 -1.2934
 7307SOL     OW33379   0.852   2.310   5.817  0.2583 -0.3341 -0.0361
 7307SOL    HW133380   0.757   2.323   5.811  0.1560 -0.9467  0.3595
 7307SOL    HW233381   0.874   2.219   5.798 -0.1216  0.2161 -3.0429
 7308SOL     OW33382   4.528   1.170   0.577  0.4911  0.3632  0.4188
 7308SOL    HW133383   4.539   1.115   0.655 -0.9401 -0.6561 -0.0924
 7308SOL    HW233384   4.598   1.132   0.523 -0.2911  0.0783 -0.4020
 7309SOL     OW33385   3.810   2.973   2.787  0.4033  0.3741 -0.2413
 7309SOL    HW133386   3.851   2.898   2.744  1.5406  1.5016 -1.1080
 7309SOL    HW233387   3.721   2.938   2.791 -0.4067  2.2464 -1.9570
 7310SOL     OW33388   0.735   0.398   7.352  0.3648  0.2318 -0.5379
 7310SOL    HW133389   0.708   0.461   7.286 -2.0317  1.1224  1.2865
 7310SOL    HW233390   0.783   0.457   7.411  0.6554 -0.5719  0.0250
 7311SOL     OW33391   3.405   2.912   8.310  0.1696  0.3139 -0.6088
 7311SOL    HW133392   3.340   2.896   8.379 -0.1404  1.4458 -0.6459
 7311SOL    HW233393   3.379   2.999   8.279  1.3375  0.5295 -0.9870
 7312SOL     OW33394   1.509   0.690   7.822  0.2690 -0.2883 -0.7046
 7312SOL    HW133395   1.581   0.630   7.802  0.6224  0.7778 -2.5900
 7312SOL    HW233396   1.482   0.656   7.907  2.5136  1.5709  0.7447
 7313SOL     OW33397   3.320   3.304   3.679  0.4829  0.8976  0.4575
 7313SOL    HW133398   3.282   3.300   3.767 -0.1043 -0.2206  0.1517
 7313SOL    HW233399   3.411   3.315   3.707  0.3572  0.5389  1.0116
 7314SOL     OW33400   4.222   3.897   4.991 -0.0505  0.0092  0.5927
 7314SOL    HW133401   4.130   3.891   5.016 -0.5357  1.8909 -0.7228
 7314SOL    HW233402   4.254   3.807   4.998 -1.2426 -0.4175  0.5859
 7315SOL     OW33403   2.312   3.579   3.468 -0.2429 -0.3899 -0.1965
 7315SOL    HW133404   2.380   3.535   3.519  0.0713  0.7027  0.3406
 7315SOL    HW233405   2.250   3.507   3.456 -0.1475 -0.4300 -0.4504
 7316SOL     OW33406   4.349   3.345   3.598 -0.3934  0.2917  0.1359
 7316SOL    HW133407   4.349   3.419   3.658 -1.7488  0.3644  0.0533
 7316SOL    HW233408   4.335   3.392   3.516 -0.1989  1.9163  1.0440
 7317SOL     OW33409   4.115   4.115   8.116 -0.6969 -0.7434  0.1327
 7317SOL    HW133410   4.041   4.056   8.099 -2.0758  1.0830 -0.2514
 7317SOL    HW233411   4.151   4.096   8.029  2.3029  0.2580  1.1725
 7318SOL     OW33412   2.744   4.434   1.209  0.3260 -0.4978 -0.0759
 7318SOL    HW133413   2.793   4.378   1.270  0.4287 -2.2948 -1.8243
 7318SOL    HW233414   2.734   4.374   1.136  0.7891  0.3728 -0.8498
 7319SOL     OW33415   2.759   3.955  16.920  0.0296 -0.2087 -0.3423
 7319SOL    HW133416   2.786   3.964  17.011  0.7926  0.8852 -0.6728
 7319SOL    HW233417   2.675   4.000  16.929 -0.5653 -1.1620 -1.1742
 7320SOL     OW33418   2.258   0.691   5.914 -0.2924  0.2673  0.0467
 7320SOL    HW133419   2.280   0.714   6.004  3.1208  0.1708 -0.7398
 7320SOL    HW233420   2.276   0.776   5.875  0.4968  1.1041  2.2767
 7321SOL     OW33421   4.551   3.395   1.624 -0.1042 -0.0421  0.0337
 7321SOL    HW133422   4.489   3.354   1.684  0.1621  1.6280  1.4436
 7321SOL    HW233423   4.571   3.479   1.666  0.0618 -1.3185  2.4911
 7322SOL     OW33424   0.332   1.578   2.527 -0.0592 -0.4686  0.2234
 7322SOL    HW133425   0.405   1.639   2.528  0.0885 -0.6472  1.5961
 7322SOL    HW233426   0.277   1.605   2.454 -0.0364 -1.5621 -0.1913
 7323SOL     OW33427   3.336   0.454  17.428 -0.3676 -0.1184  0.3370
 7323SOL    HW133428   3.325   0.472  17.521 -1.0655 -1.6094  0.5530
 7323SOL    HW233429   3.322   0.542  17.393  2.5778 -0.1004 -0.7797
 7324SOL     OW33430   3.435   2.074   9.908  0.6673 -0.2778 -0.6020
 7324SOL    HW133431   3.407   2.046   9.996  0.0539  2.2389 -0.0030
 7324SOL    HW233432   3.467   1.989   9.879 -0.9997 -1.5709  1.3486
 7325SOL     OW33433   0.122   2.980   0.502 -0.4553 -0.2708  0.2153
 7325SOL    HW133434   0.218   2.988   0.505 -0.3342 -1.7379  0.3473
 7325SOL    HW233435   0.107   3.040   0.574  0.1221  0.6020 -0.3878
 7326SOL     OW33436   1.866   1.244   8.649 -0.4189  0.2724 -0.0185
 7326SOL    HW133437   1.906   1.199   8.723 -0.8488  1.5553  0.9897
 7326SOL    HW233438   1.873   1.332   8.685 -0.3224  0.5968 -0.8267
 7327SOL     OW33439   1.612   3.151   6.513  0.0676 -0.1828 -0.1680
 7327SOL    HW133440   1.608   3.126   6.420 -0.4972  0.3790 -0.2995
 7327SOL    HW233441   1.671   3.226   6.514  1.6537 -1.4354  0.2415
 7328SOL     OW33442   1.811   0.026   7.912  0.0885 -0.2034 -0.6724
 7328SOL    HW133443   1.736   4.693   7.935 -0.0230 -0.2829 -1.2033
 7328SOL    HW233444   1.858   0.019   7.994 -0.0927  0.2035 -0.5305
 7329SOL     OW33445   3.880   0.362   4.483  0.3915  0.4187  0.2028
 7329SOL    HW133446   3.902   0.436   4.540  2.1675 -0.7738  1.0552
 7329SOL    HW233447   3.962   0.314   4.484 -0.2826 -0.7398  0.2114
 7330SOL     OW33448   0.961   1.175   5.127  0.1296 -0.2295 -0.3732
 7330SOL    HW133449   0.870   1.195   5.150 -0.1051  0.8493 -2.2446
 7330SOL    HW233450   0.936   1.156   5.036  1.9298  2.8485 -1.4930
 7331SOL     OW33451   3.333   1.155   8.319  0.2709  0.4670  0.3025
 7331SOL    HW133452   3.420   1.122   8.342  0.2775  0.9537  0.9773
 7331SOL    HW233453   3.278   1.078   8.302  0.0488  0.7233 -0.1543
 7332SOL     OW33454   3.671   0.461   7.545 -0.0737 -0.4586 -0.7050
 7332SOL    HW133455   3.747   0.424   7.500  0.7810  0.0185  0.3645
 7332SOL    HW233456   3.715   0.472   7.629 -0.1347  3.8119 -1.2490
 7333SOL     OW33457   2.457   2.332   6.390  0.1824 -0.4983 -0.0547
 7333SOL    HW133458   2.462   2.347   6.484 -1.9332 -0.0626 -0.0090
 7333SOL    HW233459   2.509   2.402   6.349  0.8552 -2.1928 -2.1211
 7334SOL     OW33460   4.715   4.055   9.998  0.1933  0.3392  0.1532
 7334SOL    HW133461   4.706   4.000  10.076  1.5040 -2.5536 -1.7288
 7334SOL    HW233462   0.055   4.124  10.025  0.6225  0.2206 -0.5174
 7335SOL     OW33463   1.757   2.068   3.176 -0.6651  0.2071 -0.1715
 7335SOL    HW133464   1.842   2.097   3.144 -0.0198  0.2164  1.6037
 7335SOL    HW233465   1.780   2.010   3.248  2.5587  0.4181 -1.0371
 7336SOL     OW33466   0.558   1.775  11.381 -0.6638 -0.4013  0.0140
 7336SOL    HW133467   0.499   1.845  11.408 -3.1239 -1.8497 -1.5983
 7336SOL    HW233468   0.606   1.811  11.307  0.0338 -0.2297  0.5520
 7337SOL     OW33469   4.695   2.954  14.962 -0.0057  0.0585  0.2398
 7337SOL    HW133470   4.621   2.906  14.924 -0.3060  0.4412  0.3352
 7337SOL    HW233471   4.719   2.898  15.036 -1.2651  0.8092  1.2272
 7338SOL     OW33472   3.930   1.854   6.116 -0.4973 -0.0848  0.1600
 7338SOL    HW133473   3.857   1.803   6.083 -0.3178 -0.6467  0.6392
 7338SOL    HW233474   3.877   1.933   6.105 -1.0793 -0.4348  0.4955
 7339SOL     OW33475   2.472   1.257   5.518  0.1730  0.8338 -0.0915
 7339SOL    HW133476   2.539   1.298   5.572  0.2227 -0.9733  1.2188
 7339SOL    HW233477   2.511   1.269   5.431 -0.3134 -1.5501 -0.6466
 7340SOL     OW33478   4.544   1.290   4.035 -0.2270 -0.4177  0.5890
 7340SOL    HW133479   4.567   1.276   4.127 -0.5974 -2.5971  0.3584
 7340SOL    HW233480   4.612   1.233   3.999 -2.0592 -1.2742 -1.5098
 7341SOL     OW33481   1.291   1.174  15.528 -0.1198 -0.4977  0.1720
 7341SOL    HW133482   1.213   1.118  15.522 -1.3760  1.3375 -0.5194
 7341SOL    HW233483   1.317   1.164  15.620 -0.6561  0.8519  0.4704
 7342SOL     OW33484   0.253   0.390  13.653  0.2948 -1.2582 -0.3741
 7342SOL    HW133485   0.258   0.359  13.744 -0.2809 -0.6534 -0.1397
 7342SOL    HW233486   0.247   0.485  13.662  1.5056 -1.3281  1.2412
 7343SOL     OW33487   3.699   4.451   2.657  0.0922  0.2320 -0.1461
 7343SOL    HW133488   3.668   4.507   2.727 -0.0447  1.5641 -1.2692
 7343SOL    HW233489   3.793   4.469   2.658 -0.1908  1.6241  0.6501
 7344SOL     OW33490   1.989   2.179   8.152 -0.7246 -0.5425  0.4031
 7344SOL    HW133491   2.026   2.262   8.184 -0.0690 -0.8408  0.4038
 7344SOL    HW233492   1.973   2.134   8.235 -1.5560 -0.3222  0.3652
 7345SOL     OW33493   4.710   1.308  15.835  0.0190 -0.8134 -0.4483
 7345SOL    HW133494   0.038   1.238  15.790  0.3780  0.1276 -1.5339
 7345SOL    HW233495   0.060   1.361  15.871 -0.0872  0.5764 -2.2778
 7346SOL     OW33496   3.549   0.137   9.055 -0.1460 -0.6259 -0.0544
 7346SOL    HW133497   3.600   0.213   9.084  0.5462 -1.8005  1.8126
 7346SOL    HW233498   3.495   0.123   9.133  0.3823 -1.6740  0.1130
 7347SOL     OW33499   3.985   3.947   4.761 -0.0610 -0.1224 -0.2964
 7347SOL    HW133500   3.969   3.857   4.789  1.0892 -0.4693 -0.7206
 7347SOL    HW233501   3.904   3.989   4.789  1.2132  1.7333  0.5794
 7348SOL     OW33502   4.372   3.774   9.710  0.2692 -0.3292  0.2922
 7348SOL    HW133503   4.355   3.859   9.668  2.6445  1.3645  2.7835
 7348SOL    HW233504   4.416   3.810   9.787 -0.4279 -0.0237  0.5414
 7349SOL     OW33505   2.932   0.986   6.394 -0.0810 -0.2008  0.4189
 7349SOL    HW133506   2.853   0.932   6.399 -0.0558 -0.3204 -0.4630
 7349SOL    HW233507   2.897   1.060   6.343 -0.1885 -1.4720 -1.3624
 7350SOL     OW33508   0.789   2.244   4.720 -0.5945  0.4411 -0.3867
 7350SOL    HW133509   0.710   2.298   4.715 -0.5631  0.4742 -0.5182
 7350SOL    HW233510   0.840   2.280   4.648 -1.1759  1.0907 -0.4759
 7351SOL     OW33511   1.015   3.467   4.723  0.0745  0.0622  0.4801
 7351SOL    HW133512   0.929   3.508   4.713 -0.9833 -2.0632  0.6779
 7351SOL    HW233513   1.069   3.540   4.750  0.1358 -0.3813  1.5510
 7352SOL     OW33514   1.336   1.515   8.033 -0.2312  0.1359 -0.0796
 7352SOL    HW133515   1.276   1.566   8.087 -0.3773  0.3238 -0.4116
 7352SOL    HW233516   1.317   1.560   7.950  0.4944 -2.5021 -1.6495
 7353SOL     OW33517   1.573   2.298   7.773  0.1338  0.4995 -0.1802
 7353SOL    HW133518   1.605   2.291   7.862  1.9439  5.4753 -0.4020
 7353SOL    HW233519   1.531   2.215   7.751  1.6617  0.0783 -1.5405
 7354SOL     OW33520   1.950   1.788   9.094  0.4638 -0.8335 -0.7628
 7354SOL    HW133521   1.923   1.718   9.153  1.6822 -0.4862  0.2098
 7354SOL    HW233522   1.983   1.845   9.164 -0.1992  0.5103 -1.5365
 7355SOL     OW33523   2.872   1.192   1.278  0.6124 -0.4568  0.3893
 7355SOL    HW133524   2.945   1.225   1.226 -0.9250  0.4060 -1.2432
 7355SOL    HW233525   2.796   1.209   1.221  1.6552 -2.9043 -1.6885
 7356SOL     OW33526   0.122   0.141   3.662 -0.1381 -0.2802 -0.0167
 7356SOL    HW133527   0.124   0.168   3.570 -1.9341 -1.9276 -0.5564
 7356SOL    HW233528   0.070   0.213   3.698 -0.4181  0.5525 -2.0996
 7357SOL     OW33529   1.060   2.781   9.612  0.1857 -0.0946  0.5109
 7357SOL    HW133530   1.086   2.728   9.536  0.6106 -0.6800  1.0577
 7357SOL    HW233531   1.141   2.769   9.661  0.3466  2.0196  0.7602
 7358SOL     OW33532   3.448   0.201  13.271  0.0712 -0.7500  0.0717
 7358SOL    HW133533   3.451   0.164  13.360  0.5128 -1.9580 -0.4381
 7358SOL    HW233534   3.506   0.271  13.301  2.3649 -1.8139 -1.8855
 7359SOL     OW33535   4.198   0.092   5.107 -0.6074  0.0992 -0.1996
 7359SOL    HW133536   4.244   0.042   5.040 -0.4268 -1.1416  0.8609
 7359SOL    HW233537   4.179   0.173   5.061  0.8460  0.1635 -0.6828
 7360SOL     OW33538   4.023   2.869  16.515  0.5302 -0.1061 -0.1735
 7360SOL    HW133539   3.998   2.857  16.423  0.5583  2.9121 -0.5969
 7360SOL    HW233540   4.065   2.784  16.525  0.6401  0.0717  0.8181
 7361SOL     OW33541   4.608   4.586   6.733 -0.0833 -0.2616 -0.7364
 7361SOL    HW133542   4.650   4.614   6.814 -0.0674 -2.0486 -0.1170
 7361SOL    HW233543   4.517   4.612   6.745 -0.0139 -1.3787  2.1544
 7362SOL     OW33544   2.095   1.523  15.030 -0.1919  0.3153  0.0516
 7362SOL    HW133545   2.169   1.501  14.973  0.9764 -0.6758  1.9349
 7362SOL    HW233546   2.125   1.579  15.102 -0.4421 -0.2737  0.6121
 7363SOL     OW33547   3.693   2.164  16.030  0.4372 -0.0475  0.6121
 7363SOL    HW133548   3.621   2.111  16.062  1.1679 -2.7012 -2.1279
 7363SOL    HW233549   3.762   2.109  15.992  0.9270 -0.8707  2.6551
 7364SOL     OW33550   1.109   0.148   4.515 -0.0684 -0.6234  0.7549
 7364SOL    HW133551   1.164   0.177   4.588 -1.9897  0.6692  1.7029
 7364SOL    HW233552   1.132   0.210   4.446 -0.0906 -1.4853 -0.0228
 7365SOL     OW33553   2.648   0.506   8.304  0.1989  0.1073 -0.1510
 7365SOL    HW133554   2.612   0.534   8.220 -0.4001 -2.5599 -0.7824
 7365SOL    HW233555   2.738   0.532   8.285 -0.3469  0.3779 -2.3595
 7366SOL     OW33556   1.709   3.160   6.230  0.4512 -0.1688  0.0632
 7366SOL    HW133557   1.653   3.237   6.244 -2.0400 -1.7869 -0.8901
 7366SOL    HW233558   1.792   3.205   6.241  0.4068  0.2884 -1.5874
 7367SOL     OW33559   4.702   1.944  17.156 -0.0900 -0.2334  0.7097
 7367SOL    HW133560   4.675   1.884  17.086  2.2012 -0.6386  0.1911
 7367SOL    HW233561   0.063   1.983  17.126 -0.9420  0.1531 -1.1122
 7368SOL     OW33562   1.385   0.324   2.507  0.3600  0.2470  0.4364
 7368SOL    HW133563   1.322   0.297   2.440 -0.5170  0.2487  1.2561
 7368SOL    HW233564   1.400   0.240   2.552  2.6866 -0.1295 -1.0516
 7369SOL     OW33565   1.247   4.656  11.609 -0.4953  0.4467 -0.6232
 7369SOL    HW133566   1.248   4.700  11.694  2.3394 -0.0514 -0.3978
 7369SOL    HW233567   1.266   0.010  11.553  0.9857 -0.0451 -0.7634
 7370SOL     OW33568   4.720   3.379   4.555  0.0581  0.0935 -0.2014
 7370SOL    HW133569   4.689   3.346   4.640  1.8304 -1.5404 -0.2027
 7370SOL    HW233570   4.644   3.430   4.528 -0.5717  0.2952  1.9884
 7371SOL     OW33571   0.716   3.528   8.515  0.3968 -0.0726 -0.0998
 7371SOL    HW133572   0.790   3.468   8.531  0.0999 -0.6441 -0.8759
 7371SOL    HW233573   0.713   3.539   8.420  1.0011 -0.6929 -0.1927
 7372SOL     OW33574   2.423   3.910  16.335 -0.2525 -0.1051 -0.4328
 7372SOL    HW133575   2.352   3.916  16.399  1.1322  0.3187  1.0522
 7372SOL    HW233576   2.443   3.817  16.346 -0.9361 -0.4558 -2.0948
 7373SOL     OW33577   3.150   4.238  13.200  0.5655 -0.3813 -0.3309
 7373SOL    HW133578   3.082   4.185  13.156  0.8663 -0.2004 -1.0222
 7373SOL    HW233579   3.090   4.278  13.263 -1.7762 -1.8913 -1.5680
 7374SOL     OW33580   4.540   4.398   3.645  0.0652 -0.6772 -0.4017
 7374SOL    HW133581   4.559   4.330   3.580 -0.3191 -3.9035  2.8595
 7374SOL    HW233582   4.609   4.460   3.622 -0.7234 -0.2307 -1.5207
 7375SOL     OW33583   2.329   1.315  12.894 -0.3046  0.0262  0.3212
 7375SOL    HW133584   2.414   1.320  12.849 -1.5555 -0.9819 -2.1028
 7375SOL    HW233585   2.330   1.389  12.956  3.5885  1.3892 -1.3122
 7376SOL     OW33586   1.060   1.945   5.869 -0.5859 -0.5089  0.1288
 7376SOL    HW133587   1.094   1.975   5.785 -1.8092 -0.5319 -0.3768
 7376SOL    HW233588   1.096   1.856   5.874 -0.8641 -0.6407 -0.1618
 7377SOL     OW33589   2.846   0.066   5.329  0.3976 -0.0140 -0.5957
 7377SOL    HW133590   2.933   0.058   5.290  0.9436 -1.9474  1.0252
 7377SOL    HW233591   2.860   0.023   5.413  2.5178 -0.9995 -1.4557
 7378SOL     OW33592   4.412   0.277   7.688 -0.1917 -0.1948  0.2204
 7378SOL    HW133593   4.407   0.293   7.594  2.6665 -0.6481 -0.0176
 7378SOL    HW233594   4.358   0.347   7.726  0.4382  0.7826 -0.6993
 7379SOL     OW33595   0.243   2.850   5.442  0.0779 -0.1425  0.3176
 7379SOL    HW133596   0.243   2.818   5.352 -0.3621 -1.0794  0.6539
 7379SOL    HW233597   0.150   2.843   5.464  0.0501  3.0450  1.2822
 7380SOL     OW33598   1.830   0.780   4.011  0.1705 -0.2511 -0.3158
 7380SOL    HW133599   1.834   0.689   3.980 -0.6679  0.0573 -1.3074
 7380SOL    HW233600   1.759   0.813   3.957  0.7847  1.8896  0.1853
 7381SOL     OW33601   2.752   1.820  13.732 -0.4048 -0.0290  0.8684
 7381SOL    HW133602   2.657   1.812  13.735 -0.4085  0.6158  2.4068
 7381SOL    HW233603   2.762   1.866  13.815  0.3544  0.4072  0.5403
 7382SOL     OW33604   2.937   0.312  13.933  0.3692 -0.0319  0.3428
 7382SOL    HW133605   2.901   0.225  13.947 -0.2365  0.4441  1.7621
 7382SOL    HW233606   2.979   0.330  14.017 -0.9920  2.6207  0.4632
 7383SOL     OW33607   2.816   2.127   9.211  0.1053 -0.2553  0.0370
 7383SOL    HW133608   2.906   2.102   9.232  0.1904 -0.0359 -0.0614
 7383SOL    HW233609   2.761   2.065   9.259 -0.3915 -0.1926 -0.4470
 7384SOL     OW33610   4.144   0.644   5.177 -0.0026  0.0305 -0.1834
 7384SOL    HW133611   4.160   0.736   5.197 -0.2638 -0.2454  1.2952
 7384SOL    HW233612   4.226   0.615   5.137  0.9663 -1.4389  2.8515
 7385SOL     OW33613   4.000   0.989   2.076  0.3566 -0.3695 -0.0911
 7385SOL    HW133614   4.008   1.027   1.989  1.1998 -1.4678 -0.4959
 7385SOL    HW233615   4.010   0.895   2.061  1.6818 -0.4083  0.9804
 7386SOL     OW33616   0.682   1.930   6.430 -0.0908 -0.2677 -0.3712
 7386SOL    HW133617   0.773   1.959   6.424 -0.4271  1.1920  1.4300
 7386SOL    HW233618   0.661   1.890   6.345 -0.3197 -0.2953 -0.3009
 7387SOL     OW33619   2.499   3.004   4.403 -0.4717 -0.4724 -0.3892
 7387SOL    HW133620   2.576   2.947   4.394  0.7184  1.0228  0.4917
 7387SOL    HW233621   2.512   3.043   4.489 -1.1649  0.5892 -0.7702
 7388SOL     OW33622   1.046   3.630   2.432 -0.2736  0.3348  0.5212
 7388SOL    HW133623   0.959   3.669   2.440 -0.2996  0.2875  0.4695
 7388SOL    HW233624   1.082   3.644   2.520  0.9241 -0.0507  0.0953
 7389SOL     OW33625   0.463   1.141   6.125  0.4501  0.0623  0.4754
 7389SOL    HW133626   0.508   1.226   6.125 -0.9406  0.7881 -1.0803
 7389SOL    HW233627   0.401   1.161   6.195 -0.8349  2.3723 -1.3387
 7390SOL     OW33628   2.862   2.429   4.828 -0.2113 -0.2344 -0.1781
 7390SOL    HW133629   2.827   2.342   4.850 -2.9345  0.3870 -1.9553
 7390SOL    HW233630   2.826   2.423   4.739  2.3082 -3.0139 -1.0040
 7391SOL     OW33631   4.369   2.180   8.704 -0.0747  0.2884 -0.0850
 7391SOL    HW133632   4.348   2.240   8.633 -1.6808 -1.5274 -1.1335
 7391SOL    HW233633   4.465   2.172   8.706  0.0021  1.2582  0.3629
 7392SOL     OW33634   2.695   4.240   8.409  0.4557  0.5472 -0.1012
 7392SOL    HW133635   2.766   4.212   8.466  0.1208  2.2744  1.1563
 7392SOL    HW233636   2.622   4.222   8.469  0.0945 -0.2270 -0.7611
 7393SOL     OW33637   0.492   0.170  16.028  0.7276 -0.1208  0.1406
 7393SOL    HW133638   0.428   0.152  16.097  0.6167  0.2937  0.1454
 7393SOL    HW233639   0.548   0.240  16.063  1.3029 -1.5063  1.9722
 7394SOL     OW33640   4.043   0.784  13.779  0.3611 -0.3913 -0.3825
 7394SOL    HW133641   4.084   0.746  13.856 -0.7722  0.2372  0.5228
 7394SOL    HW233642   4.110   0.845  13.746 -1.7712  2.0592 -0.1654
 7395SOL     OW33643   2.294   2.654   5.846 -0.2415 -0.2721  0.1462
 7395SOL    HW133644   2.336   2.634   5.930 -0.5905 -0.5858  0.2479
 7395SOL    HW233645   2.203   2.624   5.851 -0.5991  0.7954 -0.0963
 7396SOL     OW33646   3.518   2.915  11.390 -0.2136  0.2783 -0.4909
 7396SOL    HW133647   3.448   2.857  11.362 -0.8446  1.3879 -1.1896
 7396SOL    HW233648   3.601   2.876  11.361 -0.6096  0.7698 -2.2582
 7397SOL     OW33649   1.727   1.376   3.245 -0.4660 -0.3189 -0.3641
 7397SOL    HW133650   1.726   1.308   3.179  2.9975 -2.4720  1.7840
 7397SOL    HW233651   1.807   1.346   3.288  1.4335  1.6471 -2.5050
 7398SOL     OW33652   1.905   1.540   9.275 -0.0994 -0.5327  0.0926
 7398SOL    HW133653   1.959   1.478   9.227 -1.0031 -1.7065  0.5959
 7398SOL    HW233654   1.956   1.579   9.346 -0.7813  0.7662 -0.1242
 7399SOL     OW33655   0.937   1.482   7.144  0.1153  0.2168 -0.3230
 7399SOL    HW133656   1.008   1.514   7.200  0.2985 -1.8638  0.6323
 7399SOL    HW233657   0.870   1.464   7.211  0.1039  0.0661 -0.3764
 7400SOL     OW33658   3.358   2.924   6.063  0.0276  0.5079  0.3043
 7400SOL    HW133659   3.401   2.975   6.132 -0.7088  1.3039  0.1692
 7400SOL    HW233660   3.420   2.854   6.042 -0.8582 -0.7453  1.9389
 7401SOL     OW33661   4.653   3.014   3.238 -0.2400  0.6473 -0.2956
 7401SOL    HW133662   4.660   2.958   3.161  0.5114 -0.9629  0.9330
 7401SOL    HW233663   0.014   2.999   3.286  0.2081 -1.2633 -1.6356
 7402SOL     OW33664   3.774   0.418   1.055  0.7708 -0.2008 -0.8138
 7402SOL    HW133665   3.697   0.438   1.109  0.5206  0.6187 -1.4593
 7402SOL    HW233666   3.792   0.332   1.092 -1.4938 -0.0730  0.5923
 7403SOL     OW33667   2.485   3.598   6.009 -0.1266  0.5191  0.3895
 7403SOL    HW133668   2.542   3.648   6.068 -1.6335  1.5560  0.9551
 7403SOL    HW233669   2.541   3.557   5.943  0.8680  1.0576  0.8938
 7404SOL     OW33670   3.656   3.130  12.103 -0.1207 -0.2058 -0.3316
 7404SOL    HW133671   3.593   3.059  12.104  1.0185 -1.2285 -1.2828
 7404SOL    HW233672   3.614   3.180  12.033  0.1812 -0.3296 -0.5999
 7405SOL     OW33673   0.953   0.412   0.956 -0.1384 -0.4361  0.1863
 7405SOL    HW133674   1.047   0.403   0.972 -0.2836 -1.6533  0.3821
 7405SOL    HW233675   0.948   0.489   0.900  1.9951  0.5471  1.3453
 7406SOL     OW33676   2.003   1.165  16.273 -0.0481 -0.2852 -0.3809
 7406SOL    HW133677   1.910   1.143  16.279 -0.0522 -0.0173  0.5417
 7406SOL    HW233678   2.039   1.180  16.361 -1.2335 -0.9033  0.1985
 7407SOL     OW33679   3.757   1.568  11.475 -0.2099  0.1730  0.0254
 7407SOL    HW133680   3.847   1.600  11.480 -0.0525 -0.0242 -1.4854
 7407SOL    HW233681   3.761   1.489  11.530 -1.1801 -0.0983 -0.2939
 7408SOL     OW33682   0.305   2.575   7.451 -0.6433 -0.0335  0.4860
 7408SOL    HW133683   0.275   2.536   7.533 -1.4865 -0.8627 -0.2143
 7408SOL    HW233684   0.306   2.496   7.397  0.6489 -1.6303  2.8651
 7409SOL     OW33685   2.373   4.522   1.136 -0.3728 -0.0265  0.2844
 7409SOL    HW133686   2.449   4.565   1.096  1.3855 -1.5382  2.0275
 7409SOL    HW233687   2.299   4.583   1.132 -0.1308  0.2704  0.3875
 7410SOL     OW33688   1.555   4.046   4.605  0.0042 -0.2430  0.2586
 7410SOL    HW133689   1.473   4.039   4.556  0.1712 -0.0373 -0.0444
 7410SOL    HW233690   1.583   4.131   4.572  0.1290  0.4555  2.1626
 7411SOL     OW33691   1.008   0.124  12.630 -0.1426 -0.0373  0.2833
 7411SOL    HW133692   1.076   0.100  12.566  0.8272  2.6281  0.3409
 7411SOL    HW233693   1.019   0.218  12.620  0.6423 -0.1814 -0.2243
 7412SOL     OW33694   1.225   1.995  11.712  0.4650  0.0547 -0.8919
 7412SOL    HW133695   1.218   1.939  11.635  0.3458 -1.3278  0.1227
 7412SOL    HW233696   1.134   1.990  11.741  1.7298 -0.0762  3.0800
 7413SOL     OW33697   1.047   1.165  13.156 -0.1137 -0.0003  0.4048
 7413SOL    HW133698   1.137   1.181  13.130 -0.8309  2.3942 -0.6075
 7413SOL    HW233699   1.050   1.182  13.250 -2.5186 -0.9131  0.6640
 7414SOL     OW33700   1.392   1.570  13.504  0.2755 -0.1879  0.1932
 7414SOL    HW133701   1.303   1.538  13.496 -0.0277  0.4968  0.7894
 7414SOL    HW233702   1.375   1.662  13.481  0.4609 -0.1257  0.3058
 7415SOL     OW33703   0.398   1.239   6.418 -0.2956 -0.2852  0.1362
 7415SOL    HW133704   0.484   1.223   6.455  1.2894  1.2365 -2.8800
 7415SOL    HW233705   0.379   1.328   6.448  2.0302 -0.5734  2.3727
 7416SOL     OW33706   2.834   1.955  15.396 -0.5779 -0.1286 -0.9995
 7416SOL    HW133707   2.775   2.011  15.346 -0.7651  1.1140  0.6065
 7416SOL    HW233708   2.865   1.901  15.324 -0.3650  0.8942 -1.6849
 7417SOL     OW33709   2.821   2.939   3.217 -0.6755  0.0451 -0.2855
 7417SOL    HW133710   2.859   3.027   3.220 -3.3319  1.2646 -1.6067
 7417SOL    HW233711   2.821   2.924   3.122 -0.1628 -0.8689 -0.1356
 7418SOL     OW33712   2.146   0.133   9.431 -0.2168 -0.3215 -0.7035
 7418SOL    HW133713   2.159   0.219   9.472 -1.6747  0.0361 -0.9907
 7418SOL    HW233714   2.163   0.075   9.506  1.3924 -0.7607 -1.4040
 7419SOL     OW33715   0.261   3.054  10.575  0.2287 -0.1180  0.1984
 7419SOL    HW133716   0.337   3.097  10.535 -1.6045  1.0178 -2.0783
 7419SOL    HW233717   0.280   2.960  10.570 -1.1682 -0.3912  0.0831
 7420SOL     OW33718   3.782   4.026   1.751  0.0978  0.0453 -0.3240
 7420SOL    HW133719   3.815   4.102   1.705  0.0583  0.9594  1.1431
 7420SOL    HW233720   3.844   3.956   1.735 -0.5190 -0.1137 -2.0140
 7421SOL     OW33721   1.235   0.921  14.566  0.0858 -0.3582 -0.4173
 7421SOL    HW133722   1.172   0.902  14.636 -2.0053  2.9646 -1.4198
 7421SOL    HW233723   1.290   0.844  14.582  0.9125  0.2004 -0.5939
 7422SOL     OW33724   3.553   4.222   8.322  0.0798  0.0119  0.3343
 7422SOL    HW133725   3.602   4.169   8.385 -0.1962 -0.2662  0.3171
 7422SOL    HW233726   3.479   4.165   8.304  1.0309 -1.5562  1.3525
 7423SOL     OW33727   2.499   0.182  12.985  0.0084  0.2044 -0.2107
 7423SOL    HW133728   2.545   0.265  12.968 -1.4180  0.6200 -2.0930
 7423SOL    HW233729   2.420   0.215  13.028 -0.1451 -1.9011  1.0846
 7424SOL     OW33730   3.996   1.602   7.721 -0.1770  0.2743 -0.5193
 7424SOL    HW133731   4.086   1.605   7.691 -0.5567  1.4088 -1.5304
 7424SOL    HW233732   3.990   1.679   7.779 -0.9494  0.2382 -0.5408
 7425SOL     OW33733   4.268   4.147  16.965 -0.1723 -0.1191 -0.2837
 7425SOL    HW133734   4.215   4.105  16.897  1.3304 -1.0982 -0.8302
 7425SOL    HW233735   4.344   4.164  16.910 -0.6242 -2.6821 -1.6717
 7426SOL     OW33736   4.349   1.685   3.132 -0.4767  0.3181 -0.6480
 7426SOL    HW133737   4.406   1.679   3.209 -1.4016  1.8917  0.1613
 7426SOL    HW233738   4.269   1.712   3.177 -2.1255 -1.6673 -2.3628
 7427SOL     OW33739   0.764   3.495   6.015  0.0471  0.2897 -0.2850
 7427SOL    HW133740   0.692   3.530   5.963  2.0545  2.8146 -1.3807
 7427SOL    HW233741   0.835   3.495   5.952  0.1238  0.3925 -0.1986
 7428SOL     OW33742   2.512   0.613  10.665 -0.3038 -0.4501 -0.1177
 7428SOL    HW133743   2.551   0.570  10.589  1.0205  0.3195  0.1152
 7428SOL    HW233744   2.551   0.701  10.662 -1.7212  0.1650 -0.3844
 7429SOL     OW33745   3.045   4.686  17.535 -0.4947 -0.1070  0.0019
 7429SOL    HW133746   3.002   0.031  17.591  0.0008 -1.7572  2.2880
 7429SOL    HW233747   3.120   4.662  17.591  1.5893  2.3166 -1.7435
 7430SOL     OW33748   1.771   1.249   2.194 -0.1230 -0.7325 -0.4226
 7430SOL    HW133749   1.748   1.218   2.106 -0.2799 -2.5608  0.2493
 7430SOL    HW233750   1.808   1.337   2.185 -0.8251 -0.5107 -1.1290
 7431SOL     OW33751   4.603   3.951   4.866  0.1602 -0.0951 -0.0002
 7431SOL    HW133752   4.680   3.959   4.922 -0.5733 -0.3514  1.0293
 7431SOL    HW233753   4.624   4.025   4.808 -1.4669 -0.1690 -0.6966
 7432SOL     OW33754   0.799   1.565   1.986  0.1315  0.1152 -0.0046
 7432SOL    HW133755   0.812   1.659   1.999  1.1834  0.0313 -0.4652
 7432SOL    HW233756   0.754   1.542   2.067 -0.1207  1.2713  0.1715
 7433SOL     OW33757   4.114   2.015   6.630 -0.3313 -0.1614  0.1156
 7433SOL    HW133758   4.069   2.034   6.713 -2.9824  1.1957 -1.6276
 7433SOL    HW233759   4.057   2.059   6.567 -1.6012 -1.5302  0.3106
 7434SOL     OW33760   0.691   4.027   6.319 -0.7247 -0.6393  0.0733
 7434SOL    HW133761   0.681   3.932   6.325 -0.3427 -0.7422 -0.8864
 7434SOL    HW233762   0.600   4.052   6.332 -0.6063  0.3961 -1.0734
 7435SOL     OW33763   3.573   2.797   8.974  0.4198  0.1849  0.4822
 7435SOL    HW133764   3.489   2.841   8.960 -0.0585 -1.2578 -1.1656
 7435SOL    HW233765   3.626   2.849   8.913  0.4312  0.0605  0.3848
 7436SOL     OW33766   0.046   4.585  15.812  0.1965  0.3294 -0.1731
 7436SOL    HW133767   0.041   4.649  15.741  1.4625  0.2621 -0.3190
 7436SOL    HW233768   0.109   4.517  15.787  0.7594  0.9127 -0.3308
 7437SOL     OW33769   1.409   1.057   0.823 -0.6872 -0.2124  0.2808
 7437SOL    HW133770   1.365   1.008   0.892 -2.8184  0.3987 -0.6569
 7437SOL    HW233771   1.339   1.092   0.769  0.1633 -0.5030 -1.0067
 7438SOL     OW33772   2.817   1.018   3.631 -0.1264 -0.1765  0.4145
 7438SOL    HW133773   2.802   0.963   3.708 -3.1470  0.4542  0.2740
 7438SOL    HW233774   2.781   0.957   3.566 -2.0335  0.3350  0.9854
 7439SOL     OW33775   0.499   3.214   4.872  0.2473 -0.0495 -0.0380
 7439SOL    HW133776   0.534   3.153   4.807  0.2757 -0.9096  0.7748
 7439SOL    HW233777   0.404   3.210   4.864  0.2372 -1.2158  0.6024
 7440SOL     OW33778   3.859   1.241  15.318 -0.3001 -0.7539 -0.2063
 7440SOL    HW133779   3.946   1.208  15.338  0.2316  0.9345  0.2972
 7440SOL    HW233780   3.830   1.183  15.248  1.4307 -1.1947 -0.5617
 7441SOL     OW33781   2.330   0.537   2.892 -0.1874 -0.1059 -0.0795
 7441SOL    HW133782   2.360   0.551   2.802  0.2691 -1.4603 -0.1432
 7441SOL    HW233783   2.236   0.541   2.879 -0.0149 -1.9738 -1.9562
 7442SOL     OW33784   3.221   1.578   6.147  0.0111 -0.0990 -0.0632
 7442SOL    HW133785   3.167   1.653   6.167  0.6975  0.8359 -1.6915
 7442SOL    HW233786   3.150   1.524   6.111 -0.6684 -0.0001  1.1547
 7443SOL     OW33787   0.450   3.626   4.319  0.4098 -0.6054  0.8718
 7443SOL    HW133788   0.385   3.663   4.259  0.1922 -1.6558  0.4528
 7443SOL    HW233789   0.398   3.607   4.398  0.0325 -1.3039  0.4565
 7444SOL     OW33790   2.040   0.100   8.999 -0.3463 -0.1913 -0.0687
 7444SOL    HW133791   2.101   0.116   8.927  1.3291 -1.7913  1.0331
 7444SOL    HW233792   1.978   0.173   8.991 -0.4662 -0.5173 -2.2243
 7445SOL     OW33793   3.686   4.075   8.519 -0.6693  0.0731  0.1806
 7445SOL    HW133794   3.767   4.067   8.570 -0.1256 -2.3472 -1.0396
 7445SOL    HW233795   3.672   3.988   8.482  0.2489  0.0158 -0.0373
 7446SOL     OW33796   3.187   1.952   8.671 -0.1385  0.0999 -0.6551
 7446SOL    HW133797   3.219   1.980   8.757 -0.8520 -0.3824 -0.2267
 7446SOL    HW233798   3.209   2.029   8.618 -3.4471  1.6155  0.1525
 7447SOL     OW33799   0.241   1.041   3.576 -0.5424  0.2921 -0.0425
 7447SOL    HW133800   0.277   1.105   3.636 -0.9827  0.1236  0.4065
 7447SOL    HW233801   0.192   0.979   3.632  0.9832 -0.2763  0.6632
 7448SOL     OW33802   2.191   0.556   3.237  0.0457  0.0314 -0.1462
 7448SOL    HW133803   2.217   0.647   3.220 -3.9293  0.9747 -0.9934
 7448SOL    HW233804   2.149   0.532   3.155 -3.0634  1.0837  1.1671
 7449SOL     OW33805   0.396   0.510  14.570  0.0501 -0.2955 -0.3023
 7449SOL    HW133806   0.351   0.453  14.632  0.9932 -1.7865 -0.9862
 7449SOL    HW233807   0.487   0.484  14.584 -0.0301 -0.1062  0.5897
 7450SOL     OW33808   4.566   0.790  10.970 -0.6226 -0.3063  0.6272
 7450SOL    HW133809   4.654   0.820  10.993 -0.1272  0.4260 -2.2197
 7450SOL    HW233810   4.556   0.818  10.879  1.3474  1.2603  0.8964
 7451SOL     OW33811   3.404   2.366  16.052 -0.8329 -0.0940  0.3180
 7451SOL    HW133812   3.364   2.284  16.082 -3.4614 -0.0644 -3.1176
 7451SOL    HW233813   3.377   2.421  16.126 -0.1650  1.3855 -0.5371
 7452SOL     OW33814   0.954   2.340  13.580  0.4902  0.3523 -0.0265
 7452SOL    HW133815   0.997   2.255  13.596 -0.9920 -0.7666 -1.9244
 7452SOL    HW233816   0.918   2.370  13.663 -3.2545 -1.0929 -1.1226
 7453SOL     OW33817   1.316   0.615   4.908  0.5311 -0.3381  0.0536
 7453SOL    HW133818   1.300   0.684   4.844 -0.5493 -0.4929  0.1723
 7453SOL    HW233819   1.406   0.592   4.884  0.4943 -1.6076  1.0971
 7454SOL     OW33820   3.168   2.055  16.285 -0.0327  0.0527  0.8954
 7454SOL    HW133821   3.183   2.042  16.191  0.6849 -2.6905  1.3913
 7454SOL    HW233822   3.127   1.972  16.306 -1.0546  1.1310  3.0434
 7455SOL     OW33823   0.890   0.883   6.443 -0.2882  0.1609 -0.1406
 7455SOL    HW133824   0.815   0.845   6.398  0.2710 -1.0169 -0.0897
 7455SOL    HW233825   0.852   0.949   6.501  0.0926 -0.2901  0.6279
 7456SOL     OW33826   1.177   0.181   2.910 -0.0176 -0.3680 -0.5138
 7456SOL    HW133827   1.134   0.196   2.825  0.1231 -0.0846 -0.5359
 7456SOL    HW233828   1.123   0.245   2.957 -0.8441 -0.3708 -1.4495
 7457SOL     OW33829   2.984   4.283   7.993  0.1975  0.2911  0.0874
 7457SOL    HW133830   2.971   4.311   8.084 -1.4526  1.5070 -0.5381
 7457SOL    HW233831   2.897   4.289   7.954  0.0555  0.3509  0.4087
 7458SOL     OW33832   1.528   3.102   5.505  0.0685 -0.3887  0.2382
 7458SOL    HW133833   1.455   3.158   5.477  0.9822  1.1935  1.0520
 7458SOL    HW233834   1.503   3.019   5.465  0.5808  0.6503 -2.2279
 7459SOL     OW33835   4.022   0.546   4.693 -0.4589 -0.1264 -0.2406
 7459SOL    HW133836   3.945   0.597   4.719  0.0354 -0.7747  2.5541
 7459SOL    HW233837   4.027   0.479   4.762 -1.7370  0.9315  0.8855
 7460SOL     OW33838   3.672   1.606   3.066  0.0812 -0.6471 -0.6981
 7460SOL    HW133839   3.610   1.633   2.998 -0.3109 -0.9879 -0.4720
 7460SOL    HW233840   3.691   1.692   3.105  0.6032 -0.5875 -1.0736
 7461SOL     OW33841   3.656   2.960   5.400 -0.3056 -0.2006 -0.0852
 7461SOL    HW133842   3.585   3.001   5.449  0.6797 -0.0144  1.1833
 7461SOL    HW233843   3.668   3.014   5.322 -1.1180 -0.9993 -0.7688
 7462SOL     OW33844   1.193   3.310   8.560  0.1434  0.0016 -0.5339
 7462SOL    HW133845   1.244   3.300   8.480  0.7294 -0.1280 -0.1398
 7462SOL    HW233846   1.242   3.244   8.610 -1.4062 -0.8109 -0.0784
 7463SOL     OW33847   1.138   1.734   0.026  0.7512 -0.1973  0.4805
 7463SOL    HW133848   1.178   1.783  17.639 -1.7393  1.3000  0.1008
 7463SOL    HW233849   1.101   1.652  17.675  2.1427  0.4842 -2.6104
 7464SOL     OW33850   1.515   4.383   0.057 -0.0318  0.0925 -0.6759
 7464SOL    HW133851   1.509   4.317   0.126  0.3493 -0.9827 -1.6595
 7464SOL    HW233852   1.600   4.424   0.071 -0.1183 -1.0670  3.0817
 7465SOL     OW33853   2.096   2.692  13.449  0.4068  0.1774 -0.3082
 7465SOL    HW133854   2.072   2.649  13.531  3.9673 -0.9815  0.1327
 7465SOL    HW233855   2.187   2.662  13.439  0.4079  0.8516 -2.2803
 7466SOL     OW33856   1.952   3.613   3.259 -0.6026 -0.0649  1.0931
 7466SOL    HW133857   1.990   3.531   3.289  1.5326  0.8210  0.7657
 7466SOL    HW233858   1.861   3.585   3.266 -1.1378  1.6433  1.0941
 7467SOL     OW33859   1.621   1.277   3.005  0.3605  0.0860 -0.4042
 7467SOL    HW133860   1.637   1.345   2.939  0.5185  1.3474  0.9435
 7467SOL    HW233861   1.694   1.218   2.984  0.3373 -0.0141 -0.1996
 7468SOL     OW33862   1.513   3.668   3.625  0.1265  0.2847  0.4076
 7468SOL    HW133863   1.491   3.664   3.718 -0.5339 -1.2107  0.1911
 7468SOL    HW233864   1.597   3.713   3.621  0.5237 -0.5483 -0.5156
 7469SOL     OW33865   1.403   2.535   0.621 -0.2251  0.0442  0.4286
 7469SOL    HW133866   1.314   2.504   0.608 -0.7899  0.7589  2.5239
 7469SOL    HW233867   1.433   2.497   0.704  0.4804  0.9335  0.5839
 7470SOL     OW33868   3.359   3.180   7.909 -0.1607 -0.3229 -1.3103
 7470SOL    HW133869   3.384   3.273   7.904 -0.7062 -0.0297  1.3289
 7470SOL    HW233870   3.287   3.172   7.846  0.2264  0.0655 -1.7991
 7471SOL     OW33871   2.015   3.106   6.291 -0.2673 -0.0714  0.4769
 7471SOL    HW133872   1.998   3.195   6.321 -1.3063  0.4250 -1.5779
 7471SOL    HW233873   2.030   3.124   6.198  2.8444 -1.7509  0.6810
 7472SOL     OW33874   2.026   2.588   5.815 -0.5575 -0.0521 -0.1276
 7472SOL    HW133875   2.013   2.618   5.725 -3.2089  0.7860  0.5382
 7472SOL    HW233876   1.980   2.658   5.860 -1.0861 -0.6106  0.2043
 7473SOL     OW33877   4.244   1.333   3.194  0.0276 -0.5800  0.0466
 7473SOL    HW133878   4.217   1.242   3.211 -2.7083 -0.0142 -1.2868
 7473SOL    HW233879   4.332   1.345   3.229  0.1380  1.4653 -0.9620
 7474SOL     OW33880   1.519   0.625   5.228  0.0164  0.7667  0.0387
 7474SOL    HW133881   1.524   0.653   5.320  0.1148  1.0162 -0.0439
 7474SOL    HW233882   1.425   0.642   5.217 -0.2215 -0.6537 -0.2011
 7475SOL     OW33883   0.848   3.753   2.280 -0.6320  0.6591 -0.5155
 7475SOL    HW133884   0.776   3.809   2.308 -1.0742  0.4391 -1.2058
 7475SOL    HW233885   0.796   3.688   2.232  1.2506 -0.4160 -1.0696
 7476SOL     OW33886   2.589   3.259   6.153  0.4190  0.2140 -0.4190
 7476SOL    HW133887   2.659   3.323   6.162  0.2147  0.3565  0.1375
 7476SOL    HW233888   2.613   3.222   6.067  0.4171 -0.1504 -0.2645
 7477SOL     OW33889   4.111   1.225  12.917 -0.3293 -0.5937 -0.1119
 7477SOL    HW133890   4.173   1.170  12.869  1.3252 -0.3714  1.7706
 7477SOL    HW233891   4.093   1.289  12.848  0.3137  0.2878  0.5395
 7478SOL     OW33892   3.801   2.679   8.584 -0.2161  0.5976 -0.1272
 7478SOL    HW133893   3.774   2.669   8.675  0.9251 -1.0529  0.0455
 7478SOL    HW233894   3.736   2.743   8.555 -0.4374 -0.1227 -1.2383
 7479SOL     OW33895   0.363   0.292   5.771 -0.1829  0.0866  0.2097
 7479SOL    HW133896   0.332   0.238   5.844  2.1121 -1.6274 -0.0772
 7479SOL    HW233897   0.286   0.294   5.714 -0.8329  0.6612  1.1112
 7480SOL     OW33898   1.613   4.122   8.151  0.2892  0.5092  0.6224
 7480SOL    HW133899   1.559   4.183   8.102 -1.2226 -1.5676 -0.3031
 7480SOL    HW233900   1.567   4.124   8.235 -0.9150 -1.3799  0.0047
 7481SOL     OW33901   1.074   3.240   4.854 -0.2343  0.6092  0.1222
 7481SOL    HW133902   1.063   3.334   4.842 -0.4037  0.8223  1.9652
 7481SOL    HW233903   1.008   3.214   4.791 -0.2546  1.1800 -0.0859
 7482SOL     OW33904   4.044   1.679  14.104  0.9780 -0.5416 -0.2433
 7482SOL    HW133905   3.968   1.644  14.057  0.8429 -3.0981  1.9323
 7482SOL    HW233906   4.017   1.699  14.193 -0.4059 -1.0744 -0.5497
 7483SOL     OW33907   3.710   0.313   3.240  0.2371 -0.5288 -0.0501
 7483SOL    HW133908   3.727   0.279   3.328  0.8311 -3.3775 -1.2667
 7483SOL    HW233909   3.617   0.335   3.245  0.4288  0.3160 -0.1735
 7484SOL     OW33910   2.276   1.918   8.153 -0.1959 -0.4979 -0.4295
 7484SOL    HW133911   2.262   1.947   8.244  1.0241 -1.8513  0.1850
 7484SOL    HW233912   2.285   2.003   8.110 -0.3281 -0.9474 -1.3475
 7485SOL     OW33913   0.698   3.712   2.910  0.1518  0.0579 -0.5810
 7485SOL    HW133914   0.620   3.669   2.945  1.5655 -0.7682  1.5918
 7485SOL    HW233915   0.753   3.660   2.969  0.0041 -0.5669 -0.9875
 7486SOL     OW33916   1.647   1.219  10.261  0.5883 -0.4182 -0.8009
 7486SOL    HW133917   1.631   1.288  10.197  0.7972 -0.5768 -1.0230
 7486SOL    HW233918   1.642   1.141  10.206  0.6006 -0.0981 -1.2541
 7487SOL     OW33919   1.472   2.014   0.448  0.4636 -0.3811  0.1988
 7487SOL    HW133920   1.523   1.941   0.413  0.0447 -0.7075  0.2616
 7487SOL    HW233921   1.381   1.993   0.429 -0.3729  0.6607  3.1492
 7488SOL     OW33922   3.179   0.639   7.788 -0.0573 -0.4404  0.6141
 7488SOL    HW133923   3.120   0.628   7.714  1.8281  0.3655 -1.0095
 7488SOL    HW233924   3.261   0.647   7.739  0.9272 -0.0449  2.3365
 7489SOL     OW33925   2.031   3.297  15.334  0.1367 -0.6182  0.5614
 7489SOL    HW133926   2.093   3.336  15.396  0.3430 -1.4340  0.8737
 7489SOL    HW233927   2.063   3.330  15.250  1.9412  2.0945  2.3035
 7490SOL     OW33928   3.805   1.354   3.543  0.6805  0.5657  0.0059
 7490SOL    HW133929   3.887   1.316   3.511  0.5075 -0.8364  1.2511
 7490SOL    HW233930   3.781   1.429   3.488 -0.1421 -1.5211 -2.4914
 7491SOL     OW33931   3.956   1.742  15.987  0.3050  0.1061  0.0655
 7491SOL    HW133932   3.974   1.677  15.919 -0.3630 -0.1175  0.1026
 7491SOL    HW233933   4.045   1.756  16.020  0.2270 -0.5369  0.5650
 7492SOL     OW33934   4.111   4.102   2.347  0.3806  0.5615  0.0513
 7492SOL    HW133935   4.143   4.103   2.257  2.0254 -1.3566  0.6252
 7492SOL    HW233936   4.154   4.022   2.379 -0.7273 -0.3625 -0.7398
 7493SOL     OW33937   2.255   0.378   3.670  0.4355  0.9750 -0.2876
 7493SOL    HW133938   2.198   0.336   3.606 -0.5347  1.0011  0.5598
 7493SOL    HW233939   2.322   0.312   3.689 -0.9521  0.0957  1.4745
 7494SOL     OW33940   3.320   3.348  15.497  0.5768  0.6080 -0.3036
 7494SOL    HW133941   3.229   3.330  15.472  0.1762  0.6948  1.1320
 7494SOL    HW233942   3.360   3.360  15.411  1.4992 -0.5201 -0.0338
 7495SOL     OW33943   3.142   1.300   4.883  0.5073  0.1481  0.7420
 7495SOL    HW133944   3.192   1.266   4.808  1.1266 -2.3303  2.2810
 7495SOL    HW233945   3.074   1.342   4.831  2.1464  1.3524 -0.4654
 7496SOL     OW33946   1.676   0.493   2.948  0.0314  0.1630  0.1877
 7496SOL    HW133947   1.647   0.519   2.861 -2.0958  0.3181  0.9320
 7496SOL    HW233948   1.614   0.424   2.972  0.5306 -1.0355 -1.9905
 7497SOL     OW33949   1.463   2.951   2.065 -0.4936 -0.5500 -0.4247
 7497SOL    HW133950   1.520   3.006   2.011  2.1688 -0.4005  2.5317
 7497SOL    HW233951   1.522   2.909   2.127  0.3519 -0.2253 -1.0220
 7498SOL     OW33952   1.322   2.963   1.606 -0.5348 -0.2921 -0.1950
 7498SOL    HW133953   1.334   3.046   1.559  2.1819  1.3729  3.4061
 7498SOL    HW233954   1.401   2.963   1.660 -1.8888  1.8958  1.7885
 7499SOL     OW33955   3.102   0.769   8.921  0.1554  0.4164 -0.0230
 7499SOL    HW133956   3.077   0.858   8.944 -1.9126  0.0416 -0.8792
 7499SOL    HW233957   3.175   0.759   8.982  0.5285  1.7783 -0.2449
 7500SOL     OW33958   3.102   1.389   2.814 -0.0749 -0.3511  0.2012
 7500SOL    HW133959   3.115   1.450   2.886  1.0411 -0.0865 -0.2137
 7500SOL    HW233960   3.186   1.343   2.822 -0.4484 -1.4516 -2.0409
 7501SOL     OW33961   3.838   4.125   7.920  0.3716 -0.6113 -0.2047
 7501SOL    HW133962   3.778   4.182   7.968 -0.1320  0.2912 -1.8813
 7501SOL    HW233963   3.815   4.040   7.958 -1.1118  0.6559  1.7266
 7502SOL     OW33964   3.765   4.619   3.124 -0.4963 -0.1146 -0.3397
 7502SOL    HW133965   3.807   4.533   3.115 -2.7734 -1.3629  1.0987
 7502SOL    HW233966   3.716   4.613   3.206 -0.3980 -0.5503 -0.3086
 7503SOL     OW33967   2.526   0.293   0.520  0.2506 -0.4738 -0.0792
 7503SOL    HW133968   2.447   0.240   0.535  0.9771 -1.4853  0.1638
 7503SOL    HW233969   2.548   0.257   0.434 -0.9465  0.1275 -0.6356
 7504SOL     OW33970   2.455   2.654   2.849 -0.4331 -0.3348  0.4146
 7504SOL    HW133971   2.491   2.631   2.764 -1.3223 -1.3192  0.3105
 7504SOL    HW233972   2.519   2.721   2.876  1.3152 -0.5638 -3.1879
 7505SOL     OW33973   2.685   0.013   9.907  0.3176  0.5542  0.1958
 7505SOL    HW133974   2.645   0.099   9.892  0.7623  0.4085 -1.8244
 7505SOL    HW233975   2.730   4.717   9.824 -1.9175 -0.0238 -0.8900
 7506SOL     OW33976   1.636   4.047   5.487 -0.8093 -0.4274 -0.4393
 7506SOL    HW133977   1.610   4.064   5.396  2.8856 -0.0727 -1.4422
 7506SOL    HW233978   1.692   4.121   5.510 -0.7930 -0.0084 -1.8292
 7507SOL     OW33979   4.046   3.984   6.480 -0.4217 -0.4387  0.1003
 7507SOL    HW133980   4.063   3.890   6.485 -4.6323 -1.4077 -4.0085
 7507SOL    HW233981   4.062   3.991   6.386 -0.2584  0.4253  0.2015
 7508SOL     OW33982   1.520   1.703   0.804 -0.2906  0.3777 -0.4474
 7508SOL    HW133983   1.433   1.715   0.765  0.6458  3.4785 -1.6289
 7508SOL    HW233984   1.575   1.672   0.732 -0.1033  1.9801 -1.0008
 7509SOL     OW33985   1.461   4.052   6.389  0.1002 -0.0153 -0.4637
 7509SOL    HW133986   1.511   3.971   6.399 -0.3155 -0.0037  1.7067
 7509SOL    HW233987   1.523   4.096   6.331 -0.6773 -0.7929 -1.8916
 7510SOL     OW33988   2.474   0.441   2.332  0.3750 -0.3550  0.1593
 7510SOL    HW133989   2.491   0.417   2.423 -0.0985  0.5512  0.4872
 7510SOL    HW233990   2.535   0.513   2.316  0.3577 -0.2121  0.7042
 7511SOL     OW33991   2.631   1.614  10.498  0.3336  0.0796  0.0085
 7511SOL    HW133992   2.596   1.606  10.409  1.7476  1.3005 -0.6692
 7511SOL    HW233993   2.704   1.553  10.486  1.1941  1.0669  0.2720
 7512SOL     OW33994   3.288   2.190   8.593  0.5790  0.1034  0.2134
 7512SOL    HW133995   3.215   2.251   8.605  0.0691 -0.5815  0.6335
 7512SOL    HW233996   3.364   2.239   8.626  2.5303 -1.8887 -1.3781
 7513SOL     OW33997   0.146   0.035   9.663  0.2959  0.5586  0.6209
 7513SOL    HW133998   0.178   4.705   9.738  1.5096  1.6097  0.7997
 7513SOL    HW233999   0.200   0.113   9.667 -0.1339  0.9192 -0.4627
 7514SOL     OW34000   1.739   2.523   8.157 -0.1261 -0.1915 -0.2668
 7514SOL    HW134001   1.736   2.583   8.082  1.0002 -0.6217 -0.6559
 7514SOL    HW234002   1.670   2.550   8.218 -2.2728 -1.6586 -2.0530
 7515SOL     OW34003   0.778   1.545  10.387  0.8537 -0.1692 -0.1817
 7515SOL    HW134004   0.757   1.524  10.478 -1.0795  1.2845 -0.2763
 7515SOL    HW234005   0.806   1.459  10.356 -0.8984 -0.9829  0.4439
 7516SOL     OW34006   2.423   1.436  13.471 -0.3278 -0.4103  0.3526
 7516SOL    HW134007   2.447   1.358  13.421  1.9780  1.1051 -0.9248
 7516SOL    HW234008   2.374   1.494  13.412 -0.9408 -0.1677  1.0996
 7517SOL     OW34009   2.612   1.389   8.807 -0.3244 -0.3804 -0.3101
 7517SOL    HW134010   2.663   1.342   8.740  0.3977 -1.6877  1.1520
 7517SOL    HW234011   2.671   1.463   8.822  0.1513 -0.4906 -1.6064
 7518SOL     OW34012   4.469   4.244   5.290  0.2962 -0.2345 -0.3044
 7518SOL    HW134013   4.463   4.159   5.247 -1.9260  0.5142 -1.4663
 7518SOL    HW234014   4.459   4.304   5.216 -2.7494 -0.3060  0.0197
 7519SOL     OW34015   2.894   4.385   8.224 -0.5756  0.0164 -0.1755
 7519SOL    HW134016   2.939   4.415   8.303 -0.2166 -0.2567 -0.2775
 7519SOL    HW234017   2.831   4.326   8.266  1.1252 -3.5614 -2.6878
 7520SOL     OW34018   0.313   2.324   7.329  0.3452 -0.3754  0.0091
 7520SOL    HW134019   0.239   2.272   7.297  1.0661 -1.9386  0.9045
 7520SOL    HW234020   0.362   2.329   7.247 -0.9846  2.3462 -0.6265
 7521SOL     OW34021   0.450   0.553   5.593 -0.4298 -0.2285  0.2289
 7521SOL    HW134022   0.485   0.642   5.598  1.5343 -0.9861  0.1340
 7521SOL    HW234023   0.361   0.564   5.626  0.9043  0.1434  3.8069
 7522SOL     OW34024   0.693   1.298   5.204 -0.0331 -0.6786 -0.1904
 7522SOL    HW134025   0.637   1.245   5.261 -1.3677  1.2476  0.2663
 7522SOL    HW234026   0.638   1.328   5.131 -0.3839  4.3594  2.1457
 7523SOL     OW34027   2.283   1.364   3.990 -0.3213 -0.6493 -0.4920
 7523SOL    HW134028   2.375   1.375   4.014 -0.4737  0.5495 -0.4845
 7523SOL    HW234029   2.285   1.273   3.958  2.3450 -0.5390 -0.6213
 7524SOL     OW34030   1.144   3.011   4.478 -0.4563  0.3289 -0.4021
 7524SOL    HW134031   1.223   3.027   4.530 -0.7071  1.8762 -0.4914
 7524SOL    HW234032   1.112   3.100   4.494  2.0098  0.8899  1.4418
 7525SOL     OW34033   0.628   1.580   3.205  0.0174  0.2143 -0.4722
 7525SOL    HW134034   0.709   1.577   3.255  0.1687  0.3537 -0.7103
 7525SOL    HW234035   0.662   1.545   3.122  0.7367  0.9382 -0.4788
 7526SOL     OW34036   2.005   3.071  11.744  0.7169  0.2477 -0.2613
 7526SOL    HW134037   1.951   3.023  11.681  0.2134  1.3314 -0.6735
 7526SOL    HW234038   1.945   3.094  11.815  3.4543 -0.5720  2.3087
 7527SOL     OW34039   0.446   4.550   0.960  0.6104 -0.1844 -0.4649
 7527SOL    HW134040   0.356   4.535   0.989  0.4742  1.2329 -0.1709
 7527SOL    HW234041   0.442   4.644   0.947 -1.1082 -0.2433 -0.3985
 7528SOL     OW34042   4.692   2.830   5.482 -0.0254  0.4679  0.1580
 7528SOL    HW134043   4.651   2.757   5.529 -1.1042  1.0644  0.1321
 7528SOL    HW234044   4.619   2.872   5.437 -0.8567 -0.3348  0.7538
 7529SOL     OW34045   2.680   3.833   0.648  0.1720  0.7871  0.3547
 7529SOL    HW134046   2.700   3.834   0.742  0.9079 -2.6079  0.2359
 7529SOL    HW234047   2.619   3.760   0.659  2.0235 -0.9109 -0.5834
 7530SOL     OW34048   2.599   4.426   6.503 -0.1882 -0.1448 -0.4862
 7530SOL    HW134049   2.574   4.509   6.542  0.8722 -0.3249  0.5664
 7530SOL    HW234050   2.685   4.417   6.542 -0.6345 -3.1969 -0.1553
 7531SOL     OW34051   2.983   3.574   2.839 -0.3648  0.3477  0.1099
 7531SOL    HW134052   2.894   3.548   2.862 -0.0244 -0.3097  0.6461
 7531SOL    HW234053   3.026   3.495   2.870 -0.9241  1.0008  2.5471
 7532SOL     OW34054   3.362   2.723  17.061  0.6942 -0.1788 -0.6258
 7532SOL    HW134055   3.434   2.689  17.008 -0.7631 -1.5071 -1.7866
 7532SOL    HW234056   3.295   2.762  17.005  1.7109  2.7875  0.2237
 7533SOL     OW34057   1.528   2.349  17.471  0.0717  0.3881  0.1393
 7533SOL    HW134058   1.500   2.417  17.532  1.7147  1.1709  0.0082
 7533SOL    HW234059   1.601   2.391  17.425  0.4372  0.5805  0.8939
 7534SOL     OW34060   1.595   2.040   3.992  0.0221 -0.0513  0.3758
 7534SOL    HW134061   1.588   2.070   4.082 -4.6292  0.0931 -0.0431
 7534SOL    HW234062   1.677   1.991   4.000 -0.0691  0.2227  2.9094
 7535SOL     OW34063   3.657   0.866   7.335  0.1718  0.4652  0.2608
 7535SOL    HW134064   3.712   0.865   7.414  1.8558  0.7024 -0.9288
 7535SOL    HW234065   3.604   0.787   7.343  0.3081  0.3522  0.0187
 7536SOL     OW34066   0.237   2.734   5.187  0.2273 -0.1205 -0.3908
 7536SOL    HW134067   0.329   2.736   5.162  0.1677  0.1009 -0.5884
 7536SOL    HW234068   0.223   2.639   5.191 -0.9197  0.1022  0.8601
 7537SOL     OW34069   2.710   0.828  16.745  0.1693  0.0645  1.0696
 7537SOL    HW134070   2.616   0.827  16.765 -0.2166 -0.6955 -0.7696
 7537SOL    HW234071   2.701   0.861  16.655  1.2874  0.4530  1.0962
 7538SOL     OW34072   3.397   0.020   3.983  0.0354  0.0376  0.1317
 7538SOL    HW134073   3.424   0.110   3.963 -1.0040  0.4417  0.5132
 7538SOL    HW234074   3.470   4.712   4.039  0.0484  0.8698  0.5473
 7539SOL     OW34075   0.645   1.196  10.029  0.5754  0.7762  0.1342
 7539SOL    HW134076   0.597   1.262   9.979 -0.7335  1.3265  2.1128
 7539SOL    HW234077   0.640   1.248  10.110  0.2309  0.2753  0.4326
 7540SOL     OW34078   3.963   2.186   0.331 -0.0788  0.5030 -0.0155
 7540SOL    HW134079   3.962   2.162   0.424 -0.6842 -1.8966 -0.6515
 7540SOL    HW234080   4.044   2.238   0.330 -0.3891  0.9716 -1.2269
 7541SOL     OW34081   0.707   2.838   8.372 -0.3605 -0.3725  0.2829
 7541SOL    HW134082   0.723   2.831   8.467 -1.5493 -1.7433  0.3760
 7541SOL    HW234083   0.612   2.835   8.381 -0.5614  1.3507 -1.4611
 7542SOL     OW34084   0.512   2.308  15.832 -0.2736 -0.7259 -0.1517
 7542SOL    HW134085   0.509   2.361  15.752  0.9530 -1.1542 -0.4680
 7542SOL    HW234086   0.571   2.363  15.883 -1.0817  0.1999 -0.1930
 7543SOL     OW34087   1.099   2.269   2.331 -0.2073 -0.2954  0.2445
 7543SOL    HW134088   1.127   2.354   2.298 -0.4590 -0.7870 -1.2337
 7543SOL    HW234089   1.168   2.260   2.398 -1.4546  0.9799  1.6884
 7544SOL     OW34090   4.300   4.317  11.404  0.4540  0.0831  0.1334
 7544SOL    HW134091   4.278   4.236  11.357  0.9459 -0.7240  1.2956
 7544SOL    HW234092   4.393   4.329  11.381  0.4932 -1.3171 -0.4838
 7545SOL     OW34093   0.751   3.348   6.849  0.0484 -0.1542 -0.3519
 7545SOL    HW134094   0.732   3.421   6.909 -3.6848  0.2344 -2.0118
 7545SOL    HW234095   0.678   3.362   6.790 -2.0629  0.1400  2.3470
 7546SOL     OW34096   3.839   3.036  17.208 -0.1088 -0.1616  0.3141
 7546SOL    HW134097   3.842   3.030  17.113 -1.4170 -0.3828  0.2910
 7546SOL    HW234098   3.875   3.125  17.208 -2.2670  0.6939  0.6721
 7547SOL     OW34099   0.392   2.387   9.478 -0.5788  0.4722 -0.5431
 7547SOL    HW134100   0.451   2.314   9.464  1.5560  2.4855 -2.0648
 7547SOL    HW234101   0.313   2.339   9.505 -1.3403  1.4782 -0.9594
 7548SOL     OW34102   4.465   3.571  11.448  0.0565 -0.3463 -0.3839
 7548SOL    HW134103   4.452   3.574  11.353  1.9716  1.2273 -0.5974
 7548SOL    HW234104   4.378   3.599  11.476  0.4371  0.4790 -0.0249
 7549SOL     OW34105   0.546   1.200   0.683  0.0806 -0.0981 -0.3020
 7549SOL    HW134106   0.621   1.179   0.628  2.0839 -0.2859  2.5000
 7549SOL    HW234107   0.572   1.255   0.758 -0.8253  0.2235 -0.2199
 7550SOL     OW34108   0.673   3.870  11.449 -0.2434  0.7822  0.2232
 7550SOL    HW134109   0.712   3.790  11.413 -0.7431  0.7712 -0.3056
 7550SOL    HW234110   0.587   3.872  11.406  0.6652 -1.1205 -1.6523
 7551SOL     OW34111   2.918   4.590   7.361  0.2098  0.1645  0.2999
 7551SOL    HW134112   2.875   4.536   7.427  1.2621 -0.9257  0.0908
 7551SOL    HW234113   2.873   4.577   7.277  1.7429  1.6204 -0.7337
 7552SOL     OW34114   0.880   0.807   4.324 -0.2027  0.0936 -0.1819
 7552SOL    HW134115   0.828   0.829   4.402  0.5493  0.2585  0.2650
 7552SOL    HW234116   0.942   0.744   4.360  1.2998  0.7702 -1.6245
 7553SOL     OW34117   4.080   1.060   2.600 -0.0224 -0.5989  0.0087
 7553SOL    HW134118   4.038   0.978   2.626  1.8509 -2.1097 -1.7321
 7553SOL    HW234119   4.141   1.075   2.672 -0.0863 -0.1297 -0.0329
 7554SOL     OW34120   4.107   1.620   8.464 -0.5064 -0.4609 -0.2375
 7554SOL    HW134121   4.030   1.605   8.409  1.7886  0.9229 -3.8840
 7554SOL    HW234122   4.078   1.583   8.547  0.5371 -2.6457 -0.8498
 7555SOL     OW34123   3.132   3.450   9.098 -0.2427 -0.1565  0.1192
 7555SOL    HW134124   3.213   3.500   9.090  0.0082 -0.6679 -0.4888
 7555SOL    HW234125   3.076   3.515   9.055  0.7331  0.9552  0.5386
 7556SOL     OW34126   3.601   2.902  14.672 -0.2267 -0.3619 -0.1025
 7556SOL    HW134127   3.647   2.975  14.712 -0.6381 -1.0503  1.6018
 7556SOL    HW234128   3.640   2.910  14.584  0.5316 -0.9551  0.1784
 7557SOL     OW34129   4.665   1.131  17.124 -0.3351  0.4559  0.1067
 7557SOL    HW134130   4.696   1.134  17.034 -0.1123  2.4006  0.2386
 7557SOL    HW234131   4.714   1.207  17.155 -0.4389 -0.0459  1.4945
 7558SOL     OW34132   2.943   4.271   0.096 -0.2244 -0.2718  0.2295
 7558SOL    HW134133   2.878   4.256   0.164 -0.6235  1.0887  0.1528
 7558SOL    HW234134   2.960   4.180   0.073  3.6789  1.0051 -2.0335
 7559SOL     OW34135   4.121   1.913   2.824  0.4327 -0.1984 -0.2156
 7559SOL    HW134136   4.034   1.908   2.785  1.6121 -0.3374 -2.8039
 7559SOL    HW234137   4.130   1.823   2.857 -0.5265  0.1021  0.9031
 7560SOL     OW34138   4.166   0.961   0.850 -0.9317 -0.3148 -0.0007
 7560SOL    HW134139   4.102   0.914   0.903  1.1158 -1.2428  1.6345
 7560SOL    HW234140   4.253   0.923   0.860 -0.3050  1.7846  2.4389
 7561SOL     OW34141   1.008   3.601   6.522  0.2657  0.4086  0.7504
 7561SOL    HW134142   1.090   3.585   6.475 -1.2763  1.3235 -2.2142
 7561SOL    HW234143   0.995   3.522   6.575 -0.3264  0.0116  0.0218
 7562SOL     OW34144   3.259   2.480  12.868 -0.1535  0.5220  0.1878
 7562SOL    HW134145   3.282   2.408  12.808  0.6766  0.2302  0.8660
 7562SOL    HW234146   3.340   2.505  12.911  3.0537 -2.2560 -4.2845
 7563SOL     OW34147   1.090   3.554   2.161  0.4504  0.8998 -0.3422
 7563SOL    HW134148   1.111   3.461   2.154 -0.4113  0.6831 -0.0421
 7563SOL    HW234149   1.049   3.557   2.247  0.6229  3.0273 -0.3302
 7564SOL     OW34150   0.567   1.573   7.118 -0.5346 -0.6390  0.3202
 7564SOL    HW134151   0.501   1.633   7.082  0.2156  1.3780  2.2865
 7564SOL    HW234152   0.517   1.492   7.126 -0.8749 -0.4706 -0.1078
 7565SOL     OW34153   2.346   4.632  10.487  0.2055 -0.1074  0.1067
 7565SOL    HW134154   2.405   4.568  10.527 -2.0105 -1.4849  1.1672
 7565SOL    HW234155   2.276   4.631  10.553 -0.7377 -1.5261 -0.9018
 7566SOL     OW34156   4.015   3.268   0.341 -0.4824 -0.9067 -0.4424
 7566SOL    HW134157   3.986   3.315   0.262  1.0558  1.0976  0.1662
 7566SOL    HW234158   3.956   3.296   0.410 -0.7487 -0.7275 -0.7423
 7567SOL     OW34159   0.818   0.230   6.728 -0.8840 -0.1303  0.7559
 7567SOL    HW134160   0.909   0.241   6.699 -0.4708  0.9041  2.4376
 7567SOL    HW234161   0.784   0.162   6.670 -0.1704 -1.9936  2.5191
 7568SOL     OW34162   4.523   4.619   0.938  0.5323 -0.1926  0.6048
 7568SOL    HW134163   4.553   4.528   0.931 -0.8040 -0.7955  2.6223
 7568SOL    HW234164   4.509   4.625   1.033 -1.6264  0.0168  0.2741
 7569SOL     OW34165   1.889   2.042   1.929  0.1802 -0.0198  0.0709
 7569SOL    HW134166   1.935   2.095   1.864  0.0945 -0.2802 -0.2047
 7569SOL    HW234167   1.963   2.029   1.988  0.3902 -1.4674 -0.5127
 7570SOL     OW34168   3.009   1.446   3.347  0.2854 -0.7976  0.0683
 7570SOL    HW134169   2.954   1.381   3.391 -1.8609  1.8039  1.2036
 7570SOL    HW234170   2.970   1.521   3.392  2.7946 -0.6094  1.8959
 7571SOL     OW34171   3.352   4.404  16.785  0.7722 -0.0904 -0.7836
 7571SOL    HW134172   3.350   4.491  16.826 -0.1668  0.0260 -1.0558
 7571SOL    HW234173   3.446   4.400  16.769  0.8014  1.5850 -1.0455
 7572SOL     OW34174   3.839   1.266  11.929  0.2848 -0.5579 -0.2601
 7572SOL    HW134175   3.849   1.244  11.836  2.5656 -0.1712 -0.1150
 7572SOL    HW234176   3.813   1.357  11.913  0.7705 -0.7237 -2.0313
 7573SOL     OW34177   0.752   0.630   6.883  0.0373  0.1333 -0.9986
 7573SOL    HW134178   0.721   0.541   6.898 -1.4231  0.7942 -0.1063
 7573SOL    HW234179   0.772   0.616   6.790  0.3774  0.2199 -0.9408
 7574SOL     OW34180   0.268   0.336   6.495 -0.2054  0.3833  0.0361
 7574SOL    HW134181   0.341   0.300   6.544 -0.2708  1.0777  0.6411
 7574SOL    HW234182   0.195   0.278   6.517  0.0314  0.4707  1.0269
 7575SOL     OW34183   3.213   3.220   2.221  0.3525  0.0826  0.5271
 7575SOL    HW134184   3.173   3.133   2.219  0.3626  0.0795  0.4650
 7575SOL    HW234185   3.302   3.192   2.242  0.3718 -0.1156  0.1819
 7576SOL     OW34186   3.995   4.699   4.505  0.1247  0.4154 -0.1462
 7576SOL    HW134187   3.959   0.007   4.589 -1.9944 -0.5424 -0.7379
 7576SOL    HW234188   4.017   4.608   4.523 -0.3372  0.3110 -0.1061
 7577SOL     OW34189   0.623   0.117   4.080  0.4084  0.2111 -0.2418
 7577SOL    HW134190   0.559   0.094   4.147 -0.9659 -1.4181 -2.1096
 7577SOL    HW234191   0.580   0.091   3.998  0.3279  1.4176 -0.5854
 7578SOL     OW34192   1.655   1.611   1.025  0.9051 -0.1010 -0.3242
 7578SOL    HW134193   1.628   1.520   1.038 -2.3802  1.0283  0.7552
 7578SOL    HW234194   1.605   1.642   0.950 -0.7618  0.1480  0.8948
 7579SOL     OW34195   3.876   1.265   3.949  0.2111  0.4404 -0.1069
 7579SOL    HW134196   3.785   1.295   3.947  0.2152  0.2643 -2.3173
 7579SOL    HW234197   3.919   1.324   4.011 -3.7331  1.4960  1.6640
 7580SOL     OW34198   2.975   4.317  14.287  0.1191 -0.6539  0.7475
 7580SOL    HW134199   2.913   4.287  14.353 -0.7028 -2.1710 -0.7212
 7580SOL    HW234200   2.982   4.251  14.218  0.1923 -0.7852  0.8808
 7581SOL     OW34201   4.279   0.280  12.581  0.3623  0.3558  0.2674
 7581SOL    HW134202   4.336   0.216  12.625 -1.4476 -0.7651  0.9639
 7581SOL    HW234203   4.342   0.331  12.531  2.2378 -1.7476  0.4668
 7582SOL     OW34204   3.856   1.711   2.413 -0.3749  0.3743 -0.4385
 7582SOL    HW134205   3.940   1.713   2.457 -0.8987  0.7279  0.5351
 7582SOL    HW234206   3.879   1.670   2.329 -0.9478 -0.9814  0.0543
 7583SOL     OW34207   4.016   1.189   3.495  0.2689 -0.3482  0.2897
 7583SOL    HW134208   4.044   1.100   3.515  1.1649  0.1198  1.1428
 7583SOL    HW234209   4.099   1.235   3.482  0.5630 -1.0527 -0.3463
 7584SOL     OW34210   3.638   3.218  10.514  0.4773  0.1669 -0.2344
 7584SOL    HW134211   3.554   3.261  10.530 -0.2040 -1.6088  1.0229
 7584SOL    HW234212   3.638   3.208  10.419  1.2834  0.0062 -0.2199
 7585SOL     OW34213   2.914   1.983   3.299  0.1252 -0.2567  0.5648
 7585SOL    HW134214   2.900   2.068   3.340  2.2522 -0.2028  1.1614
 7585SOL    HW234215   2.950   2.007   3.214 -2.1078 -2.5821 -1.0373
 7586SOL     OW34216   3.051   0.038   6.059 -0.4843 -0.4126  0.3371
 7586SOL    HW134217   3.104   4.696   6.009  0.1335  0.9411 -0.7154
 7586SOL    HW234218   2.998   0.078   5.990 -0.6649 -1.8662 -0.3580
 7587SOL     OW34219   4.565   3.324   2.807 -0.1708  0.3804  0.6007
 7587SOL    HW134220   4.608   3.269   2.872 -0.6532 -0.6555  0.0274
 7587SOL    HW234221   4.482   3.342   2.851 -1.4010  0.9385 -1.9642
 7588SOL     OW34222   2.997   2.914   7.573  0.7013  0.3487  0.2705
 7588SOL    HW134223   2.927   2.942   7.515  1.0237  0.9446  0.1693
 7588SOL    HW234224   3.055   2.873   7.509 -0.5325  1.8725 -1.8122
 7589SOL     OW34225   0.757   0.348   6.942  0.0857  0.4291  0.1835
 7589SOL    HW134226   0.827   0.332   7.005 -0.0431 -1.0551 -0.0436
 7589SOL    HW234227   0.781   0.299   6.863 -1.9025 -0.0442 -0.1430
 7590SOL     OW34228   3.730   0.320  11.933 -0.0599  0.2971  0.1384
 7590SOL    HW134229   3.804   0.318  11.994  1.0442  1.5481 -1.1517
 7590SOL    HW234230   3.682   0.243  11.963  1.1329  0.4807  2.5425
 7591SOL     OW34231   2.166   2.275   2.242  0.5231 -0.3616  0.2061
 7591SOL    HW134232   2.094   2.217   2.265  0.6547 -0.6019  0.0002
 7591SOL    HW234233   2.171   2.276   2.146 -1.8921  1.4864  0.0882
 7592SOL     OW34234   4.432   1.159   2.993 -0.0444  0.5680  0.2631
 7592SOL    HW134235   4.524   1.133   2.986 -0.7068 -1.4042 -0.9641
 7592SOL    HW234236   4.434   1.248   3.028 -2.3531  0.3018  1.1038
 7593SOL     OW34237   2.540   0.231   9.766 -0.1117  0.1165 -0.7740
 7593SOL    HW134238   2.498   0.230   9.680 -1.9774 -0.7208  0.1548
 7593SOL    HW234239   2.482   0.292   9.812 -0.2874  1.6496 -3.0327
 7594SOL     OW34240   3.216   1.438   5.527  0.1931 -0.6519 -0.3425
 7594SOL    HW134241   3.267   1.503   5.479  0.9229 -1.3207 -0.4866
 7594SOL    HW234242   3.131   1.481   5.524  0.6350  0.2153 -0.2978
 7595SOL     OW34243   3.843   2.669   8.282 -0.1382 -0.2389 -0.6048
 7595SOL    HW134244   3.875   2.621   8.358  2.0477 -1.0125 -2.0105
 7595SOL    HW234245   3.782   2.605   8.244  3.3657 -1.9496 -3.3362
 7596SOL     OW34246   3.959   3.589   4.499 -0.1411  0.2074  0.4679
 7596SOL    HW134247   3.871   3.587   4.461  0.8342  1.4327 -1.9139
 7596SOL    HW234248   3.985   3.679   4.477  0.6524 -0.0183  0.4761
 7597SOL     OW34249   2.428   2.115  10.619 -0.2979 -0.3368  0.1525
 7597SOL    HW134250   2.450   2.023  10.609 -0.7614 -0.1473 -2.5718
 7597SOL    HW234251   2.456   2.166  10.543  1.3854 -0.5691  0.6340
 7598SOL     OW34252   4.383   0.842   5.633  0.6701  0.2165 -0.0961
 7598SOL    HW134253   4.315   0.784   5.600  0.8492  0.1833 -0.4080
 7598SOL    HW234254   4.359   0.845   5.725  0.4302  3.5589 -0.2786
 7599SOL     OW34255   0.198   0.862   6.525  0.2836  0.2020 -0.2254
 7599SOL    HW134256   0.131   0.881   6.590 -0.7850  0.2944 -1.3628
 7599SOL    HW234257   0.169   0.776   6.495 -1.3528  0.9095 -0.6622
 7600SOL     OW34258   0.283   0.356   9.316 -0.2554 -0.4611 -0.3456
 7600SOL    HW134259   0.209   0.376   9.258 -0.4780  1.8557  0.7331
 7600SOL    HW234260   0.335   0.331   9.239 -0.5074 -0.8868 -0.3754
 7601SOL     OW34261   1.021   2.055  15.478 -0.2994  0.0075 -0.1602
 7601SOL    HW134262   1.012   2.034  15.571 -0.6368  1.6241  0.1681
 7601SOL    HW234263   1.026   2.150  15.470  2.2207 -0.2096 -1.0728
 7602SOL     OW34264   0.158   0.517  13.398 -0.0598  0.4880  0.4049
 7602SOL    HW134265   0.146   0.469  13.480  2.8706 -2.1447 -0.7193
 7602SOL    HW234266   0.230   0.469  13.358  0.2322 -0.8330  2.5113
 7603SOL     OW34267   0.422   2.543   8.497  0.1301 -0.5990  0.2516
 7603SOL    HW134268   0.517   2.531   8.498  0.1599 -0.4651 -1.5461
 7603SOL    HW234269   0.397   2.489   8.422 -2.2722  2.3915 -1.0791
 7604SOL     OW34270   2.251   0.946   2.953  0.7519  0.2379 -0.4257
 7604SOL    HW134271   2.289   0.910   2.872 -1.4841 -0.7092 -1.0629
 7604SOL    HW234272   2.284   1.036   2.954  0.9714  0.1987 -2.9900
 7605SOL     OW34273   0.151   4.309  16.753 -0.1682 -0.2315 -0.2269
 7605SOL    HW134274   0.109   4.395  16.748  0.2551 -0.0987 -1.3307
 7605SOL    HW234275   0.103   4.266  16.824  0.2128  1.7190  1.1952
 7606SOL     OW34276   3.758   0.942   4.818 -0.0746 -0.2039  0.0300
 7606SOL    HW134277   3.721   0.884   4.885  0.1819  0.1048  0.4399
 7606SOL    HW234278   3.837   0.893   4.798 -0.3581 -1.2459  1.4363
 7607SOL     OW34279   1.494   1.107   8.344  0.2794  0.0019 -0.8002
 7607SOL    HW134280   1.452   1.191   8.327 -1.2782 -0.7820 -0.7747
 7607SOL    HW234281   1.446   1.040   8.295  1.3132  0.1504 -2.0348
 7608SOL     OW34282   0.191   1.764   7.328 -0.2477 -0.2722 -0.0135
 7608SOL    HW134283   0.232   1.678   7.325 -0.0250 -0.1406 -0.7443
 7608SOL    HW234284   0.144   1.757   7.245  1.7315 -1.0105 -1.0687
 7609SOL     OW34285   1.271   2.039  14.622  0.3587 -0.4047  0.6305
 7609SOL    HW134286   1.281   2.050  14.527  0.5809 -1.5553  0.5297
 7609SOL    HW234287   1.192   2.091  14.638 -0.0719 -1.2206  1.1576
 7610SOL     OW34288   0.286   1.928   6.875  0.0024  0.3496  0.5207
 7610SOL    HW134289   0.333   2.002   6.837  0.5234 -0.3837 -0.2705
 7610SOL    HW234290   0.285   1.860   6.808  2.3650  2.1459 -1.3231
 7611SOL     OW34291   2.753   2.298   6.232 -0.0639  0.2547 -0.1801
 7611SOL    HW134292   2.840   2.296   6.192 -1.2321 -2.0902 -2.6317
 7611SOL    HW234293   2.761   2.380   6.281  0.3505 -0.0185  0.2072
 7612SOL     OW34294   3.476   1.132   7.811 -0.8730  0.4518 -0.0762
 7612SOL    HW134295   3.482   1.052   7.864  2.2160 -0.6364 -2.0670
 7612SOL    HW234296   3.392   1.128   7.766 -2.1398  1.7787  2.1254
 7613SOL     OW34297   4.297   2.578   1.432 -0.1122 -0.0143 -0.1547
 7613SOL    HW134298   4.285   2.546   1.522  0.8416 -2.1905 -0.7988
 7613SOL    HW234299   4.391   2.575   1.419  0.0805  0.5779  1.0492
 7614SOL     OW34300   0.330   1.082   5.893 -0.1577 -0.1849 -0.2758
 7614SOL    HW134301   0.366   1.092   5.981 -1.8236 -1.4832  0.5533
 7614SOL    HW234302   0.271   1.157   5.893 -1.3501 -1.1175 -1.6077
 7615SOL     OW34303   0.364   2.530   6.100  0.3204  0.4074  0.3628
 7615SOL    HW134304   0.322   2.602   6.147 -0.0502 -1.0160  2.1993
 7615SOL    HW234305   0.399   2.572   6.021  0.7767 -0.9524 -0.1440
 7616SOL     OW34306   2.095   1.987   2.086  0.0342  0.3466 -0.5621
 7616SOL    HW134307   2.109   1.893   2.096  0.3829  0.2959 -1.4831
 7616SOL    HW234308   2.180   2.016   2.051  0.4986  0.9482  1.0375
 7617SOL     OW34309   3.932   1.873  16.897 -0.0940 -0.3983 -0.4245
 7617SOL    HW134310   3.841   1.863  16.927 -0.5169  0.7918 -1.2853
 7617SOL    HW234311   3.924   1.816  16.821  0.1086 -0.0425 -0.7126
 7618SOL     OW34312   4.311   4.421  14.773 -0.4800 -0.1532 -0.1164
 7618SOL    HW134313   4.311   4.347  14.834  0.5738 -1.0651 -1.2203
 7618SOL    HW234314   4.385   4.393  14.719 -0.8608 -3.0361  0.8201
 7619SOL     OW34315   4.070   3.269   7.239  0.3305 -0.6878  0.4620
 7619SOL    HW134316   4.029   3.183   7.225 -0.4318 -0.2039 -0.3125
 7619SOL    HW234317   4.159   3.234   7.247  0.7754  0.7869  1.7889
 7620SOL     OW34318   3.088   0.085   1.593 -0.1340 -0.1740  0.2449
 7620SOL    HW134319   3.149   0.137   1.647  1.1971 -1.6885  0.2200
 7620SOL    HW234320   3.028   0.152   1.563 -0.8595 -1.6584 -1.5929
 7621SOL     OW34321   4.048   4.239   5.294 -0.1175  0.2296 -0.2137
 7621SOL    HW134322   4.060   4.246   5.388 -1.1872 -3.5394  0.2017
 7621SOL    HW234323   3.997   4.159   5.278  1.2926 -0.6281 -0.4847
 7622SOL     OW34324   0.684   0.865   3.409  0.3869  0.0299  0.6556
 7622SOL    HW134325   0.745   0.854   3.482 -0.5177 -0.8135  1.2874
 7622SOL    HW234326   0.606   0.863   3.463  0.5496 -1.8606  0.8202
 7623SOL     OW34327   2.572   1.903   8.075  0.2331  0.4769  0.3246
 7623SOL    HW134328   2.523   1.830   8.113  0.1914  1.3661  1.9941
 7623SOL    HW234329   2.651   1.858   8.047 -0.3526 -0.1205 -0.3757
 7624SOL     OW34330   2.046   3.054   8.831  0.7138  0.2804 -0.7471
 7624SOL    HW134331   1.984   3.111   8.786  1.0017  1.0514 -0.1492
 7624SOL    HW234332   2.073   3.020   8.745 -2.0115 -0.1517 -1.4294
 7625SOL     OW34333   1.301   0.660   7.050  0.3302  0.2984 -0.3082
 7625SOL    HW134334   1.209   0.686   7.040  0.3347  0.6796  0.6281
 7625SOL    HW234335   1.289   0.608   7.129  1.2848 -1.1027 -1.0772
 7626SOL     OW34336   4.393   3.045  15.227 -0.1133 -0.0858 -0.0975
 7626SOL    HW134337   4.399   3.106  15.154  2.2957  0.2197  0.3710
 7626SOL    HW234338   4.485   3.029  15.249 -0.1489 -0.3429 -0.1256
 7627SOL     OW34339   2.863   1.999   9.575 -0.3077  0.0067 -0.3722
 7627SOL    HW134340   2.790   1.997   9.513  0.1072  0.1061 -0.8638
 7627SOL    HW234341   2.907   2.081   9.551  1.7642 -1.0105 -0.0196
 7628SOL     OW34342   1.917   1.524   8.675  0.1614  0.5825 -0.1060
 7628SOL    HW134343   1.877   1.576   8.745 -0.1192  0.0384  0.1416
 7628SOL    HW234344   1.991   1.574   8.642 -0.4629  1.5853  0.0315
 7629SOL     OW34345   3.877   4.563   1.284 -0.2031  0.2674  0.0837
 7629SOL    HW134346   3.843   4.580   1.196 -0.2846  2.9471  0.6264
 7629SOL    HW234347   3.969   4.587   1.276  0.1354 -0.6252  1.3375
 7630SOL     OW34348   3.490   3.921  12.698  0.6021 -0.3486  0.2144
 7630SOL    HW134349   3.572   3.905  12.745  1.5804  0.2284 -1.3053
 7630SOL    HW234350   3.479   4.015  12.706  1.5475 -0.1957 -0.2806
 7631SOL     OW34351   4.283   0.916   3.202  0.6681  0.3791 -0.5738
 7631SOL    HW134352   4.239   0.976   3.262  1.5951  1.6064 -1.1413
 7631SOL    HW234353   4.269   0.970   3.125  0.6750 -0.3078 -1.0600
 7632SOL     OW34354   4.720   4.012  10.444  0.2848 -0.4495 -0.0080
 7632SOL    HW134355   4.643   4.020  10.501  0.0247 -0.5415 -0.3435
 7632SOL    HW234356   0.073   4.006  10.505  0.6094 -2.9369 -0.6234
 7633SOL     OW34357   2.270   0.241   4.247  0.5025  0.3381  0.1273
 7633SOL    HW134358   2.186   0.214   4.212  1.8211 -0.3139 -2.4967
 7633SOL    HW234359   2.305   0.280   4.167 -3.2433 -0.8785 -2.0813
 7634SOL     OW34360   1.574   2.168  13.944  0.4432 -0.2067  0.1227
 7634SOL    HW134361   1.620   2.241  13.901  2.1931 -1.1416  0.3958
 7634SOL    HW234362   1.587   2.088  13.894  1.5396 -0.2075  0.3912
 7635SOL     OW34363   3.605   0.284   7.897 -0.0637 -0.0757 -0.1948
 7635SOL    HW134364   3.566   0.297   7.983 -0.8057 -1.4956 -0.3207
 7635SOL    HW234365   3.662   0.208   7.901  0.1220  0.0405 -0.6292
 7636SOL     OW34366   3.542   4.452   5.927 -0.0698 -0.1534  0.4149
 7636SOL    HW134367   3.521   4.363   5.955  1.7148  0.0843  2.4888
 7636SOL    HW234368   3.492   4.511   5.984 -1.7417 -0.1346 -1.0594
 7637SOL     OW34369   0.387   4.287   7.641 -0.4849 -0.6248  0.1455
 7637SOL    HW134370   0.313   4.346   7.628  0.0232 -0.4623 -1.9821
 7637SOL    HW234371   0.367   4.227   7.569 -2.8310 -2.0904  2.0089
 7638SOL     OW34372   1.638   2.925  13.331  0.6555  0.3164 -0.3535
 7638SOL    HW134373   1.586   2.981  13.388 -1.3955 -1.1939 -0.6962
 7638SOL    HW234374   1.679   2.989  13.273  1.9254 -0.8931 -0.7984
 7639SOL     OW34375   3.634   1.453   6.374 -0.2591  1.0585  0.2411
 7639SOL    HW134376   3.689   1.384   6.412 -0.1113 -0.0692 -2.0478
 7639SOL    HW234377   3.682   1.462   6.292  1.7548  0.8069  1.3823
 7640SOL     OW34378   3.624   2.867   8.581 -0.0988 -0.2121 -0.1309
 7640SOL    HW134379   3.593   2.929   8.515  1.1548 -1.2168 -1.6549
 7640SOL    HW234380   3.561   2.893   8.648 -1.0187 -0.8657 -0.7628
 7641SOL     OW34381   2.364   2.957   8.833  0.0793 -0.4651  0.5215
 7641SOL    HW134382   2.394   2.875   8.873  1.7949  0.5726  1.3604
 7641SOL    HW234383   2.360   3.018   8.907 -4.0770  2.9738 -2.5169
 7642SOL     OW34384   0.044   2.959   2.075 -0.2911 -0.1492  0.4458
 7642SOL    HW134385   0.115   3.020   2.053  1.3313 -2.9383 -2.0279
 7642SOL    HW234386   0.037   2.920   1.988 -0.6133  0.2869  0.2760
 7643SOL     OW34387   4.236   3.633   6.940  0.0544  0.1249 -0.2075
 7643SOL    HW134388   4.193   3.633   7.025 -0.2918 -2.3987 -0.3606
 7643SOL    HW234389   4.158   3.624   6.886  0.2913 -0.7996 -0.4007
 7644SOL     OW34390   1.242   1.625   5.526  0.3889  0.0350 -0.2528
 7644SOL    HW134391   1.162   1.620   5.473 -0.3294 -0.5903  0.9141
 7644SOL    HW234392   1.228   1.555   5.588 -0.6179  1.6173  1.2943
 7645SOL     OW34393   0.321   1.316   0.951 -0.3452  0.4386  0.2297
 7645SOL    HW134394   0.410   1.350   0.939 -0.6698  1.8324  1.7954
 7645SOL    HW234395   0.270   1.360   0.884 -0.2714  1.2102  0.6800
 7646SOL     OW34396   2.769   4.318  13.815 -0.2027  0.3724 -0.1750
 7646SOL    HW134397   2.728   4.284  13.895 -2.2970  0.1183 -1.3806
 7646SOL    HW234398   2.850   4.353  13.853 -0.0920 -0.2192  0.1342
 7647SOL     OW34399   1.840   3.634   1.811 -0.3477  0.1896  0.1797
 7647SOL    HW134400   1.924   3.604   1.846 -0.1191 -0.3757 -0.8637
 7647SOL    HW234401   1.868   3.718   1.775 -2.8747  0.5898 -0.8616
 7648SOL     OW34402   4.678   1.962   5.641  0.1992  0.1356 -0.0671
 7648SOL    HW134403   4.720   1.985   5.724  0.0577 -0.8413  0.2720
 7648SOL    HW234404   4.612   1.896   5.663 -1.4250  0.8236 -2.8164
 7649SOL     OW34405   3.649   2.949   5.802  0.3425 -0.2510  0.1093
 7649SOL    HW134406   3.656   2.998   5.884  0.8284 -1.8974  1.0418
 7649SOL    HW234407   3.687   2.864   5.821 -1.2749 -1.0990 -0.4122
 7650SOL     OW34408   3.757   4.388   5.782  0.2674 -0.2538 -0.8028
 7650SOL    HW134409   3.707   4.407   5.862  2.1620  0.2890  0.2381
 7650SOL    HW234410   3.700   4.316   5.753 -0.9901 -0.4054  2.0412
 7651SOL     OW34411   4.047   4.674   3.404  0.8213  0.5341 -0.5343
 7651SOL    HW134412   4.034   4.676   3.309 -0.2442  1.6036 -0.3523
 7651SOL    HW234413   4.142   4.660   3.410  0.7656  1.4339  2.4481
 7652SOL     OW34414   2.692   0.986   5.139  0.1036 -0.3089 -0.7560
 7652SOL    HW134415   2.606   0.977   5.098 -0.3335 -1.1386  0.3527
 7652SOL    HW234416   2.721   0.895   5.136  1.4389  0.1087 -0.4890
 7653SOL     OW34417   2.434   3.250   4.662 -0.7769 -0.1571 -0.0308
 7653SOL    HW134418   2.476   3.164   4.666 -2.6795 -1.0771  0.2845
 7653SOL    HW234419   2.386   3.238   4.744  0.6633  0.5929  0.9137
 7654SOL     OW34420   2.549   0.018  15.738 -0.4422 -0.2876  0.2828
 7654SOL    HW134421   2.525   0.103  15.701  0.7529 -0.0053  0.1484
 7654SOL    HW234422   2.481   4.685  15.697 -1.6731  1.1422  0.4829
 7655SOL     OW34423   4.433   1.401   5.755 -0.3179  0.1934  0.0268
 7655SOL    HW134424   4.452   1.340   5.826 -1.8050 -1.1413 -0.7479
 7655SOL    HW234425   4.408   1.478   5.806  0.6091  0.0494  0.6873
 7656SOL     OW34426   4.011   2.718  11.562  0.4003  0.0865 -0.1296
 7656SOL    HW134427   4.037   2.650  11.499 -1.3994 -1.4466  0.7885
 7656SOL    HW234428   4.039   2.675  11.643 -0.4427 -0.8397 -0.3343
 7657SOL     OW34429   0.646   2.071  17.361 -0.5703  0.3545  0.0606
 7657SOL    HW134430   0.585   2.117  17.303 -0.7282  0.9169  0.6711
 7657SOL    HW234431   0.731   2.077  17.317  0.1578 -1.7950  1.1971
 7658SOL     OW34432   2.135   4.271   6.566  0.1287  0.1849 -0.4151
 7658SOL    HW134433   2.194   4.197   6.550 -1.5159 -0.8339 -1.7965
 7658SOL    HW234434   2.110   4.247   6.655  1.7753 -3.6428 -0.9475
 7659SOL     OW34435   4.438   0.937   3.659 -0.2799  0.0976 -0.1486
 7659SOL    HW134436   4.520   0.921   3.612  0.9272 -1.8397  2.5683
 7659SOL    HW234437   4.384   0.860   3.641 -0.6957 -0.2883  2.7330
 7660SOL     OW34438   1.356   3.617   2.087  0.1867 -0.2792  0.2268
 7660SOL    HW134439   1.407   3.621   2.169 -0.8134 -0.5871  0.8640
 7660SOL    HW234440   1.270   3.609   2.128 -0.4451  0.2953 -0.9968
 7661SOL     OW34441   0.237   4.001   6.325 -0.2966  0.3268  0.3992
 7661SOL    HW134442   0.246   3.977   6.233  1.4547 -1.1904  0.9714
 7661SOL    HW234443   0.215   4.094   6.318  1.7646  0.8374  0.6446
 7662SOL     OW34444   2.147   3.273   7.173  0.5827  0.3802 -0.6237
 7662SOL    HW134445   2.135   3.209   7.103  2.1569 -1.2098  0.5625
 7662SOL    HW234446   2.242   3.283   7.170  0.8957 -2.6220 -1.0407
 7663SOL     OW34447   1.767   1.925  11.641 -0.3512 -0.6677 -0.2604
 7663SOL    HW134448   1.739   1.874  11.716 -0.9320 -1.4844 -1.0272
 7663SOL    HW234449   1.690   1.914  11.585 -0.6600 -0.2297  0.0828
 7664SOL     OW34450   4.371   3.437   6.296 -0.2731  0.0428 -0.1635
 7664SOL    HW134451   4.398   3.351   6.264  0.6079 -0.2808  1.4328
 7664SOL    HW234452   4.416   3.446   6.381 -2.4042  0.1419  0.9590
 7665SOL     OW34453   2.009   0.670  16.741  0.4614  0.0935 -0.6648
 7665SOL    HW134454   1.987   0.577  16.745  0.0696  0.0863 -3.2036
 7665SOL    HW234455   2.075   0.680  16.809  0.5179  2.6696 -1.0864
 7666SOL     OW34456   1.516   4.635   3.217  0.3060 -0.8715  0.0050
 7666SOL    HW134457   1.439   4.681   3.185 -0.1776 -2.0647 -0.5636
 7666SOL    HW234458   1.588   4.674   3.168  1.1637 -0.6674  1.4191
 7667SOL     OW34459   1.510   1.417   6.228  0.0717 -0.0885  0.4465
 7667SOL    HW134460   1.584   1.394   6.172  1.4993  0.9979  1.9138
 7667SOL    HW234461   1.486   1.501   6.190 -0.0989 -1.3610 -2.2693
 7668SOL     OW34462   4.660   2.866  13.249  0.0496 -0.1546 -0.0881
 7668SOL    HW134463   4.571   2.886  13.218  0.7205  0.1357 -1.8713
 7668SOL    HW234464   4.637   2.820  13.329  0.4306 -0.4542 -0.1502
 7669SOL     OW34465   0.576   2.410   6.872 -0.4775  0.2817 -0.0877
 7669SOL    HW134466   0.506   2.445   6.816 -0.3355 -1.3960 -1.3176
 7669SOL    HW234467   0.639   2.477   6.847 -0.2172  0.8986  2.2352
 7670SOL     OW34468   3.460   4.034   6.210 -0.0115 -0.0983  0.8478
 7670SOL    HW134469   3.384   4.059   6.262  0.0318 -0.4171  1.0636
 7670SOL    HW234470   3.428   3.953   6.172  2.8817 -0.7520 -0.2086
 7671SOL     OW34471   0.544   4.586  16.315 -0.4031  0.5198 -0.5515
 7671SOL    HW134472   0.466   4.637  16.292 -1.7623 -1.2141  0.1922
 7671SOL    HW234473   0.608   4.603  16.246 -1.0268  0.4146 -1.1586
 7672SOL     OW34474   1.397   0.593   0.375 -0.5407  0.2339 -0.7064
 7672SOL    HW134475   1.417   0.554   0.461  0.8226  1.1663 -0.6034
 7672SOL    HW234476   1.464   0.548   0.323 -0.7057 -2.6163  1.5163
 7673SOL     OW34477   0.052   2.831   7.691  0.1761  0.1412  0.0802
 7673SOL    HW134478   4.707   2.762   7.699  0.2204  0.1585  0.5804
 7673SOL    HW234479   0.093   2.797   7.611  1.2399 -0.7184  0.9772
 7674SOL     OW34480   3.504   1.611  15.228 -0.4011 -0.0870 -0.4243
 7674SOL    HW134481   3.580   1.667  15.215 -0.4520  0.1014  0.0793
 7674SOL    HW234482   3.553   1.534  15.255 -0.2439 -0.0734 -0.6738
 7675SOL     OW34483   2.377   2.397   7.579 -0.2346 -0.0674  0.1474
 7675SOL    HW134484   2.324   2.453   7.635  0.8535 -1.6176  2.6959
 7675SOL    HW234485   2.374   2.439   7.493 -0.3947  2.3295  1.3380
 7676SOL     OW34486   1.434   0.574   8.040  0.5152 -0.5081  0.5178
 7676SOL    HW134487   1.367   0.517   8.078 -0.6943 -0.4422 -1.5458
 7676SOL    HW234488   1.440   0.642   8.107 -0.7068  1.1094 -1.0307
 7677SOL     OW34489   2.295   0.671   9.073 -0.6510  0.2329  0.2011
 7677SOL    HW134490   2.309   0.699   8.982 -1.4584  1.5536  0.4806
 7677SOL    HW234491   2.235   0.738   9.105 -0.9128  0.3161 -0.4577
 7678SOL     OW34492   3.236   0.594   4.839  0.1081  0.2912  0.2251
 7678SOL    HW134493   3.140   0.594   4.837  0.1161  1.0857 -0.5377
 7678SOL    HW234494   3.247   0.675   4.788  0.8145 -2.4554 -3.9689
 7679SOL     OW34495   2.592   4.454   6.233  0.3010 -0.1331 -0.6548
 7679SOL    HW134496   2.659   4.522   6.232 -0.4171  0.5964  1.0387
 7679SOL    HW234497   2.583   4.432   6.326  0.0243 -0.0127 -0.6521
 7680SOL     OW34498   0.129   3.052  11.917 -0.0817  0.2845  0.0032
 7680SOL    HW134499   0.042   3.019  11.894 -0.4929  1.8494 -0.7071
 7680SOL    HW234500   0.116   3.144  11.893 -0.3116 -0.2467 -1.9228
 7681SOL     OW34501   4.562   1.770   7.384  0.1954  0.2813 -0.0233
 7681SOL    HW134502   4.627   1.785   7.453 -1.8505  2.0222  1.4948
 7681SOL    HW234503   4.516   1.850   7.363 -1.9736 -1.0931 -0.4675
 7682SOL     OW34504   1.157   3.019   5.389  0.0673 -0.7335  0.5651
 7682SOL    HW134505   1.251   3.007   5.374  0.1499 -0.0638  0.5301
 7682SOL    HW234506   1.132   3.032   5.298  0.6967 -1.7078  0.2543
 7683SOL     OW34507   1.043   1.052   0.019  0.2646 -0.3375 -0.4394
 7683SOL    HW134508   0.990   1.131   0.016  0.3788 -0.2089  1.0748
 7683SOL    HW234509   1.021   1.019  17.615  0.3483  0.0236 -0.5931
 7684SOL     OW34510   2.589   1.499   4.289 -0.0933  0.3604 -0.0823
 7684SOL    HW134511   2.495   1.514   4.283 -0.1062 -0.1664 -1.1967
 7684SOL    HW234512   2.610   1.536   4.375 -1.5639 -0.3618  0.5775
 7685SOL     OW34513   1.185   3.258   7.204  0.2169 -0.3041  0.0456
 7685SOL    HW134514   1.136   3.301   7.275  0.4343 -2.1976  1.3359
 7685SOL    HW234515   1.136   3.286   7.127  0.8885  1.5299  0.2730
 7686SOL     OW34516   0.453   2.024   4.224 -0.0632  0.2175 -0.1201
 7686SOL    HW134517   0.398   1.963   4.273 -0.5687 -0.5040 -1.5546
 7686SOL    HW234518   0.511   1.955   4.191 -0.1230  0.0555  0.1160
 7687SOL     OW34519   0.256   1.539   7.884  0.4322 -0.2224 -0.2636
 7687SOL    HW134520   0.187   1.501   7.830  0.3229 -0.6207  0.1601
 7687SOL    HW234521   0.198   1.570   7.955 -1.9037 -0.5722 -2.0106
 7688SOL     OW34522   2.818   2.742   1.841 -0.4269 -0.0902 -0.6317
 7688SOL    HW134523   2.759   2.685   1.892  3.1587 -3.2990 -0.1236
 7688SOL    HW234524   2.836   2.807   1.909 -1.0254 -1.9007  1.2543
 7689SOL     OW34525   1.060   3.780   5.271  0.2170  0.8941  0.0574
 7689SOL    HW134526   1.133   3.720   5.254  0.4293  1.1219  0.1729
 7689SOL    HW234527   1.062   3.794   5.365  0.9379  1.6256 -0.0661
 7690SOL     OW34528   2.861   4.132   4.684 -0.1143  0.5976  0.2989
 7690SOL    HW134529   2.876   4.208   4.628  0.2112  0.1358 -0.2368
 7690SOL    HW234530   2.954   4.116   4.697  0.0751  2.4266  1.0716
 7691SOL     OW34531   2.981   3.766  12.352  0.0171 -0.4098  0.1515
 7691SOL    HW134532   3.055   3.826  12.344 -0.1709 -0.4049 -1.5144
 7691SOL    HW234533   2.908   3.825  12.371  1.4198  1.1994  0.5276
 7692SOL     OW34534   3.677   2.186   3.471 -0.4705  0.2996  0.1293
 7692SOL    HW134535   3.710   2.100   3.498  0.1868  1.2028  2.1595
 7692SOL    HW234536   3.646   2.213   3.557  0.1589  1.3727  0.0120
 7693SOL     OW34537   1.427   2.794   0.716  0.1554  0.0639 -0.4755
 7693SOL    HW134538   1.440   2.841   0.633  1.1935  0.7971  0.0932
 7693SOL    HW234539   1.425   2.705   0.682  0.4714 -0.1930  0.1835
 7694SOL     OW34540   1.704   3.958   3.399 -0.4521 -0.8629  0.6316
 7694SOL    HW134541   1.732   3.939   3.488  0.9507 -1.4077  0.0663
 7694SOL    HW234542   1.688   3.870   3.363  0.2688 -1.9472  2.9658
 7695SOL     OW34543   0.166   0.595   6.429  0.0722  0.5803  0.4368
 7695SOL    HW134544   0.205   0.531   6.489  0.5038  2.8743  2.5969
 7695SOL    HW234545   0.112   0.540   6.372 -1.6028  0.6344  1.9576
 7696SOL     OW34546   4.455   2.581  14.331 -0.0631  0.3645 -0.0801
 7696SOL    HW134547   4.484   2.503  14.285 -0.1631  0.4376 -0.2654
 7696SOL    HW234548   4.540   2.621  14.348 -0.0129  0.2285 -0.0113
 7697SOL     OW34549   2.060   2.953  16.765 -0.2296  0.4490 -0.0353
 7697SOL    HW134550   1.972   2.916  16.771  0.5030 -1.0874  1.0835
 7697SOL    HW234551   2.036   3.045  16.780 -0.1093  0.1992  1.6516
 7698SOL     OW34552   4.170   1.888   4.335 -0.0744 -0.1245  0.0162
 7698SOL    HW134553   4.200   1.973   4.364  0.5734  0.3610 -2.0381
 7698SOL    HW234554   4.235   1.834   4.381 -0.6153  0.2807  1.2474
 7699SOL     OW34555   2.314   0.141  16.380  0.3094  0.2591  0.0754
 7699SOL    HW134556   2.389   0.140  16.320  1.3455 -1.6679  1.3669
 7699SOL    HW234557   2.345   0.078  16.446 -1.9356 -1.1427 -0.2376
 7700SOL     OW34558   3.055   1.495   2.531  0.1177 -0.1566  0.5820
 7700SOL    HW134559   3.122   1.554   2.497  0.1665  0.3393  1.5535
 7700SOL    HW234560   3.100   1.475   2.612  3.7907 -0.1780 -1.4677
 7701SOL     OW34561   1.896   0.278   4.473 -0.1842 -0.2199  0.6099
 7701SOL    HW134562   1.946   0.281   4.391 -0.1389 -0.5002  0.6281
 7701SOL    HW234563   1.903   0.370   4.497  2.5539 -0.1068 -0.6326
 7702SOL     OW34564   1.976   0.321  12.673  0.0732 -0.0622  0.1396
 7702SOL    HW134565   2.072   0.325  12.676 -0.0694  1.8240  2.4556
 7702SOL    HW234566   1.951   0.357  12.759  0.9598 -0.6803  0.6587
 7703SOL     OW34567   0.748   4.639  16.130  0.3748  0.5046  0.1960
 7703SOL    HW134568   0.718   4.698  16.061  1.9355 -2.8246 -3.2630
 7703SOL    HW234569   0.778   4.568  16.074  2.6661 -0.7640  3.0225
 7704SOL     OW34570   4.415   0.962   6.115  0.0053  0.5427  0.2355
 7704SOL    HW134571   4.395   0.967   6.209 -0.8402 -2.5088  0.2013
 7704SOL    HW234572   4.506   0.993   6.116  0.3124 -0.4277  1.9749
 7705SOL     OW34573   0.226   0.967   5.000  0.0088 -0.1341 -0.7159
 7705SOL    HW134574   0.308   0.931   5.034 -0.8016  0.8982  2.2675
 7705SOL    HW234575   0.241   0.942   4.908 -0.3462 -2.3703 -0.1803
 7706SOL     OW34576   3.697   0.692   5.418  0.2700 -0.3310 -0.8629
 7706SOL    HW134577   3.709   0.698   5.513  0.1096 -1.1556 -0.7886
 7706SOL    HW234578   3.620   0.746   5.403 -0.2446 -0.4684  1.3567
 7707SOL     OW34579   4.334   2.770   5.542  0.3738 -0.0558 -0.0629
 7707SOL    HW134580   4.315   2.748   5.450 -1.9968 -1.6717  0.8049
 7707SOL    HW234581   4.378   2.853   5.525 -0.2197  0.8241  2.7118
 7708SOL     OW34582   2.171   3.353  12.379  0.6204  0.2270 -0.2352
 7708SOL    HW134583   2.218   3.314  12.452  0.6722 -2.2160 -1.5911
 7708SOL    HW234584   2.236   3.386  12.317 -0.4657  2.4827 -0.1877
 7709SOL     OW34585   1.115   2.084   4.001 -0.5277 -0.3832 -0.1994
 7709SOL    HW134586   1.155   2.139   3.934  0.1702 -0.4945  0.1321
 7709SOL    HW234587   1.092   2.007   3.949 -0.2419  0.3693 -1.4327
 7710SOL     OW34588   0.286   2.896   7.099 -0.3039 -0.3150 -0.0562
 7710SOL    HW134589   0.362   2.863   7.051 -0.9794  0.2285 -1.4932
 7710SOL    HW234590   0.296   2.989   7.080  1.4268 -0.6818 -0.9380
 7711SOL     OW34591   0.865   1.712   8.241  0.1543  0.7649 -0.3547
 7711SOL    HW134592   0.866   1.808   8.231 -1.1450  0.6882 -1.1859
 7711SOL    HW234593   0.798   1.699   8.309  1.3360 -0.4543  0.5622
 7712SOL     OW34594   0.345   1.815   4.332  0.0391  0.3827 -0.3775
 7712SOL    HW134595   0.375   1.727   4.313  2.6370  0.8522  1.5085
 7712SOL    HW234596   0.262   1.815   4.285  0.1863  1.6895 -0.6369
 7713SOL     OW34597   4.166   1.088   1.396  0.0613  0.1048 -0.1683
 7713SOL    HW134598   4.161   1.034   1.475 -2.5553  2.2938  1.1764
 7713SOL    HW234599   4.257   1.114   1.406  0.4327 -0.9725 -0.7944
 7714SOL     OW34600   4.147   2.801  10.450  1.1133  0.2877  0.1906
 7714SOL    HW134601   4.073   2.795  10.511  0.5749  0.5989 -0.4239
 7714SOL    HW234602   4.108   2.755  10.375  0.2859 -1.4041  1.6499
 7715SOL     OW34603   3.338   3.035   9.009  0.0431  0.4409 -0.5854
 7715SOL    HW134604   3.279   3.104   9.042  0.0446  0.8307 -1.3944
 7715SOL    HW234605   3.413   3.047   9.066 -0.2311 -0.1768 -0.0970
 7716SOL     OW34606   3.143   1.964   6.785  0.0875  0.1986  0.3270
 7716SOL    HW134607   3.071   1.904   6.807  1.1567 -1.5542 -0.9175
 7716SOL    HW234608   3.148   1.960   6.689  0.6627  1.3058  0.3170
 7717SOL     OW34609   4.158   2.313   2.519  0.2026  0.0832  0.2874
 7717SOL    HW134610   4.243   2.274   2.542  1.2573  1.2568 -1.6489
 7717SOL    HW234611   4.103   2.234   2.524  1.4370 -0.9142 -1.9940
 7718SOL     OW34612   2.759   3.197   6.879 -0.3014  0.2116 -0.1949
 7718SOL    HW134613   2.796   3.184   6.966 -0.0670 -1.6944 -0.5752
 7718SOL    HW234614   2.670   3.162   6.888 -0.8982  2.1479  1.2327
 7719SOL     OW34615   1.948   0.125   1.755 -0.1377 -0.1030  0.3716
 7719SOL    HW134616   1.910   0.213   1.747  0.4968  0.2897  1.6223
 7719SOL    HW234617   1.899   0.075   1.820  0.7315 -2.2449 -0.6534
 7720SOL     OW34618   2.687   0.585  14.600  0.0663 -0.6213 -0.0079
 7720SOL    HW134619   2.733   0.643  14.540  1.4099 -2.3802 -0.6843
 7720SOL    HW234620   2.748   0.560  14.670 -0.0204 -0.8701 -0.0203
 7721SOL     OW34621   2.697   4.566   9.669 -0.0270  0.3425  0.3816
 7721SOL    HW134622   2.672   4.484   9.626 -0.1248 -0.2078  1.4822
 7721SOL    HW234623   2.609   4.603   9.663 -0.9486 -1.6113  1.7066
 7722SOL     OW34624   0.758   0.744   4.948  0.4748 -0.2757 -0.6784
 7722SOL    HW134625   0.772   0.751   5.042 -0.6985  2.4446 -0.7125
 7722SOL    HW234626   0.684   0.683   4.950  0.4396 -0.2727 -1.6867
 7723SOL     OW34627   0.813   3.263   1.636  0.3732  0.2169 -0.1127
 7723SOL    HW134628   0.844   3.342   1.682  0.1302 -1.1088  2.3279
 7723SOL    HW234629   0.884   3.242   1.576  2.4452 -1.7424  3.0378
 7724SOL     OW34630   0.398   4.060  11.083  0.6232 -0.0533 -0.1172
 7724SOL    HW134631   0.481   4.018  11.108  0.3454  0.2229  1.2814
 7724SOL    HW234632   0.395   4.131  11.147 -0.9145 -0.3125  0.0907
 7725SOL     OW34633   4.718   2.222   6.750  0.1018 -0.1495  0.1891
 7725SOL    HW134634   4.625   2.226   6.771 -0.4330 -1.8003 -1.8615
 7725SOL    HW234635   0.005   2.307   6.705  0.1177 -0.0680  0.3463
 7726SOL     OW34636   0.468   2.917   8.137 -0.2354 -0.3123 -0.3487
 7726SOL    HW134637   0.505   2.974   8.204 -0.1365  0.2028 -0.8376
 7726SOL    HW234638   0.441   2.982   8.072  1.3793 -0.4366 -1.1434
 7727SOL     OW34639   0.510   4.422   2.370  0.3039 -0.3541 -0.0175
 7727SOL    HW134640   0.534   4.332   2.392  0.8490 -0.5074 -1.2448
 7727SOL    HW234641   0.585   4.473   2.400  0.2059  0.3749 -1.0370
 7728SOL     OW34642   4.406   1.773   8.362 -0.5442 -0.2138 -0.0658
 7728SOL    HW134643   4.375   1.743   8.276 -1.0327 -2.1857  0.7971
 7728SOL    HW234644   4.329   1.815   8.400 -1.4258 -0.9558 -1.0468
 7729SOL     OW34645   2.291   3.371   4.479 -0.4028 -0.3934 -0.3502
 7729SOL    HW134646   2.349   3.323   4.538 -2.4740  0.4575  2.4049
 7729SOL    HW234647   2.266   3.443   4.538  0.1268  0.0976 -0.7275
 7730SOL     OW34648   4.236   4.336   3.808 -0.3197 -0.0870 -0.6501
 7730SOL    HW134649   4.327   4.317   3.831 -0.7297  0.8612  1.7584
 7730SOL    HW234650   4.214   4.286   3.730 -0.8963 -1.5658  0.4824
 7731SOL     OW34651   0.768   2.365  17.067 -0.1548 -0.0351  0.1604
 7731SOL    HW134652   0.798   2.451  17.038  1.0711 -0.3105  0.6132
 7731SOL    HW234653   0.687   2.392  17.111 -0.2045  0.6874 -0.3826
 7732SOL     OW34654   4.409   1.801  12.791 -0.6864  0.0664  0.3146
 7732SOL    HW134655   4.491   1.794  12.839 -1.4555 -2.5347  1.2619
 7732SOL    HW234656   4.357   1.859  12.845  0.0565 -0.8239  1.9968
 7733SOL     OW34657   4.677   0.735   5.682  0.3965 -0.6197  0.0763
 7733SOL    HW134658   0.003   0.816   5.705  0.4841 -0.8884  0.8719
 7733SOL    HW234659   4.586   0.759   5.670  0.8599  2.1082  1.9776
 7734SOL     OW34660   3.622   4.489   1.994 -0.1295 -0.1132 -0.5836
 7734SOL    HW134661   3.623   4.396   2.014  2.2242 -0.3300 -1.8106
 7734SOL    HW234662   3.703   4.503   1.945  0.2824 -1.1393 -0.1881
 7735SOL     OW34663   3.119   2.825   2.507 -0.4130  0.3248 -0.2767
 7735SOL    HW134664   3.068   2.776   2.442  0.0689 -0.8075  0.1977
 7735SOL    HW234665   3.057   2.830   2.580 -1.1661 -1.3067 -0.7892
 7736SOL     OW34666   1.918   0.591   2.135  0.5196 -0.4611 -0.1686
 7736SOL    HW134667   1.871   0.627   2.060 -2.3033 -2.0105  0.8513
 7736SOL    HW234668   1.933   0.498   2.118 -2.9847 -1.0316 -0.0541
 7737SOL     OW34669   1.229   0.907   0.967 -0.2089 -0.2548 -0.6525
 7737SOL    HW134670   1.137   0.895   0.989  0.0048  1.0737  1.0408
 7737SOL    HW234671   1.250   0.815   0.952 -0.0460 -0.1611 -0.9942
 7738SOL     OW34672   0.994   0.610  11.744 -0.1752  0.6864  0.1454
 7738SOL    HW134673   0.926   0.589  11.809  1.2906  1.1100  1.8346
 7738SOL    HW234674   0.937   0.650  11.679  0.9468  0.1733 -1.1306
 7739SOL     OW34675   4.245   0.281   5.655 -0.6592  0.4185  0.1918
 7739SOL    HW134676   4.276   0.191   5.647  0.2833  0.7880 -0.3948
 7739SOL    HW234677   4.234   0.301   5.748 -0.3168 -0.3537  0.4011
 7740SOL     OW34678   1.366   2.234   6.018  0.0803  0.5925  0.3511
 7740SOL    HW134679   1.420   2.174   6.069 -0.0872 -1.6555 -2.1284
 7740SOL    HW234680   1.290   2.176   6.011  0.4158  0.1748  0.1750
 7741SOL     OW34681   1.526   2.481   5.995  0.4890  0.2312 -0.1477
 7741SOL    HW134682   1.484   2.399   6.021  1.9773  0.1181  1.9117
 7741SOL    HW234683   1.618   2.454   5.984  0.4153  0.1545 -0.5834
 7742SOL     OW34684   1.649   0.794   6.381 -0.6462 -0.6951  0.1128
 7742SOL    HW134685   1.707   0.731   6.338  1.4145  0.5311  1.1090
 7742SOL    HW234686   1.568   0.784   6.331 -2.0001 -2.1732  2.6687
 7743SOL     OW34687   4.520   3.362   8.628  0.1964 -0.0369  0.3748
 7743SOL    HW134688   4.609   3.329   8.640 -0.1694 -0.5886  1.5771
 7743SOL    HW234689   4.539   3.455   8.622  0.0756 -0.1226 -1.1973
 7744SOL     OW34690   0.724   3.373   3.294  0.1595  0.2198 -0.3892
 7744SOL    HW134691   0.762   3.325   3.368 -1.2024 -0.2291  0.0053
 7744SOL    HW234692   0.644   3.323   3.281 -0.3174  0.9061 -0.1057
 7745SOL     OW34693   4.720   3.774   7.640 -0.0701 -0.1134 -0.1656
 7745SOL    HW134694   4.718   3.680   7.624 -1.0437 -0.0538 -0.4268
 7745SOL    HW234695   0.080   3.803   7.682  0.8242 -1.5067 -0.9435
 7746SOL     OW34696   3.855   3.242  16.728 -0.1939 -0.1740  0.2357
 7746SOL    HW134697   3.927   3.235  16.791  0.2781 -1.9114 -0.4839
 7746SOL    HW234698   3.785   3.205  16.782 -0.9264  0.0607 -0.5512
 7747SOL     OW34699   2.640   1.059   5.931 -0.7050 -0.4114 -0.2257
 7747SOL    HW134700   2.707   1.042   5.865 -0.0030  0.6812  0.2074
 7747SOL    HW234701   2.640   0.973   5.973 -2.2445  1.1763  3.0486
 7748SOL     OW34702   3.093   3.781   9.001  0.1317  0.2472 -0.2845
 7748SOL    HW134703   3.062   3.871   8.988  1.9980  1.3599  2.8888
 7748SOL    HW234704   3.176   3.798   9.047 -1.3785  2.0681  1.7631
 7749SOL     OW34705   1.881   4.251   3.229  0.2458 -0.5267 -0.4800
 7749SOL    HW134706   1.877   4.275   3.136  1.3009  1.2224 -0.0608
 7749SOL    HW234707   1.852   4.336   3.260 -0.2979 -0.4590 -1.1547
 7750SOL     OW34708   1.916   1.955   6.443  0.5750  0.5369 -0.3008
 7750SOL    HW134709   1.873   1.940   6.528  0.6992  2.6038  0.1288
 7750SOL    HW234710   1.998   1.907   6.461 -0.3238 -1.5712 -1.7913
 7751SOL     OW34711   3.433   1.089   4.260  0.3366 -0.1022 -0.2218
 7751SOL    HW134712   3.385   1.130   4.332 -0.6232  1.7982 -1.9471
 7751SOL    HW234713   3.469   1.170   4.223 -2.7692  1.8003  0.8993
 7752SOL     OW34714   3.995   2.019   1.271  0.1462  0.6270 -0.0639
 7752SOL    HW134715   3.943   1.948   1.309 -1.1063  0.9804 -1.1141
 7752SOL    HW234716   4.056   2.038   1.342 -0.0865  0.9006  0.0610
 7753SOL     OW34717   4.523   1.976   3.122  0.3908 -0.0443 -0.1186
 7753SOL    HW134718   4.487   1.902   3.072  1.7563 -0.5839 -0.2875
 7753SOL    HW234719   4.439   2.015   3.147  0.8306  1.6535 -1.3732
 7754SOL     OW34720   2.702   0.635   3.694  0.2686 -0.0513 -0.0003
 7754SOL    HW134721   2.673   0.573   3.762  0.7635  0.2164  0.4524
 7754SOL    HW234722   2.629   0.625   3.633 -0.6309  1.4618  0.8142
 7755SOL     OW34723   2.155   2.195   7.178 -0.1543 -0.6244  0.3713
 7755SOL    HW134724   2.151   2.215   7.271 -0.5781  2.3430 -0.2932
 7755SOL    HW234725   2.126   2.281   7.148  0.5486 -1.1288 -1.7457
 7756SOL     OW34726   0.269   1.634   1.072 -0.1047  0.0140  0.1555
 7756SOL    HW134727   0.197   1.608   1.014 -0.7944  0.3676  0.8497
 7756SOL    HW234728   0.280   1.723   1.037  1.0234 -0.9720 -1.9621
 7757SOL     OW34729   3.265   3.039   5.843 -0.1361  0.3987 -0.0061
 7757SOL    HW134730   3.203   2.969   5.825  1.9974 -0.9547 -2.1280
 7757SOL    HW234731   3.306   2.995   5.918 -0.7925 -2.2151 -1.1852
 7758SOL     OW34732   2.663   0.800  16.068  0.1693  0.2917  0.3350
 7758SOL    HW134733   2.689   0.803  15.976 -2.2361 -0.1225 -0.3525
 7758SOL    HW234734   2.709   0.716  16.080 -0.8043 -0.3502 -0.4013
 7759SOL     OW34735   2.197   0.530   4.327 -0.3496 -0.2319  0.0321
 7759SOL    HW134736   2.141   0.537   4.250 -2.5530 -1.6621  1.5226
 7759SOL    HW234737   2.273   0.579   4.296  0.4886 -2.0268 -0.8029
 7760SOL     OW34738   2.200   2.317   4.328 -0.1251  0.5277 -0.2234
 7760SOL    HW134739   2.129   2.267   4.289  0.4230  0.5731 -1.2834
 7760SOL    HW234740   2.229   2.250   4.390 -2.7740  0.6157  1.0803
 7761SOL     OW34741   0.445   1.330   2.119  0.2892  0.2743 -0.0014
 7761SOL    HW134742   0.467   1.407   2.067  1.7526  0.2643  0.5992
 7761SOL    HW234743   0.470   1.357   2.207  1.2902 -1.6448  0.3186
 7762SOL     OW34744   1.284   0.818   4.719  0.7980  0.2361  0.0791
 7762SOL    HW134745   1.311   0.883   4.783 -1.2516  1.2209 -0.0429
 7762SOL    HW234746   1.201   0.857   4.692 -0.0563 -1.4392  0.3110
 7763SOL     OW34747   2.013   1.730  16.846 -0.4925  0.2277  0.2082
 7763SOL    HW134748   1.922   1.747  16.872 -0.8913  0.4458 -1.3102
 7763SOL    HW234749   2.058   1.797  16.899  1.1228 -1.6218  1.1690
 7764SOL     OW34750   4.353   0.580   4.445 -0.0311  0.1136 -0.0432
 7764SOL    HW134751   4.363   0.516   4.375  1.0116  0.8404 -0.5765
 7764SOL    HW234752   4.306   0.656   4.410 -0.0659 -0.7658 -1.9181
 7765SOL     OW34753   2.039   0.175   3.893  0.1829 -0.4956  0.1054
 7765SOL    HW134754   2.003   0.099   3.847  0.8430 -0.7068 -0.0691
 7765SOL    HW234755   2.017   0.241   3.827 -3.3712 -1.5844  0.2130
 7766SOL     OW34756   4.637   2.212   8.679  0.0351 -0.2333 -0.2542
 7766SOL    HW134757   4.679   2.271   8.616 -1.5820  0.9969 -0.2206
 7766SOL    HW234758   4.713   2.171   8.719 -0.7432  0.9149  2.4103
 7767SOL     OW34759   3.749   3.039   0.868 -0.3527  0.3279  0.4252
 7767SOL    HW134760   3.835   3.026   0.910  0.1866  2.1448 -0.1421
 7767SOL    HW234761   3.757   3.127   0.832  2.5715 -1.8856 -4.3313
 7768SOL     OW34762   0.143   2.815   0.854 -0.0774  0.1055  0.7373
 7768SOL    HW134763   0.063   2.803   0.804  0.9663  1.9539 -1.3694
 7768SOL    HW234764   0.137   2.910   0.865  0.2985  0.0228  1.6519
 7769SOL     OW34765   4.204   3.650  15.168 -0.4166  0.1479  0.3185
 7769SOL    HW134766   4.163   3.650  15.082  1.3979  1.2785 -0.5200
 7769SOL    HW234767   4.125   3.618  15.212 -0.9026 -1.6837 -1.9006
 7770SOL     OW34768   0.131   0.841   2.421 -0.1859  0.0868  0.5116
 7770SOL    HW134769   0.133   0.929   2.383  0.0437 -1.1135 -2.2333
 7770SOL    HW234770   0.222   0.830   2.450  0.0095  0.4578  0.0519
 7771SOL     OW34771   3.741   4.094  16.701 -0.1695  0.0355 -0.2294
 7771SOL    HW134772   3.650   4.063  16.699  0.0960 -0.6445 -1.5549
 7771SOL    HW234773   3.776   4.036  16.770  0.4203 -0.3931 -0.8957
 7772SOL     OW34774   4.114   0.909   0.505 -0.6244  0.4819  0.1073
 7772SOL    HW134775   4.164   0.936   0.582  1.3605  0.0948 -1.0411
 7772SOL    HW234776   4.106   0.817   0.529  1.6175  1.4982  4.8255
 7773SOL     OW34777   4.307   2.811  11.656  0.4861  0.5669  0.3877
 7773SOL    HW134778   4.220   2.813  11.695  0.7675 -1.7254  1.1515
 7773SOL    HW234779   4.283   2.757  11.581  0.9185 -1.1142  1.4525
 7774SOL     OW34780   3.812   2.546   5.581  0.0864  0.1894  0.1912
 7774SOL    HW134781   3.790   2.573   5.492  0.9810  0.7177  0.1246
 7774SOL    HW234782   3.904   2.533   5.558  0.1901  1.2728 -0.0386
 7775SOL     OW34783   3.826   0.244  13.753 -0.2361 -0.4102 -0.0964
 7775SOL    HW134784   3.819   0.252  13.658  1.4387  2.1159 -0.0152
 7775SOL    HW234785   3.761   0.312  13.772  0.2483 -0.2052  0.8499
 7776SOL     OW34786   4.491   2.435  13.053 -0.1300 -0.1922  0.2019
 7776SOL    HW134787   4.434   2.479  13.116 -1.1377 -1.4113  0.1340
 7776SOL    HW234788   4.537   2.374  13.111 -0.0843  1.4287  1.8820
 7777SOL     OW34789   3.811   3.260   3.948 -0.5761 -0.8848 -0.1770
 7777SOL    HW134790   3.876   3.302   4.004 -0.8483  0.0994 -0.6038
 7777SOL    HW234791   3.847   3.284   3.862  2.5112 -1.5657  0.9363
 7778SOL     OW34792   3.388   4.575   6.109  0.1310 -0.2374  1.1189
 7778SOL    HW134793   3.305   4.568   6.063 -0.5754  0.2855  2.3126
 7778SOL    HW234794   3.371   4.495   6.158 -1.6295 -0.6415 -0.1657
 7779SOL     OW34795   0.980   2.484   0.160 -0.7032  0.0958 -0.1708
 7779SOL    HW134796   0.886   2.496   0.148 -0.5009  2.1190  0.1326
 7779SOL    HW234797   0.999   2.440   0.077 -0.8209 -3.3927  1.6717
 7780SOL     OW34798   4.009   1.563   8.717 -0.4841  0.4163  0.1959
 7780SOL    HW134799   4.076   1.609   8.768 -0.7995  1.3984 -0.2868
 7780SOL    HW234800   3.954   1.524   8.785  0.1892 -1.2499 -0.2296
 7781SOL     OW34801   3.637   0.360   9.782  0.2354  0.0923  0.9843
 7781SOL    HW134802   3.577   0.370   9.707 -0.6883  1.5708  1.9242
 7781SOL    HW234803   3.580   0.303   9.834 -0.4567 -1.3937 -1.3661
 7782SOL     OW34804   3.516   1.622   2.840  0.5667  0.6269 -0.5101
 7782SOL    HW134805   3.421   1.634   2.841  0.6185  0.9480  1.6135
 7782SOL    HW234806   3.543   1.664   2.759  0.0607  1.2483 -0.3547
 7783SOL     OW34807   0.130   0.624  11.515  0.0088 -0.0365  0.4688
 7783SOL    HW134808   0.090   0.681  11.449 -1.6043  0.6547  2.0284
 7783SOL    HW234809   0.065   0.636  11.585 -0.6473  0.9104 -0.3018
 7784SOL     OW34810   2.615   4.543   7.090 -0.1118  0.7579 -0.0694
 7784SOL    HW134811   2.705   4.524   7.114 -0.5294  0.8339  1.5981
 7784SOL    HW234812   2.634   4.599   7.014  1.2031 -2.6012 -2.2199
 7785SOL     OW34813   1.704   0.209   2.662  0.0404  0.0994 -0.4631
 7785SOL    HW134814   1.678   0.161   2.740 -1.5906  1.3648 -0.2257
 7785SOL    HW234815   1.787   0.164   2.643  0.3986  1.3047 -1.7995
 7786SOL     OW34816   2.426   1.223  13.316 -0.3180  0.1584 -0.2184
 7786SOL    HW134817   2.332   1.235  13.308 -0.5347 -1.3691  0.0826
 7786SOL    HW234818   2.439   1.164  13.242 -0.0850  0.9078 -0.7848
 7787SOL     OW34819   3.022   4.694   9.053 -0.3038  0.1831 -0.3890
 7787SOL    HW134820   3.031   4.625   9.118  1.0222 -0.1372 -0.9068
 7787SOL    HW234821   3.114   0.001   9.042 -0.5405  0.0412 -2.7224
 7788SOL     OW34822   2.195   0.375   6.661  0.1163  0.7013 -0.6574
 7788SOL    HW134823   2.130   0.326   6.610 -2.7130  1.6591  2.0197
 7788SOL    HW234824   2.147   0.394   6.741  0.3145  0.2900 -0.4401
 7789SOL     OW34825   1.377   3.544   3.444 -0.3485  0.0263  0.1686
 7789SOL    HW134826   1.354   3.636   3.427  1.2069  0.2636 -0.6460
 7789SOL    HW234827   1.425   3.560   3.526  0.5212 -0.3753 -0.2590
 7790SOL     OW34828   3.035   0.896   2.268  0.3276 -0.7316  0.1943
 7790SOL    HW134829   3.079   0.845   2.336  0.6070 -0.4738  0.2047
 7790SOL    HW234830   2.971   0.943   2.322 -1.1673 -3.4619  0.7945
 7791SOL     OW34831   0.200   1.273   2.444  1.4347  0.4134  0.4241
 7791SOL    HW134832   0.282   1.313   2.475  1.0661  1.8346 -0.4133
 7791SOL    HW234833   0.159   1.337   2.385  1.9779  0.5770  0.2182
 7792SOL     OW34834   0.983   4.068   6.136  0.8569  0.2560 -0.0761
 7792SOL    HW134835   1.014   4.125   6.066  0.1478  0.1979 -0.4327
 7792SOL    HW234836   1.067   4.043   6.175  1.2864 -0.5615 -1.5264
 7793SOL     OW34837   1.295   1.632  14.151 -0.4101 -0.5753  0.4062
 7793SOL    HW134838   1.200   1.638  14.142 -0.2668  0.1293 -0.6079
 7793SOL    HW234839   1.307   1.558  14.091 -1.4052  1.0241 -1.7296
 7794SOL     OW34840   0.264   4.281   9.715 -0.1368  0.0416 -0.3736
 7794SOL    HW134841   0.219   4.347   9.769  0.1863  1.3487 -1.6993
 7794SOL    HW234842   0.306   4.340   9.652 -0.8235  1.7367  0.7322
 7795SOL     OW34843   3.716   3.112  17.652  0.4859  0.0607  0.3447
 7795SOL    HW134844   3.810   3.115  17.667  0.4776 -3.2297  0.9219
 7795SOL    HW234845   3.683   3.080   0.052  0.8849  1.5378  1.0659
 7796SOL     OW34846   0.592   4.716  12.808 -0.6833  0.2487 -0.1977
 7796SOL    HW134847   0.640   0.064  12.762  1.2924 -0.3166  1.0156
 7796SOL    HW234848   0.658   4.675  12.864 -1.4243 -0.9491 -0.1976
 7797SOL     OW34849   4.499   0.656   2.377 -0.1142  0.1321  0.1126
 7797SOL    HW134850   4.526   0.667   2.286  1.1163 -0.0498  0.4455
 7797SOL    HW234851   4.524   0.744   2.407  0.4175 -0.2399  0.7655
 7798SOL     OW34852   1.672   0.083   6.233  0.1952 -0.0163 -1.3399
 7798SOL    HW134853   1.646   0.175   6.225  1.7057  0.3368 -2.2107
 7798SOL    HW234854   1.586   0.050   6.258  0.3088  0.5488 -0.2130
 7799SOL     OW34855   2.874   1.515  10.518  0.0389  0.5897 -0.1770
 7799SOL    HW134856   2.965   1.540  10.535  0.5830 -0.4858 -1.5775
 7799SOL    HW234857   2.884   1.424  10.545  0.5385  0.8209  0.4157
 7800SOL     OW34858   0.862   1.363   0.809 -0.3118  0.3728  0.6782
 7800SOL    HW134859   0.921   1.420   0.857  1.9046  0.0985 -1.7090
 7800SOL    HW234860   0.776   1.392   0.838 -0.2938  0.6726  0.4289
 7801SOL     OW34861   3.797   3.293   0.748  0.4824 -0.1019 -0.3902
 7801SOL    HW134862   3.831   3.321   0.662 -1.2294  0.3157 -0.9257
 7801SOL    HW234863   3.866   3.312   0.812 -1.1789  1.4509  0.9156
 7802SOL     OW34864   2.580   2.096   6.348 -0.1298  0.1203  0.1530
 7802SOL    HW134865   2.661   2.141   6.325 -0.6971  1.2879  0.4908
 7802SOL    HW234866   2.520   2.170   6.339 -0.7304 -0.7512 -3.0910
 7803SOL     OW34867   3.236   4.122  12.865 -0.1939 -0.0095 -0.9160
 7803SOL    HW134868   3.176   4.070  12.919  0.6256  1.0721  1.0432
 7803SOL    HW234869   3.183   4.122  12.785 -0.0369  0.2098 -1.0198
 7804SOL     OW34870   2.531   0.549   8.533 -0.4310  0.4480  0.4576
 7804SOL    HW134871   2.557   0.640   8.546  0.9609 -0.0696  1.2437
 7804SOL    HW234872   2.574   0.516   8.455  0.1551 -0.8795  1.3351
 7805SOL     OW34873   4.702   1.665   4.044  0.4281  0.0204 -0.0752
 7805SOL    HW134874   4.710   1.760   4.036  0.5317  0.3148  3.5829
 7805SOL    HW234875   4.646   1.659   4.121 -0.8886 -0.3745 -1.0589
 7806SOL     OW34876   1.385   2.379  15.117 -0.4945  0.0266 -0.2110
 7806SOL    HW134877   1.435   2.383  15.036 -0.8090  2.2918 -0.2691
 7806SOL    HW234878   1.411   2.451  15.174 -1.3727  0.7343 -0.7134
 7807SOL     OW34879   2.423   2.636  11.240 -0.2537  0.0844  0.1126
 7807SOL    HW134880   2.364   2.631  11.165  2.1997  0.2170 -1.8198
 7807SOL    HW234881   2.449   2.545  11.253 -0.6223  0.2495  2.0632
 7808SOL     OW34882   2.742   2.114   0.375  0.0861 -0.2040  0.1601
 7808SOL    HW134883   2.685   2.038   0.363 -0.3810  0.2101 -0.2230
 7808SOL    HW234884   2.778   2.093   0.461  1.3878  0.1646 -0.2817
 7809SOL     OW34885   2.467   4.127   4.885 -0.1947 -0.2198 -0.2229
 7809SOL    HW134886   2.489   4.179   4.808  0.0362 -1.8286 -1.2623
 7809SOL    HW234887   2.476   4.037   4.854 -0.6196  0.1114 -1.3250
 7810SOL     OW34888   3.951   2.761   3.820 -0.7058  0.0268  0.0364
 7810SOL    HW134889   3.943   2.856   3.831 -3.0126 -0.1592  0.1233
 7810SOL    HW234890   3.953   2.747   3.725 -1.4312 -0.0101  0.0256
 7811SOL     OW34891   1.052   4.379   4.036  0.2814 -0.3923  0.3754
 7811SOL    HW134892   0.974   4.430   4.055  1.4893  0.9437  1.7735
 7811SOL    HW234893   1.116   4.451   4.035 -0.3201  0.1350 -0.8527
 7812SOL     OW34894   4.143   0.466   8.169 -0.7235  0.2837  0.1321
 7812SOL    HW134895   4.066   0.438   8.119 -0.0140  0.1154 -0.8712
 7812SOL    HW234896   4.202   0.391   8.167 -0.0956  0.7992 -0.6506
 7813SOL     OW34897   3.106   0.128   0.469 -0.6972 -0.0325  0.2068
 7813SOL    HW134898   3.178   0.115   0.531 -0.7875 -0.5149  0.2085
 7813SOL    HW234899   3.040   0.073   0.511  1.1235 -1.6175  1.0447
 7814SOL     OW34900   3.488   2.702   6.013 -0.2384  0.0940  0.4372
 7814SOL    HW134901   3.541   2.688   5.935 -3.0306  1.7758 -1.7616
 7814SOL    HW234902   3.407   2.657   5.986  1.0738 -2.0188  0.0376
 7815SOL     OW34903   0.905   4.168   2.762  0.3076 -0.1504 -0.1792
 7815SOL    HW134904   0.895   4.082   2.802  0.4668 -0.2561 -0.3702
 7815SOL    HW234905   0.855   4.221   2.824  0.7717  1.3842 -1.1179
 7816SOL     OW34906   0.559   4.023   3.836 -0.2449  0.1280 -0.8276
 7816SOL    HW134907   0.516   3.937   3.833 -2.4141  1.2319 -1.0048
 7816SOL    HW234908   0.639   3.994   3.880 -0.1015  0.9824 -0.5312
 7817SOL     OW34909   2.587   3.888   7.242  0.4958  1.2821  0.0580
 7817SOL    HW134910   2.514   3.835   7.211  1.2232 -0.4241  1.2698
 7817SOL    HW234911   2.548   3.906   7.328 -1.2422 -0.8537 -0.2922
 7818SOL     OW34912   3.269   4.277   2.314 -0.4903 -0.5960 -0.2634
 7818SOL    HW134913   3.317   4.358   2.300 -2.5819  0.1473 -3.0628
 7818SOL    HW234914   3.232   4.281   2.402 -2.7102 -1.6284 -1.1478
 7819SOL     OW34915   1.849   4.012   8.049 -0.2913 -0.3394  0.1629
 7819SOL    HW134916   1.835   3.918   8.050  2.7438 -0.8101 -0.7472
 7819SOL    HW234917   1.776   4.050   8.098  0.6660  1.3721  0.2753
 7820SOL     OW34918   3.683   4.700   5.720  0.6727 -0.1515  0.0134
 7820SOL    HW134919   3.700   4.611   5.753  0.5855  0.1434  0.8539
 7820SOL    HW234920   3.768   0.002   5.682  0.1001  0.9438 -0.6008
 7821SOL     OW34921   2.533   3.218  13.869 -0.0501 -0.8923 -0.1472
 7821SOL    HW134922   2.580   3.301  13.861 -0.9159 -0.4723 -0.8569
 7821SOL    HW234923   2.595   3.176  13.928  0.3982  1.6712  1.2022
 7822SOL     OW34924   1.496   0.102   2.844  0.1998  0.2443 -0.0669
 7822SOL    HW134925   1.418   0.054   2.873 -0.0389  0.5142 -0.2661
 7822SOL    HW234926   1.488   0.093   2.749  1.6970 -1.6821 -0.0065
 7823SOL     OW34927   0.839   2.630  13.767 -0.3601  0.3768  0.7511
 7823SOL    HW134928   0.822   2.542  13.799 -0.5747 -0.4126 -1.5258
 7823SOL    HW234929   0.754   2.657  13.734 -0.8488 -2.1032 -0.0240
 7824SOL     OW34930   1.080   1.095   5.531 -0.4974  0.0144  0.0474
 7824SOL    HW134931   1.053   1.141   5.611 -0.6730  1.1016 -0.6324
 7824SOL    HW234932   0.996   1.063   5.498 -0.1128 -1.3125  0.3793
 7825SOL     OW34933   2.589   1.796   5.234  0.1420  0.5327  0.9552
 7825SOL    HW134934   2.496   1.785   5.254  0.2066 -0.2014  0.8285
 7825SOL    HW234935   2.595   1.725   5.170 -0.4262  1.6232 -0.3150
 7826SOL     OW34936   4.652   1.034   7.608 -0.3254 -0.3300  0.4367
 7826SOL    HW134937   4.716   1.064   7.672 -0.1775  0.3441 -0.0268
 7826SOL    HW234938   4.702   1.045   7.527  0.7684 -0.3075  1.1159
 7827SOL     OW34939   3.716   4.247   6.739  0.2064 -0.2595 -0.0277
 7827SOL    HW134940   3.689   4.276   6.826 -0.1053 -1.5888  0.3107
 7827SOL    HW234941   3.797   4.196   6.749  1.2525  1.3446 -0.1696
 7828SOL     OW34942   4.142   3.066  10.683 -0.1431  0.3802 -0.1322
 7828SOL    HW134943   4.083   3.111  10.622 -0.5527  0.4053  0.2760
 7828SOL    HW234944   4.070   3.023  10.729 -1.6689  3.3999  0.3238
 7829SOL     OW34945   1.382   4.070   0.636  0.0622 -0.2434  0.2652
 7829SOL    HW134946   1.388   3.994   0.577 -0.6446  2.1072 -2.8224
 7829SOL    HW234947   1.392   4.146   0.579  0.1191  1.3099  2.3537
 7830SOL     OW34948   0.593   4.031   2.800  0.2403 -0.4170 -0.4403
 7830SOL    HW134949   0.662   3.970   2.828  0.4886 -0.1146 -0.3931
 7830SOL    HW234950   0.645   4.111   2.800  1.2558 -1.0714  0.9348
 7831SOL     OW34951   0.463   0.893  11.109 -0.0862 -0.5169 -0.5687
 7831SOL    HW134952   0.487   0.958  11.042  0.6954  0.7796  0.9636
 7831SOL    HW234953   0.443   0.824  11.045  3.5124 -3.1901  1.1989
 7832SOL     OW34954   0.540   4.331  15.329 -0.2711 -0.1510  0.4594
 7832SOL    HW134955   0.507   4.417  15.305 -3.5311 -1.1217  1.5347
 7832SOL    HW234956   0.532   4.339  15.424 -4.5782  0.5872  0.0267
 7833SOL     OW34957   0.589   1.423  14.183  0.3612  0.1539  0.4441
 7833SOL    HW134958   0.560   1.342  14.225  1.3768 -0.7506 -0.6015
 7833SOL    HW234959   0.586   1.387  14.094  1.2792 -0.8791  0.8356
 7834SOL     OW34960   0.882   2.372   4.494 -0.1840  0.0148 -0.0977
 7834SOL    HW134961   0.897   2.356   4.401  0.5306  0.5119 -0.0645
 7834SOL    HW234962   0.843   2.459   4.497 -1.0832 -0.2636 -3.5971
 7835SOL     OW34963   0.114   0.884   3.750  0.3759  0.7137 -0.4596
 7835SOL    HW134964   0.099   0.951   3.816 -0.2943 -0.6181  0.7464
 7835SOL    HW234965   0.182   0.836   3.798 -0.0706 -1.4973 -1.9900
 7836SOL     OW34966   0.216   2.729   8.569 -0.2289  0.2168 -0.1357
 7836SOL    HW134967   0.268   2.658   8.530 -1.5189 -0.6370 -0.2947
 7836SOL    HW234968   0.212   2.723   8.664 -2.3700 -0.8551 -0.2800
 7837SOL     OW34969   3.296   0.399   6.971  0.0650 -0.1187 -0.2230
 7837SOL    HW134970   3.235   0.389   6.898 -1.3001  0.4392  0.8608
 7837SOL    HW234971   3.382   0.401   6.929  0.0079  1.7738 -0.2500
 7838SOL     OW34972   4.707   2.794   3.017 -0.0585 -0.0033  0.3274
 7838SOL    HW134973   0.078   2.817   3.031  0.1072 -0.4600  0.0029
 7838SOL    HW234974   4.694   2.863   2.951  1.7564 -1.9913 -2.1101
 7839SOL     OW34975   4.673   0.142  15.041 -0.3123  0.0971  0.4117
 7839SOL    HW134976   4.592   0.172  15.082 -0.6374  1.6284 -1.3702
 7839SOL    HW234977   4.688   0.209  14.975 -0.0795  0.1417  0.5118
 7840SOL     OW34978   3.547   1.406   0.209 -0.1385  0.1144  0.0099
 7840SOL    HW134979   3.459   1.444   0.214 -0.2263 -0.1176  0.2203
 7840SOL    HW234980   3.609   1.480   0.210  1.2284 -1.0255 -0.5167
 7841SOL     OW34981   3.726   0.796  11.192  0.0365 -0.3695  0.0787
 7841SOL    HW134982   3.714   0.888  11.168  0.3076 -0.2701  0.3279
 7841SOL    HW234983   3.807   0.784  11.142 -0.9667  1.4251 -1.9974
 7842SOL     OW34984   2.945   0.439   9.667 -0.4115 -0.6587 -0.5957
 7842SOL    HW134985   2.924   0.511   9.607 -1.0727  0.4979  1.0392
 7842SOL    HW234986   3.032   0.459   9.702 -0.4290 -0.0506 -0.8911
 7843SOL     OW34987   4.573   2.984   9.787 -0.5544  0.3088 -0.5450
 7843SOL    HW134988   4.615   2.911   9.832 -2.2170 -0.9583 -1.0365
 7843SOL    HW234989   4.607   3.065   9.825  1.2068 -0.6983  0.0122
 7844SOL     OW34990   1.416   0.130   9.259 -0.2130  0.0716  0.1827
 7844SOL    HW134991   1.508   0.129   9.286 -0.0416  0.6757 -0.3760
 7844SOL    HW234992   1.403   0.210   9.208  0.8065  0.3265  0.3200
 7845SOL     OW34993   3.816   2.057   2.973  0.1721 -0.1066 -0.0803
 7845SOL    HW134994   3.722   2.038   2.978  0.0695  0.1270 -1.0836
 7845SOL    HW234995   3.844   1.999   2.902  0.4968 -2.3910  1.8846
 7846SOL     OW34996   0.161   0.154  11.885  0.1974 -0.0009 -0.3378
 7846SOL    HW134997   0.124   0.160  11.797  1.3843  1.2372 -0.7539
 7846SOL    HW234998   0.131   0.066  11.907  0.7697  0.3846  2.0299
 7847SOL     OW34999   2.003   0.603   6.321  0.2362  0.1639 -0.3725
 7847SOL    HW135000   1.943   0.530   6.335 -0.4139  0.3936 -1.8847
 7847SOL    HW235001   2.028   0.619   6.412  1.0291  2.8564 -1.0433
 7848SOL     OW35002   0.535   3.884   4.487 -0.3655 -0.2955  0.0223
 7848SOL    HW135003   0.450   3.909   4.523 -0.2978  0.3704 -0.2669
 7848SOL    HW235004   0.519   3.874   4.393 -0.4663  0.7636 -0.0706
 7849SOL     OW35005   0.465   3.187   9.201  0.2405 -0.5707  0.1798
 7849SOL    HW135006   0.441   3.138   9.279  0.1958 -2.6130 -1.1115
 7849SOL    HW235007   0.385   3.238   9.185  1.1694  0.3462 -1.5527
 7850SOL     OW35008   1.589   0.302   7.103 -0.3869  0.1686  0.4172
 7850SOL    HW135009   1.595   0.397   7.105 -0.0812  0.1754 -1.2825
 7850SOL    HW235010   1.636   0.287   7.185 -1.2552  2.1336  1.2725
 7851SOL     OW35011   0.662   0.170   3.301  0.2318 -0.3461  0.3032
 7851SOL    HW135012   0.568   0.173   3.319  0.2546  0.3187  0.3222
 7851SOL    HW235013   0.691   0.148   3.389  1.3001  1.2567  0.3542
 7852SOL     OW35014   1.966   3.468   7.041  0.2715  0.3192  0.0236
 7852SOL    HW135015   2.006   3.384   7.019  1.1622  1.0814 -1.2925
 7852SOL    HW235016   1.918   3.436   7.117  0.2661  0.5297  0.1084
 7853SOL     OW35017   0.149   1.263   8.778  0.3246  0.0590 -1.0095
 7853SOL    HW135018   0.066   1.235   8.739  0.5497 -1.2492 -0.5594
 7853SOL    HW235019   0.184   1.327   8.716 -0.0461 -0.6038 -1.9066
 7854SOL     OW35020   2.809   2.330   2.659  0.3516  0.4331  0.2151
 7854SOL    HW135021   2.754   2.310   2.735  1.5524 -0.1378  0.9471
 7854SOL    HW235022   2.762   2.293   2.585  0.5953 -1.6930  1.1357
 7855SOL     OW35023   4.598   3.608   8.027  0.2884 -0.0689 -0.0131
 7855SOL    HW135024   4.672   3.662   8.055 -2.0370  2.4201  1.3150
 7855SOL    HW235025   4.548   3.660   7.965  0.5745  0.9628  0.6166
 7856SOL     OW35026   4.083   1.223  11.710 -0.2335 -0.3240  0.4033
 7856SOL    HW135027   4.152   1.209  11.645  0.5084 -3.5675  1.8947
 7856SOL    HW235028   4.004   1.224  11.655  1.3249 -3.0621 -1.8698
 7857SOL     OW35029   1.469   3.173   4.919 -0.1192  0.1449  0.4789
 7857SOL    HW135030   1.477   3.215   5.005 -3.5716  0.2874  0.7267
 7857SOL    HW235031   1.531   3.100   4.914  0.6300  0.7639  0.8153
 7858SOL     OW35032   0.193   1.083   6.332 -0.0745 -0.0448  0.0118
 7858SOL    HW135033   0.268   1.132   6.366 -0.7883  1.0378  0.0299
 7858SOL    HW235034   0.191   1.011   6.395 -1.6441  1.1623  1.3389
 7859SOL     OW35035   3.633   3.473   9.803  0.4515  0.7068 -0.8134
 7859SOL    HW135036   3.545   3.461   9.768 -0.3214  1.0735  1.0083
 7859SOL    HW235037   3.624   3.551   9.857  0.2430 -0.7832  1.3059
 7860SOL     OW35038   1.263   3.540   2.693  0.0481  0.0442 -0.2706
 7860SOL    HW135039   1.303   3.527   2.779 -1.3162  2.6075  0.7724
 7860SOL    HW235040   1.180   3.580   2.718  0.8821  0.7183  1.4446
 7861SOL     OW35041   4.041   4.049   1.252  0.0083 -0.7725  0.0755
 7861SOL    HW135042   4.112   4.029   1.313  1.2860 -0.6455 -1.3975
 7861SOL    HW235043   4.000   3.963   1.242 -0.4601 -0.7715  1.8789
 7862SOL     OW35044   3.678   1.070  16.276  0.4937  0.6311  0.0679
 7862SOL    HW135045   3.658   1.164  16.285 -0.8263  0.3462  0.1196
 7862SOL    HW235046   3.619   1.058  16.201  2.1769  0.1697 -1.1885
 7863SOL     OW35047   1.683   0.450   3.577 -0.0060  0.1676  0.1601
 7863SOL    HW135048   1.776   0.472   3.581  0.4443 -1.5239 -1.0213
 7863SOL    HW235049   1.646   0.504   3.508 -0.5727  0.1232  0.4301
 7864SOL     OW35050   0.732   3.712  12.370 -0.6860 -0.9696 -0.1476
 7864SOL    HW135051   0.643   3.703  12.404 -1.1233  1.1138 -0.6858
 7864SOL    HW235052   0.769   3.652  12.434  1.0470  0.3546  0.0918
 7865SOL     OW35053   3.086   1.359   1.192 -0.0379  0.1368 -0.1585
 7865SOL    HW135054   3.159   1.327   1.139  0.4314 -0.2125  0.6907
 7865SOL    HW235055   3.077   1.453   1.174  0.8151  0.6779  2.1526
 7866SOL     OW35056   0.350   0.409   4.167  0.7002  0.1123  0.1978
 7866SOL    HW135057   0.381   0.347   4.101 -0.8644 -2.3442  1.7818
 7866SOL    HW235058   0.265   0.430   4.127  0.9963  0.7340 -0.1122
 7867SOL     OW35059   1.522   1.503   5.004  0.6062 -0.2647 -0.3673
 7867SOL    HW135060   1.540   1.440   5.074  1.9849 -0.6541 -1.0789
 7867SOL    HW235061   1.609   1.511   4.965  0.9011  2.6068  0.8045
 7868SOL     OW35062   1.995   0.242  16.568 -0.0949 -0.3388 -0.4623
 7868SOL    HW135063   1.937   0.305  16.611 -1.1479 -1.2025 -0.6205
 7868SOL    HW235064   2.055   0.299  16.520  0.1450  0.2805  0.5574
 7869SOL     OW35065   2.901   0.309   4.496 -0.0097  0.4770  0.3482
 7869SOL    HW135066   2.966   0.374   4.469  1.1675 -1.6896 -1.9681
 7869SOL    HW235067   2.864   0.305   4.408  0.4027 -0.8513  0.2445
 7870SOL     OW35068   2.646   4.631   2.334 -0.2488  0.2044  0.3569
 7870SOL    HW135069   2.727   4.677   2.310 -0.4448  0.9879  1.2005
 7870SOL    HW235070   2.601   4.623   2.249 -0.0693  0.9055  0.1989
 7871SOL     OW35071   3.618   2.716   5.105 -0.0312 -0.5479  0.2134
 7871SOL    HW135072   3.596   2.667   5.025 -2.1047  0.7916 -0.0565
 7871SOL    HW235073   3.545   2.778   5.100 -0.0290 -0.4931  0.9632
 7872SOL     OW35074   0.416   0.428   5.329 -0.6054  0.2524 -0.3017
 7872SOL    HW135075   0.468   0.354   5.298  2.4802  2.9292 -1.4336
 7872SOL    HW235076   0.439   0.436   5.422 -1.1917  1.0270 -0.2254
 7873SOL     OW35077   0.014   1.354   6.917 -0.0218 -0.4735 -0.0077
 7873SOL    HW135078   4.690   1.397   6.844  0.7077 -0.7487 -0.6053
 7873SOL    HW235079   4.692   1.269   6.905 -0.9556  0.1517 -1.1913
 7874SOL     OW35080   4.563   1.951   5.003 -0.8872 -0.5363 -0.0665
 7874SOL    HW135081   4.574   1.986   4.915  0.4594  0.1331  0.3665
 7874SOL    HW235082   4.635   1.888   5.003 -0.4671 -0.0577 -1.2434
 7875SOL     OW35083   4.467   3.622   6.792  0.4944 -1.1253  1.2827
 7875SOL    HW135084   4.379   3.612   6.831 -0.8529  0.2932 -1.4307
 7875SOL    HW235085   4.523   3.629   6.869  1.0966  0.8252  0.6428
 7876SOL     OW35086   3.320   1.761  16.014 -1.0810 -0.6088  0.8266
 7876SOL    HW135087   3.285   1.689  16.066 -1.6086 -1.4104 -0.6315
 7876SOL    HW235088   3.361   1.708  15.946  0.6624 -0.4266  1.7191
 7877SOL     OW35089   0.480   1.753   0.755 -0.2175  0.6395 -0.3815
 7877SOL    HW135090   0.560   1.804   0.743 -0.3106  1.3133  1.9104
 7877SOL    HW235091   0.435   1.797   0.826  0.8398 -2.0016  1.9109
 7878SOL     OW35092   0.468   1.119   9.657 -0.4548  0.1589  0.5934
 7878SOL    HW135093   0.441   1.211   9.658  1.5490  0.7177  2.1101
 7878SOL    HW235094   0.550   1.131   9.609  0.7301 -1.2997  2.2868
 7879SOL     OW35095   0.739   1.099   2.178  0.9681 -0.1582  0.6135
 7879SOL    HW135096   0.773   1.102   2.089 -2.7310 -0.2015 -0.8223
 7879SOL    HW235097   0.809   1.143   2.226 -0.3921  3.3562 -0.6116
 7880SOL     OW35098   2.112   0.683   4.099  0.1488  0.0318  0.1127
 7880SOL    HW135099   2.053   0.749   4.063 -0.8365 -0.9561 -0.0690
 7880SOL    HW235100   2.181   0.674   4.034  2.0508  0.2074  2.0916
 7881SOL     OW35101   2.319   3.372  17.505  0.6036 -0.1400  0.2957
 7881SOL    HW135102   2.379   3.306  17.470  1.0507  1.0554 -1.2035
 7881SOL    HW235103   2.317   3.350  17.598  1.0314 -1.0641  0.0851
 7882SOL     OW35104   2.304   4.297   8.838  0.3865 -0.0409 -0.6845
 7882SOL    HW135105   2.247   4.362   8.880  0.4997 -0.1494 -0.3674
 7882SOL    HW235106   2.243   4.251   8.780  0.3588 -1.7702  0.7347
 7883SOL     OW35107   3.343   2.928   3.705  0.5744 -0.2109  0.6567
 7883SOL    HW135108   3.292   2.932   3.786  1.8015 -0.8349  1.4551
 7883SOL    HW235109   3.292   2.986   3.648 -0.2595 -0.4322  1.1772
 7884SOL     OW35110   0.859   0.820   3.169  0.3899  0.5143  0.0506
 7884SOL    HW135111   0.948   0.809   3.204  1.1521 -1.2447 -2.4714
 7884SOL    HW235112   0.813   0.834   3.252 -0.4994  2.5749 -0.8058
 7885SOL     OW35113   0.961   3.926  16.622 -0.5273 -0.0654  0.4381
 7885SOL    HW135114   0.873   3.946  16.589  0.0475  1.3711 -0.2599
 7885SOL    HW235115   0.965   3.979  16.702  1.3524  0.2305  0.1414
 7886SOL     OW35116   4.021   1.353   8.071  0.2346 -0.1299  0.3109
 7886SOL    HW135117   4.107   1.327   8.104  0.7449  0.9767 -0.1548
 7886SOL    HW235118   3.961   1.293   8.116  0.6251 -2.0057 -1.6728
 7887SOL     OW35119   3.947   1.322   4.853  0.4320 -0.4182  0.3318
 7887SOL    HW135120   4.040   1.302   4.838  0.8150  0.8801  1.0127
 7887SOL    HW235121   3.951   1.414   4.878  1.3797 -0.2826 -0.3113
 7888SOL     OW35122   0.790   2.043  11.229 -0.1622  0.0352  0.2778
 7888SOL    HW135123   0.826   2.127  11.201  1.2142 -1.0235 -1.1363
 7888SOL    HW235124   0.706   2.044  11.184  0.0592 -1.9536 -0.1767
 7889SOL     OW35125   1.826   3.217   6.843  0.5976  0.5747  0.0851
 7889SOL    HW135126   1.834   3.130   6.882  1.4575  0.1053 -1.1680
 7889SOL    HW235127   1.757   3.255   6.899 -0.4722  2.5431 -2.5902
 7890SOL     OW35128   4.607   1.537   6.765 -0.1567  0.0202  0.0029
 7890SOL    HW135129   4.524   1.584   6.775 -0.5799 -0.7831  0.2182
 7890SOL    HW235130   4.658   1.598   6.712 -2.9338  2.7531  0.4603
 7891SOL     OW35131   3.460   3.934  17.098 -0.7151 -0.3484 -0.2439
 7891SOL    HW135132   3.382   3.976  17.133 -1.1382 -0.3666 -1.1568
 7891SOL    HW235133   3.447   3.954  17.005 -0.1160 -0.1724 -0.2920
 7892SOL     OW35134   1.921   3.532   7.931 -0.1565 -0.1807 -0.1008
 7892SOL    HW135135   1.917   3.509   7.838 -1.9970  2.1234 -0.5647
 7892SOL    HW235136   1.984   3.467   7.964 -2.2149 -2.5596 -0.8791
 7893SOL     OW35137   2.472   2.154  15.818  0.3115 -0.1090 -0.2516
 7893SOL    HW135138   2.562   2.161  15.786 -0.7092  0.1308 -3.0684
 7893SOL    HW235139   2.418   2.220  15.776  1.4224  0.0903 -1.3571
 7894SOL     OW35140   3.113   3.635   1.915 -0.3117  0.4102 -0.0753
 7894SOL    HW135141   3.157   3.584   1.983 -2.0773 -0.1993  0.6041
 7894SOL    HW235142   3.137   3.595   1.832  0.7224  0.5951  0.1335
 7895SOL     OW35143   3.217   1.954   3.333  0.3087  0.4804 -0.0546
 7895SOL    HW135144   3.127   1.952   3.365 -0.1167  0.0645 -1.2389
 7895SOL    HW235145   3.239   2.046   3.342 -0.5960  0.6300  0.6247
 7896SOL     OW35146   0.663   3.953   7.952  0.1231 -0.4391 -0.1859
 7896SOL    HW135147   0.752   3.960   7.917  0.7495 -1.3725  1.2157
 7896SOL    HW235148   0.646   4.038   7.993  0.2319 -0.1437 -0.7622
 7897SOL     OW35149   3.323   2.446  13.757 -0.6124 -1.2766  0.2605
 7897SOL    HW135150   3.413   2.413  13.760 -0.0317  0.4207  1.3719
 7897SOL    HW235151   3.314   2.485  13.844  1.2371 -1.3631  0.4937
 7898SOL     OW35152   1.853   4.659   6.355 -0.1330 -0.3134 -0.5134
 7898SOL    HW135153   1.836   4.578   6.307  2.6766 -2.4679  2.1969
 7898SOL    HW235154   1.793   4.720   6.310 -2.3341 -1.7494  0.4695
 7899SOL     OW35155   2.291   3.998   3.584 -0.1343  0.1834  0.3400
 7899SOL    HW135156   2.297   3.909   3.620  0.8778  0.1292  0.0464
 7899SOL    HW235157   2.217   3.989   3.523  0.1391  1.4217 -0.1800
 7900SOL     OW35158   1.039   0.205   1.219  0.0425  0.6603 -0.1518
 7900SOL    HW135159   1.075   0.241   1.138 -0.1636 -0.0835 -0.5747
 7900SOL    HW235160   0.949   0.189   1.190  0.6900 -0.4793 -1.5004
 7901SOL     OW35161   1.656   0.978   1.888 -0.4978 -0.2510  0.1405
 7901SOL    HW135162   1.692   1.063   1.912 -0.7067 -0.6038  1.7224
 7901SOL    HW235163   1.601   0.953   1.962  1.4012  1.0701  2.0035
 7902SOL     OW35164   2.866   4.226  15.550 -0.5170 -0.2068  0.1276
 7902SOL    HW135165   2.774   4.237  15.575 -0.4870 -0.4919  0.3660
 7902SOL    HW235166   2.848   4.218  15.456 -0.6749 -1.2228  0.2411
 7903SOL     OW35167   1.575   4.674  13.413 -0.7426  0.3970  0.0476
 7903SOL    HW135168   1.500   4.620  13.437 -2.3396  1.9216 -1.5982
 7903SOL    HW235169   1.561   0.041  13.449  1.5430  0.3304  1.0751
 7904SOL     OW35170   0.679   1.804   3.457  0.2890  0.2055 -0.2303
 7904SOL    HW135171   0.631   1.869   3.406 -2.4324 -1.8400 -0.2648
 7904SOL    HW235172   0.614   1.767   3.516 -0.7836 -0.9223 -2.1347
 7905SOL     OW35173   2.552   3.690  10.081 -0.0539 -0.2787 -0.3832
 7905SOL    HW135174   2.584   3.773  10.118  0.6389 -0.4816 -0.5277
 7905SOL    HW235175   2.458   3.704  10.082 -0.2526 -1.6715  0.8445
 7906SOL     OW35176   2.838   2.645   3.074 -0.2429  0.2348 -0.3524
 7906SOL    HW135177   2.870   2.637   2.984 -1.3622  1.3233 -0.8625
 7906SOL    HW235178   2.771   2.713   3.059 -0.1901 -0.0631 -1.9362
 7907SOL     OW35179   3.818   1.888   3.683 -0.2624 -0.6046  0.1425
 7907SOL    HW135180   3.877   1.963   3.679  1.5244 -1.9921  0.3754
 7907SOL    HW235181   3.860   1.843   3.757  1.3493  1.0918  0.2458
 7908SOL     OW35182   0.944   0.238  15.938 -0.0994 -0.5222 -0.1218
 7908SOL    HW135183   0.876   0.171  15.934  0.5378 -1.3591  3.6271
 7908SOL    HW235184   0.902   0.309  15.889  2.9765  0.6013 -1.0860
 7909SOL     OW35185   3.428   2.301   8.355  0.6807 -0.2437  0.0864
 7909SOL    HW135186   3.404   2.209   8.362 -0.0955 -0.0611 -0.1796
 7909SOL    HW235187   3.340   2.337   8.343  0.7828  0.5462  1.7380
 7910SOL     OW35188   1.109   2.312   7.135  0.1341 -0.4583 -0.6494
 7910SOL    HW135189   1.079   2.246   7.072  0.8724  0.4774 -1.9951
 7910SOL    HW235190   1.158   2.374   7.081  1.4650 -2.1075 -1.3244
 7911SOL     OW35191   3.504   2.943   6.459  0.2793  0.5744 -0.2253
 7911SOL    HW135192   3.459   2.867   6.423  0.5419  0.6444 -0.7051
 7911SOL    HW235193   3.592   2.908   6.471 -0.4350 -1.1772 -0.0909
 7912SOL     OW35194   1.798   2.267   0.129 -0.0873 -0.6084 -0.1645
 7912SOL    HW135195   1.851   2.258   0.208  0.5338  0.7945 -0.4150
 7912SOL    HW235196   1.709   2.250   0.160 -0.2868  0.1368 -0.3228
 7913SOL     OW35197   3.950   2.941  16.769 -0.3000  0.3067 -0.2333
 7913SOL    HW135198   4.014   2.925  16.700 -0.7281  0.8098 -0.7457
 7913SOL    HW235199   3.917   2.852  16.780 -0.0405  0.2403 -0.0022
 7914SOL     OW35200   3.023   1.734  14.508 -0.0568 -0.1380  0.2531
 7914SOL    HW135201   3.081   1.693  14.444  0.5106  0.0276  0.6550
 7914SOL    HW235202   3.078   1.779  14.572  1.6625 -0.7034 -0.8347
 7915SOL     OW35203   4.254   0.828   2.068  0.0344 -0.7475  0.1868
 7915SOL    HW135204   4.276   0.913   2.031 -0.4529 -0.5952  0.2548
 7915SOL    HW235205   4.218   0.857   2.152  0.1474  0.7481 -0.2846
 7916SOL     OW35206   4.428   3.679   1.429  0.0448  0.1680 -0.1412
 7916SOL    HW135207   4.418   3.707   1.339 -1.2103  1.2499  0.3354
 7916SOL    HW235208   4.340   3.645   1.445 -0.0286  1.8243  3.0439
 7917SOL     OW35209   2.649   0.449   3.204 -0.0913 -0.2895 -0.4297
 7917SOL    HW135210   2.709   0.374   3.209  0.6661  0.2441 -1.7191
 7917SOL    HW235211   2.689   0.493   3.129 -2.5907  1.4501 -0.7323
 7918SOL     OW35212   1.662   2.093   2.066  0.5937 -0.0543  0.2961
 7918SOL    HW135213   1.605   2.087   1.990  0.3744 -1.3031  0.5443
 7918SOL    HW235214   1.739   2.058   2.021  1.0706  0.3305  0.8118
 7919SOL     OW35215   3.628   3.136   9.012  0.1218 -0.6010 -0.2041
 7919SOL    HW135216   3.651   3.096   8.928  0.4546  1.1815 -0.9740
 7919SOL    HW235217   3.673   3.081   9.075 -1.1836  1.5957  2.6216
 7920SOL     OW35218   0.912   0.638   0.789  0.0656 -0.0505  0.2657
 7920SOL    HW135219   0.851   0.618   0.719  0.5657 -0.5344 -0.0282
 7920SOL    HW235220   0.994   0.645   0.741  0.8019 -1.9711  1.2529
 7921SOL     OW35221   4.324   1.264   0.716 -0.6573 -0.0260  0.1428
 7921SOL    HW135222   4.272   1.331   0.672  0.0269  0.4243  0.0132
 7921SOL    HW235223   4.390   1.225   0.658  1.5351 -0.4164  2.8784
 7922SOL     OW35224   4.456   3.588   2.953 -0.2944 -0.2056  0.2536
 7922SOL    HW135225   4.430   3.668   2.906  0.2369 -0.3669 -0.3095
 7922SOL    HW235226   4.502   3.547   2.880 -2.3947  0.2243 -1.3012
 7923SOL     OW35227   1.664   2.363   2.858  0.9301 -0.3446 -0.1927
 7923SOL    HW135228   1.734   2.420   2.890 -1.3503  1.8682  0.9115
 7923SOL    HW235229   1.706   2.316   2.787  0.6240 -0.8547 -0.0330
 7924SOL     OW35230   0.355   1.959   8.324 -0.5400  0.1515 -0.8022
 7924SOL    HW135231   0.429   1.899   8.316  0.0538  0.7804  0.0156
 7924SOL    HW235232   0.408   2.035   8.347  2.2179 -1.6444 -1.2007
 7925SOL     OW35233   4.650   4.197   8.808  0.0991 -0.0816 -0.5404
 7925SOL    HW135234   4.692   4.118   8.841 -0.1320  0.3803  0.8289
 7925SOL    HW235235   4.690   4.260   8.868  2.4249 -0.2394 -1.8830
 7926SOL     OW35236   3.844   3.060   5.582  0.8535 -0.0783  0.2116
 7926SOL    HW135237   3.808   3.010   5.655 -0.6467 -0.1476 -0.5910
 7926SOL    HW235238   3.786   3.030   5.513 -3.1142  1.5489  2.8543
 7927SOL     OW35239   3.571   4.280   2.289 -0.6437 -0.3686 -0.5298
 7927SOL    HW135240   3.586   4.200   2.338  0.9440 -0.3347 -0.9610
 7927SOL    HW235241   3.527   4.256   2.207 -0.4012 -0.1888 -0.7139
 7928SOL     OW35242   3.123   0.074   6.852  0.1745 -0.3307  0.1982
 7928SOL    HW135243   3.205   0.079   6.901 -0.8528  0.8112  1.7767
 7928SOL    HW235244   3.078   0.118   6.924 -0.3711  1.1667 -1.0659
 7929SOL     OW35245   0.454   2.844   2.138  0.9613  0.5120  0.0574
 7929SOL    HW135246   0.359   2.845   2.128  0.9224  0.5026  0.4434
 7929SOL    HW235247   0.473   2.754   2.111  0.8000 -0.2422  2.4539
 7930SOL     OW35248   1.128   3.946  16.926  0.5831 -0.6846  0.3779
 7930SOL    HW135249   1.214   3.955  16.968  0.3891  0.0568  0.6200
 7930SOL    HW235250   1.081   4.022  16.961 -2.3012 -1.4040 -1.9457
 7931SOL     OW35251   1.091   2.700   2.123  0.4796  0.7630 -0.2351
 7931SOL    HW135252   1.013   2.748   2.150  0.4211 -1.0636  2.7710
 7931SOL    HW235253   1.128   2.747   2.048 -1.3413  1.1350 -0.9133
 7932SOL     OW35254   2.324   4.072   6.151 -0.2004 -0.0831 -0.3531
 7932SOL    HW135255   2.419   4.085   6.161 -0.2637 -1.4116  2.0146
 7932SOL    HW235256   2.321   4.029   6.066 -0.2018 -1.3815  0.2978
 7933SOL     OW35257   4.491   2.496   2.542 -0.2415  0.0223 -0.0701
 7933SOL    HW135258   4.558   2.544   2.591  0.7960 -0.7906 -0.6960
 7933SOL    HW235259   4.444   2.454   2.614 -1.6347 -0.9567 -1.5611
 7934SOL     OW35260   3.877   3.403   7.416 -0.0472  0.3983  0.4223
 7934SOL    HW135261   3.927   3.364   7.345 -0.7476  0.0739  0.1054
 7934SOL    HW235262   3.786   3.414   7.388  0.2956 -2.1496 -1.6442
 7935SOL     OW35263   1.264   1.467   2.808 -0.0847  0.0312 -0.1748
 7935SOL    HW135264   1.251   1.373   2.816 -1.5957  0.2033 -0.6304
 7935SOL    HW235265   1.348   1.469   2.854  0.9019 -2.3890 -1.8753
 7936SOL     OW35266   2.886   0.288  14.795  0.4566  0.3738  0.1890
 7936SOL    HW135267   2.947   0.219  14.822  1.1730  1.6118  1.7088
 7936SOL    HW235268   2.812   0.234  14.766  0.7515  0.2183 -0.2684
 7937SOL     OW35269   2.130   4.451   0.085 -0.1444  0.0381 -0.4685
 7937SOL    HW135270   2.168   4.500   0.012  0.1950  1.2190  0.5105
 7937SOL    HW235271   2.192   4.379   0.097 -0.7153 -0.1061  1.5331
 7938SOL     OW35272   3.363   4.492  10.578 -0.1438 -0.0536  0.0765
 7938SOL    HW135273   3.427   4.546  10.532 -0.2319 -0.4095 -0.4556
 7938SOL    HW235274   3.422   4.434  10.628  1.1454  2.5396  1.5738
 7939SOL     OW35275   1.174   0.660  14.064 -0.1520  0.3950 -0.5930
 7939SOL    HW135276   1.154   0.608  13.986 -1.4747  0.9503 -0.6146
 7939SOL    HW235277   1.214   0.588  14.114  0.4063  2.0872  1.4270
 7940SOL     OW35278   3.957   1.447  15.485  0.1139  0.4672  0.7138
 7940SOL    HW135279   3.909   1.389  15.545 -0.4678  0.9056  0.6647
 7940SOL    HW235280   3.950   1.395  15.405  0.6215  0.0393  0.9441
 7941SOL     OW35281   2.435   0.087  12.384 -0.5624 -0.5208  0.1544
 7941SOL    HW135282   2.391   0.038  12.453 -0.5320 -1.6730 -0.6323
 7941SOL    HW235283   2.405   0.176  12.404 -0.4638 -0.0012 -1.9737
 7942SOL     OW35284   4.383   3.584   3.794 -0.3657 -0.1766 -0.4826
 7942SOL    HW135285   4.462   3.637   3.779  1.5318 -2.6250  0.9141
 7942SOL    HW235286   4.392   3.552   3.883  0.0814 -2.5023 -1.3849
 7943SOL     OW35287   2.197   0.817   8.202  0.3557 -0.2212  0.1462
 7943SOL    HW135288   2.264   0.831   8.136  0.5716 -1.2689  0.1397
 7943SOL    HW235289   2.127   0.855   8.149 -0.2866 -0.0610  1.1023
 7944SOL     OW35290   3.563   3.342   8.763 -0.4163  0.2031 -0.2826
 7944SOL    HW135291   3.591   3.260   8.803  0.3817  0.4122 -0.4013
 7944SOL    HW235292   3.649   3.382   8.746 -0.5478 -0.2754 -2.1163
 7945SOL     OW35293   1.595   1.293   5.189 -0.3968  0.1170  0.3233
 7945SOL    HW135294   1.622   1.354   5.258  0.7611 -1.2842  1.1317
 7945SOL    HW235295   1.551   1.222   5.236 -1.8875  2.4649  2.4183
 7946SOL     OW35296   3.119   2.278   7.791 -0.2082  0.0567  0.3710
 7946SOL    HW135297   3.077   2.194   7.775 -0.1329  0.0605  0.1570
 7946SOL    HW235298   3.108   2.320   7.706 -1.1439 -0.5909  0.1831
 7947SOL     OW35299   1.794   2.641   1.951 -0.2421 -0.4378 -0.1477
 7947SOL    HW135300   1.703   2.643   1.923 -0.4727 -2.3433  0.4358
 7947SOL    HW235301   1.783   2.632   2.046 -0.7328 -0.1872 -0.1808
 7948SOL     OW35302   3.673   0.236  17.659 -0.2363  0.1901 -0.4585
 7948SOL    HW135303   3.696   0.326  17.639  0.9494 -0.2863 -1.1976
 7948SOL    HW235304   3.635   0.243   0.063 -0.6277 -2.1326 -0.4227
 7949SOL     OW35305   0.267   0.630  12.826  0.2441  0.0300  0.3879
 7949SOL    HW135306   0.177   0.631  12.793  0.0414 -0.8379  0.9284
 7949SOL    HW235307   0.308   0.696  12.771 -0.4878  0.1543 -0.0087
 7950SOL     OW35308   2.861   3.216  15.960 -0.1545 -0.0106 -0.1545
 7950SOL    HW135309   2.853   3.303  15.999  1.0927 -0.6988  1.6924
 7950SOL    HW235310   2.921   3.242  15.890  1.8272  2.4262  2.4413
 7951SOL     OW35311   1.565   3.276   2.635 -0.4593  0.0929  0.0224
 7951SOL    HW135312   1.562   3.255   2.728  1.0793 -0.1895  0.0125
 7951SOL    HW235313   1.496   3.218   2.603 -1.0489  1.1282 -0.5806
 7952SOL     OW35314   4.416   4.099   8.344  1.0809  0.5021 -0.0470
 7952SOL    HW135315   4.450   4.059   8.263  0.8674  0.7457 -0.2587
 7952SOL    HW235316   4.451   4.041   8.411 -0.4415 -0.0049  0.3028
 7953SOL     OW35317   2.239   1.703   5.895  0.5788  0.1039 -0.4319
 7953SOL    HW135318   2.321   1.745   5.922  0.3541 -1.1829  2.1591
 7953SOL    HW235319   2.189   1.781   5.871 -1.3229 -1.0518 -0.1805
 7954SOL     OW35320   0.652   4.214   2.485 -0.6756  0.2147  0.4241
 7954SOL    HW135321   0.746   4.196   2.479 -0.7325  1.4997 -4.2921
 7954SOL    HW235322   0.655   4.265   2.566  2.8099 -1.1359  1.1461
 7955SOL     OW35323   4.202   2.170   3.955 -0.5617  0.1525  0.5992
 7955SOL    HW135324   4.268   2.101   3.968  0.2231  0.8587  0.3558
 7955SOL    HW235325   4.134   2.140   4.016  1.8275  1.3783  3.8857
 7956SOL     OW35326   3.242   0.349   3.823  0.3478  0.6179  0.1613
 7956SOL    HW135327   3.175   0.361   3.756 -0.0694 -2.2269  0.0507
 7956SOL    HW235328   3.241   0.440   3.854  1.8860 -0.4821  3.4630
 7957SOL     OW35329   3.248   1.285   4.367  0.1331  0.2008 -0.0281
 7957SOL    HW135330   3.276   1.351   4.303  1.4030  0.4295  0.7694
 7957SOL    HW235331   3.176   1.242   4.319  0.4423 -0.7305  0.3352
 7958SOL     OW35332   0.296   2.009   0.735 -0.2950  0.1165 -0.1025
 7958SOL    HW135333   0.310   2.082   0.676  2.1356 -1.9057 -2.0113
 7958SOL    HW235334   0.228   1.961   0.687 -0.8792 -0.6495  1.4971
 7959SOL     OW35335   3.392   0.153  17.619 -0.1963  0.2880 -0.3846
 7959SOL    HW135336   3.423   0.067  17.647  1.0818  0.0043 -2.6718
 7959SOL    HW235337   3.474   0.202  17.614 -0.8826  1.2011 -2.5214
 7960SOL     OW35338   3.582   4.257  15.702  0.3015 -0.1090  0.2806
 7960SOL    HW135339   3.499   4.304  15.699  1.4396  1.7168 -2.0860
 7960SOL    HW235340   3.546   4.174  15.733 -1.1644  0.6873  0.7059
 7961SOL     OW35341   1.363   1.781   3.663 -0.0751  0.6159  0.0914
 7961SOL    HW135342   1.372   1.853   3.725 -1.6120  1.8837 -1.1727
 7961SOL    HW235343   1.287   1.727   3.684  1.0374 -1.4075 -1.0952
 7962SOL     OW35344   0.227   2.464  15.708  0.0502 -0.5950  0.3707
 7962SOL    HW135345   0.318   2.480  15.682 -0.1756  0.3415  0.1455
 7962SOL    HW235346   0.191   2.497  15.626  1.3295 -1.6278 -0.6200
 7963SOL     OW35347   2.156   0.997  10.679  0.5977 -0.0947  0.6125
 7963SOL    HW135348   2.234   0.998  10.735  1.2769 -2.2217 -0.2991
 7963SOL    HW235349   2.081   1.025  10.732 -0.4958 -0.6270 -0.6709
 7964SOL     OW35350   2.662   1.612   3.654 -0.4084 -0.4172 -0.1387
 7964SOL    HW135351   2.721   1.598   3.728 -1.4999 -0.1533  0.7728
 7964SOL    HW235352   2.605   1.534   3.655 -1.1854  0.1775  1.9474
 7965SOL     OW35353   1.495   2.823  14.709  0.1503  0.2963 -0.4541
 7965SOL    HW135354   1.553   2.899  14.714 -0.8722  1.1688 -1.6464
 7965SOL    HW235355   1.526   2.777  14.787 -2.3837 -0.3101  0.1902
 7966SOL     OW35356   3.013   4.176   3.147  0.1280  0.0778 -0.1106
 7966SOL    HW135357   3.007   4.142   3.236 -1.1700  0.6105  0.0066
 7966SOL    HW235358   2.992   4.092   3.107  1.7129 -1.3938  2.1115
 7967SOL     OW35359   2.411   3.294   7.170 -0.4080  0.8429  0.6196
 7967SOL    HW135360   2.441   3.252   7.251 -0.8505 -0.3870  0.1284
 7967SOL    HW235361   2.480   3.360   7.162  0.7875 -0.3679  0.9428
 7968SOL     OW35362   0.863   2.947  13.588 -0.0118 -0.0657 -0.0554
 7968SOL    HW135363   0.953   2.932  13.617  1.1354  0.0112 -3.6330
 7968SOL    HW235364   0.839   2.868  13.540  0.2345  1.2443 -2.2995
 7969SOL     OW35365   2.209   2.040   6.949 -0.1228 -0.1025 -0.1890
 7969SOL    HW135366   2.186   2.085   7.030 -0.0693  2.6639 -1.7082
 7969SOL    HW235367   2.287   1.996   6.981 -0.3054 -1.2261 -1.2885
 7970SOL     OW35368   2.386   2.322   3.783 -0.0937 -0.5973 -0.8454
 7970SOL    HW135369   2.411   2.413   3.799 -0.0759 -0.2395 -2.9262
 7970SOL    HW235370   2.472   2.280   3.774 -0.8933 -2.2914 -0.5005
 7971SOL     OW35371   3.564   1.195   3.431  0.4399  0.0503 -0.3264
 7971SOL    HW135372   3.655   1.202   3.403  0.7379 -0.9068  0.4001
 7971SOL    HW235373   3.529   1.192   3.342  1.1133 -1.5762 -0.5292
 7972SOL     OW35374   1.206   2.695   1.703  0.8329 -0.4904  0.3010
 7972SOL    HW135375   1.216   2.732   1.790  0.0515  1.0554 -0.2670
 7972SOL    HW235376   1.293   2.657   1.692  0.3632 -0.6466 -2.8895
 7973SOL     OW35377   1.729   0.221   9.275 -0.3349 -0.2363 -0.4794
 7973SOL    HW135378   1.773   0.274   9.342 -0.6821 -0.4282 -0.1005
 7973SOL    HW235379   1.806   0.178   9.237  0.2776 -0.4866  1.0432
 7974SOL     OW35380   3.315   4.564  11.006  0.4601 -1.0041 -0.8011
 7974SOL    HW135381   3.402   4.526  11.014  0.8781  0.1982  0.4260
 7974SOL    HW235382   3.312   4.615  11.087  0.6865 -0.9931 -0.8018
 7975SOL     OW35383   2.647   3.221  12.036 -0.5653  0.2959  0.1290
 7975SOL    HW135384   2.637   3.316  12.036  1.3877  0.5128  0.1599
 7975SOL    HW235385   2.580   3.196  12.100  0.6226 -0.7526  0.9842
 7976SOL     OW35386   0.180   0.569  15.161 -1.1217  0.2064 -0.1604
 7976SOL    HW135387   0.193   0.663  15.162  2.5073 -0.2740 -0.7870
 7976SOL    HW235388   0.262   0.555  15.208 -0.5980  1.4061 -0.7332
 7977SOL     OW35389   3.856   1.530   8.359 -0.8139 -0.5171 -0.0478
 7977SOL    HW135390   3.861   1.435   8.369  1.7140 -0.6559 -2.5088
 7977SOL    HW235391   3.781   1.546   8.303 -1.7613 -1.1111  1.0374
 7978SOL     OW35392   1.058   0.243   8.490 -0.2352  0.0558 -0.2242
 7978SOL    HW135393   1.144   0.231   8.451 -0.1347 -1.8182  0.5707
 7978SOL    HW235394   0.995   0.214   8.424 -0.0164  1.2723 -0.9790
 7979SOL     OW35395   3.761   2.986  11.652 -0.1298  0.0396 -0.3305
 7979SOL    HW135396   3.696   3.055  11.635 -0.3751 -0.1871 -0.3038
 7979SOL    HW235397   3.708   2.910  11.672 -1.0220  1.0498  1.1052
 7980SOL     OW35398   4.147   2.902   6.818  0.0049  0.0777 -0.1386
 7980SOL    HW135399   4.123   2.812   6.837  2.2437 -0.5065  0.0021
 7980SOL    HW235400   4.092   2.958   6.873 -0.9532  0.6584 -1.7056
 7981SOL     OW35401   3.356   2.572   8.076  0.4352  0.3920 -0.2727
 7981SOL    HW135402   3.330   2.480   8.086 -0.6207  0.9389  2.2591
 7981SOL    HW235403   3.336   2.594   7.985 -0.3819 -0.1856 -0.2399
 7982SOL     OW35404   4.689   2.530   9.105 -0.2116  0.0790 -0.5810
 7982SOL    HW135405   4.633   2.470   9.055  1.2495 -0.6169 -1.3810
 7982SOL    HW235406   0.001   2.482   9.181 -1.4662 -0.2490 -0.2418
 7983SOL     OW35407   3.526   1.958  14.181 -0.2781  0.0800  0.2147
 7983SOL    HW135408   3.459   1.915  14.129  0.7638 -2.6734  1.1482
 7983SOL    HW235409   3.476   1.983  14.259 -0.0386 -0.3038  0.4911
 7984SOL     OW35410   1.432   1.005   2.981 -0.1977 -0.1792 -0.2563
 7984SOL    HW135411   1.417   1.038   2.893 -0.5125  2.1406  0.6765
 7984SOL    HW235412   1.512   0.954   2.968  0.3046  0.5757 -0.1241
 7985SOL     OW35413   3.622   2.360  15.865 -0.3333  0.2698 -0.6056
 7985SOL    HW135414   3.560   2.404  15.923 -0.1934 -0.1523 -0.1464
 7985SOL    HW235415   3.644   2.290  15.926  2.7241  1.7826  0.0073
 7986SOL     OW35416   1.266   0.040   7.067  0.3304  0.2258  0.1973
 7986SOL    HW135417   1.246   0.128   7.099 -2.8598 -0.2120 -0.5260
 7986SOL    HW235418   1.352   0.032   7.108  0.3364 -1.3561 -0.1329
 7987SOL     OW35419   3.477   4.101   4.122 -0.0236 -0.5485 -0.3420
 7987SOL    HW135420   3.468   4.013   4.086 -1.5700 -0.0564 -1.1541
 7987SOL    HW235421   3.386   4.110   4.151  0.7000  3.0018  0.7643
 7988SOL     OW35422   2.460   1.852   4.191  0.0440  0.0989 -0.0688
 7988SOL    HW135423   2.506   1.816   4.115 -0.3873  1.8088 -1.1400
 7988SOL    HW235424   2.483   1.791   4.262  1.1570 -1.0846 -1.4457
 7989SOL     OW35425   1.536   2.205   1.588  0.2886 -0.0709  0.1135
 7989SOL    HW135426   1.523   2.164   1.502  0.6284  1.0513 -0.4703
 7989SOL    HW235427   1.582   2.287   1.568 -1.0505  0.3714 -1.0955
 7990SOL     OW35428   3.010   1.583  17.335  0.5454 -0.1369 -0.0406
 7990SOL    HW135429   2.929   1.629  17.356  1.0625  1.6523 -2.0206
 7990SOL    HW235430   3.083   1.623  17.382 -0.8051  0.8867  1.1640
 7991SOL     OW35431   4.225   2.366   6.662 -0.4947 -0.7734 -0.0315
 7991SOL    HW135432   4.262   2.348   6.576  2.1390  1.0808  0.7185
 7991SOL    HW235433   4.132   2.369   6.640 -0.3512 -1.5619 -0.7106
 7992SOL     OW35434   0.202   0.193   8.243 -0.4843  0.1792  0.2342
 7992SOL    HW135435   0.272   0.250   8.277 -0.9023  1.0878 -0.4389
 7992SOL    HW235436   0.169   0.237   8.165  1.6273  2.3347  0.5544
 7993SOL     OW35437   4.024   3.874   1.730 -0.6514 -0.2351 -0.5753
 7993SOL    HW135438   4.093   3.828   1.778 -1.0577  0.1728  0.3962
 7993SOL    HW235439   3.997   3.812   1.662  1.8672 -1.1540 -0.7585
 7994SOL     OW35440   4.433   3.233   7.859  0.7573 -0.3673 -0.5280
 7994SOL    HW135441   4.376   3.183   7.918  1.3497  3.3442  3.1857
 7994SOL    HW235442   4.516   3.184   7.858  1.1594  0.2460  2.8900
 7995SOL     OW35443   1.662   2.458   4.945  0.2626 -0.0961 -0.3758
 7995SOL    HW135444   1.734   2.520   4.964 -1.9399  2.7016 -1.1478
 7995SOL    HW235445   1.662   2.409   5.027  0.4325  0.1905 -0.2048
 7996SOL     OW35446   0.559   2.643  17.490  0.4547 -0.6240 -0.1817
 7996SOL    HW135447   0.541   2.713  17.554  4.0979 -2.1019  2.4674
 7996SOL    HW235448   0.542   2.682  17.405  0.2725  2.4973  1.2669
 7997SOL     OW35449   3.021   4.181  16.841 -0.2882 -0.0248  0.1096
 7997SOL    HW135450   2.992   4.218  16.924 -0.1567  1.6636 -0.6065
 7997SOL    HW235451   2.945   4.125  16.824  0.1557  0.3088 -2.9491
 7998SOL     OW35452   2.045   1.328   1.606  0.3032 -0.3112  0.6939
 7998SOL    HW135453   2.094   1.280   1.539 -0.3753  2.3492 -1.7163
 7998SOL    HW235454   2.101   1.311   1.682 -0.5346 -0.1261  1.3540
 7999SOL     OW35455   2.792   2.150   5.449 -0.1943 -0.2723 -0.0915
 7999SOL    HW135456   2.784   2.055   5.457  0.1008 -0.3153 -0.3362
 7999SOL    HW235457   2.730   2.161   5.377  0.0130 -2.1979 -0.5661
 8000SOL     OW35458   4.036   1.324  16.947  0.1473 -0.2440  0.1073
 8000SOL    HW135459   4.116   1.277  16.925 -0.0025 -1.9162  3.1064
 8000SOL    HW235460   4.072   1.409  16.922  0.3771 -0.3069  0.2160
 8001SOL     OW35461   3.674   2.006  10.951 -0.1262  0.2929  0.7942
 8001SOL    HW135462   3.606   2.071  10.931  1.1409  1.5588  0.6173
 8001SOL    HW235463   3.726   2.073  10.994 -1.3011  1.0232  1.0860
 8002SOL     OW35464   4.251   1.795  12.073 -0.2345  0.1488 -0.1595
 8002SOL    HW135465   4.332   1.826  12.032  1.2725 -1.1872  1.7786
 8002SOL    HW235466   4.295   1.773  12.155 -0.2152  0.9594  0.0457
 8003SOL     OW35467   4.588   0.373   7.346  0.1050  0.1355  0.4171
 8003SOL    HW135468   4.618   0.284   7.361 -0.0148  0.1921  1.0073
 8003SOL    HW235469   4.499   0.375   7.381 -0.1848  0.2623 -0.3416
 8004SOL     OW35470   0.198   1.509  15.826  0.6733 -0.5618 -0.0796
 8004SOL    HW135471   0.140   1.583  15.845  0.0229 -1.3072  0.8295
 8004SOL    HW235472   0.181   1.480  15.736 -0.4595 -0.1642  0.0062
 8005SOL     OW35473   4.636   2.351   3.786  0.4165 -0.6571  0.1079
 8005SOL    HW135474   4.597   2.421   3.838 -1.6113 -2.6763  1.3525
 8005SOL    HW235475   0.003   2.353   3.826 -0.5385 -0.0081  2.1483
 8006SOL     OW35476   1.502   2.360   4.550 -0.1774 -0.1858  0.4427
 8006SOL    HW135477   1.498   2.403   4.636 -1.3110 -1.8664  1.2207
 8006SOL    HW235478   1.474   2.270   4.564 -3.7941  0.6882 -1.0392
 8007SOL     OW35479   2.833   0.274  10.138 -0.0609  0.2443  0.5083
 8007SOL    HW135480   2.889   0.198  10.147 -0.8655  0.0690  4.2213
 8007SOL    HW235481   2.883   0.345  10.180 -0.1057  1.2939 -1.2097
 8008SOL     OW35482   2.067   0.937   2.278  0.2105  0.6843  0.4745
 8008SOL    HW135483   2.021   1.018   2.303 -1.9439 -0.4701  0.2436
 8008SOL    HW235484   2.022   0.919   2.195 -0.6828  0.0925  1.0818
 8009SOL     OW35485   2.935   4.278  10.346  0.1098  0.3824 -0.1634
 8009SOL    HW135486   2.946   4.276  10.251 -0.0706  1.1989 -0.1991
 8009SOL    HW235487   3.018   4.315  10.376 -0.4480  0.3033  1.4698
 8010SOL     OW35488   0.563   0.905   0.340 -0.1907  0.3046 -0.2130
 8010SOL    HW135489   0.553   0.999   0.327 -1.3542 -0.0678 -1.8553
 8010SOL    HW235490   0.478   0.888   0.381 -0.1167  1.1999  0.3129
 8011SOL     OW35491   0.134   2.487   5.431 -0.1097 -0.1543  0.3335
 8011SOL    HW135492   0.140   2.531   5.516  1.8776  0.7935 -0.2977
 8011SOL    HW235493   0.039   2.475   5.425 -0.1551  0.1709  0.3803
 8012SOL     OW35494   4.023   2.992   0.438 -0.1049 -0.6047  0.1233
 8012SOL    HW135495   4.018   3.074   0.389  1.6359 -1.5631 -1.6604
 8012SOL    HW235496   4.084   3.005   0.510 -0.3314 -3.3346  0.7984
 8013SOL     OW35497   1.097   1.975   3.703 -0.2877  0.1293  0.2992
 8013SOL    HW135498   1.017   1.950   3.656 -0.9099  0.8477  0.9723
 8013SOL    HW235499   1.102   1.907   3.770  2.2246 -0.6303 -0.6683
 8014SOL     OW35500   1.803   2.587  12.210  0.0385  0.2715 -0.0974
 8014SOL    HW135501   1.882   2.564  12.260 -1.0640 -0.1339  1.4487
 8014SOL    HW235502   1.758   2.503  12.198  1.0904 -0.6514  2.4137
 8015SOL     OW35503   2.658   1.298   6.188  0.0117 -0.2931  0.6705
 8015SOL    HW135504   2.575   1.262   6.219 -0.3992  0.6437  0.6439
 8015SOL    HW235505   2.636   1.321   6.098  0.3612  0.5914  0.8041
 8016SOL     OW35506   4.244   0.588  11.723 -0.5251  0.1626  0.4734
 8016SOL    HW135507   4.163   0.627  11.690  0.3419  0.5889 -1.1195
 8016SOL    HW235508   4.295   0.566  11.645  0.3579  1.6038  0.6565
 8017SOL     OW35509   3.547   2.012   2.968 -0.2654  0.2038 -0.1667
 8017SOL    HW135510   3.518   2.052   3.050  2.0813 -0.3513  0.9355
 8017SOL    HW235511   3.512   1.923   2.979 -0.7117  0.4499  0.4110
 8018SOL     OW35512   1.837   1.045   5.578  0.5426 -0.1964 -0.2126
 8018SOL    HW135513   1.756   1.095   5.567  0.2174  0.0295  3.1627
 8018SOL    HW235514   1.911   1.103   5.562  0.4683  0.5687  2.2452
 8019SOL     OW35515   1.625   3.350  15.641 -0.0934  0.0810  0.5717
 8019SOL    HW135516   1.541   3.309  15.620 -0.5553  1.3136 -0.0157
 8019SOL    HW235517   1.669   3.323  15.561  0.7915  1.5070  0.5836
 8020SOL     OW35518   3.340   2.441  15.769 -0.4520 -0.3628  0.0372
 8020SOL    HW135519   3.357   2.431  15.863 -0.1933 -0.2551  0.0022
 8020SOL    HW235520   3.419   2.407  15.726 -0.6078  1.9268 -2.0330
 8021SOL     OW35521   2.346   0.739  11.446 -0.3103  0.0842  0.1735
 8021SOL    HW135522   2.428   0.769  11.407 -0.4000 -1.0125 -0.8606
 8021SOL    HW235523   2.342   0.676  11.374  1.6806 -2.9297  2.6869
 8022SOL     OW35524   2.005   3.050   8.286  0.0026  0.3424  0.5741
 8022SOL    HW135525   2.045   2.999   8.215 -0.2534  2.1161 -0.8436
 8022SOL    HW235526   2.037   3.007   8.365 -0.2045 -2.7190 -1.0274
 8023SOL     OW35527   4.274   2.737   8.677  0.5388  0.0486 -0.2851
 8023SOL    HW135528   4.288   2.771   8.765  0.0730 -1.1748  0.2683
 8023SOL    HW235529   4.364   2.734   8.644  0.8203 -1.3248  0.5857
 8024SOL     OW35530   0.922   3.971  11.564 -0.4748 -0.0320  0.3346
 8024SOL    HW135531   0.838   3.957  11.520  0.7901 -0.8129 -1.8532
 8024SOL    HW235532   0.942   4.061  11.538  0.4730 -0.0023  1.1759
 8025SOL     OW35533   2.174   3.171   0.941 -0.0603 -0.0069 -0.2825
 8025SOL    HW135534   2.105   3.231   0.969  1.2564  0.8049  1.2816
 8025SOL    HW235535   2.142   3.086   0.971 -0.8001  0.4794  0.3097
 8026SOL     OW35536   0.201   1.531   3.330 -0.5546  0.4503  0.3071
 8026SOL    HW135537   0.214   1.619   3.295  0.2250  1.0561  2.1461
 8026SOL    HW235538   0.111   1.535   3.362 -0.4875 -1.6051  0.7344
 8027SOL     OW35539   0.447   0.343   9.534  0.2869 -0.1673 -0.5685
 8027SOL    HW135540   0.509   0.396   9.484  0.7528  1.0764  1.3442
 8027SOL    HW235541   0.375   0.332   9.472  0.7908  1.9812 -1.5396
 8028SOL     OW35542   2.473   3.552  13.341  0.0847 -0.9739 -0.1032
 8028SOL    HW135543   2.403   3.613  13.361  1.9240  0.1347  2.8280
 8028SOL    HW235544   2.418   3.474  13.348 -2.2030  0.5861 -0.7347
 8029SOL     OW35545   2.633   3.240   6.470  0.5122 -0.8480  0.0731
 8029SOL    HW135546   2.567   3.281   6.526  1.2749  1.1910 -0.5265
 8029SOL    HW235547   2.593   3.231   6.383 -0.9531 -1.5199  0.8136
 8030SOL     OW35548   1.549   1.941   1.413  0.1123  0.5642  0.1530
 8030SOL    HW135549   1.604   1.930   1.490  1.4049 -0.0892 -0.8637
 8030SOL    HW235550   1.567   1.857   1.370 -1.6703  0.5898 -0.6318
 8031SOL     OW35551   4.565   2.629   5.637  0.2605  0.4669 -0.3071
 8031SOL    HW135552   4.482   2.672   5.617  1.1462  1.9646 -0.7455
 8031SOL    HW235553   4.581   2.663   5.725 -0.6488 -1.3633  0.5699
 8032SOL     OW35554   1.274   4.050   6.910 -0.7237 -0.5964 -0.2821
 8032SOL    HW135555   1.274   4.141   6.942  1.0623 -0.7635  0.1968
 8032SOL    HW235556   1.216   4.053   6.835 -1.5706  3.1403  0.5218
 8033SOL     OW35557   0.638   2.756   3.894 -0.0378  0.0693 -0.1060
 8033SOL    HW135558   0.639   2.836   3.947  0.5967  0.0423 -0.0807
 8033SOL    HW235559   0.596   2.697   3.956  0.4019  1.7397  1.7796
 8034SOL     OW35560   3.863   0.365   8.780  0.7439  0.2646 -0.0446
 8034SOL    HW135561   3.899   0.283   8.813  0.9557  1.1294  1.8805
 8034SOL    HW235562   3.945   0.402   8.748 -0.3284 -0.5429 -3.7009
 8035SOL     OW35563   3.444   4.477   8.405 -0.6246  0.3601 -0.4893
 8035SOL    HW135564   3.437   4.386   8.376 -0.5249 -0.4524  2.0997
 8035SOL    HW235565   3.534   4.503   8.386 -0.1631 -0.5629  0.4928
 8036SOL     OW35566   1.739   2.689   5.695 -0.4067  0.7911  0.0667
 8036SOL    HW135567   1.739   2.780   5.725 -0.4741  0.9104 -0.2934
 8036SOL    HW235568   1.670   2.650   5.749 -0.3420 -0.5865 -0.8265
 8037SOL     OW35569   1.973   4.624  12.455  0.1964 -0.0500 -0.3399
 8037SOL    HW135570   1.936   4.654  12.538  1.8540 -1.1530  0.7796
 8037SOL    HW235571   2.000   4.713  12.430  0.0592  0.3471  0.9389
 8038SOL     OW35572   3.793   3.335   1.092  0.1059  0.4506  0.0662
 8038SOL    HW135573   3.816   3.334   1.185 -2.2668  1.3152  0.6737
 8038SOL    HW235574   3.882   3.327   1.058 -1.3610 -1.3220 -3.3805
 8039SOL     OW35575   3.693   3.079   6.145 -0.0446  0.5782 -0.2468
 8039SOL    HW135576   3.764   3.142   6.149 -0.6684  1.0813  3.2143
 8039SOL    HW235577   3.734   2.994   6.161 -2.2865 -0.6066 -0.7956
 8040SOL     OW35578   4.095   0.778   8.484  0.2216  0.9994  0.1595
 8040SOL    HW135579   4.031   0.714   8.515  0.9738  0.6370  0.9785
 8040SOL    HW235580   4.128   0.815   8.566  0.7438 -1.7035  1.1657
 8041SOL     OW35581   2.912   0.812  10.176  0.3105 -0.3832  0.0836
 8041SOL    HW135582   2.963   0.886  10.208 -0.8385  0.3392  0.2753
 8041SOL    HW235583   2.881   0.786  10.263 -0.3237 -1.4690 -0.4645
 8042SOL     OW35584   2.898   0.048   9.466  0.5592  0.0698 -0.0331
 8042SOL    HW135585   2.836   0.092   9.525 -0.0223 -1.4244  0.4909
 8042SOL    HW235586   2.913   4.690   9.519 -0.9166  1.0782  1.8782
 8043SOL     OW35587   0.120   3.772   7.260 -0.1243  0.0192  0.0702
 8043SOL    HW135588   0.200   3.804   7.301 -0.0358  0.2556 -0.2936
 8043SOL    HW235589   0.076   3.852   7.288 -0.3378 -0.1398  0.1854
 8044SOL     OW35590   2.685   1.720  16.717 -0.7433  0.4857  0.3297
 8044SOL    HW135591   2.680   1.781  16.643  1.9243  0.5238  0.1846
 8044SOL    HW235592   2.686   1.634  16.675  1.0834 -0.2309  1.8699
 8045SOL     OW35593   2.409   1.222   5.234 -0.3672 -0.6979 -0.0729
 8045SOL    HW135594   2.342   1.154   5.225 -0.0540 -0.9901 -0.1686
 8045SOL    HW235595   2.443   1.219   5.145  2.8482  0.0432  1.1458
 8046SOL     OW35596   0.723   0.510   2.835 -0.3105  0.0307 -0.0901
 8046SOL    HW135597   0.808   0.553   2.821 -0.4578  0.5965  0.8107
 8046SOL    HW235598   0.736   0.416   2.818  1.8290  0.2222  0.4505
 8047SOL     OW35599   1.825   2.938  12.952 -0.1986 -0.6453 -0.1974
 8047SOL    HW135600   1.791   3.010  13.005  0.2080 -0.0751 -0.7133
 8047SOL    HW235601   1.748   2.906  12.906 -0.1619  1.2209 -1.5451
 8048SOL     OW35602   4.647   2.844  12.158 -0.4499 -0.3101  0.1907
 8048SOL    HW135603   4.708   2.783  12.199 -1.7884 -1.9263 -0.2412
 8048SOL    HW235604   4.653   2.841  12.063  0.1023 -1.0024  0.2483
 8049SOL     OW35605   1.600   2.932   7.939  0.1882 -0.3549  0.8757
 8049SOL    HW135606   1.671   2.997   7.941 -0.2403  0.1166  0.9246
 8049SOL    HW235607   1.525   2.977   7.899 -0.8643 -1.0336  2.0999
 8050SOL     OW35608   2.643   2.521   3.607 -1.1055 -0.0952 -0.1496
 8050SOL    HW135609   2.633   2.614   3.624  0.9527  0.1588 -0.3096
 8050SOL    HW235610   2.672   2.526   3.516  1.5568 -0.5098  0.6910
 8051SOL     OW35611   4.537   1.625   4.943  0.1000 -0.1095 -0.3905
 8051SOL    HW135612   4.464   1.630   5.005  1.4045  2.6826  0.8858
 8051SOL    HW235613   4.598   1.580   5.000  0.0061 -0.2865 -0.4276
 8052SOL     OW35614   3.903   3.171  10.546 -0.3003 -0.5949 -0.5177
 8052SOL    HW135615   3.814   3.204  10.538  0.4642  1.3507 -0.9431
 8052SOL    HW235616   3.912   3.136  10.457 -0.2550  0.0803 -0.7752
 8053SOL     OW35617   3.412   0.029   3.248 -0.3142 -0.1200  1.3722
 8053SOL    HW135618   3.405   0.125   3.244 -0.9289 -0.2693 -1.4835
 8053SOL    HW235619   3.319   0.014   3.265 -0.4368 -0.6509  0.2235
 8054SOL     OW35620   3.281   1.788   8.096 -0.0924 -0.0801 -0.0851
 8054SOL    HW135621   3.295   1.774   8.190  0.8013 -2.2176 -0.5353
 8054SOL    HW235622   3.276   1.883   8.090 -1.5443  0.0207  2.8311
 8055SOL     OW35623   4.542   2.678   7.777 -0.7343  0.3113  0.0291
 8055SOL    HW135624   4.512   2.721   7.857  1.1314  2.1279 -0.2239
 8055SOL    HW235625   4.481   2.605   7.775  1.7516 -1.8446  3.5335
 8056SOL     OW35626   1.898   1.941   7.564 -0.4658  0.0443  0.3758
 8056SOL    HW135627   1.860   1.854   7.565  2.0400 -1.0531  1.1832
 8056SOL    HW235628   1.889   1.972   7.474 -0.3611 -1.2215 -0.0781
 8057SOL     OW35629   4.701   4.570   3.027 -0.1070  0.4077 -0.5537
 8057SOL    HW135630   4.606   4.575   3.032 -0.1186  0.7676 -1.1883
 8057SOL    HW235631   4.715   4.512   3.101 -0.1882  1.5173  0.3386
 8058SOL     OW35632   2.924   3.842   3.258  0.2882 -0.1357  0.2829
 8058SOL    HW135633   2.865   3.806   3.324 -0.6203 -0.6730 -0.8294
 8058SOL    HW235634   2.985   3.887   3.317  0.0483 -0.1196  0.5207
 8059SOL     OW35635   0.125   0.875  14.018 -0.0166  0.4549  0.0849
 8059SOL    HW135636   0.195   0.842  14.075  0.3557  0.0740 -0.5920
 8059SOL    HW235637   0.134   0.796  13.964 -1.6486  0.2982  0.0390
 8060SOL     OW35638   1.800   1.010   0.401 -0.2596 -0.6479  0.3899
 8060SOL    HW135639   1.871   1.066   0.369  0.7486 -0.5064  2.8128
 8060SOL    HW235640   1.742   1.041   0.331  1.9908 -0.5162 -1.3967
 8061SOL     OW35641   0.552   3.259   4.508 -0.4157 -0.0970  0.3011
 8061SOL    HW135642   0.461   3.281   4.527 -0.0040  0.2932  1.8610
 8061SOL    HW235643   0.576   3.322   4.441 -1.0997  1.2398  1.3103
 8062SOL     OW35644   2.700   4.675   3.891 -0.9987 -0.4232 -0.4047
 8062SOL    HW135645   2.743   4.695   3.807  1.8812 -1.9646  0.6844
 8062SOL    HW235646   2.716   4.581   3.899  0.6243 -0.1063  0.2313
 8063SOL     OW35647   1.548   4.657   7.447  0.2599 -0.1003 -0.3608
 8063SOL    HW135648   1.599   4.637   7.369 -0.5093 -0.6306 -0.7219
 8063SOL    HW235649   1.614   4.647   7.516 -0.6619  0.7092  0.6487
 8064SOL     OW35650   2.600   4.702  13.429  0.8230  0.2710 -0.5887
 8064SOL    HW135651   2.594   0.014  13.339 -1.9983  1.0295 -0.1382
 8064SOL    HW235652   2.513   4.664  13.445  1.9331 -0.7742  2.8904
 8065SOL     OW35653   2.717   3.637   5.384 -0.1009 -0.1333  0.2824
 8065SOL    HW135654   2.679   3.551   5.399 -0.3913 -0.2007 -0.8798
 8065SOL    HW235655   2.777   3.629   5.311 -1.7502 -0.7686 -1.0055
 8066SOL     OW35656   4.545   3.209   8.226  0.1559 -0.3914  0.1628
 8066SOL    HW135657   4.585   3.160   8.298  0.9081 -1.7720 -1.2066
 8066SOL    HW235658   4.624   3.248   8.190 -0.2807  1.5542  1.3445
 8067SOL     OW35659   0.335   3.336   9.457  0.1638 -0.1576  0.3325
 8067SOL    HW135660   0.372   3.399   9.395 -0.7311  0.5410  0.5130
 8067SOL    HW235661   0.414   3.292   9.487  0.4740 -0.9257 -1.5994
 8068SOL     OW35662   1.700   4.654   9.297  0.0551 -0.8048  0.1650
 8068SOL    HW135663   1.684   4.694   9.382  2.1770  0.4770 -0.0550
 8068SOL    HW235664   1.795   4.663   9.300 -0.0407 -0.0858  0.8342
 8069SOL     OW35665   0.994   2.551   6.906  0.0046 -0.0258 -0.4107
 8069SOL    HW135666   1.086   2.536   6.927 -0.3972 -0.9479  0.6900
 8069SOL    HW235667   0.980   2.476   6.847  0.6797  1.5814 -2.6140
 8070SOL     OW35668   3.574   4.314   3.165 -0.5759  0.1232 -0.4233
 8070SOL    HW135669   3.480   4.306   3.179 -0.5562 -0.6961 -0.7360
 8070SOL    HW235670   3.591   4.394   3.214  1.5062  0.7396 -2.1258
 8071SOL     OW35671   4.568   0.543  14.091 -0.6029 -0.0677  0.0881
 8071SOL    HW135672   4.562   0.487  14.169 -2.1709 -1.2213 -0.8810
 8071SOL    HW235673   4.645   0.510  14.045 -0.7618  0.0292 -0.2469
 8072SOL     OW35674   0.989   2.950   8.527 -0.3307 -0.4794  0.6397
 8072SOL    HW135675   1.036   2.932   8.446 -2.1624 -1.0300 -0.2938
 8072SOL    HW235676   1.056   3.004   8.567 -0.4412 -0.5461  0.9195
 8073SOL     OW35677   4.370   3.924   3.299 -0.3739  0.5604 -0.3266
 8073SOL    HW135678   4.404   3.950   3.384  0.8876  2.0565 -1.2703
 8073SOL    HW235679   4.425   3.849   3.274 -2.0611 -0.7276 -0.1876
 8074SOL     OW35680   2.748   3.090   8.135  0.5318  0.6158 -0.5593
 8074SOL    HW135681   2.718   3.180   8.146 -1.4397 -0.2222  0.8341
 8074SOL    HW235682   2.674   3.046   8.175  1.1987 -0.6181 -0.6819
 8075SOL     OW35683   4.544   1.695   4.299  0.0093 -0.5120  0.5350
 8075SOL    HW135684   4.563   1.783   4.266 -1.4573 -0.3049  0.2412
 8075SOL    HW235685   4.556   1.713   4.393 -0.6251 -0.1272  0.5458
 8076SOL     OW35686   3.464   2.006   3.737 -0.7353  0.3156  0.3574
 8076SOL    HW135687   3.466   1.924   3.787  2.8000 -0.3953 -0.9492
 8076SOL    HW235688   3.537   2.061   3.765 -3.7051  3.5656  1.6732
 8077SOL     OW35689   4.455   0.793   8.210 -1.0182 -0.5754 -0.0118
 8077SOL    HW135690   4.463   0.781   8.116 -0.7292 -1.1390  0.0884
 8077SOL    HW235691   4.386   0.731   8.232  0.3760 -0.8304  3.8148
 8078SOL     OW35692   3.559   0.429   6.303 -0.1185  0.2197  0.5851
 8078SOL    HW135693   3.481   0.458   6.256 -0.3711  1.9741  2.0729
 8078SOL    HW235694   3.629   0.407   6.242  1.6899  1.5215  2.2237
 8079SOL     OW35695   4.278   3.291  16.649 -0.3126 -0.1684  0.3734
 8079SOL    HW135696   4.202   3.261  16.600  0.4361  0.4252 -1.1647
 8079SOL    HW235697   4.249   3.291  16.740  0.5128 -0.6330  0.6401
 8080SOL     OW35698   4.712   0.687   1.842 -0.1944  0.5108  0.0293
 8080SOL    HW135699   0.086   0.697   1.828 -0.1312  0.8487  0.6771
 8080SOL    HW235700   4.697   0.727   1.928  1.2718  1.2541 -0.0643
 8081SOL     OW35701   3.541   2.805   3.427  0.0842 -0.5210  0.2263
 8081SOL    HW135702   3.616   2.847   3.385 -1.5092 -0.1411 -2.2084
 8081SOL    HW235703   3.467   2.851   3.387  1.8281  1.6506 -0.5398
 8082SOL     OW35704   1.912   2.535  15.171  0.3612  0.9092 -0.0915
 8082SOL    HW135705   1.932   2.619  15.213 -2.0090  1.0804  0.6438
 8082SOL    HW235706   1.929   2.559  15.079 -0.4901 -0.4674 -0.6019
 8083SOL     OW35707   2.103   1.710   9.464 -0.7483  0.2150  0.1127
 8083SOL    HW135708   2.157   1.662   9.526  1.6070  1.5161 -0.9340
 8083SOL    HW235709   2.079   1.789   9.512 -1.9691 -0.4834  0.6542
 8084SOL     OW35710   1.819   3.310   0.748 -0.2524 -0.1462  0.0073
 8084SOL    HW135711   1.890   3.303   0.684 -0.9100  0.5248 -0.7860
 8084SOL    HW235712   1.778   3.393   0.724  1.5343  1.2002  1.5815
 8085SOL     OW35713   3.542   3.457   4.270 -0.3471 -0.3847 -0.0499
 8085SOL    HW135714   3.535   3.391   4.201 -0.5272 -1.9251  1.4250
 8085SOL    HW235715   3.465   3.445   4.326 -1.5436  2.0573 -1.1617
 8086SOL     OW35716   0.818   3.116   2.374  0.2347 -0.2729 -0.5460
 8086SOL    HW135717   0.737   3.073   2.401  0.8682 -0.4041  1.1177
 8086SOL    HW235718   0.806   3.207   2.401 -1.5510 -0.4978 -0.5974
 8087SOL     OW35719   0.531   2.882   2.572 -0.5313  0.0041  0.2405
 8087SOL    HW135720   0.557   2.797   2.536 -1.3240 -0.1635  0.0517
 8087SOL    HW235721   0.505   2.844   2.657 -1.9311  0.8823  0.2099
 8088SOL     OW35722   2.323   1.541   4.354 -0.0063  0.1347  0.3239
 8088SOL    HW135723   2.254   1.500   4.303  1.7956 -1.2184 -1.0299
 8088SOL    HW235724   2.283   1.572   4.436 -0.7854 -2.5215  0.9352
 8089SOL     OW35725   4.086   0.851   4.763  0.4009 -0.5422 -0.5530
 8089SOL    HW135726   4.086   0.758   4.743 -1.0584 -0.5436 -0.5243
 8089SOL    HW235727   4.060   0.885   4.677  1.9518  0.6359 -0.5660
 8090SOL     OW35728   2.838   4.393   1.616  0.6920  0.0430 -0.2394
 8090SOL    HW135729   2.776   4.327   1.646  1.8164 -0.8650  0.1019
 8090SOL    HW235730   2.846   4.360   1.526  0.2633  1.5356 -0.8275
 8091SOL     OW35731   3.027   1.221   8.286  0.1260 -0.1567  0.6541
 8091SOL    HW135732   3.083   1.159   8.239 -0.7465  0.7012 -1.5122
 8091SOL    HW235733   3.077   1.301   8.271  0.2232 -0.3508 -0.0921
 8092SOL     OW35734   1.094   1.432   1.460 -0.3579  0.0274  0.1008
 8092SOL    HW135735   1.149   1.354   1.458 -1.0724 -0.5124  1.5777
 8092SOL    HW235736   1.076   1.450   1.553  3.7398 -0.8028  1.0564
 8093SOL     OW35737   4.655   0.676   0.678 -0.1204 -0.1574  0.8103
 8093SOL    HW135738   4.585   0.620   0.713  0.2437 -2.1438 -1.5842
 8093SOL    HW235739   4.707   0.681   0.758  0.7590  0.0017  0.2347
 8094SOL     OW35740   0.114   3.002  12.379 -0.0087  0.0065 -0.3113
 8094SOL    HW135741   0.161   3.084  12.366 -0.1254  0.1267  0.0260
 8094SOL    HW235742   0.168   2.941  12.328 -1.8259 -1.3869 -0.5502
 8095SOL     OW35743   4.576   2.376   8.088 -0.2086 -0.0737 -0.0977
 8095SOL    HW135744   4.565   2.308   8.154  2.7779  0.4038  0.8924
 8095SOL    HW235745   4.499   2.433   8.095 -1.2476 -1.7396  2.0208
 8096SOL     OW35746   3.059   0.294   6.102  0.6653  0.3964 -0.4467
 8096SOL    HW135747   3.035   0.201   6.104  1.4019  0.2114 -0.1131
 8096SOL    HW235748   3.154   0.300   6.097  0.5423  1.4001 -1.5578
 8097SOL     OW35749   0.150   2.515   2.973 -0.5551  0.4033  0.1631
 8097SOL    HW135750   0.109   2.526   3.058  0.0378 -0.7286  0.5933
 8097SOL    HW235751   0.102   2.576   2.917 -0.1604  0.2976 -0.2896
 8098SOL     OW35752   0.883   1.007   7.440 -0.4477  0.2305 -0.2347
 8098SOL    HW135753   0.976   0.992   7.454  0.0079  1.8680 -1.5838
 8098SOL    HW235754   0.842   0.921   7.451 -0.9797  0.7576  1.8957
 8099SOL     OW35755   1.766   0.956   4.759  0.0112  0.2348  0.5835
 8099SOL    HW135756   1.791   1.044   4.730  0.0375 -0.5525 -1.8176
 8099SOL    HW235757   1.674   0.963   4.786 -1.0700 -2.6288 -2.3838
 8100SOL     OW35758   1.723   0.060   8.792  0.4109 -0.3777 -0.5987
 8100SOL    HW135759   1.774   0.087   8.716  0.6508  1.7316  0.3087
 8100SOL    HW235760   1.631   0.060   8.764  0.7202 -2.6309 -1.6144
 8101SOL     OW35761   3.278   2.106   4.442 -0.1852  0.1857 -0.8416
 8101SOL    HW135762   3.203   2.164   4.430 -1.5368 -1.5902 -1.1664
 8101SOL    HW235763   3.348   2.169   4.430  1.2296 -0.8133  2.0245
 8102SOL     OW35764   0.635   1.263   8.401 -0.1175  0.3163 -0.2725
 8102SOL    HW135765   0.558   1.220   8.363 -0.0589  1.3992 -1.6414
 8102SOL    HW235766   0.603   1.341   8.447 -0.6102 -0.2621  0.3797
 8103SOL     OW35767   0.911   4.174   5.717 -0.1709  0.1168 -0.2568
 8103SOL    HW135768   0.911   4.087   5.678  1.0465 -0.6578  1.4592
 8103SOL    HW235769   0.858   4.216   5.650 -0.1419  1.3393  0.4923
 8104SOL     OW35770   0.918   0.018  16.327 -0.5177  0.1929  0.6423
 8104SOL    HW135771   0.856   0.000  16.256  0.0982 -1.1093  0.4235
 8104SOL    HW235772   1.000   4.700  16.295  0.3239  1.9946  0.6404
 8105SOL     OW35773   0.141   0.109   0.625 -0.2453 -0.0952  0.0015
 8105SOL    HW135774   0.143   0.062   0.542 -1.7823  0.2437 -0.2179
 8105SOL    HW235775   0.047   0.118   0.639 -0.1247  1.2200 -0.0270
 8106SOL     OW35776   0.205   3.004   8.498 -0.1923  0.1404  0.7771
 8106SOL    HW135777   0.227   2.915   8.528 -0.3470 -0.2711 -0.3449
 8106SOL    HW235778   0.296   3.031   8.488 -0.6914  0.5324 -2.5107
 8107SOL     OW35779   3.977   3.746   5.961 -0.1897  0.3105  0.1119
 8107SOL    HW135780   4.026   3.775   5.884  0.0175  2.5422  1.1047
 8107SOL    HW235781   3.889   3.769   5.930  0.3216 -1.5476 -2.7402
 8108SOL     OW35782   0.763   4.128   2.170  0.0454  0.0065  0.5848
 8108SOL    HW135783   0.827   4.072   2.126  1.2418  1.2129  0.8283
 8108SOL    HW235784   0.806   4.212   2.163 -3.4282  1.5346 -2.3671
 8109SOL     OW35785   0.615   4.154   1.456  0.0639  0.6535  0.3405
 8109SOL    HW135786   0.653   4.124   1.538  1.8761 -1.3532 -1.2316
 8109SOL    HW235787   0.658   4.239   1.447  0.2650  0.2294 -2.8673
 8110SOL     OW35788   3.287   1.752   7.455  0.1018 -0.3322 -0.1182
 8110SOL    HW135789   3.289   1.840   7.418  0.4967 -0.2210  0.1702
 8110SOL    HW235790   3.375   1.719   7.471  0.3781  0.9106  0.9487
 8111SOL     OW35791   0.438   2.813   1.466 -0.0061 -0.3778 -0.2419
 8111SOL    HW135792   0.437   2.717   1.469 -0.8326 -0.3982 -0.9660
 8111SOL    HW235793   0.499   2.832   1.537 -0.3966 -0.5671  0.1458
 8112SOL     OW35794   4.681   0.685   2.844 -0.1340 -0.6277 -0.3126
 8112SOL    HW135795   4.678   0.629   2.921  0.3609 -1.9435 -1.2485
 8112SOL    HW235796   0.028   0.748   2.868 -1.7657  0.7567  0.5728
 8113SOL     OW35797   0.235   2.806   7.914  0.4745  0.3912  0.0564
 8113SOL    HW135798   0.182   2.817   7.835 -0.4481 -0.5117  0.5437
 8113SOL    HW235799   0.326   2.810   7.883  0.6150 -2.7964  0.0301
 8114SOL     OW35800   1.971   3.380   5.897  0.3625 -0.6243 -0.4372
 8114SOL    HW135801   1.969   3.446   5.828  2.2598 -2.0723 -1.8721
 8114SOL    HW235802   2.050   3.396   5.949 -1.1744  1.2665  1.3060
 8115SOL     OW35803   1.219   0.162  11.789 -0.0030 -0.4753  0.3741
 8115SOL    HW135804   1.226   0.241  11.842  0.6976  0.0465 -0.4880
 8115SOL    HW235805   1.138   0.167  11.739  1.1445  0.7169 -1.3704
 8116SOL     OW35806   4.224   3.495   1.649 -0.4494 -0.1758  0.3552
 8116SOL    HW135807   4.137   3.497   1.689 -1.1323  0.6327 -1.1925
 8116SOL    HW235808   4.258   3.572   1.695 -0.0794  0.0937 -0.3863
 8117SOL     OW35809   4.425   4.406   7.653 -0.2460  0.2353  0.1565
 8117SOL    HW135810   4.459   4.494   7.667  2.7805 -0.6181 -1.7933
 8117SOL    HW235811   4.337   4.402   7.690 -0.4394  2.9167 -0.0169
 8118SOL     OW35812   4.629   2.318   4.581 -0.5570 -0.5356 -0.3455
 8118SOL    HW135813   4.564   2.356   4.639  0.0081  0.1354 -0.1482
 8118SOL    HW235814   4.573   2.260   4.530 -1.4913 -0.2436  0.3476
 8119SOL     OW35815   3.031   4.301  17.534  0.6504  0.1273  0.4380
 8119SOL    HW135816   3.072   4.387  17.532  0.5843  0.0990 -1.5601
 8119SOL    HW235817   2.983   4.304  17.617  0.1663  2.2834  0.0703
 8120SOL     OW35818   0.833   0.090   7.439  0.1401 -0.1084  0.0663
 8120SOL    HW135819   0.756   0.127   7.396  1.8035  1.0937 -1.9210
 8120SOL    HW235820   0.887   0.170   7.443  1.9163 -1.3404  0.8828
 8121SOL     OW35821   0.831   3.827   7.242  0.0835 -0.5138 -0.0323
 8121SOL    HW135822   0.915   3.851   7.204  0.9413 -0.9415  1.5920
 8121SOL    HW235823   0.770   3.898   7.221 -0.4842 -0.9546  0.1473
 8122SOL     OW35824   1.189   1.254   6.473  0.1532  0.6150 -0.1328
 8122SOL    HW135825   1.156   1.246   6.563 -0.2253 -0.0468 -0.3253
 8122SOL    HW235826   1.268   1.201   6.479  0.6106  1.1707 -1.3568
 8123SOL     OW35827   4.347   1.964   4.023  0.2649  0.1043  0.3701
 8123SOL    HW135828   4.319   1.883   4.066  1.3995 -1.6699 -2.1618
 8123SOL    HW235829   4.380   1.928   3.940  0.3250 -1.0459  0.9004
 8124SOL     OW35830   2.122   1.678   7.596  0.1039 -1.0702  0.1533
 8124SOL    HW135831   2.151   1.673   7.505 -1.0305 -2.5897 -0.1388
 8124SOL    HW235832   2.075   1.761   7.604  2.4643  0.2317  0.3612
 8125SOL     OW35833   3.720   3.200   4.523 -0.4120 -0.0278 -0.2995
 8125SOL    HW135834   3.753   3.120   4.564 -0.3247  0.5636  0.7824
 8125SOL    HW235835   3.648   3.164   4.471  0.2248  1.5492 -2.2721
 8126SOL     OW35836   1.253   2.468   6.960 -0.1026  0.0087  0.2210
 8126SOL    HW135837   1.304   2.488   6.881 -2.0168 -0.2581 -1.0968
 8126SOL    HW235838   1.310   2.510   7.025  0.8935  1.7889 -1.7825
 8127SOL     OW35839   1.409   3.675  17.340 -0.0453 -0.7551  0.4176
 8127SOL    HW135840   1.426   3.700  17.249 -4.2169 -1.1081 -0.4799
 8127SOL    HW235841   1.361   3.752  17.370  2.3758  0.9772 -0.1772
 8128SOL     OW35842   1.429   2.652   8.618 -0.3888 -0.0092 -0.1501
 8128SOL    HW135843   1.419   2.556   8.620  0.2906 -0.0770  0.3177
 8128SOL    HW235844   1.497   2.660   8.686 -1.3431 -0.4060  0.8514
 8129SOL     OW35845   3.615   3.653  10.037 -0.1687  0.2760 -0.7783
 8129SOL    HW135846   3.653   3.739  10.020  0.4038  0.0479 -0.6517
 8129SOL    HW235847   3.559   3.672  10.113 -0.4426  1.1110 -1.1876
 8130SOL     OW35848   2.841   1.914   3.729  0.2163 -0.0651 -0.2396
 8130SOL    HW135849   2.905   1.964   3.679 -0.8014  1.6042  0.1292
 8130SOL    HW235850   2.895   1.875   3.797 -1.1176 -1.4290  0.0479
 8131SOL     OW35851   4.503   0.491   6.184  0.6985  0.3656 -0.0471
 8131SOL    HW135852   4.588   0.450   6.201  1.6522  2.2402 -0.3561
 8131SOL    HW235853   4.486   0.539   6.265 -1.1614 -0.8466  0.2941
 8132SOL     OW35854   0.264   2.472  14.382  0.1047 -0.9624  0.5478
 8132SOL    HW135855   0.262   2.388  14.336  2.8693  0.1192 -1.5548
 8132SOL    HW235856   0.301   2.530  14.315  0.8397 -0.3591  1.4602
 8133SOL     OW35857   2.602   3.061  14.897 -0.8078  0.5920 -0.6126
 8133SOL    HW135858   2.646   2.986  14.858 -0.2352  1.8307 -2.3921
 8133SOL    HW235859   2.514   3.043  14.865 -0.0729 -2.6840 -0.7459
 8134SOL     OW35860   3.408   3.688   2.427 -0.5574 -0.4772 -0.0806
 8134SOL    HW135861   3.500   3.670   2.407  0.2252  2.7199  0.5727
 8134SOL    HW235862   3.360   3.615   2.388  2.3149 -1.7737 -1.2358
 8135SOL     OW35863   3.356   1.618   5.247 -0.0457 -0.4246 -0.2017
 8135SOL    HW135864   3.356   1.710   5.222 -1.1070 -0.5527 -0.6970
 8135SOL    HW235865   3.270   1.583   5.221 -0.7849  0.5945  0.9099
 8136SOL     OW35866   4.463   0.761   5.952  0.1768  0.3343 -0.1505
 8136SOL    HW135867   4.538   0.819   5.937  1.3830 -0.4709  2.7404
 8136SOL    HW235868   4.419   0.811   6.021  1.6888  1.7900 -0.2268
 8137SOL     OW35869   1.710   4.263   6.292 -0.6833 -0.1897 -0.0011
 8137SOL    HW135870   1.725   4.196   6.226 -2.5040 -1.2154  0.6382
 8137SOL    HW235871   1.793   4.310   6.288 -0.4419 -0.4308  2.0447
 8138SOL     OW35872   0.151   2.316   6.008 -0.5188 -0.5092 -0.0539
 8138SOL    HW135873   0.199   2.388   6.048 -3.0357  1.6722 -0.9530
 8138SOL    HW235874   0.066   2.326   6.051 -0.8944  0.8292 -1.1008
 8139SOL     OW35875   1.950   3.382   7.644 -0.1558 -0.3646 -0.3413
 8139SOL    HW135876   1.995   3.302   7.617  0.1479 -0.1372 -0.5104
 8139SOL    HW235877   1.995   3.451   7.595  1.1259  0.1930  1.6348
 8140SOL     OW35878   2.245   4.210   7.213 -0.0890 -0.5933  0.0547
 8140SOL    HW135879   2.312   4.182   7.151 -0.1352 -2.1387  0.7082
 8140SOL    HW235880   2.187   4.262   7.158 -1.2823 -1.8846  0.0928
 8141SOL     OW35881   2.759   2.400   4.571  0.4157 -0.1964 -0.0894
 8141SOL    HW135882   2.689   2.464   4.561 -0.4103 -1.1406 -0.4454
 8141SOL    HW235883   2.737   2.343   4.497 -0.1347 -0.4647  0.2841
 8142SOL     OW35884   1.960   1.660  13.715 -0.5498  0.8782 -0.0924
 8142SOL    HW135885   2.032   1.621  13.665 -0.6785  2.3148 -1.4037
 8142SOL    HW235886   1.978   1.613  13.796  0.5202  1.3994 -0.0291
 8143SOL     OW35887   3.928   0.755   2.502 -0.1134  0.3393  0.1496
 8143SOL    HW135888   3.957   0.704   2.426  0.3545  1.9799 -0.7598
 8143SOL    HW235889   3.837   0.725   2.505 -0.0599  0.4144  2.8267
 8144SOL     OW35890   4.530   4.415  11.299  0.3771 -0.0985  0.0176
 8144SOL    HW135891   4.615   4.439  11.336  0.1033  0.0738  0.5420
 8144SOL    HW235892   4.500   4.500  11.265 -0.5432 -0.6242 -0.4765
 8145SOL     OW35893   2.845   2.906   6.416 -0.2780 -0.4984  0.3069
 8145SOL    HW135894   2.916   2.943   6.468 -1.0871  1.0748  0.2758
 8145SOL    HW235895   2.771   2.919   6.475 -0.8399 -0.2706 -0.4475
 8146SOL     OW35896   4.015   0.560  16.606  0.5123  0.1195  0.2155
 8146SOL    HW135897   4.044   0.501  16.676 -0.3973  1.1991  1.4927
 8146SOL    HW235898   3.958   0.620  16.655 -1.0457 -0.9970 -0.2232
 8147SOL     OW35899   1.116   0.114   6.265  0.0059 -0.0023  0.1444
 8147SOL    HW135900   1.128   0.041   6.325  2.3258  1.3237  1.2638
 8147SOL    HW235901   1.041   0.165   6.296 -0.9680 -1.1928 -0.2381
 8148SOL     OW35902   0.091   0.087   6.213  0.2097 -0.3455  0.2665
 8148SOL    HW135903   0.028   0.028   6.254  1.4944 -0.8318  1.5530
 8148SOL    HW235904   0.170   0.046   6.248  2.4798  1.7103 -2.4981
 8149SOL     OW35905   4.532   3.279   3.256 -0.6325  0.1730 -0.0880
 8149SOL    HW135906   4.588   3.202   3.247 -2.4126 -1.3048  1.5652
 8149SOL    HW235907   4.467   3.256   3.190  0.0942 -0.8485 -0.4451
 8150SOL     OW35908   4.207   1.141   2.824  0.4681 -0.3628  0.7204
 8150SOL    HW135909   4.151   1.093   2.886 -0.2612 -3.5030 -2.3745
 8150SOL    HW235910   4.285   1.144   2.880  0.4159 -0.0706  0.7757
 8151SOL     OW35911   2.960   4.018   6.685 -0.5065 -0.3555 -1.2322
 8151SOL    HW135912   2.935   4.106   6.716 -0.3398 -1.3449  1.6625
 8151SOL    HW235913   3.055   4.033   6.687 -0.9598  2.3771  0.8962
 8152SOL     OW35914   4.495   3.580  10.285  0.2914  0.2027  0.1056
 8152SOL    HW135915   4.533   3.645  10.345 -0.3916 -1.5870  2.4801
 8152SOL    HW235916   4.462   3.517  10.349  0.2127 -0.8238 -0.9400
 8153SOL     OW35917   4.616   4.220   9.365 -0.3891  0.0085  0.3906
 8153SOL    HW135918   4.694   4.163   9.361 -0.7238 -0.4294  0.0104
 8153SOL    HW235919   4.578   4.183   9.444 -0.4525  0.4852  0.5823
 8154SOL     OW35920   1.509   3.155  11.730  0.3186  0.0184  0.4418
 8154SOL    HW135921   1.574   3.097  11.769  1.4994 -1.2442 -3.4563
 8154SOL    HW235922   1.429   3.112  11.759  0.4737  0.3092  1.3159
 8155SOL     OW35923   1.585   2.794   6.974  0.0264 -0.5248  0.0836
 8155SOL    HW135924   1.597   2.780   6.880  0.3874  2.5082 -0.2901
 8155SOL    HW235925   1.491   2.814   6.981  0.0552 -0.6756  0.9854
 8156SOL     OW35926   0.947   2.531   1.816 -0.0857  0.2236  0.3207
 8156SOL    HW135927   0.912   2.565   1.898 -0.4796 -0.1327  0.2981
 8156SOL    HW235928   0.941   2.613   1.767  0.1449 -0.6047 -1.1093
 8157SOL     OW35929   3.504   0.368   1.826 -0.7027 -0.0660 -0.0803
 8157SOL    HW135930   3.514   0.394   1.734  0.5423  1.6015  0.5156
 8157SOL    HW235931   3.551   0.284   1.826  0.9972  0.9005 -1.8685
 8158SOL     OW35932   0.582   3.380   4.258  0.5812 -0.4774  0.2401
 8158SOL    HW135933   0.532   3.457   4.232 -0.7887 -2.2800 -2.5168
 8158SOL    HW235934   0.515   3.313   4.246 -2.3194  2.6680 -1.0234
 8159SOL     OW35935   1.162   1.372   8.369  0.1484  0.1857 -0.2149
 8159SOL    HW135936   1.068   1.373   8.350  0.0581  2.7211  0.4236
 8159SOL    HW235937   1.169   1.280   8.395 -1.5815  0.0786 -0.1235
 8160SOL     OW35938   1.052   0.142   5.023 -0.2262 -0.3898 -0.0134
 8160SOL    HW135939   0.982   0.079   5.039 -0.4510 -0.5270 -1.5849
 8160SOL    HW235940   1.007   0.203   4.966  1.3802  1.4786  0.7085
 8161SOL     OW35941   4.695   2.422  11.152  0.0341 -0.1712  0.2647
 8161SOL    HW135942   4.661   2.370  11.079 -0.9035  1.9121 -0.8081
 8161SOL    HW235943   0.059   2.380  11.168 -1.1489 -2.9084 -0.6966
 8162SOL     OW35944   2.778   2.820   0.088  0.4486 -0.0582  0.4178
 8162SOL    HW135945   2.828   2.739   0.101  1.2862  0.0979 -1.7803
 8162SOL    HW235946   2.688   2.796   0.109  0.8555 -3.1299 -1.3162
 8163SOL     OW35947   0.503   1.049   7.650  0.4762  0.6694 -0.0315
 8163SOL    HW135948   0.523   1.055   7.556  2.5668 -1.2051  0.2978
 8163SOL    HW235949   0.426   0.993   7.643  0.2277  1.0054 -0.0065
 8164SOL     OW35950   4.331   0.030   5.637 -0.5007  0.2883  0.6469
 8164SOL    HW135951   4.305   4.671   5.684  2.1326 -0.7160  0.4437
 8164SOL    HW235952   4.303   0.006   5.549 -0.7166 -0.1978  0.8480
 8165SOL     OW35953   2.799   3.048   4.334 -0.5299  0.1534  0.1256
 8165SOL    HW135954   2.750   3.128   4.349 -2.5061 -0.7510 -1.6033
 8165SOL    HW235955   2.789   2.990   4.410  0.3841 -1.4975 -1.0175
 8166SOL     OW35956   1.198   0.694  10.671  0.6924 -0.1046  0.3851
 8166SOL    HW135957   1.156   0.610  10.655  1.3806 -0.1008 -1.4067
 8166SOL    HW235958   1.162   0.710  10.759 -0.0149  0.6148 -0.0333
 8167SOL     OW35959   4.099   3.776   3.460  0.3401  0.4311 -0.3266
 8167SOL    HW135960   4.031   3.788   3.527  1.0566  1.7265  0.1704
 8167SOL    HW235961   4.174   3.745   3.511 -0.0103 -0.5053 -0.3835
 8168SOL     OW35962   3.238   1.824  15.236 -0.4822  0.1306  0.3351
 8168SOL    HW135963   3.278   1.820  15.149 -1.0267 -0.4869  0.1136
 8168SOL    HW235964   3.192   1.908  15.225  1.9621  1.3244 -0.7407
 8169SOL     OW35965   4.306   3.000   5.883  0.3249 -0.6690 -0.3755
 8169SOL    HW135966   4.396   3.020   5.858  1.2777 -2.4119  1.6344
 8169SOL    HW235967   4.272   2.938   5.817  1.6112 -1.4645 -0.2897
 8170SOL     OW35968   1.301   3.600  13.630 -0.1392  0.1156  0.2433
 8170SOL    HW135969   1.291   3.514  13.589  1.3628  0.2471 -0.4147
 8170SOL    HW235970   1.255   3.588  13.713  1.4688  1.1740  1.3089
 8171SOL     OW35971   1.210   0.630   1.968  0.0426 -0.4972 -0.4517
 8171SOL    HW135972   1.253   0.555   2.008  0.4653 -0.2520 -0.4471
 8171SOL    HW235973   1.122   0.614   2.002 -0.5837  0.2076 -1.7333
 8172SOL     OW35974   4.461   2.684   7.494  0.1872 -0.4253  0.0349
 8172SOL    HW135975   4.408   2.762   7.509 -0.9061 -0.5512 -3.1809
 8172SOL    HW235976   4.495   2.675   7.583  1.0702 -1.1912 -0.3854
 8173SOL     OW35977   2.369   1.446   6.595  0.2052 -0.0332 -0.3205
 8173SOL    HW135978   2.318   1.367   6.576 -0.6650  0.3881  0.2350
 8173SOL    HW235979   2.389   1.475   6.506  1.4874  1.4658  0.4627
 8174SOL     OW35980   1.785   1.898   2.234 -0.5913 -0.1615  0.9398
 8174SOL    HW135981   1.725   1.869   2.303 -2.7461 -2.0108 -1.7419
 8174SOL    HW235982   1.721   1.935   2.172  0.5739 -0.2676 -0.3260
 8175SOL     OW35983   2.074   4.682   5.620 -0.4127  0.1377  0.0793
 8175SOL    HW135984   1.993   4.666   5.668 -0.5895  2.1709  0.4585
 8175SOL    HW235985   2.111   4.594   5.608 -1.0755 -0.1297  0.0312
 8176SOL     OW35986   4.715   4.053   6.593 -0.4961 -0.3944 -0.0466
 8176SOL    HW135987   0.074   4.069   6.645 -0.0671  1.6333 -1.2999
 8176SOL    HW235988   4.643   4.034   6.652  1.7703 -0.6891  2.6185
 8177SOL     OW35989   2.404   0.363   1.628 -0.1284 -0.0128 -0.1874
 8177SOL    HW135990   2.491   0.352   1.590  0.3173  2.3700  0.1029
 8177SOL    HW235991   2.366   0.414   1.557  1.5724  1.7950  0.1873
 8178SOL     OW35992   3.066   0.696   3.502  0.5674  0.0650 -0.0346
 8178SOL    HW135993   3.154   0.733   3.487  0.4007  0.2293 -0.6316
 8178SOL    HW235994   3.017   0.735   3.429 -0.9272  1.8051  1.9288
 8179SOL     OW35995   3.516   0.599   4.685 -0.2378  0.1441 -0.0959
 8179SOL    HW135996   3.512   0.623   4.593  1.1513  0.4691 -0.0755
 8179SOL    HW235997   3.431   0.630   4.715 -0.8898  0.8369 -2.6923
 8180SOL     OW35998   0.832   1.093   7.175  0.0277 -0.3411  0.2361
 8180SOL    HW135999   0.803   1.170   7.225 -1.1171  0.3635 -1.5249
 8180SOL    HW236000   0.855   1.038   7.250 -3.0775 -2.5065 -0.4223
 8181SOL     OW36001   0.422   3.975  16.492 -0.3995 -0.0465 -0.7496
 8181SOL    HW136002   0.472   3.958  16.412 -0.4362  0.5308 -0.9011
 8181SOL    HW236003   0.495   4.003  16.548 -1.1163  1.8273 -0.7517
 8182SOL     OW36004   3.890   4.314   3.355 -0.0977 -0.0421  0.8873
 8182SOL    HW136005   3.851   4.352   3.433 -2.2925 -1.2532  0.3731
 8182SOL    HW236006   3.907   4.227   3.392  0.3041 -0.8129 -1.0766
 8183SOL     OW36007   1.837   3.681   0.542  0.3495  0.6446 -0.1390
 8183SOL    HW136008   1.826   3.631   0.462  0.4422  1.3506 -0.5895
 8183SOL    HW236009   1.885   3.621   0.600  1.2081  1.5844  0.1162
 8184SOL     OW36010   0.575   3.939   7.335  0.4518 -0.1805 -0.3569
 8184SOL    HW136011   0.518   3.915   7.262  0.8488 -0.3812 -0.6046
 8184SOL    HW236012   0.536   3.894   7.410  2.1389 -0.5593  0.3139
 8185SOL     OW36013   2.966   0.925   4.765  0.4244  0.3431  0.2297
 8185SOL    HW136014   2.907   0.851   4.749 -0.1172  1.2606 -2.0647
 8185SOL    HW236015   3.000   0.942   4.677  1.6370  1.6296  0.9606
 8186SOL     OW36016   3.707   3.147   8.028  0.6855  0.6214 -0.5013
 8186SOL    HW136017   3.733   3.086   8.097  1.2066  1.5922  0.1556
 8186SOL    HW236018   3.676   3.225   8.074 -0.1889  0.4290 -0.7484
 8187SOL     OW36019   3.515   3.931   3.034 -0.3107 -0.6466 -0.1150
 8187SOL    HW136020   3.592   3.946   3.088 -0.1512  0.5635 -0.6827
 8187SOL    HW236021   3.513   4.021   3.001 -2.3948 -1.1077 -1.3076
 8188SOL     OW36022   1.577   2.158  14.209 -0.1645  0.2251  0.3170
 8188SOL    HW136023   1.647   2.093  14.215 -0.2466  0.0236 -0.9875
 8188SOL    HW236024   1.565   2.149  14.114 -0.1941  0.6671  0.2761
 8189SOL     OW36025   0.218   4.478   0.676 -0.0851 -0.1422 -0.2765
 8189SOL    HW136026   0.293   4.525   0.639 -1.0719  0.7585 -1.1482
 8189SOL    HW236027   0.192   4.523   0.756 -1.1885 -1.7742  0.2652
 8190SOL     OW36028   0.926   2.062   6.366  0.2762  0.0849  0.4185
 8190SOL    HW136029   0.885   2.125   6.425  0.4276  0.5655  0.0118
 8190SOL    HW236030   0.907   2.087   6.275  1.2827 -0.3071  0.0940
 8191SOL     OW36031   0.482   2.848   3.215 -0.1103  0.1765  0.7775
 8191SOL    HW136032   0.554   2.785   3.226  0.9596  1.7586  2.6942
 8191SOL    HW236033   0.528   2.912   3.160  0.5362  0.5438  1.7532
 8192SOL     OW36034   1.729   1.103   5.821  0.2857 -0.1678  0.2482
 8192SOL    HW136035   1.667   1.098   5.748 -1.7849  1.7981  1.8823
 8192SOL    HW236036   1.797   1.042   5.795  1.9941  1.1513  1.6602
 8193SOL     OW36037   1.944   0.336   9.671  0.7301 -0.3929 -0.0055
 8193SOL    HW136038   1.938   0.391   9.593 -0.6907 -0.3691  0.1121
 8193SOL    HW236039   1.937   0.403   9.740  0.2521 -0.4711  0.0201
 8194SOL     OW36040   0.543   3.413   8.947 -0.1995 -0.4260 -0.2542
 8194SOL    HW136041   0.631   3.378   8.960 -0.1224 -0.4565 -0.8372
 8194SOL    HW236042   0.562   3.488   8.891 -0.7380 -0.4693 -0.4919
 8195SOL     OW36043   3.384   0.348   8.526  0.1543  0.1732 -0.0527
 8195SOL    HW136044   3.450   0.281   8.510  0.8653  1.2066 -1.4311
 8195SOL    HW236045   3.411   0.397   8.604  0.0345  0.5509 -0.2483
 8196SOL     OW36046   1.782   2.327   4.480  0.1071  0.5272  0.4051
 8196SOL    HW136047   1.799   2.377   4.560  1.4590  1.1385 -0.2653
 8196SOL    HW236048   1.691   2.356   4.477 -0.3191 -0.6929  1.3781
 8197SOL     OW36049   0.522   1.389   4.629 -0.1962 -0.7620  0.0771
 8197SOL    HW136050   0.430   1.379   4.655 -0.4133  0.5310 -0.1778
 8197SOL    HW236051   0.563   1.313   4.671  1.3091 -0.2441 -0.4823
 8198SOL     OW36052   2.659   1.996   9.408 -0.5371  0.1259  0.2038
 8198SOL    HW136053   2.641   1.909   9.374  1.5884 -0.0568 -0.4370
 8198SOL    HW236054   2.571   2.033   9.406 -0.5754 -0.0953 -1.8537
 8199SOL     OW36055   3.519   1.260   3.730  0.1184  0.0025  0.0612
 8199SOL    HW136056   3.562   1.185   3.772  0.3459  0.0390 -0.1063
 8199SOL    HW236057   3.554   1.241   3.643 -1.1848 -0.3423 -0.3741
 8200SOL     OW36058   0.084   3.343   5.670 -0.6903  0.1949  0.2979
 8200SOL    HW136059   0.089   3.411   5.737 -0.1011 -1.5116  1.9960
 8200SOL    HW236060   0.031   3.385   5.602  1.4940  0.1430 -1.4220
 8201SOL     OW36061   1.306   0.815  11.044 -0.7973 -0.5318 -0.3920
 8201SOL    HW136062   1.300   0.897  10.995  0.1225 -0.8279 -1.0222
 8201SOL    HW236063   1.367   0.832  11.116 -0.9991 -1.2380 -0.0548
 8202SOL     OW36064   1.242   3.315   5.676  0.7162 -0.5094  0.1341
 8202SOL    HW136065   1.289   3.297   5.757 -0.0808 -1.4635  0.3799
 8202SOL    HW236066   1.190   3.237   5.660 -0.1672 -0.2287  1.6853
 8203SOL     OW36067   1.885   1.043   2.721  0.7804 -0.3029  0.0535
 8203SOL    HW136068   1.889   1.043   2.626  0.0698  0.0282  0.0243
 8203SOL    HW236069   1.972   1.081   2.736 -0.0130  1.3539  0.4448
 8204SOL     OW36070   2.416   2.839   2.521 -0.1297 -0.5094 -0.8068
 8204SOL    HW136071   2.414   2.743   2.527  1.0076 -0.5086 -0.3724
 8204SOL    HW236072   2.364   2.846   2.442  1.7323  0.6985 -1.9267
 8205SOL     OW36073   1.123   4.483   6.023 -0.6392 -0.1845  0.5643
 8205SOL    HW136074   1.085   4.470   6.110 -2.5457 -1.4230 -0.4301
 8205SOL    HW236075   1.048   4.447   5.975 -0.1816  1.8866 -1.6923
 8206SOL     OW36076   0.714   4.110   6.766 -0.1998 -0.0776  0.2633
 8206SOL    HW136077   0.783   4.174   6.782  1.3539 -2.3167  2.3539
 8206SOL    HW236078   0.634   4.161   6.784 -0.3310  0.3363 -1.4756
 8207SOL     OW36079   2.139   2.720  12.536  0.2926  0.1340 -0.4938
 8207SOL    HW136080   2.133   2.638  12.585 -1.5119  0.3744 -0.3149
 8207SOL    HW236081   2.162   2.687  12.449 -2.0940 -1.2036 -0.6381
 8208SOL     OW36082   0.666   1.197   7.833 -0.2127 -0.6620 -0.1014
 8208SOL    HW136083   0.757   1.167   7.831 -0.0261 -0.2058  2.5140
 8208SOL    HW236084   0.616   1.140   7.774 -1.8392  2.3359 -1.6138
 8209SOL     OW36085   2.326   1.073   8.896 -0.0397 -0.2602 -0.3309
 8209SOL    HW136086   2.407   1.073   8.947 -1.5023 -2.4091  2.0087
 8209SOL    HW236087   2.279   1.155   8.910  2.0263  0.7869  0.5083
 8210SOL     OW36088   1.993   2.370  17.625  0.2769 -0.6136 -0.0711
 8210SOL    HW136089   1.924   2.337  17.682 -0.2072 -1.3812 -1.1012
 8210SOL    HW236090   2.012   2.449  17.676  2.0248  0.3619 -2.2394
 8211SOL     OW36091   3.661   4.268  16.942 -0.2723 -0.3769 -0.2001
 8211SOL    HW136092   3.717   4.191  16.946 -0.5117 -0.4626  1.7795
 8211SOL    HW236093   3.680   4.303  16.855  0.4699 -0.6181 -0.1347
 8212SOL     OW36094   3.492   1.604  17.638  0.1237  0.4524 -0.2357
 8212SOL    HW136095   3.452   1.686  17.666 -0.1779 -0.2067  1.2791
 8212SOL    HW236096   3.547   1.597   0.032  0.3201 -0.6431 -0.4688
 8213SOL     OW36097   3.332   3.880   5.291  1.0156 -0.5726  0.3635
 8213SOL    HW136098   3.397   3.924   5.345 -0.5237  0.3172  1.5133
 8213SOL    HW236099   3.264   3.864   5.357  1.0591  0.6917  0.7057
 8214SOL     OW36100   1.736   0.442   6.097 -0.0372  0.1491  0.1194
 8214SOL    HW136101   1.711   0.527   6.061 -1.0366 -0.1108  0.1828
 8214SOL    HW236102   1.818   0.463   6.142 -1.7604  3.0387  1.9099
 8215SOL     OW36103   1.720   1.888  17.136 -0.1023 -0.1376 -0.2196
 8215SOL    HW136104   1.790   1.951  17.117 -1.2870  0.8727 -1.2539
 8215SOL    HW236105   1.735   1.816  17.075  0.9497 -0.2474  0.1678
 8216SOL     OW36106   2.171   4.586   8.862 -0.4695  0.2606  0.2862
 8216SOL    HW136107   2.162   4.677   8.891  0.1073 -0.7863  3.7176
 8216SOL    HW236108   2.092   4.553   8.904 -1.6771 -0.0787 -2.2439
 8217SOL     OW36109   1.377   4.200   6.609  0.4925  0.4743 -0.6263
 8217SOL    HW136110   1.472   4.214   6.614  0.2321  1.8043  0.6308
 8217SOL    HW236111   1.371   4.131   6.544  0.8754 -0.7680  0.6458
 8218SOL     OW36112   3.894   3.801   7.489  0.2149  0.2013  0.5717
 8218SOL    HW136113   3.960   3.794   7.558  1.7285 -1.8264 -1.0902
 8218SOL    HW236114   3.946   3.862   7.436  0.7168 -0.9887 -0.3072
 8219SOL     OW36115   3.689   0.204   3.726  0.3756  0.4414 -0.3138
 8219SOL    HW136116   3.605   0.178   3.687  0.3635 -0.5728  0.3853
 8219SOL    HW236117   3.668   0.226   3.817 -0.5345 -2.3890  0.1504
 8220SOL     OW36118   0.095   3.381   2.679  0.1478 -0.2682 -0.0632
 8220SOL    HW136119   0.119   3.325   2.605 -1.9939  0.9089 -1.6499
 8220SOL    HW236120   0.022   3.327   2.708  0.4317  0.8170  2.6192
 8221SOL     OW36121   1.179   1.408   4.107 -0.0506  0.3848  0.0834
 8221SOL    HW136122   1.217   1.461   4.036 -3.3294  2.3864 -0.1697
 8221SOL    HW236123   1.232   1.428   4.184  2.6204 -1.0435 -1.3747
 8222SOL     OW36124   4.243   1.243   4.344 -1.2308 -0.1433  0.1559
 8222SOL    HW136125   4.253   1.206   4.256 -2.6494  0.7795 -0.3890
 8222SOL    HW236126   4.320   1.300   4.349 -1.2858 -0.2770  2.4150
 8223SOL     OW36127   2.316   2.634  11.890  0.4689 -0.0387 -0.6531
 8223SOL    HW136128   2.285   2.722  11.914  0.7396  0.3588 -1.7983
 8223SOL    HW236129   2.266   2.619  11.810  1.7929 -1.4896 -1.1844
 8224SOL     OW36130   1.196   1.018   5.187 -0.3316 -0.4846 -0.3281
 8224SOL    HW136131   1.132   0.948   5.201 -1.1431  0.2592 -0.3666
 8224SOL    HW236132   1.140   1.091   5.162  1.6813  1.4394  0.7704
 8225SOL     OW36133   0.766   0.657  11.222  0.2006 -0.0032  0.0529
 8225SOL    HW136134   0.789   0.565  11.216  0.8715  0.1591  0.0944
 8225SOL    HW236135   0.851   0.700  11.225 -0.1360  0.9624 -3.5367
 8226SOL     OW36136   0.625   4.713   8.150 -0.1070 -0.2011  0.1024
 8226SOL    HW136137   0.627   0.089   8.147  0.3761 -0.2412 -0.9188
 8226SOL    HW236138   0.685   4.691   8.079  0.1790 -2.4581  1.0582
 8227SOL     OW36139   2.657   4.419   4.330 -0.3602 -0.3121  0.3816
 8227SOL    HW136140   2.583   4.420   4.391 -0.2011  2.0426  0.5461
 8227SOL    HW236141   2.671   4.511   4.308  1.2370 -0.5637  0.3625
 8228SOL     OW36142   1.965   0.238   3.407  0.6392  0.6289  0.0630
 8228SOL    HW136143   1.958   0.249   3.313 -0.6497 -1.9397 -0.1473
 8228SOL    HW236144   2.059   0.247   3.420  0.5697  2.2953 -0.6278
 8229SOL     OW36145   4.442   2.524   6.478 -0.3666 -0.0333  0.1871
 8229SOL    HW136146   4.361   2.570   6.502  0.5863  1.9453 -0.3625
 8229SOL    HW236147   4.406   2.471   6.408 -1.4252  2.2062 -0.9799
 8230SOL     OW36148   3.671   2.061   2.524  0.1845 -0.3244 -0.2248
 8230SOL    HW136149   3.584   2.068   2.486  1.3577  1.7627 -2.6076
 8230SOL    HW236150   3.653   2.094   2.612  0.4428  0.2687 -0.3900
 8231SOL     OW36151   2.004   1.412   4.384 -0.6465 -0.0672  0.4057
 8231SOL    HW136152   2.001   1.330   4.434  0.1090 -0.4619 -0.1864
 8231SOL    HW236153   2.033   1.366   4.305 -1.4230  0.7330 -0.3456
 8232SOL     OW36154   1.967   1.283   3.310 -0.6851  0.0380  0.4392
 8232SOL    HW136155   2.027   1.253   3.242 -0.7812  1.2768 -0.2059
 8232SOL    HW236156   1.936   1.205   3.356 -3.7680  0.7062 -0.5190
 8233SOL     OW36157   3.700   3.411   2.501  0.0362  0.6504  0.0267
 8233SOL    HW136158   3.752   3.431   2.423 -1.8228  1.3879 -1.0275
 8233SOL    HW236159   3.736   3.323   2.511 -0.1960  0.4171 -1.1652
 8234SOL     OW36160   4.082   4.030   8.389  0.2030 -0.0412 -0.5511
 8234SOL    HW136161   4.123   3.948   8.359 -1.1172 -0.9914  0.2383
 8234SOL    HW236162   4.107   4.085   8.315 -1.0299 -0.1727 -1.0635
 8235SOL     OW36163   1.446   0.391  17.186 -0.0916  0.0368 -0.1692
 8235SOL    HW136164   1.505   0.323  17.153  0.2610  0.9643 -1.4669
 8235SOL    HW236165   1.356   0.360  17.176  0.3029 -1.2355  0.3034
 8236SOL     OW36166   4.566   0.300   8.076  0.5279  0.2410 -0.1808
 8236SOL    HW136167   4.625   0.277   8.005  0.6891  1.4964 -0.4640
 8236SOL    HW236168   4.628   0.357   8.123 -0.5228  0.5360  0.8393
 8237SOL     OW36169   1.516   2.015   1.793  0.2138 -0.0725  0.1629
 8237SOL    HW136170   1.508   2.092   1.736  2.8719 -0.9103 -1.3621
 8237SOL    HW236171   1.578   1.970   1.736  0.2099 -0.1310  0.2052
 8238SOL     OW36172   1.855   1.680   2.067 -0.2157 -0.2189 -0.9324
 8238SOL    HW136173   1.843   1.767   2.103 -3.4481 -0.7463 -0.7151
 8238SOL    HW236174   1.816   1.630   2.139 -1.0187  0.7021 -0.7291
 8239SOL     OW36175   2.791   2.642   7.432 -0.2607  0.2594  0.4286
 8239SOL    HW136176   2.826   2.608   7.515  1.1254  0.7805  0.0611
 8239SOL    HW236177   2.870   2.625   7.381  0.2011 -1.7279  1.7864
 8240SOL     OW36178   3.716   3.920  15.746  0.4351 -0.4187  0.3862
 8240SOL    HW136179   3.702   3.923  15.651 -0.3811 -1.8301  0.4640
 8240SOL    HW236180   3.719   3.825  15.760  0.4636 -0.2395  1.5533
 8241SOL     OW36181   0.945   2.219  11.887  0.0484 -0.1174 -0.1933
 8241SOL    HW136182   0.978   2.308  11.872  2.8219 -1.3602 -1.4776
 8241SOL    HW236183   0.853   2.237  11.907 -0.1593 -0.0724 -1.1815
 8242SOL     OW36184   1.276   0.574   3.914 -0.1801 -0.2962  0.1693
 8242SOL    HW136185   1.330   0.653   3.923 -0.0990 -0.5153  1.5717
 8242SOL    HW236186   1.307   0.519   3.986 -1.2297 -1.1670 -0.0542
 8243SOL     OW36187   0.392   2.516  12.325  0.4973 -0.2004 -0.3155
 8243SOL    HW136188   0.376   2.433  12.371  2.2169 -0.4954 -0.2587
 8243SOL    HW236189   0.409   2.572  12.400 -0.4988  0.8142 -0.8404
 8244SOL     OW36190   2.134   1.760   6.355 -0.2586  0.0644  0.0270
 8244SOL    HW136191   2.188   1.787   6.281 -0.3250 -0.0917 -0.0781
 8244SOL    HW236192   2.173   1.806   6.430 -3.1141  0.2320  1.4141
 8245SOL     OW36193   3.064   4.555   6.448  0.0370 -0.7299  0.3589
 8245SOL    HW136194   3.027   4.618   6.509  0.4620  2.1989 -2.3822
 8245SOL    HW236195   3.021   4.475   6.477  2.9063 -1.8274  1.5957
 8246SOL     OW36196   4.280   1.156   2.181  0.1863  0.2741 -0.5105
 8246SOL    HW136197   4.221   1.081   2.174  1.2868 -0.8777  2.6723
 8246SOL    HW236198   4.210   1.220   2.199 -0.1495 -0.3524  0.3739
 8247SOL     OW36199   3.205   4.507  13.784 -0.1703  0.3599  0.0479
 8247SOL    HW136200   3.175   4.485  13.872  2.9706 -2.2797  0.4532
 8247SOL    HW236201   3.299   4.487  13.783 -0.1092  0.7404 -1.4733
 8248SOL     OW36202   2.991   3.735   5.572  0.3652  0.2083  0.0148
 8248SOL    HW136203   2.953   3.647   5.571  1.4649 -0.2659 -0.2717
 8248SOL    HW236204   2.918   3.771   5.622 -0.5101  2.7034 -2.9962
 8249SOL     OW36205   3.087   3.086   0.863  0.3682 -0.0013 -0.7041
 8249SOL    HW136206   3.146   3.012   0.848 -0.7481 -0.7198 -1.5138
 8249SOL    HW236207   3.124   3.145   0.797 -0.0114 -0.0803 -0.9817
 8250SOL     OW36208   1.881   2.675   4.099  0.2311  0.0387 -0.1068
 8250SOL    HW136209   1.871   2.610   4.169  0.1830  0.8349  0.6239
 8250SOL    HW236210   1.839   2.641   4.020  2.2269  0.3016 -1.2631
 8251SOL     OW36211   2.129   3.128   5.800 -0.0311  0.1143 -0.0005
 8251SOL    HW136212   2.178   3.048   5.819 -1.5887 -0.7865  0.2582
 8251SOL    HW236213   2.051   3.126   5.856 -1.0507  0.8252 -1.4062
 8252SOL     OW36214   1.845   3.958   2.487 -0.1549 -0.3671 -0.3619
 8252SOL    HW136215   1.824   3.938   2.578 -0.9094 -1.7836 -0.8415
 8252SOL    HW236216   1.823   4.051   2.495  0.1521 -0.3081 -0.1992
 8253SOL     OW36217   1.452   2.495   1.739  0.4709 -0.5788  0.1544
 8253SOL    HW136218   1.486   2.549   1.810 -2.6697  0.2546  1.0426
 8253SOL    HW236219   1.513   2.534   1.677 -0.5963  0.0230 -0.5164
 8254SOL     OW36220   0.904   4.714   4.386 -0.2862 -0.2620 -0.3704
 8254SOL    HW136221   0.864   4.681   4.466 -0.0903 -0.2826 -0.2810
 8254SOL    HW236222   0.970   0.053   4.421  1.6745 -2.5878 -0.1637
 8255SOL     OW36223   4.490   1.743   5.707 -0.1279  0.1729  0.1874
 8255SOL    HW136224   4.504   1.687   5.784 -2.5434 -1.0375 -0.2494
 8255SOL    HW236225   4.461   1.684   5.638 -0.4767  1.4739 -0.7879
 8256SOL     OW36226   2.620   2.661   0.918 -0.4695 -0.4045  0.6170
 8256SOL    HW136227   2.694   2.690   0.971  1.2721  0.2850 -2.2411
 8256SOL    HW236228   2.583   2.623   0.998  1.2391 -0.1073  1.5377
 8257SOL     OW36229   0.622   4.253   9.776  0.0213 -0.1758  0.1327
 8257SOL    HW136230   0.537   4.209   9.781 -0.7331  0.9533 -2.9251
 8257SOL    HW236231   0.682   4.189   9.738  0.4247 -1.6656  3.2455
 8258SOL     OW36232   4.289   1.595   2.400 -0.0332  0.1224  0.1598
 8258SOL    HW136233   4.345   1.665   2.365 -1.0910 -0.2007 -2.1848
 8258SOL    HW236234   4.346   1.519   2.396  0.8063  0.7338  0.3951
 8259SOL     OW36235   0.374   3.609   6.668  0.3294  0.3325 -0.0413
 8259SOL    HW136236   0.405   3.625   6.578 -0.2949 -0.0834 -0.3298
 8259SOL    HW236237   0.283   3.639   6.662  0.1133 -0.4061 -0.4554
 8260SOL     OW36238   2.044   3.630   5.742 -0.1553 -0.1342 -0.1318
 8260SOL    HW136239   2.125   3.623   5.793 -0.6467 -1.5319  0.4472
 8260SOL    HW236240   2.065   3.702   5.682  1.0889  0.4543  1.0041
 8261SOL     OW36241   0.491   3.640   5.036 -0.6716 -0.0151 -0.2249
 8261SOL    HW136242   0.573   3.636   5.084 -1.0438 -0.6184  0.3615
 8261SOL    HW236243   0.429   3.613   5.104  0.8016 -1.2100  0.6269
 8262SOL     OW36244   0.170   2.236   9.531 -0.0255  0.1892 -0.9121
 8262SOL    HW136245   0.234   2.183   9.579  2.3749  3.5766 -0.2991
 8262SOL    HW236246   0.101   2.170   9.534  1.0285 -0.8627  0.2456
 8263SOL     OW36247   1.218   1.694   4.265 -0.2498  0.2170 -0.2062
 8263SOL    HW136248   1.263   1.742   4.195  1.7723 -0.8344  0.3943
 8263SOL    HW236249   1.133   1.737   4.255  0.1544  1.5484  2.1399
 8264SOL     OW36250   4.275   0.877  10.053 -0.1838  0.8991  0.0048
 8264SOL    HW136251   4.201   0.816  10.048  1.0375 -0.5423 -0.3831
 8264SOL    HW236252   4.336   0.806  10.072  1.6328  2.8937  1.5520
 8265SOL     OW36253   0.949   1.670  16.657 -0.2728  0.3882  0.5319
 8265SOL    HW136254   0.880   1.724  16.618 -1.0711 -0.7303  0.3901
 8265SOL    HW236255   1.013   1.741  16.660 -0.8580  0.8976  0.9893
 8266SOL     OW36256   1.016   2.732   8.044  0.1569 -0.2595 -0.1229
 8266SOL    HW136257   0.958   2.676   8.096  1.0232  2.8825  4.1808
 8266SOL    HW236258   0.956   2.768   7.978  0.9256  0.2746 -0.5297
 8267SOL     OW36259   0.245   4.367  15.741  0.0765 -0.3281  0.3749
 8267SOL    HW136260   0.194   4.287  15.728 -0.5644 -0.0155  1.0160
 8267SOL    HW236261   0.308   4.339  15.808  1.6807 -1.1779 -1.4835
 8268SOL     OW36262   0.648   3.201   7.053 -0.0105 -0.4487  0.3220
 8268SOL    HW136263   0.692   3.240   6.978  0.3182  1.5950  1.6002
 8268SOL    HW236264   0.716   3.135   7.072 -0.4454 -0.8052  0.6346
 8269SOL     OW36265   2.668   0.438   7.791  0.6422  0.0353  0.2301
 8269SOL    HW136266   2.716   0.445   7.873 -0.4259  0.9124  0.7751
 8269SOL    HW236267   2.722   0.369   7.752  0.5136 -0.9445  1.7800
 8270SOL     OW36268   4.398   0.811   0.897 -0.1664 -0.4630 -0.0920
 8270SOL    HW136269   4.346   0.773   0.968 -1.4461  1.4682 -0.0188
 8270SOL    HW236270   4.377   0.749   0.827 -0.4448  1.2409 -1.4898
 8271SOL     OW36271   1.147   2.601   9.398  0.1896 -0.6634  0.5650
 8271SOL    HW136272   1.221   2.543   9.410  0.6248  0.1142  1.6945
 8271SOL    HW236273   1.113   2.577   9.312  3.2538 -0.3706 -0.7177
 8272SOL     OW36274   4.112   2.977   2.093  0.3077 -0.1995  0.5928
 8272SOL    HW136275   4.159   2.901   2.128  1.4402 -0.9682 -2.6020
 8272SOL    HW236276   4.043   2.936   2.041  0.2289  1.1762 -0.3912
 8273SOL     OW36277   4.206   0.461   1.624  0.1993 -0.1543 -0.0299
 8273SOL    HW136278   4.152   0.532   1.590  0.7516 -0.5440 -1.6907
 8273SOL    HW236279   4.280   0.501   1.670 -1.0864  3.5525 -1.1767
 8274SOL     OW36280   4.677   3.639   6.141 -0.1112 -0.9095 -0.5664
 8274SOL    HW136281   4.618   3.608   6.072 -1.2161 -2.4540  1.0678
 8274SOL    HW236282   4.621   3.702   6.186  0.0963 -2.5962  2.1107
 8275SOL     OW36283   0.995   1.462  17.161  0.1496 -0.5819 -0.0558
 8275SOL    HW136284   1.056   1.428  17.095 -0.3573  1.2733 -1.4711
 8275SOL    HW236285   0.917   1.419  17.126 -1.3444  4.1786 -2.5719
 8276SOL     OW36286   2.133   4.683   6.697  0.4028 -0.1034  0.0045
 8276SOL    HW136287   2.101   4.674   6.607 -0.0821  1.1223  0.0577
 8276SOL    HW236288   2.084   0.035   6.735  0.5490  1.0853 -2.0546
 8277SOL     OW36289   0.677   2.087   2.274  0.4828 -0.0125 -0.2034
 8277SOL    HW136290   0.657   2.180   2.264 -0.3821 -0.1218  0.6420
 8277SOL    HW236291   0.747   2.090   2.339 -1.7699 -1.9616  2.2976
 8278SOL     OW36292   4.297   2.885   3.696 -0.2411 -0.3901 -0.0239
 8278SOL    HW136293   4.238   2.932   3.754  2.1937  2.9844 -0.2818
 8278SOL    HW236294   4.363   2.949   3.671  0.7322 -2.2348 -2.1927
 8279SOL     OW36295   2.674   0.219   3.759  0.5511  0.6140  0.7085
 8279SOL    HW136296   2.761   0.181   3.756  0.6409  0.8984 -0.5710
 8279SOL    HW236297   2.663   0.204   3.665  3.0059  1.9267  0.2072
 8280SOL     OW36298   4.062   2.619   8.556 -0.1201 -0.3455  0.4786
 8280SOL    HW136299   4.112   2.687   8.600  0.3144 -0.9951  0.9811
 8280SOL    HW236300   3.970   2.641   8.573  0.3827  1.6112  0.6389
 8281SOL     OW36301   3.923   4.242   3.669 -0.2205  0.7482 -0.1556
 8281SOL    HW136302   3.878   4.282   3.744  1.0955  0.1073  0.9843
 8281SOL    HW236303   3.977   4.317   3.643  2.2902 -1.2031 -0.5589
 8282SOL     OW36304   1.860   1.047   4.326 -0.5966  0.2727 -0.0759
 8282SOL    HW136305   1.832   1.064   4.237  2.3600 -0.3063 -1.1150
 8282SOL    HW236306   1.879   0.954   4.338  0.3818  0.5298  0.4303
 8283SOL     OW36307   3.312   3.561   5.719  0.7461  0.2692 -0.6500
 8283SOL    HW136308   3.264   3.479   5.731  1.7874 -0.0074  1.6758
 8283SOL    HW236309   3.405   3.542   5.731  0.4450 -0.7420  0.1089
 8284SOL     OW36310   0.865   4.334  16.273 -0.1494  0.1070 -0.4663
 8284SOL    HW136311   0.917   4.405  16.308 -0.2178 -0.3191  0.5118
 8284SOL    HW236312   0.931   4.273  16.241 -0.0076 -0.4066  0.7885
 8285SOL     OW36313   0.833   0.967  16.240 -0.2039 -0.1287 -0.1431
 8285SOL    HW136314   0.856   0.881  16.205  2.2539  1.2782 -2.0081
 8285SOL    HW236315   0.771   0.998  16.175  1.2634  0.0705 -1.4615
 8286SOL     OW36316   3.701   0.620  17.470  0.2514  0.2576 -0.0993
 8286SOL    HW136317   3.785   0.587  17.438  0.4428  1.3406 -0.7347
 8286SOL    HW236318   3.660   0.652  17.389  1.1427  1.5003 -0.0595
 8287SOL     OW36319   0.610   2.391   3.788  0.0572  0.1777  0.3524
 8287SOL    HW136320   0.616   2.435   3.703 -2.9495 -1.1032 -0.4927
 8287SOL    HW236321   0.600   2.303   3.751 -1.8899 -0.2609  1.9711
 8288SOL     OW36322   4.281   2.497   7.397 -0.1750 -0.4858 -0.1101
 8288SOL    HW136323   4.314   2.408   7.381 -1.4810 -0.7545 -1.3078
 8288SOL    HW236324   4.355   2.551   7.422 -1.3796  1.4779 -0.8269
 8289SOL     OW36325   4.666   2.345   7.281  0.2541  0.1676  0.0071
 8289SOL    HW136326   4.685   2.340   7.187  1.1084 -1.5046  0.2759
 8289SOL    HW236327   4.714   2.268   7.311 -1.7254 -0.6344  1.0995
 8290SOL     OW36328   3.279   3.296   0.083 -0.2120  0.3191  0.2506
 8290SOL    HW136329   3.331   3.222   0.050 -0.9142  0.2187 -0.6350
 8290SOL    HW236330   3.351   3.343   0.125  0.5002  1.1077 -1.8892
 8291SOL     OW36331   1.587   3.626  10.710  0.3984  0.0742  0.2767
 8291SOL    HW136332   1.660   3.682  10.685 -1.5036  1.4407 -2.2098
 8291SOL    HW236333   1.552   3.683  10.779 -0.8984 -0.9067  0.4428
 8292SOL     OW36334   1.359   3.833   8.444 -0.2487  0.5026 -0.2120
 8292SOL    HW136335   1.317   3.748   8.456 -1.3445  0.7375 -2.4739
 8292SOL    HW236336   1.274   3.873   8.427 -0.0928  0.2394 -1.6024
 8293SOL     OW36337   4.122   4.645   8.120 -0.6081 -0.5327 -0.2961
 8293SOL    HW136338   4.090   4.566   8.164 -0.2211  0.5487  1.9087
 8293SOL    HW236339   4.105   4.712   8.186  0.6591  0.3541 -0.8680
 8294SOL     OW36340   3.801   4.306   3.963  0.5029 -0.2152  0.8219
 8294SOL    HW136341   3.773   4.234   4.019  1.7863 -1.2578  0.1302
 8294SOL    HW236342   3.750   4.379   3.997  1.5402  0.4869  0.8533
 8295SOL     OW36343   4.196   1.468   4.005 -0.2650  0.7560 -0.3638
 8295SOL    HW136344   4.186   1.563   4.010 -1.7179  0.6064 -0.4704
 8295SOL    HW236345   4.153   1.452   4.089  0.1021 -0.8657 -0.4932
 8296SOL     OW36346   3.852   2.725   7.701 -0.0659 -0.1254 -0.6277
 8296SOL    HW136347   3.902   2.650   7.732 -1.0234 -0.8783 -0.8924
 8296SOL    HW236348   3.774   2.722   7.757  0.3139  1.1638 -0.0326
 8297SOL     OW36349   4.145   1.387   6.617 -0.5441  0.3244 -0.3108
 8297SOL    HW136350   4.076   1.420   6.675 -0.7810 -1.1710  0.2747
 8297SOL    HW236351   4.135   1.294   6.640  0.6321  0.2712 -0.0277
 8298SOL     OW36352   1.075   1.822   3.948 -1.1308  0.7666 -0.3059
 8298SOL    HW136353   1.024   1.775   4.014 -1.0505  1.0200 -0.0616
 8298SOL    HW236354   1.147   1.758   3.945 -1.3408  0.4705  1.2026
 8299SOL     OW36355   2.234   3.678   4.146  0.1764  0.2092  0.7028
 8299SOL    HW136356   2.199   3.624   4.075  0.7533  1.6493 -0.6537
 8299SOL    HW236357   2.156   3.686   4.202  0.3577  0.9104  0.8563
 8300SOL     OW36358   1.145   0.016   9.114 -0.0020  0.1554  0.2950
 8300SOL    HW136359   1.229   0.048   9.148  1.3400 -0.9105 -1.9984
 8300SOL    HW236360   1.133   0.071   9.037  0.5583  0.7379  0.6221
 8301SOL     OW36361   4.466   3.410   9.015 -0.3509  0.4167  0.5120
 8301SOL    HW136362   4.496   3.365   9.094  2.0313 -0.2816 -0.7818
 8301SOL    HW236363   4.543   3.455   8.979  0.4799 -1.5353 -0.1131
 8302SOL     OW36364   0.214   2.477   5.185  0.4715 -0.3585  0.7189
 8302SOL    HW136365   0.162   2.495   5.264  1.5808 -0.9315  1.5893
 8302SOL    HW236366   0.185   2.387   5.170  0.0933 -0.5286  2.4299
 8303SOL     OW36367   0.081   1.261   3.029 -0.2647 -0.0399 -0.3732
 8303SOL    HW136368   0.042   1.193   2.974 -1.7164 -0.9503  1.7924
 8303SOL    HW236369   0.120   1.316   2.962 -1.4073  0.8929 -0.2638
 8304SOL     OW36370   3.434   0.176   5.383  0.2495  0.0320 -0.0367
 8304SOL    HW136371   3.442   0.241   5.313 -0.5542  0.1598 -0.0060
 8304SOL    HW236372   3.525   0.160   5.410  0.6140  1.9280 -0.1255
 8305SOL     OW36373   0.252   3.928   6.058  0.0631 -0.1971  0.4815
 8305SOL    HW136374   0.167   3.885   6.050  0.3377 -0.6027 -0.2226
 8305SOL    HW236375   0.239   4.001   5.997  0.1145 -0.0953  0.5925
 8306SOL     OW36376   3.721   3.648   4.337 -0.0013  0.2391  0.4957
 8306SOL    HW136377   3.661   3.712   4.375  0.4449  0.1957  1.2819
 8306SOL    HW236378   3.654   3.586   4.308 -0.1428  1.2097 -1.2441
 8307SOL     OW36379   3.535   4.238   1.869 -0.2165  0.4002  0.3686
 8307SOL    HW136380   3.592   4.177   1.822 -1.7102  0.5839 -1.7254
 8307SOL    HW236381   3.560   4.316   1.820  1.4484 -0.0729  0.4643
 8308SOL     OW36382   1.156   2.556   4.660 -0.0327 -0.5908 -0.4790
 8308SOL    HW136383   1.122   2.642   4.684 -0.0476 -0.6917 -0.1366
 8308SOL    HW236384   1.243   2.547   4.699  0.2316  1.8742 -0.5466
 8309SOL     OW36385   1.123   3.557  11.453 -0.4644  0.1621  0.3880
 8309SOL    HW136386   1.051   3.551  11.515 -1.6314  2.6454 -0.7393
 8309SOL    HW236387   1.144   3.465  11.439 -0.2277 -0.0396  2.0754
 8310SOL     OW36388   4.276   0.476  15.126  0.2667 -0.4298  0.3699
 8310SOL    HW136389   4.238   0.459  15.040  0.4693  0.7124  0.0603
 8310SOL    HW236390   4.211   0.525  15.176 -1.1286 -2.0540  0.1356
 8311SOL     OW36391   4.105   1.961   9.196 -0.0083 -0.1634 -0.2640
 8311SOL    HW136392   4.177   1.899   9.206 -1.9256 -2.3301  0.1719
 8311SOL    HW236393   4.094   2.002   9.282 -1.4308  0.6073 -0.8138
 8312SOL     OW36394   1.965   2.629   0.728  0.4881 -0.0831  0.0503
 8312SOL    HW136395   2.023   2.579   0.671  1.6292 -2.5140  3.3354
 8312SOL    HW236396   2.028   2.630   0.800 -1.9613  0.2934  2.2226
 8313SOL     OW36397   2.225   3.568   7.067 -0.0261  0.4489  0.5917
 8313SOL    HW136398   2.140   3.538   7.100  0.0388  2.5207  2.7030
 8313SOL    HW236399   2.206   3.598   6.978  1.8039 -0.6968 -0.1533
 8314SOL     OW36400   1.725   0.758   8.860  0.0885  0.3930 -0.2913
 8314SOL    HW136401   1.646   0.813   8.863 -0.0304  0.3453 -2.2226
 8314SOL    HW236402   1.721   0.718   8.947  1.4171 -0.3708 -0.5734
 8315SOL     OW36403   0.744   3.502   4.928 -0.0707  0.0276 -0.4362
 8315SOL    HW136404   0.798   3.560   4.981 -0.0607  1.8089 -2.3899
 8315SOL    HW236405   0.685   3.574   4.907 -1.8130 -0.7292  1.9287
 8316SOL     OW36406   0.089   1.828   4.987 -0.4589 -0.2233 -0.2055
 8316SOL    HW136407   0.141   1.907   4.999  1.2493 -1.1589 -1.5131
 8316SOL    HW236408   0.116   1.782   5.067 -1.1274 -1.1811 -0.5264
 8317SOL     OW36409   0.908   2.945   3.623 -0.7214  0.0371 -0.4118
 8317SOL    HW136410   0.845   2.874   3.628  0.0942 -0.6068  0.6268
 8317SOL    HW236411   0.950   2.909   3.545  0.3551 -0.8585  0.5864
 8318SOL     OW36412   0.240   1.411  16.856  0.7286  0.4479  0.1183
 8318SOL    HW136413   0.309   1.417  16.922 -0.4975 -0.0537  1.4393
 8318SOL    HW236414   0.283   1.438  16.774  1.0713 -0.3678  0.0179
 8319SOL     OW36415   1.944   4.043  13.466  0.1416  0.9300 -0.0028
 8319SOL    HW136416   1.953   3.954  13.501 -0.1223  0.1974 -1.7647
 8319SOL    HW236417   2.037   4.062  13.457 -0.3019  1.0000 -4.6659
 8320SOL     OW36418   3.522   2.485   6.433 -0.2892 -0.1099  0.1626
 8320SOL    HW136419   3.534   2.396   6.465  0.8221  0.1148  0.3865
 8320SOL    HW236420   3.548   2.537   6.509  2.0634  1.4156 -1.6989
 8321SOL     OW36421   0.326   0.991   4.403  0.5056 -0.0669 -0.6324
 8321SOL    HW136422   0.400   1.029   4.450 -0.5467  3.0591 -1.4857
 8321SOL    HW236423   0.374   0.942   4.336  1.7607 -0.6595  0.7134
 8322SOL     OW36424   1.736   1.344  15.503 -0.3966  0.0886  0.2161
 8322SOL    HW136425   1.824   1.377  15.524  0.0083 -1.3705  0.8663
 8322SOL    HW236426   1.730   1.365  15.410  0.9014  1.3988  0.4162
 8323SOL     OW36427   4.293   4.133   5.807 -0.6130 -0.2162  0.3778
 8323SOL    HW136428   4.368   4.163   5.857 -0.7602 -2.6132  2.0683
 8323SOL    HW236429   4.324   4.160   5.721 -0.1473 -0.2730  0.5311
 8324SOL     OW36430   2.357   1.668   6.754  0.0847 -0.5114 -0.3354
 8324SOL    HW136431   2.352   1.592   6.697  1.2094 -0.0658 -1.0275
 8324SOL    HW236432   2.443   1.701   6.726 -0.1030  2.6521  2.7674
 8325SOL     OW36433   0.081   1.089   7.385 -0.2258  0.1180 -0.0732
 8325SOL    HW136434   0.092   1.054   7.296 -0.1941 -0.1426  0.0358
 8325SOL    HW236435   0.050   1.175   7.355 -1.0249 -0.8572 -2.0313
 8326SOL     OW36436   1.360   1.607  16.346  0.1219 -0.0544 -0.2735
 8326SOL    HW136437   1.418   1.538  16.314  0.2230 -0.7798  1.5031
 8326SOL    HW236438   1.424   1.676  16.360 -1.9606  1.9423 -0.4418
 8327SOL     OW36439   2.183   1.288   2.208 -0.5200  0.2331  0.6545
 8327SOL    HW136440   2.119   1.255   2.145 -0.1712 -1.5505  1.2335
 8327SOL    HW236441   2.269   1.288   2.167 -1.1624  2.0867 -0.7016
 8328SOL     OW36442   4.329   2.101  15.155 -0.2811  0.0015  0.6177
 8328SOL    HW136443   4.421   2.122  15.171  0.1909 -2.1136  0.6847
 8328SOL    HW236444   4.298   2.187  15.127 -0.8461 -0.5297 -0.3916
 8329SOL     OW36445   0.377   1.942   8.810 -0.6181  0.1573  0.2214
 8329SOL    HW136446   0.454   1.932   8.755 -0.1401  1.2238  0.7004
 8329SOL    HW236447   0.319   1.886   8.757  1.4390 -3.0392  1.3648
 8330SOL     OW36448   3.491   3.184   6.315  0.2709  0.1704  0.3028
 8330SOL    HW136449   3.559   3.143   6.261  0.7738  0.6551  0.5646
 8330SOL    HW236450   3.461   3.108   6.365 -0.0319 -0.3425 -0.6695
 8331SOL     OW36451   0.478   1.648   0.492  0.6734 -0.4586  0.2819
 8331SOL    HW136452   0.465   1.687   0.578  1.2291  1.4405 -0.5066
 8331SOL    HW236453   0.518   1.723   0.450 -0.5364  1.1957  2.0667
 8332SOL     OW36454   3.630   1.022   2.756  0.1742  0.3414 -0.3977
 8332SOL    HW136455   3.598   0.997   2.669  0.5315  3.1401 -1.3175
 8332SOL    HW236456   3.596   1.111   2.763 -1.5050 -0.5043  1.9517
 8333SOL     OW36457   1.177   1.906   6.240 -0.3347 -0.6293 -0.0628
 8333SOL    HW136458   1.171   1.810   6.236 -0.9561 -0.6148  0.6227
 8333SOL    HW236459   1.099   1.930   6.290 -1.0109 -2.8797 -0.0070
 8334SOL     OW36460   1.613   2.598   4.325  0.4431 -0.2967 -0.0462
 8334SOL    HW136461   1.618   2.669   4.261 -1.8582 -0.4246 -0.3792
 8334SOL    HW236462   1.685   2.602   4.388  1.3486 -0.7614 -1.0562
 8335SOL     OW36463   2.769   2.210   8.219 -0.3860  0.3855 -0.1027
 8335SOL    HW136464   2.741   2.261   8.295  2.0028  0.5246  0.7019
 8335SOL    HW236465   2.686   2.163   8.213 -1.2689  1.8994  0.2799
 8336SOL     OW36466   0.554   1.362  11.990 -0.5491  0.7440  0.2062
 8336SOL    HW136467   0.594   1.448  11.976  1.5144 -0.1934  0.3821
 8336SOL    HW236468   0.587   1.339  12.077  0.0415 -0.5491 -0.3579
 8337SOL     OW36469   1.006   2.420   2.910  0.4155  0.0566 -0.2995
 8337SOL    HW136470   1.014   2.464   2.825 -2.6804  1.0178 -0.0762
 8337SOL    HW236471   0.912   2.404   2.914  0.1350  1.6768 -0.1713
 8338SOL     OW36472   4.617   0.626   7.458 -0.1106  0.1651  0.1731
 8338SOL    HW136473   4.645   0.612   7.548  1.1799 -0.5357 -0.3471
 8338SOL    HW236474   4.629   0.537   7.426 -1.1057 -0.0555  0.4133
 8339SOL     OW36475   2.722   4.719   6.873 -0.3525  1.0815 -0.2100
 8339SOL    HW136476   2.767   0.083   6.885  1.8028  0.0908 -1.3493
 8339SOL    HW236477   2.761   4.693   6.790 -4.2051  3.4341 -2.8069
 8340SOL     OW36478   1.969   0.840   0.919 -0.6942  0.0155  0.6020
 8340SOL    HW136479   1.946   0.747   0.914 -3.0632  0.6812 -1.6421
 8340SOL    HW236480   2.041   0.844   0.857 -0.8227  0.2839  0.4649
 8341SOL     OW36481   2.851   2.701   1.037 -0.0750 -0.2344  0.3673
 8341SOL    HW136482   2.942   2.679   1.020 -0.3422 -1.4842  0.5728
 8341SOL    HW236483   2.833   2.643   1.111  0.4503  0.6197  1.1738
 8342SOL     OW36484   2.133   2.616   2.951  0.7441 -0.0101 -0.1315
 8342SOL    HW136485   2.140   2.558   2.875 -1.4053  1.4228 -1.3836
 8342SOL    HW236486   2.220   2.614   2.992  0.6716  0.5782  0.0446
 8343SOL     OW36487   1.519   1.650   8.438 -0.3979 -0.3906 -0.2347
 8343SOL    HW136488   1.450   1.628   8.501 -0.1920  2.5376  1.0089
 8343SOL    HW236489   1.485   1.598   8.365  0.6893  0.2024 -1.1552
 8344SOL     OW36490   0.686   3.336   5.353 -0.1087 -0.5046 -0.4608
 8344SOL    HW136491   0.702   3.247   5.386  2.4967  1.0432  2.5422
 8344SOL    HW236492   0.669   3.315   5.261 -0.9680 -0.3051 -0.3477
 8345SOL     OW36493   3.006   1.971   0.839  0.0878 -0.5723  0.7281
 8345SOL    HW136494   3.074   2.030   0.871 -0.2043  0.5745 -0.7440
 8345SOL    HW236495   3.009   1.903   0.906 -2.0487 -0.6009  0.7944
 8346SOL     OW36496   2.740   0.765   8.030 -0.4265  0.1230  0.0540
 8346SOL    HW136497   2.734   0.831   7.961 -0.6745 -0.1913 -0.2255
 8346SOL    HW236498   2.827   0.729   8.011 -0.1842  0.8042 -0.1105
 8347SOL     OW36499   0.330   2.244   6.547 -0.2994 -0.1230  0.0815
 8347SOL    HW136500   0.334   2.153   6.577  1.1609  0.6205  2.0947
 8347SOL    HW236501   0.411   2.242   6.495  0.2918  1.7649  0.9279
 8348SOL     OW36502   3.741   2.993   8.806 -0.1036  0.2302 -0.0848
 8348SOL    HW136503   3.717   2.972   8.715  1.7795  0.6576 -0.6708
 8348SOL    HW236504   3.831   3.025   8.809  0.0747 -0.3900  0.8998
 8349SOL     OW36505   3.063   2.427  17.476 -0.2952 -0.1935 -0.5551
 8349SOL    HW136506   3.031   2.379  17.552  2.4427 -3.4050 -1.4487
 8349SOL    HW236507   3.125   2.489  17.515 -0.3628 -1.2958  1.2919
 8350SOL     OW36508   1.784   2.346   2.099  0.0030 -0.1186  0.0693
 8350SOL    HW136509   1.707   2.402   2.102  0.8770  0.9360  2.2418
 8350SOL    HW236510   1.736   2.264   2.082  1.5811 -0.7956 -1.1414
 8351SOL     OW36511   3.014   0.800   1.515  0.9082 -0.0718 -0.1394
 8351SOL    HW136512   3.025   0.892   1.491  0.0844  0.2307  0.6780
 8351SOL    HW236513   3.032   0.756   1.432 -0.8296 -0.3139 -0.3691
 8352SOL     OW36514   0.579   2.082   1.317  0.3308  0.2851 -0.0848
 8352SOL    HW136515   0.613   2.124   1.396 -1.3256  1.8308 -0.2192
 8352SOL    HW236516   0.510   2.033   1.361  0.1094  0.6775  0.0026
 8353SOL     OW36517   4.082   3.673  10.808 -0.5035 -0.2298 -0.5048
 8353SOL    HW136518   3.995   3.682  10.847 -0.3980  0.3883 -0.4115
 8353SOL    HW236519   4.138   3.721  10.869 -1.5850  1.8363 -1.1346
 8354SOL     OW36520   1.100   0.817   7.554  0.0411  0.5948 -0.4352
 8354SOL    HW136521   1.036   0.772   7.608  0.9875  1.1654  1.1759
 8354SOL    HW236522   1.181   0.815   7.605  1.1044  1.7634 -2.0382
 8355SOL     OW36523   2.178   4.365  12.489 -0.5285 -0.0204  0.2239
 8355SOL    HW136524   2.263   4.350  12.530  1.0461  2.2404 -2.2275
 8355SOL    HW236525   2.164   4.273  12.465 -0.7890  0.0656  0.0404
 8356SOL     OW36526   0.308   0.356  16.671 -0.0073 -0.0470  0.4484
 8356SOL    HW136527   0.263   0.279  16.708 -0.0293  0.1635  0.8563
 8356SOL    HW236528   0.365   0.308  16.610 -0.5703  1.6774 -1.4364
 8357SOL     OW36529   0.615   3.632   8.734 -0.6732 -0.0169  0.2068
 8357SOL    HW136530   0.648   3.614   8.646  2.4093 -3.9574  2.1761
 8357SOL    HW236531   0.572   3.718   8.733 -2.3423 -0.8724 -0.6857
 8358SOL     OW36532   2.803   0.777   9.231  0.7194 -0.0416 -0.0158
 8358SOL    HW136533   2.771   0.688   9.222  1.9886 -0.4719 -0.2102
 8358SOL    HW236534   2.733   0.829   9.191  1.4460 -0.7922 -2.2257
 8359SOL     OW36535   0.521   3.033   4.292 -0.5587  0.2317  0.2802
 8359SOL    HW136536   0.491   2.943   4.305  0.4828 -0.1424  0.0920
 8359SOL    HW236537   0.519   3.068   4.381  2.8329 -0.8290  0.7660
 8360SOL     OW36538   3.521   1.144   0.310  0.2997  0.1195 -0.2747
 8360SOL    HW136539   3.495   1.235   0.295  1.3285  0.4267 -0.1964
 8360SOL    HW236540   3.539   1.133   0.216 -3.2678 -0.4310 -0.9199
 8361SOL     OW36541   2.696   0.400   6.598 -0.4258  0.3699  0.0717
 8361SOL    HW136542   2.631   0.346   6.555 -2.6077  0.3390  3.4073
 8361SOL    HW236543   2.658   0.411   6.685  2.1863  2.6501  0.9533
 8362SOL     OW36544   1.168   2.822   7.795 -0.6134 -0.2573 -0.2667
 8362SOL    HW136545   1.092   2.879   7.783 -1.0078 -0.1064  2.9731
 8362SOL    HW236546   1.147   2.774   7.875  2.1362 -0.5092  0.2936
 8363SOL     OW36547   0.773   1.537   4.657  0.2162 -0.6139  0.5084
 8363SOL    HW136548   0.706   1.481   4.619 -1.2232  1.6856 -0.3836
 8363SOL    HW236549   0.785   1.599   4.585  0.8213 -2.5470 -1.0193
 8364SOL     OW36550   0.451   0.454   5.981  0.3904 -0.2891  0.3498
 8364SOL    HW136551   0.432   0.397   5.906  0.0448 -0.8799  0.8893
 8364SOL    HW236552   0.440   0.392   6.052 -0.6672  0.0633  0.5003
 8365SOL     OW36553   2.812   1.294   8.627 -0.1554 -0.2851 -0.2851
 8365SOL    HW136554   2.803   1.336   8.542 -0.1368 -0.2520 -0.2709
 8365SOL    HW236555   2.895   1.330   8.660 -0.9866  1.6721 -0.3503
 8366SOL     OW36556   3.541   3.243   1.021 -0.1455 -0.0564  0.1674
 8366SOL    HW136557   3.552   3.150   1.002  0.7432  0.4647 -1.8716
 8366SOL    HW236558   3.633   3.265   1.033 -0.7665  1.4075  2.2505
 8367SOL     OW36559   3.083   2.505  11.895  0.3082  0.2803  0.4989
 8367SOL    HW136560   3.051   2.443  11.961  1.5896 -1.9131 -0.9274
 8367SOL    HW236561   3.130   2.569  11.949 -2.1971  0.0227  2.9544
 8368SOL     OW36562   4.563   2.887   5.812  0.4988  0.5785  0.1492
 8368SOL    HW136563   4.608   2.968   5.787  2.6859 -0.6645  0.0248
 8368SOL    HW236564   4.639   2.851   5.857 -0.3082 -0.1927  0.8943
 8369SOL     OW36565   3.176   1.090   5.911 -0.2095  0.4675 -0.4859
 8369SOL    HW136566   3.219   1.176   5.916  0.9728 -0.0362 -2.0009
 8369SOL    HW236567   3.208   1.058   5.827  1.5560 -1.4442  0.9310
 8370SOL     OW36568   3.308   4.307   5.211  0.0819  0.5961  0.7605
 8370SOL    HW136569   3.242   4.354   5.161  0.0821 -0.0170  0.1724
 8370SOL    HW236570   3.244   4.239   5.233 -1.5362  0.8837 -3.1081
 8371SOL     OW36571   4.699   3.341  16.065 -0.1402 -0.5757 -0.5307
 8371SOL    HW136572   4.703   3.388  16.149 -2.4228 -0.5030 -0.4627
 8371SOL    HW236573   4.633   3.404  16.036 -0.3169 -1.9026 -2.9403
 8372SOL     OW36574   1.082   2.441  10.172 -0.1544  0.3360  0.1863
 8372SOL    HW136575   1.174   2.466  10.158  1.1654 -1.9771  4.5845
 8372SOL    HW236576   1.083   2.399  10.258 -1.9196 -1.6681 -0.7757
 8373SOL     OW36577   3.415   3.072   4.720  0.1866 -0.1475  0.3080
 8373SOL    HW136578   3.397   3.089   4.628 -0.8795 -1.4977  0.2650
 8373SOL    HW236579   3.338   3.018   4.741  0.3950 -0.0129  1.4529
 8374SOL     OW36580   0.477   0.631   1.199 -0.0802  0.3450 -0.2178
 8374SOL    HW136581   0.555   0.668   1.159 -0.2338 -0.7770 -1.5790
 8374SOL    HW236582   0.493   0.649   1.292 -2.5849 -0.1763  0.3046
 8375SOL     OW36583   2.446   1.040  17.226 -0.2381 -0.1234  0.1771
 8375SOL    HW136584   2.377   0.984  17.262  0.6210 -1.7161 -0.7102
 8375SOL    HW236585   2.532   1.004  17.246 -0.4812 -0.7577  0.0922
 8376SOL     OW36586   1.714   1.840  10.239  0.3731  0.3054  0.0980
 8376SOL    HW136587   1.771   1.801  10.172  0.2911 -2.3012  1.5633
 8376SOL    HW236588   1.741   1.931  10.226  0.8306  0.2866  0.9526
 8377SOL     OW36589   1.449   0.182  16.893 -0.2110  0.3108  0.1003
 8377SOL    HW136590   1.433   0.269  16.930 -1.3211 -0.0947  0.5601
 8377SOL    HW236591   1.488   0.134  16.966 -1.1940  0.0593  0.4612
 8378SOL     OW36592   0.401   3.410  14.335  0.0147  0.1726 -0.0212
 8378SOL    HW136593   0.334   3.450  14.279 -0.7751  0.3628  1.0486
 8378SOL    HW236594   0.393   3.333  14.279 -0.1104 -0.8611  1.4086
 8379SOL     OW36595   1.162   3.119  11.640 -0.8090 -0.1976 -0.1799
 8379SOL    HW136596   1.175   3.040  11.588  2.3185  1.9585 -2.6582
 8379SOL    HW236597   1.158   3.180  11.567 -3.4066 -1.0860 -0.7621
 8380SOL     OW36598   2.931   2.715   9.004  0.1321  0.1130 -0.2962
 8380SOL    HW136599   3.001   2.745   8.946  1.0986  0.7690  1.2388
 8380SOL    HW236600   2.961   2.628   9.030  0.7956 -0.3583 -2.6569
 8381SOL     OW36601   0.399   3.988  11.379  0.3338  0.2522  0.2777
 8381SOL    HW136602   0.310   4.008  11.352  0.9018  0.5177 -1.4321
 8381SOL    HW236603   0.439   4.071  11.351  3.3210 -0.9402  0.9619
 8382SOL     OW36604   2.728   0.866   0.725 -0.3802  0.1750  0.3459
 8382SOL    HW136605   2.771   0.876   0.810  0.1455 -1.6017  0.2852
 8382SOL    HW236606   2.745   0.954   0.690 -0.3793 -0.2765 -0.7943
 8383SOL     OW36607   0.219   3.200   4.877  0.6883 -0.0984 -0.3338
 8383SOL    HW136608   0.161   3.190   4.801 -1.6250  0.5205  1.3580
 8383SOL    HW236609   0.183   3.133   4.935  1.1338 -0.4993 -0.5137
 8384SOL     OW36610   1.386   4.034  13.853 -0.5739  0.5301 -0.0019
 8384SOL    HW136611   1.345   4.117  13.826 -3.0768 -0.5240  0.6024
 8384SOL    HW236612   1.336   4.006  13.929  0.0740  0.8751  0.5512
 8385SOL     OW36613   1.527   3.249   5.171 -0.0092 -0.2962  0.7750
 8385SOL    HW136614   1.470   3.319   5.204  1.1728  0.5718  0.9981
 8385SOL    HW236615   1.603   3.251   5.229 -0.0456  0.5291  0.7913
 8386SOL     OW36616   2.184   3.781  13.146 -0.3182  0.0080  0.1489
 8386SOL    HW136617   2.222   3.868  13.135  1.9162 -0.9828  0.0870
 8386SOL    HW236618   2.218   3.760  13.232 -0.1929 -1.3696 -0.2347
 8387SOL     OW36619   4.186   3.542  11.918 -0.1638  0.7467 -0.4574
 8387SOL    HW136620   4.170   3.505  12.004  1.3989  0.2365 -0.3840
 8387SOL    HW236621   4.098   3.552  11.881  0.3926  0.1397 -1.9825
 8388SOL     OW36622   2.097   0.090   5.159 -0.0142 -0.1387  0.3527
 8388SOL    HW136623   2.055   0.004   5.165 -0.0195 -0.1037  0.7780
 8388SOL    HW236624   2.150   0.089   5.238  1.8662  0.0501 -0.9022
 8389SOL     OW36625   0.022   4.131   5.098 -0.5268 -0.3866 -0.1947
 8389SOL    HW136626   0.103   4.138   5.047  0.7572  0.6549  2.0043
 8389SOL    HW236627   0.035   4.150   5.191 -0.4931 -1.1368 -0.0474
 8390SOL     OW36628   1.060   4.384   0.349 -0.2142 -0.0785  0.2948
 8390SOL    HW136629   0.989   4.410   0.290  0.2096 -2.2959 -1.1678
 8390SOL    HW236630   1.132   4.446   0.335  0.0118 -0.5910 -0.8359
 8391SOL     OW36631   0.499   3.334  16.715 -0.0249  0.4857  0.1548
 8391SOL    HW136632   0.570   3.280  16.680 -0.4002 -0.4107  0.7796
 8391SOL    HW236633   0.543   3.371  16.792 -1.6122 -0.0288  1.3106
 8392SOL     OW36634   0.185   3.392   2.158  0.2487  0.0983  0.0758
 8392SOL    HW136635   0.127   3.355   2.224  0.3010 -1.9891 -1.0534
 8392SOL    HW236636   0.222   3.312   2.121  1.0745 -1.2585  3.7933
 8393SOL     OW36637   4.426   2.859  12.315 -0.0161  0.8874  0.1286
 8393SOL    HW136638   4.484   2.855  12.240  0.0921  0.0475  0.2588
 8393SOL    HW236639   4.458   2.803  12.385 -0.0305  1.0965  0.3042
 8394SOL     OW36640   4.094   3.549   8.287  0.2475  0.1118 -0.1838
 8394SOL    HW136641   4.032   3.509   8.225  0.1844 -1.3916  0.8631
 8394SOL    HW236642   4.142   3.470   8.310 -1.1086 -1.2911 -2.1548
 8395SOL     OW36643   0.988   0.945  17.459 -0.2397  0.0422 -0.4732
 8395SOL    HW136644   0.948   0.886  17.395  2.0849 -1.4931 -0.5092
 8395SOL    HW236645   1.071   0.964  17.414  0.4140  0.0319  0.7101
 8396SOL     OW36646   4.162   4.446   4.892  0.1098 -0.1434 -0.2993
 8396SOL    HW136647   4.194   4.370   4.845 -0.1465 -1.1838  1.1999
 8396SOL    HW236648   4.096   4.406   4.949 -0.7061 -1.3451 -2.0800
 8397SOL     OW36649   3.867   0.847   7.527 -0.8480 -0.4173 -0.0457
 8397SOL    HW136650   3.826   0.849   7.613  0.0156 -2.9097  0.4032
 8397SOL    HW236651   3.895   0.939   7.522  2.9391 -1.5128  0.8994
 8398SOL     OW36652   4.116   3.847  11.396 -0.4931  0.0485  0.3059
 8398SOL    HW136653   4.150   3.760  11.416 -0.7507  0.0871  0.9316
 8398SOL    HW236654   4.048   3.854  11.463 -0.4764 -1.2086  0.4524
 8399SOL     OW36655   3.709   2.596   4.277 -0.5090  0.0746 -0.0466
 8399SOL    HW136656   3.671   2.508   4.276  0.9259 -0.5421  0.2365
 8399SOL    HW236657   3.736   2.606   4.186  1.6606 -0.9434  0.4797
 8400SOL     OW36658   2.030   2.278   2.902  0.3647  0.1836 -0.3603
 8400SOL    HW136659   1.973   2.201   2.904  1.0165 -0.2289  2.1316
 8400SOL    HW236660   2.108   2.230   2.929  1.4695  1.4102 -1.3878
 8401SOL     OW36661   0.550   0.932   4.227 -0.2125 -0.6321  0.0341
 8401SOL    HW136662   0.544   0.840   4.202  2.4054 -1.1938  1.5679
 8401SOL    HW236663   0.628   0.956   4.177 -0.5985 -0.2880 -0.4146
 8402SOL     OW36664   3.299   4.685   3.527 -0.3863  0.1356  0.7027
 8402SOL    HW136665   3.345   0.036   3.572 -1.0500  0.2331  1.2321
 8402SOL    HW236666   3.214   0.005   3.511 -0.6761 -0.0229  1.8379
 8403SOL     OW36667   0.934   2.234   3.643 -0.4432  0.2877 -0.2993
 8403SOL    HW136668   0.871   2.186   3.696 -0.5401  0.0983 -0.5901
 8403SOL    HW236669   1.015   2.196   3.676  0.0050  0.9103 -0.6804
 8404SOL     OW36670   2.165   1.908   5.232  0.5445 -0.2244 -0.2092
 8404SOL    HW136671   2.203   1.986   5.273  1.6225  0.5898 -2.7831
 8404SOL    HW236672   2.217   1.841   5.277  2.6803  0.3865 -1.7381
 8405SOL     OW36673   3.658   3.887   7.013  0.5319 -0.1558  0.0136
 8405SOL    HW136674   3.611   3.843   6.943 -0.0562 -0.2768  0.4859
 8405SOL    HW236675   3.714   3.818   7.048 -0.5048  0.1156  2.2223
 8406SOL     OW36676   3.715   4.239  11.092 -0.0740 -0.2884  0.3812
 8406SOL    HW136677   3.691   4.152  11.125 -0.7848 -0.6022 -0.9495
 8406SOL    HW236678   3.756   4.214  11.009 -0.6828 -2.1275  0.6208
 8407SOL     OW36679   2.990   3.902   9.802  0.2021 -0.4952  0.1818
 8407SOL    HW136680   2.940   3.984   9.794  1.0335 -0.0888 -0.8095
 8407SOL    HW236681   2.928   3.847   9.754 -0.2202  1.3239 -1.3608
 8408SOL     OW36682   3.317   4.687   4.287  0.5767 -0.2825  0.6086
 8408SOL    HW136683   3.372   4.646   4.220 -2.7016 -2.5139 -0.7215
 8408SOL    HW236684   3.238   4.706   4.235  0.8449  0.2812  0.4174
 8409SOL     OW36685   4.649   3.366   3.621 -0.2128  0.2993  0.1474
 8409SOL    HW136686   4.683   3.372   3.710 -0.5154  0.5453  0.2486
 8409SOL    HW236687   4.566   3.318   3.626 -0.6215  1.3064  3.1918
 8410SOL     OW36688   4.066   2.190   8.360  0.8328  0.1558 -0.7041
 8410SOL    HW136689   4.101   2.101   8.360 -1.9106 -0.9452  0.0764
 8410SOL    HW236690   4.001   2.188   8.431  0.8550  0.7884 -0.6622
 8411SOL     OW36691   0.463   3.859   5.493 -0.1677 -0.7313 -0.0256
 8411SOL    HW136692   0.387   3.853   5.435  0.1489  0.3500 -0.5450
 8411SOL    HW236693   0.520   3.896   5.426 -2.3589  2.2854 -0.2001
 8412SOL     OW36694   1.856   2.241  11.975  0.6202  0.0050  0.6539
 8412SOL    HW136695   1.911   2.254  11.898 -0.1830  1.3480  0.2925
 8412SOL    HW236696   1.895   2.292  12.046  1.1141 -0.5415  0.7694
 8413SOL     OW36697   0.366   2.106   9.686 -0.1583 -0.1008 -0.2196
 8413SOL    HW136698   0.317   2.130   9.765 -4.4426 -1.5689 -2.4333
 8413SOL    HW236699   0.428   2.178   9.688  0.5355 -0.6943 -0.2096
 8414SOL     OW36700   0.400   2.095   5.258  0.3180  0.1059  0.7141
 8414SOL    HW136701   0.461   2.156   5.214 -1.4966 -0.4867 -2.6180
 8414SOL    HW236702   0.408   2.132   5.346 -0.3935  0.2069  0.7298
 8415SOL     OW36703   1.779   2.092  12.228  0.3028  0.0090 -0.0597
 8415SOL    HW136704   1.750   2.041  12.153  2.0076  3.1300 -2.8765
 8415SOL    HW236705   1.865   2.126  12.203  0.2737  0.2575  0.1750
 8416SOL     OW36706   2.089   4.381   3.502 -0.3495  0.7221  0.7651
 8416SOL    HW136707   2.016   4.433   3.468  0.6861  0.2878 -2.1258
 8416SOL    HW236708   2.131   4.437   3.568 -1.2762  1.3899  0.7935
 8417SOL     OW36709   4.147   1.432   3.506 -0.6174 -0.6766  0.8119
 8417SOL    HW136710   4.231   1.436   3.551  0.2632 -1.3112 -0.7819
 8417SOL    HW236711   4.096   1.444   3.587 -0.8690  1.3307  0.3724
 8418SOL     OW36712   2.730   2.964   6.654  0.9607  0.6721  0.0467
 8418SOL    HW136713   2.696   3.047   6.688  1.9826  1.8189 -1.7641
 8418SOL    HW236714   2.796   2.949   6.722  1.1771  2.5278  0.2461
 8419SOL     OW36715   3.813   1.605   7.223  0.2162  0.0750  0.0487
 8419SOL    HW136716   3.872   1.532   7.243 -3.5349 -2.7951  0.5805
 8419SOL    HW236717   3.879   1.671   7.202 -1.1621  1.7123  0.9149
 8420SOL     OW36718   0.504   0.218  12.513 -0.2909 -0.1561  0.0742
 8420SOL    HW136719   0.487   0.163  12.589 -0.4571 -0.0613  0.1060
 8420SOL    HW236720   0.599   0.207  12.507 -0.2108  0.5131  0.2280
 8421SOL     OW36721   1.699   1.253   6.041  0.0526 -0.1841  0.2955
 8421SOL    HW136722   1.714   1.203   5.960  0.7218 -0.9632  0.8962
 8421SOL    HW236723   1.794   1.258   6.052 -0.2553  1.9032  2.0295
 8422SOL     OW36724   1.539   3.499  12.962  0.4110  0.2012 -0.1884
 8422SOL    HW136725   1.472   3.554  12.923 -0.1010  0.0242  0.4380
 8422SOL    HW236726   1.576   3.460  12.882  0.2856  0.3064 -0.2967
 8423SOL     OW36727   3.106   4.494  17.195 -0.1708  0.3695  0.1266
 8423SOL    HW136728   3.150   4.473  17.278 -3.4245 -2.8191  1.0472
 8423SOL    HW236729   3.177   4.544  17.154 -0.7830 -0.6536 -2.1711
 8424SOL     OW36730   2.083   0.300   4.951 -0.3786 -0.5664  0.0165
 8424SOL    HW136731   2.083   0.235   5.022  4.7544  0.5254  0.9910
 8424SOL    HW236732   2.020   0.247   4.902 -0.3553 -1.1114  0.5830
 8425SOL     OW36733   3.708   1.841   5.607 -0.0643 -0.4746  0.2061
 8425SOL    HW136734   3.685   1.931   5.582  3.1861  0.3502  0.2280
 8425SOL    HW236735   3.667   1.832   5.693  1.7513  0.8566  1.1904
 8426SOL     OW36736   1.441   1.386   7.568 -0.0798  0.2459  0.2850
 8426SOL    HW136737   1.380   1.454   7.539  0.4343  0.6012  0.0305
 8426SOL    HW236738   1.513   1.432   7.611  0.5516  0.6844 -1.2329
 8427SOL     OW36739   0.884   2.546   9.678 -0.2138  0.5813 -0.1729
 8427SOL    HW136740   0.966   2.594   9.691  1.5318 -2.3068 -0.5903
 8427SOL    HW236741   0.876   2.508   9.765  1.6440  0.8584  0.1280
 8428SOL     OW36742   3.700   2.360   5.948 -0.6589 -0.4524 -0.7195
 8428SOL    HW136743   3.657   2.413   6.014 -0.4802 -1.7111  0.4213
 8428SOL    HW236744   3.784   2.406   5.950  0.1383 -2.0305  2.6911
 8429SOL     OW36745   3.118   1.387   1.978 -0.3236  0.6683  0.0922
 8429SOL    HW136746   3.106   1.439   2.057  0.2515  0.5044  0.2923
 8429SOL    HW236747   3.145   1.307   2.023 -0.2689  0.1659 -0.8279
 8430SOL     OW36748   3.358   4.362  17.618 -0.6668 -0.1349  0.1236
 8430SOL    HW136749   3.414   4.430  17.658 -2.9743  1.1059  1.2266
 8430SOL    HW236750   3.315   4.417  17.553 -1.3110  1.9782  2.3001
 8431SOL     OW36751   3.906   4.632   8.648  0.2335  0.3435 -0.4533
 8431SOL    HW136752   3.908   4.538   8.667  2.3553  0.3263 -0.7711
 8431SOL    HW236753   3.856   4.668   8.721 -0.2435  0.8855 -1.0500
 8432SOL     OW36754   4.636   3.900   3.168  0.4569  0.0061  0.0773
 8432SOL    HW136755   4.627   3.817   3.215 -0.7522  0.2644  0.3120
 8432SOL    HW236756   4.624   3.861   3.081  0.9969 -0.1138  0.0603
 8433SOL     OW36757   3.203   1.508  11.377 -0.1721 -0.0314  0.0226
 8433SOL    HW136758   3.230   1.592  11.341 -2.1577  1.1476  1.2532
 8433SOL    HW236759   3.177   1.459  11.299  0.3225  1.5805 -1.1564
 8434SOL     OW36760   3.030   0.172  12.218  0.4171 -0.5658 -0.1742
 8434SOL    HW136761   2.996   0.257  12.190 -0.1286 -0.1761  1.6360
 8434SOL    HW236762   3.080   0.143  12.142 -1.2788  0.4203 -1.6534
 8435SOL     OW36763   2.021   4.508   4.675  0.2432 -0.3422  0.1003
 8435SOL    HW136764   1.990   4.503   4.766  1.3675  0.9416  0.5518
 8435SOL    HW236765   1.939   4.527   4.630  0.1906 -2.5080 -0.7309
 8436SOL     OW36766   2.987   1.962   7.157 -0.6289  0.2022 -0.0643
 8436SOL    HW136767   3.041   2.037   7.179  0.4282 -1.1721  2.0504
 8436SOL    HW236768   2.986   1.896   7.227  2.3755  0.9056  0.6431
 8437SOL     OW36769   4.254   2.628  10.114 -0.2876  0.7038  0.3047
 8437SOL    HW136770   4.347   2.609  10.130 -0.8112 -0.2429  2.2077
 8437SOL    HW236771   4.252   2.724  10.110 -2.2727  0.5806 -1.4834
 8438SOL     OW36772   0.701   0.771   7.376 -0.1284 -0.0700  0.1382
 8438SOL    HW136773   0.726   0.744   7.287 -1.0197 -1.1981  0.2337
 8438SOL    HW236774   0.691   0.692   7.429  2.2426 -0.3086  0.2356
 8439SOL     OW36775   0.735   1.195   2.814 -0.0514  0.0330 -0.4058
 8439SOL    HW136776   0.656   1.211   2.865 -0.5785  0.5320 -1.3639
 8439SOL    HW236777   0.773   1.121   2.860  1.7532  1.3919  0.2693
 8440SOL     OW36778   3.675   1.326  16.161  0.0792 -0.0054  0.9230
 8440SOL    HW136779   3.684   1.329  16.065 -1.0608  0.3758  0.8296
 8440SOL    HW236780   3.758   1.365  16.189 -0.0107  0.3809  0.6671
 8441SOL     OW36781   4.348   2.942   7.608 -0.4833 -0.0954 -0.2719
 8441SOL    HW136782   4.319   2.908   7.692 -2.2393  0.8059 -0.5216
 8441SOL    HW236783   4.265   2.921   7.566  1.3331 -2.5242 -2.6695
 8442SOL     OW36784   1.188   4.161   5.932  0.3215  0.2967  0.0909
 8442SOL    HW136785   1.147   4.208   5.860 -0.5404  0.5420  0.7443
 8442SOL    HW236786   1.183   4.072   5.896  1.3487  0.4005 -0.2936
 8443SOL     OW36787   0.854   3.424   3.999 -0.2046 -1.0151 -0.0603
 8443SOL    HW136788   0.862   3.347   4.055 -0.7137  0.0712  1.5210
 8443SOL    HW236789   0.934   3.465   4.032 -0.4047 -0.7397  0.0867
 8444SOL     OW36790   2.135   4.074  14.446 -0.1570  0.0957  0.0951
 8444SOL    HW136791   2.094   4.079  14.533 -1.4849 -1.7319 -0.4274
 8444SOL    HW236792   2.144   4.169  14.440 -3.5466  0.3563 -0.5063
 8445SOL     OW36793   4.166   3.484  14.054 -0.6309 -0.4138  0.4858
 8445SOL    HW136794   4.227   3.411  14.046  0.5976  0.3912  2.3308
 8445SOL    HW236795   4.102   3.456  13.989 -1.3025  2.1378  0.0502
 8446SOL     OW36796   0.530   1.877   4.853 -0.1271  0.3072  0.7962
 8446SOL    HW136797   0.480   1.958   4.844 -0.5815 -0.1320 -0.5419
 8446SOL    HW236798   0.550   1.858   4.761 -0.2479  2.2451  0.3650
 8447SOL     OW36799   4.362   4.667  16.436 -0.4278  0.0282 -0.0976
 8447SOL    HW136800   4.303   0.011  16.396 -1.2013 -0.4527  0.2864
 8447SOL    HW236801   4.355   4.597  16.371 -1.7243  0.5974 -0.5760
 8448SOL     OW36802   2.915   3.853   2.505  0.4476 -0.0803  0.1996
 8448SOL    HW136803   2.879   3.764   2.499 -0.0358  0.1693 -0.5973
 8448SOL    HW236804   2.951   3.859   2.594  0.9211  2.1352 -0.1513
 8449SOL     OW36805   2.965   4.361   3.829 -0.4454 -0.6017  0.7717
 8449SOL    HW136806   2.888   4.399   3.786 -0.0869 -1.0926 -0.3301
 8449SOL    HW236807   2.943   4.387   3.918  4.1465 -0.7801  1.9842
 8450SOL     OW36808   1.970   3.365  13.177 -0.4540  0.4523  0.3072
 8450SOL    HW136809   2.059   3.354  13.144 -0.3884  1.0310  0.2894
 8450SOL    HW236810   1.935   3.444  13.135  0.8795  1.2060  0.6143
 8451SOL     OW36811   2.111   2.323  17.054 -0.5260  0.1582  0.1642
 8451SOL    HW136812   2.200   2.318  17.087 -1.4840  0.0724  2.7021
 8451SOL    HW236813   2.081   2.397  17.106 -0.2984 -0.3846  1.0595
 8452SOL     OW36814   4.342   0.760  12.818 -0.5854 -0.5375 -0.3243
 8452SOL    HW136815   4.378   0.676  12.790 -0.9971 -0.5342 -0.8645
 8452SOL    HW236816   4.248   0.757  12.801 -0.3709  3.2264 -2.2695
 8453SOL     OW36817   1.925   2.959   7.915 -0.0344  0.1547 -0.0577
 8453SOL    HW136818   1.907   2.917   7.831 -0.1494  0.7412 -0.3318
 8453SOL    HW236819   1.871   3.038   7.906 -0.2023  0.0374 -0.0733
 8454SOL     OW36820   3.584   3.730  12.949 -0.7656 -0.1897  0.3439
 8454SOL    HW136821   3.523   3.704  12.880  1.1144  0.0383 -1.3972
 8454SOL    HW236822   3.627   3.648  12.973  0.4952  0.9159  1.8876
 8455SOL     OW36823   0.775   0.029   7.801 -0.0371  0.1421 -0.4140
 8455SOL    HW136824   0.703   0.069   7.751 -0.4538  0.6849  0.6032
 8455SOL    HW236825   0.848   0.086   7.777  0.4546 -0.7922 -1.0866
 8456SOL     OW36826   1.799   3.345   6.604 -0.1920 -0.2181  0.5160
 8456SOL    HW136827   1.790   3.284   6.678 -0.4770 -2.1100 -1.0633
 8456SOL    HW236828   1.840   3.426   6.632  0.7352 -0.2505 -0.7244
 8457SOL     OW36829   3.132   3.470   4.624 -0.0644 -0.0679 -0.1743
 8457SOL    HW136830   3.146   3.480   4.718  1.4702 -0.9488 -0.2964
 8457SOL    HW236831   3.094   3.555   4.605  1.5896  0.4796 -0.9974
 8458SOL     OW36832   4.299   2.174   2.722 -0.2916  0.2607  0.2903
 8458SOL    HW136833   4.365   2.173   2.791  1.2425 -1.5652 -1.2100
 8458SOL    HW236834   4.235   2.115   2.763  0.1825  0.1011  0.8050
 8459SOL     OW36835   0.799   2.432   1.359 -0.0348 -0.1057  0.3864
 8459SOL    HW136836   0.758   2.456   1.443 -1.8677 -0.4208 -0.4201
 8459SOL    HW236837   0.857   2.362   1.389 -0.8993 -1.0627 -0.1676
 8460SOL     OW36838   2.218   3.576   6.397  0.5092  0.1644 -0.2178
 8460SOL    HW136839   2.163   3.543   6.327  1.1304  1.1929 -1.1907
 8460SOL    HW236840   2.300   3.532   6.377  0.0490 -0.9314  0.3311
 8461SOL     OW36841   3.676   4.601   8.329 -0.3385 -0.4597  0.1645
 8461SOL    HW136842   3.755   4.653   8.316 -1.2492  1.3619  1.8978
 8461SOL    HW236843   3.703   4.511   8.310  0.2256 -0.7056  2.0381
 8462SOL     OW36844   2.578   4.590   2.986 -0.3761  0.1074 -0.1844
 8462SOL    HW136845   2.670   4.592   3.011 -1.0664 -1.4981  2.5138
 8462SOL    HW236846   2.563   4.509   2.936 -1.3592 -0.8494  1.6616
 8463SOL     OW36847   0.711   0.855  17.373  0.5234  0.3414 -0.0308
 8463SOL    HW136848   0.649   0.802  17.324 -0.0411 -0.8025  1.9414
 8463SOL    HW236849   0.749   0.790  17.432 -1.1935 -1.9539 -1.4689
 8464SOL     OW36850   3.139   0.348   6.747 -0.3193  0.4449 -0.1411
 8464SOL    HW136851   3.045   0.362   6.762 -0.6001 -0.7964 -0.7449
 8464SOL    HW236852   3.146   0.256   6.769  1.1002  0.5654 -0.1091
 8465SOL     OW36853   2.417   4.216  10.696 -0.1509  0.3505  0.0428
 8465SOL    HW136854   2.423   4.301  10.651  0.0583  0.2333 -0.1479
 8465SOL    HW236855   2.339   4.171  10.665  0.1783 -1.9779  2.5647
 8466SOL     OW36856   2.544   1.786   4.660 -0.1035 -0.0556 -0.1211
 8466SOL    HW136857   2.456   1.753   4.639 -0.6755  0.9039  0.7332
 8466SOL    HW236858   2.608   1.716   4.664 -2.1146 -1.8632  0.3896
 8467SOL     OW36859   3.955   3.915   6.901 -0.1697  0.8902 -0.8947
 8467SOL    HW136860   3.978   3.830   6.937  0.4562  0.4025 -2.4228
 8467SOL    HW236861   3.941   3.967   6.980  0.4118  0.7116 -0.6692
 8468SOL     OW36862   0.431   3.310  11.995  0.0531 -1.1386  0.8487
 8468SOL    HW136863   0.428   3.215  11.998 -0.8112 -1.1384 -0.0335
 8468SOL    HW236864   0.338   3.328  11.981  0.8056  1.3266 -1.0317
 8469SOL     OW36865   4.063   1.260  13.194 -0.3896 -0.3959  0.1640
 8469SOL    HW136866   4.023   1.332  13.144  0.2667  0.8785  1.4985
 8469SOL    HW236867   4.092   1.203  13.122 -1.9947 -1.2098  0.1559
 8470SOL     OW36868   1.967   4.672   2.328  0.1626  0.3210  0.3599
 8470SOL    HW136869   1.943   0.001   2.250  0.6666 -0.1159 -0.0671
 8470SOL    HW236870   1.905   4.599   2.322 -0.8746  1.1871  0.5518
 8471SOL     OW36871   2.593   4.082   7.802  0.3866  0.4729 -0.1617
 8471SOL    HW136872   2.574   4.105   7.893 -0.8198 -0.2280 -0.2399
 8471SOL    HW236873   2.646   4.158   7.778 -2.8226  2.5611 -0.6265
 8472SOL     OW36874   0.281   4.569   4.994  0.2525 -0.5165 -0.3075
 8472SOL    HW136875   0.284   4.537   5.084 -1.6030 -1.7955 -0.7252
 8472SOL    HW236876   0.186   4.576   4.997  0.6660  3.4372  4.7243
 8473SOL     OW36877   0.174   3.971   2.931  0.5610  0.2568 -0.1849
 8473SOL    HW136878   0.157   4.063   2.948 -1.1548 -0.5380  2.3665
 8473SOL    HW236879   0.240   3.978   2.861  1.3853 -0.0397  0.5611
 8474SOL     OW36880   3.641   2.335   2.376 -0.5919  0.5754  0.0907
 8474SOL    HW136881   3.556   2.292   2.365 -0.5516 -0.1322  2.6750
 8474SOL    HW236882   3.694   2.258   2.354  0.3549  0.3031  3.3186
 8475SOL     OW36883   0.200   1.730  16.243  0.5703  0.4619  0.1263
 8475SOL    HW136884   0.165   1.802  16.294 -1.0221  0.2751 -0.7024
 8475SOL    HW236885   0.272   1.768  16.191 -0.4568  3.4821  0.9222
 8476SOL     OW36886   1.499   0.617   2.136  0.3469 -0.0876  0.4642
 8476SOL    HW136887   1.565   0.549   2.122  3.9685  3.1427  1.5691
 8476SOL    HW236888   1.478   0.611   2.229  0.7375 -3.2597  0.3524
 8477SOL     OW36889   0.736   4.475   0.449  0.5313  0.4178  0.1092
 8477SOL    HW136890   0.695   4.402   0.404  0.8431 -0.3467  1.0783
 8477SOL    HW236891   0.703   4.461   0.537 -0.9467  0.1136 -0.4981
 8478SOL     OW36892   3.463   4.175  12.710 -0.1442 -0.0091  0.2337
 8478SOL    HW136893   3.406   4.144  12.780  0.3338  0.8277  0.9937
 8478SOL    HW236894   3.448   4.269  12.719  0.6875 -0.0973  2.3822
 8479SOL     OW36895   3.194   3.611   0.531  0.5376  0.1535  0.0358
 8479SOL    HW136896   3.130   3.551   0.494  0.1155  0.2714  0.5864
 8479SOL    HW236897   3.262   3.543   0.538  0.1592 -0.0826  1.4075
 8480SOL     OW36898   0.454   1.233   2.601 -0.0895 -0.4365 -0.6326
 8480SOL    HW136899   0.426   1.177   2.673 -0.5550  0.0795 -0.4099
 8480SOL    HW236900   0.511   1.175   2.551 -0.1600  0.4295 -1.7298
 8481SOL     OW36901   4.377   2.548   2.274 -0.2095  0.2049  0.5034
 8481SOL    HW136902   4.444   2.534   2.341  1.1887  0.7095 -0.7881
 8481SOL    HW236903   4.297   2.530   2.323 -0.4876 -0.1078 -0.0560
 8482SOL     OW36904   4.420   3.714   7.634  0.0698 -0.2852 -0.2847
 8482SOL    HW136905   4.445   3.679   7.549  0.1287 -2.3554  0.6012
 8482SOL    HW236906   4.407   3.636   7.687  2.3548 -2.5329 -3.0461
 8483SOL     OW36907   1.232   3.428   2.454 -0.1679 -0.3358 -0.1273
 8483SOL    HW136908   1.178   3.505   2.436 -0.4122 -0.7820 -1.2522
 8483SOL    HW236909   1.224   3.421   2.549  1.2563 -0.4444 -0.0086
 8484SOL     OW36910   4.417   0.215   0.877 -0.3897  0.3241  0.0595
 8484SOL    HW136911   4.346   0.269   0.912 -0.2000  0.0069  0.9270
 8484SOL    HW236912   4.451   0.176   0.957 -0.8006  0.8369  0.4863
 8485SOL     OW36913   0.081   4.500   3.861 -0.2335 -0.2974  0.2418
 8485SOL    HW136914   0.102   4.478   3.952  0.6879  0.8076  0.3084
 8485SOL    HW236915   0.002   4.552   3.877  0.4276  1.3227 -1.8066
 8486SOL     OW36916   3.203   2.019   5.894 -0.0838 -0.3869 -0.4081
 8486SOL    HW136917   3.181   2.112   5.891 -0.3150 -0.4538 -0.8043
 8486SOL    HW236918   3.123   1.975   5.864 -0.2970 -1.3209  1.5284
 8487SOL     OW36919   0.257   1.315   9.117  0.5861  0.4940 -0.0271
 8487SOL    HW136920   0.312   1.292   9.192 -0.6633 -2.0789  0.0951
 8487SOL    HW236921   0.314   1.279   9.050 -0.3857 -0.0322 -0.5691
 8488SOL     OW36922   0.399   2.154   6.010 -0.1725  0.0932 -0.3797
 8488SOL    HW136923   0.358   2.067   6.009 -1.4695  0.7115 -1.0435
 8488SOL    HW236924   0.320   2.202   6.033 -0.0165 -0.4955  1.3861
 8489SOL     OW36925   4.198   2.925  15.386  0.1925 -0.3953 -0.9577
 8489SOL    HW136926   4.154   2.997  15.431  2.1098  0.1171  0.1160
 8489SOL    HW236927   4.251   2.972  15.321 -0.4689  1.3409 -0.2615
 8490SOL     OW36928   0.745   1.697  17.582  1.1613 -0.0432  0.3011
 8490SOL    HW136929   0.732   1.605  17.605 -1.6055  0.4604  0.7524
 8490SOL    HW236930   0.800   1.685  17.505 -0.6421 -1.3417 -0.7768
 8491SOL     OW36931   2.099   3.356   8.036  0.3187  0.1254  0.3436
 8491SOL    HW136932   2.139   3.318   8.114 -0.1445  4.7716  2.8361
 8491SOL    HW236933   2.120   3.287   7.973 -0.4071 -1.2154  1.5658
 8492SOL     OW36934   2.109   0.627   8.443 -0.2722 -0.0081 -0.0331
 8492SOL    HW136935   2.103   0.718   8.414 -2.0503 -0.2119 -0.3261
 8492SOL    HW236936   2.057   0.622   8.523  1.1413  2.0778  0.9834
 8493SOL     OW36937   1.462   3.569  10.326  0.5784  0.2588  0.0243
 8493SOL    HW136938   1.394   3.635  10.316  1.1944  0.7730 -0.7486
 8493SOL    HW236939   1.433   3.538  10.412 -1.0545  0.7773 -0.3465
 8494SOL     OW36940   0.980   2.055   0.322  0.2617 -0.2974 -0.3490
 8494SOL    HW136941   0.899   2.019   0.287 -0.3482  0.4347  0.3027
 8494SOL    HW236942   0.960   2.141   0.359 -1.2796 -0.6664 -0.3485
 8495SOL     OW36943   3.853   2.583   9.098  1.3299  0.2453  0.2930
 8495SOL    HW136944   3.932   2.531   9.110  0.5531 -1.0988 -0.3883
 8495SOL    HW236945   3.859   2.646   9.170  3.7547  0.1424  0.1684
 8496SOL     OW36946   3.218   2.139  16.023 -0.0655 -0.0455 -0.4153
 8496SOL    HW136947   3.165   2.217  16.036  1.3909  1.1945 -1.9492
 8496SOL    HW236948   3.204   2.124  15.930  1.5790  0.2081 -0.6976
 8497SOL     OW36949   2.003   2.125   0.827  0.0248 -0.0798  0.4491
 8497SOL    HW136950   2.098   2.137   0.836  0.0975  0.5603 -1.1653
 8497SOL    HW236951   1.996   2.050   0.887  0.5353 -0.8437 -0.4429
 8498SOL     OW36952   3.931   0.095   7.224  0.0752  0.3483  0.1870
 8498SOL    HW136953   3.914   0.052   7.140  1.9659 -1.2888  0.6556
 8498SOL    HW236954   4.006   0.150   7.201  0.0068  0.1107 -0.5955
 8499SOL     OW36955   1.758   1.721   2.972  0.8086  0.2021  0.5895
 8499SOL    HW136956   1.836   1.709   2.918 -0.8926 -1.8115 -1.4451
 8499SOL    HW236957   1.760   1.814   2.994 -2.3377 -0.0034  1.7067
 8500SOL     OW36958   2.007   0.174   7.763 -0.0953 -1.0048 -1.0895
 8500SOL    HW136959   1.950   0.134   7.828 -0.4380  1.9603  0.4349
 8500SOL    HW236960   2.091   0.139   7.791 -1.3137 -1.4841  2.0106
 8501SOL     OW36961   1.881   0.421   4.181  0.0615  0.0725 -0.7483
 8501SOL    HW136962   1.926   0.337   4.186  1.0221  0.6154 -0.0613
 8501SOL    HW236963   1.872   0.415   4.086  0.5846 -1.6139 -0.6943
 8502SOL     OW36964   1.413   3.906  16.774  0.3030  0.2597 -0.4329
 8502SOL    HW136965   1.341   3.846  16.755  1.4421 -2.1198  2.6622
 8502SOL    HW236966   1.390   3.955  16.853 -2.6654 -0.8190 -0.6421
 8503SOL     OW36967   4.164   1.540   6.057  0.0667 -0.3749 -0.1751
 8503SOL    HW136968   4.256   1.561   6.039  0.6049 -3.0211 -0.4760
 8503SOL    HW236969   4.134   1.514   5.970  1.5932 -0.1749 -0.7614
 8504SOL     OW36970   0.853   3.705   8.247 -0.0300 -0.1738  0.1373
 8504SOL    HW136971   0.919   3.689   8.314  1.7469  5.6671 -0.2379
 8504SOL    HW236972   0.843   3.800   8.244 -0.9304 -0.3367 -2.0256
 8505SOL     OW36973   0.893   4.391   4.714 -0.3330 -0.8830  0.0618
 8505SOL    HW136974   0.941   4.338   4.651  0.5205 -2.0419  1.6795
 8505SOL    HW236975   0.806   4.356   4.697 -1.6917  1.5048  2.0683
 8506SOL     OW36976   1.069   1.648   2.875  0.6814  0.0529 -0.2174
 8506SOL    HW136977   1.116   1.575   2.836 -0.1759 -0.5965 -0.0262
 8506SOL    HW236978   1.107   1.647   2.963  0.2564 -0.6584 -0.0404
 8507SOL     OW36979   2.584   3.491   3.529  0.4764 -0.8242 -0.4729
 8507SOL    HW136980   2.676   3.514   3.523 -0.1635  2.4791  2.6066
 8507SOL    HW236981   2.590   3.400   3.499  0.4551 -1.3569  1.1295
 8508SOL     OW36982   3.455   2.551   3.351  0.3859 -0.0457 -0.0728
 8508SOL    HW136983   3.491   2.624   3.401  0.0966  0.3138 -0.3858
 8508SOL    HW236984   3.439   2.486   3.419 -1.6355 -0.1129 -0.6001
 8509SOL     OW36985   2.192   1.896   1.679  0.1793  0.2109 -0.0077
 8509SOL    HW136986   2.272   1.853   1.649 -1.5510 -2.6063 -0.6345
 8509SOL    HW236987   2.226   1.928   1.762  0.8686  1.3430 -0.7116
 8510SOL     OW36988   2.236   2.993   8.599 -0.0841  0.0388 -0.0740
 8510SOL    HW136989   2.317   2.946   8.578 -0.7896 -1.0584 -0.3450
 8510SOL    HW236990   2.266   2.996   8.690  2.8018 -2.2082 -0.9239
 8511SOL     OW36991   0.589   3.309  13.649 -0.6314 -0.3366  0.4527
 8511SOL    HW136992   0.499   3.293  13.620  0.3281  2.3673 -3.9965
 8511SOL    HW236993   0.611   3.218  13.667  0.6458 -0.5513 -2.1859
 8512SOL     OW36994   2.213   3.169   7.848 -0.3372 -0.1802 -0.1902
 8512SOL    HW136995   2.266   3.091   7.833 -0.5734 -0.3591 -0.0853
 8512SOL    HW236996   2.172   3.174   7.761 -1.4154  0.9511  0.3795
 8513SOL     OW36997   1.244   4.191  11.051 -0.6084 -0.2574  0.5281
 8513SOL    HW136998   1.325   4.174  11.099  1.1506 -1.3768 -2.8327
 8513SOL    HW236999   1.234   4.285  11.063  0.1739 -0.2732  1.2850
 8514SOL     OW37000   4.609   0.635  13.025  0.1454 -0.2676 -0.6092
 8514SOL    HW137001   4.670   0.620  12.952  2.0113  0.4887  0.8068
 8514SOL    HW237002   4.565   0.716  12.998 -1.1417 -0.5447  0.6371
 8515SOL     OW37003   4.078   0.088   2.515  0.3287  0.5914  0.7132
 8515SOL    HW137004   4.048   0.132   2.594 -2.0916  0.4812 -0.1533
 8515SOL    HW237005   3.998   0.041   2.490  1.9235 -1.1132 -1.1975
 8516SOL     OW37006   0.739   4.367   1.327  0.0276  0.1895  0.2179
 8516SOL    HW137007   0.827   4.389   1.357  0.1196 -2.3310  1.8038
 8516SOL    HW237008   0.760   4.375   1.234 -1.2576  0.3974 -0.0558
 8517SOL     OW37009   3.835   1.991   4.510 -0.1938  1.0899 -0.1757
 8517SOL    HW137010   3.823   2.010   4.417  0.0679  3.4901  0.2882
 8517SOL    HW237011   3.781   2.061   4.546 -0.9366  0.8139 -0.7340
 8518SOL     OW37012   3.238   3.156  11.617 -0.1376  0.0399 -0.2270
 8518SOL    HW137013   3.172   3.116  11.673  0.3080 -0.3414  0.0265
 8518SOL    HW237014   3.182   3.219  11.572  0.9010 -0.2159 -1.8755
 8519SOL     OW37015   4.415   3.688  10.591  0.5710 -0.7576 -0.0268
 8519SOL    HW137016   4.480   3.721  10.528  0.5222 -0.7826 -0.0895
 8519SOL    HW237017   4.409   3.596  10.564 -0.0792 -0.3036 -1.4083
 8520SOL     OW37018   1.489   2.596   8.272 -0.1064  0.0496  0.2375
 8520SOL    HW137019   1.397   2.574   8.257 -0.0230  0.8125 -1.3602
 8520SOL    HW237020   1.490   2.673   8.329  0.1411  0.6288 -0.5537
 8521SOL     OW37021   2.390   3.470   5.060  0.3963 -0.8022 -0.6313
 8521SOL    HW137022   2.372   3.437   4.972 -0.5011  0.9314 -1.0931
 8521SOL    HW237023   2.317   3.436   5.112  1.9289 -1.2429  1.2186
 8522SOL     OW37024   1.097   1.381   5.963 -0.0894 -0.1823 -0.2429
 8522SOL    HW137025   1.037   1.306   5.965 -1.1101  0.6582  0.7824
 8522SOL    HW237026   1.139   1.377   6.048 -0.8559  0.8641  0.1921
 8523SOL     OW37027   2.334   0.840   1.056  0.3460 -0.7777 -0.1658
 8523SOL    HW137028   2.408   0.781   1.072 -0.2148 -1.0616  1.4063
 8523SOL    HW237029   2.319   0.823   0.963 -0.2256 -0.5467 -0.1099
 8524SOL     OW37030   4.014   3.853   7.724 -0.1646  0.0258  0.3940
 8524SOL    HW137031   3.958   3.930   7.724  0.1291  0.2369  0.7266
 8524SOL    HW237032   4.044   3.835   7.813 -2.0916  0.7942  1.1996
 8525SOL     OW37033   0.471   2.656   9.046 -0.2463  0.1399 -0.1445
 8525SOL    HW137034   0.507   2.588   9.104 -1.0003  0.4989  0.7338
 8525SOL    HW237035   0.387   2.674   9.088  0.0594  1.6750 -0.1917
 8526SOL     OW37036   4.130   2.828   4.219  0.6669 -0.2429  0.2656
 8526SOL    HW137037   4.146   2.752   4.163 -3.8372 -1.5502  0.7039
 8526SOL    HW237038   4.064   2.785   4.274 -1.2345  1.5573 -0.5956
 8527SOL     OW37039   3.152   0.367   5.765 -0.0143  0.3173 -0.7230
 8527SOL    HW137040   3.213   0.301   5.732  3.4018  3.3973 -0.5636
 8527SOL    HW237041   3.065   0.328   5.759  0.1738 -0.4265  1.2685
 8528SOL     OW37042   2.942   1.352   3.093 -0.0201  0.4919  0.1546
 8528SOL    HW137043   2.963   1.384   3.181 -0.1303 -1.3457  0.8440
 8528SOL    HW237044   2.926   1.433   3.045  0.3301 -0.7786 -2.0668
 8529SOL     OW37045   3.271   4.145   9.589 -1.1582 -0.3917 -0.4544
 8529SOL    HW137046   3.271   4.052   9.611  1.0733 -0.2138  0.2374
 8529SOL    HW237047   3.337   4.135   9.520  0.1647  0.4416  0.7060
 8530SOL     OW37048   3.087   4.322   7.192  0.0201 -0.4277  0.6112
 8530SOL    HW137049   3.105   4.272   7.272 -0.8023  0.6335  1.4659
 8530SOL    HW237050   3.164   4.379   7.187  0.6590 -1.0144  3.5764
 8531SOL     OW37051   1.823   3.856  11.611 -0.1747  0.0106 -0.3655
 8531SOL    HW137052   1.752   3.919  11.602  0.1546  0.1513 -2.0403
 8531SOL    HW237053   1.884   3.878  11.541 -3.3335  2.0659 -2.4588
 8532SOL     OW37054   2.953   2.430   0.621 -0.0941  0.3872  0.2552
 8532SOL    HW137055   2.947   2.385   0.537  3.0366 -1.8343  1.2026
 8532SOL    HW237056   3.013   2.500   0.593  1.3266 -1.1015 -0.4251
 8533SOL     OW37057   1.476   4.402   8.584 -0.1570 -0.1136 -0.1397
 8533SOL    HW137058   1.553   4.448   8.551 -0.1492  1.4642  2.0978
 8533SOL    HW237059   1.510   4.314   8.601 -2.0225 -0.5216  1.4996
 8534SOL     OW37060   1.332   1.828  13.451  0.0802  0.6250  0.5093
 8534SOL    HW137061   1.304   1.916  13.423  0.2455  0.3576 -0.5000
 8534SOL    HW237062   1.250   1.793  13.485 -0.8873  0.3003 -2.1318
 8535SOL     OW37063   1.108   2.015  10.865 -0.0791  0.2721  0.4083
 8535SOL    HW137064   1.173   1.949  10.841 -0.3932  0.2919 -0.4886
 8535SOL    HW237065   1.070   1.973  10.942 -1.3852 -0.1297 -0.4616
 8536SOL     OW37066   0.532   3.983   5.015 -0.3528  0.3740 -0.7470
 8536SOL    HW137067   0.540   4.060   4.959  0.5437  0.4257 -0.5414
 8536SOL    HW237068   0.484   3.915   4.967  1.0190 -0.2911 -1.1596
 8537SOL     OW37069   1.745   2.666   2.811 -0.0460 -0.0254 -0.7042
 8537SOL    HW137070   1.756   2.629   2.899 -1.6822  0.8802 -0.1153
 8537SOL    HW237071   1.790   2.601   2.757  1.4740  0.6152 -0.2149
 8538SOL     OW37072   0.137   3.161   6.669 -0.2561  0.0656 -0.0495
 8538SOL    HW137073   0.135   3.066   6.673  3.0713  0.0118  0.5178
 8538SOL    HW237074   0.045   3.182   6.651  0.3531  2.2473 -0.6858
 8539SOL     OW37075   2.707   0.798  10.705  0.2143  0.4170  0.0708
 8539SOL    HW137076   2.730   0.721  10.758 -2.8654 -0.8406 -0.4000
 8539SOL    HW237077   2.788   0.845  10.689  1.5162 -2.2573 -1.2626
 8540SOL     OW37078   1.544   2.896   3.561 -0.3689 -0.5095 -0.5140
 8540SOL    HW137079   1.459   2.886   3.519  0.3232 -0.9846 -1.7982
 8540SOL    HW237080   1.520   2.923   3.649  1.5825  0.0660 -0.1640
 8541SOL     OW37081   1.131   0.000   0.034  0.6458  0.3420  0.3171
 8541SOL    HW137082   1.202   4.657   0.025 -1.6516 -2.1317 -0.4913
 8541SOL    HW237083   1.144   0.018   0.127  0.6090 -0.6927  0.5255
 8542SOL     OW37084   1.389   0.089   5.531  0.0471 -0.3288 -0.2504
 8542SOL    HW137085   1.394   0.184   5.521  0.0393 -0.3682 -0.6000
 8542SOL    HW237086   1.463   0.082   5.591 -0.5695  1.3684  0.7114
 8543SOL     OW37087   2.424   4.193   3.938  0.3404 -0.2177  0.1133
 8543SOL    HW137088   2.336   4.186   3.901  1.0785 -0.3404 -1.6237
 8543SOL    HW237089   2.457   4.270   3.891  1.0345 -0.5917 -0.0069
 8544SOL     OW37090   2.275   3.529  13.077  0.5084 -0.3358 -0.0205
 8544SOL    HW137091   2.333   3.603  13.095 -1.1008  1.1435 -0.9083
 8544SOL    HW237092   2.203   3.563  13.023  2.5218 -0.3928 -2.7600
 8545SOL     OW37093   3.555   2.111   3.247  0.2757 -0.5379 -0.0969
 8545SOL    HW137094   3.546   2.033   3.302  0.8826  0.3551  1.2902
 8545SOL    HW237095   3.626   2.156   3.293 -0.2667  0.3028 -0.0830
 8546SOL     OW37096   4.464   0.203   1.169  0.4021 -0.2891 -0.6912
 8546SOL    HW137097   4.473   0.109   1.183  1.0284 -0.2209 -0.6337
 8546SOL    HW237098   4.522   0.241   1.235  1.9282 -1.6148 -1.2840
 8547SOL     OW37099   3.467   2.211   6.026  0.5432  0.2169  0.3665
 8547SOL    HW137100   3.439   2.206   6.117  0.5426  0.6283  0.3906
 8547SOL    HW237101   3.555   2.245   6.038  0.7602 -0.3635  0.3960
 8548SOL     OW37102   4.254   4.160  10.911 -0.8209 -0.3346  0.5591
 8548SOL    HW137103   4.262   4.199  10.824  0.2153  1.4207  1.4460
 8548SOL    HW237104   4.338   4.190  10.945 -1.0276  0.4048  0.4050
 8549SOL     OW37105   2.227   0.910   9.337 -0.3523 -0.3844  0.5345
 8549SOL    HW137106   2.298   0.911   9.401  1.5082 -1.3321 -1.5398
 8549SOL    HW237107   2.169   0.838   9.361 -1.8626  0.8370  0.5758
 8550SOL     OW37108   3.742   0.694   3.418  0.3445  0.5691 -0.0665
 8550SOL    HW137109   3.837   0.687   3.432  0.0791 -1.2273  0.7497
 8550SOL    HW237110   3.732   0.774   3.365 -2.6671  0.7894  0.8349
 8551SOL     OW37111   3.438   1.761   3.970  0.0675  0.4131 -0.5038
 8551SOL    HW137112   3.531   1.748   3.948  0.2033  3.1499 -1.6192
 8551SOL    HW237113   3.437   1.834   4.032 -2.0363  0.6410 -0.8288
 8552SOL     OW37114   2.275   4.463   5.608  0.0730 -0.7890 -0.9435
 8552SOL    HW137115   2.260   4.436   5.698 -1.6268 -0.2854 -1.0692
 8552SOL    HW237116   2.297   4.378   5.569  1.9980 -1.4207  1.5457
 8553SOL     OW37117   4.048   3.534   3.985 -0.3107 -0.5066  0.5461
 8553SOL    HW137118   3.988   3.584   4.041 -0.1949 -0.4416  0.6110
 8553SOL    HW237119   4.054   3.458   4.043 -0.5319 -1.6279 -0.8976
 8554SOL     OW37120   0.279   2.513   0.054 -0.0817 -0.1518  0.2834
 8554SOL    HW137121   0.247   2.603   0.053  0.0596 -0.1242 -2.0386
 8554SOL    HW237122   0.248   2.486  17.651  0.3807  1.4268 -0.3606
 8555SOL     OW37123   2.491   4.681   1.775 -0.3175 -0.3308  0.1724
 8555SOL    HW137124   2.535   4.712   1.696  0.0862  1.0675  0.9516
 8555SOL    HW237125   2.404   4.656   1.745  0.3978  0.1777 -2.3147
 8556SOL     OW37126   1.389   3.772  17.085 -1.2043 -0.3477 -0.3990
 8556SOL    HW137127   1.392   3.868  17.089 -1.3004 -0.3362 -0.6518
 8556SOL    HW237128   1.355   3.770  16.996  0.0722  1.2712 -0.9424
 8557SOL     OW37129   1.612   1.105  10.525  0.0725  0.0370  0.2726
 8557SOL    HW137130   1.608   1.131  10.432  2.7856 -0.7443 -0.0651
 8557SOL    HW237131   1.704   1.080  10.533  0.5924  2.6214  2.3160
 8558SOL     OW37132   2.868   3.919  11.820  0.0758  0.0205  0.1877
 8558SOL    HW137133   2.881   3.892  11.730 -1.0525 -0.4989  0.1886
 8558SOL    HW237134   2.958   3.943  11.844 -0.2322  1.0631  0.3169
 8559SOL     OW37135   3.062   1.998   6.344  0.0525  0.2130  0.2953
 8559SOL    HW137136   3.017   2.079   6.370 -1.3928  0.0193 -1.6088
 8559SOL    HW237137   3.114   1.981   6.422  1.0570 -0.8187 -0.6029
 8560SOL     OW37138   1.644   1.239   4.493 -0.0851 -0.3486 -0.5112
 8560SOL    HW137139   1.595   1.159   4.511 -1.2254  0.6537  0.8436
 8560SOL    HW237140   1.661   1.270   4.582 -0.1964 -1.0124 -0.2587
 8561SOL     OW37141   2.646   0.609   5.583  0.0258 -0.1818 -0.0699
 8561SOL    HW137142   2.655   0.537   5.520 -0.8527  0.3265 -0.7847
 8561SOL    HW237143   2.569   0.579   5.632 -0.6017  0.5399 -0.6051
 8562SOL     OW37144   4.556   0.059   0.712 -0.7433  0.2243  0.8083
 8562SOL    HW137145   4.577   4.716   0.781 -1.4200 -0.3912  0.4376
 8562SOL    HW237146   4.511   0.126   0.765 -0.5891  0.5641  0.5093
 8563SOL     OW37147   3.716   1.875   4.886  0.4545  0.3452 -0.0616
 8563SOL    HW137148   3.688   1.835   4.804 -0.2342 -0.3510  0.5102
 8563SOL    HW237149   3.658   1.951   4.894  2.3439  1.7669  0.3752
 8564SOL     OW37150   3.590   1.820  10.236 -0.6315  0.6101  0.0757
 8564SOL    HW137151   3.646   1.761  10.285 -1.2471 -0.3772 -0.4058
 8564SOL    HW237152   3.523   1.758  10.208  0.6122  0.6791 -3.0988
 8565SOL     OW37153   2.553   2.225   6.916 -0.0229 -0.1113 -0.2751
 8565SOL    HW137154   2.643   2.205   6.943 -0.8355 -0.1498  2.4415
 8565SOL    HW237155   2.516   2.138   6.932  0.9008 -0.6932 -1.3018
 8566SOL     OW37156   0.438   1.420   3.953 -0.1844 -0.5719 -0.3388
 8566SOL    HW137157   0.470   1.460   3.872  1.4441 -2.0283 -0.4160
 8566SOL    HW237158   0.346   1.445   3.953  0.4570  1.7771 -1.3035
 8567SOL     OW37159   4.472   4.595  13.232  0.3124  0.2307  0.0453
 8567SOL    HW137160   4.403   4.550  13.281 -1.9233  2.5787 -0.9362
 8567SOL    HW237161   4.472   4.675  13.284 -0.0025  0.0800  0.2816
 8568SOL     OW37162   2.152   0.098   8.542 -0.4698  0.0990  0.4776
 8568SOL    HW137163   2.181   0.023   8.490 -0.0576  0.7513 -0.2329
 8568SOL    HW237164   2.196   0.171   8.500  0.6524 -1.5154 -1.1864
 8569SOL     OW37165   0.320   4.407   5.226 -0.3096  0.8196  0.1112
 8569SOL    HW137166   0.375   4.393   5.303  0.2094  0.0837 -0.3951
 8569SOL    HW237167   0.243   4.437   5.274  0.1225  0.5954  0.9390
 8570SOL     OW37168   4.084   1.865  15.313 -0.1004 -0.0982 -0.1661
 8570SOL    HW137169   4.114   1.854  15.404  0.2139 -1.1614 -0.3968
 8570SOL    HW237170   4.041   1.950  15.321  1.7184  0.9858 -2.0239
 8571SOL     OW37171   2.293   0.541   8.664 -0.9975  0.2261 -0.1042
 8571SOL    HW137172   2.386   0.528   8.648 -1.2124 -3.5811  1.6055
 8571SOL    HW237173   2.269   0.546   8.571  1.1819  1.0771 -0.6271
 8572SOL     OW37174   3.121   0.701   1.279 -0.2739  0.8314 -0.4058
 8572SOL    HW137175   3.192   0.751   1.239 -0.5794 -0.1936 -2.2318
 8572SOL    HW237176   3.066   0.700   1.201 -1.7385 -1.8112  0.6497
 8573SOL     OW37177   2.703   0.727   1.531  0.6038 -1.0409  0.3345
 8573SOL    HW137178   2.766   0.799   1.530 -1.3464  0.6912  2.2795
 8573SOL    HW237179   2.665   0.741   1.444  0.4486 -1.2940  0.3596
 8574SOL     OW37180   4.444   2.675   5.945 -0.0959  0.0812 -0.2143
 8574SOL    HW137181   4.354   2.668   5.911 -0.5933 -1.1195  1.3797
 8574SOL    HW237182   4.472   2.763   5.917  0.0934  0.5628  1.5054
 8575SOL     OW37183   1.075   4.083   1.803  0.0185  0.5607  0.2329
 8575SOL    HW137184   1.023   4.163   1.799 -1.0055 -0.1112  0.0569
 8575SOL    HW237185   1.162   4.116   1.781  0.5611 -0.2740  1.0777
 8576SOL     OW37186   0.088   1.355   0.700  0.0483  0.2390  0.0081
 8576SOL    HW137187   0.071   1.261   0.694  1.1502  0.0117  0.5157
 8576SOL    HW237188   0.062   1.367   0.792 -1.1437 -1.0549 -0.1567
 8577SOL     OW37189   2.799   1.248   5.168  0.3038  0.2258 -0.0760
 8577SOL    HW137190   2.739   1.180   5.137 -1.0532  1.7262 -0.7990
 8577SOL    HW237191   2.806   1.290   5.082 -1.8362  2.5398  0.8538
 8578SOL     OW37192   1.461   2.390  13.077  0.5486 -0.1133 -0.4177
 8578SOL    HW137193   1.425   2.419  12.993 -1.8178  4.0893  2.1002
 8578SOL    HW237194   1.420   2.437  13.149  0.3915  1.9522 -1.8648
 8579SOL     OW37195   3.940   1.024   7.146 -0.0462  0.3328  0.3762
 8579SOL    HW137196   3.872   1.034   7.212 -2.0280 -0.9188 -1.5156
 8579SOL    HW237197   3.942   1.115   7.114 -0.1122  0.4181  0.6138
 8580SOL     OW37198   4.144   3.520  10.586 -0.2360  0.4357  0.3754
 8580SOL    HW137199   4.160   3.556  10.673 -0.7970  2.4143 -0.3195
 8580SOL    HW237200   4.051   3.539  10.574 -0.6525 -1.6134  0.4271
 8581SOL     OW37201   1.589   2.210  15.236 -0.0403 -0.0811 -0.0883
 8581SOL    HW137202   1.527   2.138  15.249 -0.7085  0.7299  1.1168
 8581SOL    HW237203   1.524   2.274  15.207 -0.2287 -0.1075  0.2785
 8582SOL     OW37204   0.945   1.071  11.118 -0.2909  0.6570 -0.2548
 8582SOL    HW137205   0.975   0.982  11.138 -1.4212  0.4175  0.3555
 8582SOL    HW237206   0.942   1.078  11.023  0.8617  3.2867 -0.0934
 8583SOL     OW37207   3.031   2.633   7.232  0.1822 -0.1556  0.6767
 8583SOL    HW137208   3.072   2.575   7.297 -0.2403 -1.2685 -0.0341
 8583SOL    HW237209   3.090   2.615   7.158  0.0261  0.0169  0.5143
 8584SOL     OW37210   0.546   2.834   1.708  0.1142  0.4684 -0.1024
 8584SOL    HW137211   0.624   2.854   1.760 -0.5675 -0.2494  1.2109
 8584SOL    HW237212   0.501   2.918   1.720  1.9287  1.6015 -1.2578
 8585SOL     OW37213   1.833   2.239  15.305 -0.0603 -0.4591  0.0769
 8585SOL    HW137214   1.755   2.220  15.252 -1.4069 -0.5872  2.1131
 8585SOL    HW237215   1.800   2.236  15.395  1.5202  3.7757  0.7956
 8586SOL     OW37216   0.977   0.464   5.120 -0.5761 -0.0336  0.7671
 8586SOL    HW137217   0.897   0.513   5.138 -1.2222 -0.8992  0.2505
 8586SOL    HW237218   0.954   0.422   5.037 -1.6321  0.8258  0.6258
 8587SOL     OW37219   0.321   3.332   6.481  0.0238 -0.0163  0.0576
 8587SOL    HW137220   0.267   3.406   6.455  0.7730  0.2057 -0.8860
 8587SOL    HW237221   0.267   3.263   6.520 -1.8107 -0.4244 -3.1965
 8588SOL     OW37222   1.346   0.293   8.671 -0.7436  0.1223  0.2007
 8588SOL    HW137223   1.375   0.254   8.588 -3.3586 -4.5119  1.4567
 8588SOL    HW237224   1.431   0.323   8.702 -0.1667  0.2296 -1.4930
 8589SOL     OW37225   1.070   4.524   8.048  0.8415  0.6467  0.0889
 8589SOL    HW137226   0.977   4.515   8.029  0.1480  1.4792  3.1402
 8589SOL    HW237227   1.093   4.434   8.071 -1.6375 -0.0426 -0.2295
 8590SOL     OW37228   2.939   0.269   2.397  0.5264 -0.4949 -0.8164
 8590SOL    HW137229   2.962   0.361   2.390  2.2027 -0.9621 -1.4750
 8590SOL    HW237230   2.874   0.287   2.465  0.5285 -0.4025 -0.8398
 8591SOL     OW37231   4.401   0.449   8.680  0.2033  0.5253  0.2528
 8591SOL    HW137232   4.467   0.493   8.626  0.0032 -0.7087 -0.9876
 8591SOL    HW237233   4.381   0.375   8.623  1.9665  0.7469 -0.6550
 8592SOL     OW37234   3.053   4.100  14.097  0.1399 -0.3728  0.3587
 8592SOL    HW137235   3.100   4.083  14.015 -0.3012  0.2938 -0.0343
 8592SOL    HW237236   3.128   4.083  14.153  0.5049  3.1722  0.9084
 8593SOL     OW37237   2.460   0.406  13.181 -0.0474 -0.1091 -0.0336
 8593SOL    HW137238   2.512   0.437  13.107 -1.4847  0.6309 -0.7473
 8593SOL    HW237239   2.531   0.382  13.240 -0.5602 -0.7993  0.3053
 8594SOL     OW37240   0.636   4.634   1.146  0.0391 -0.2028  0.3840
 8594SOL    HW137241   0.713   4.576   1.146 -0.1089 -0.3989  0.3990
 8594SOL    HW237242   0.574   4.589   1.088  0.4456 -0.9830  0.5487
 8595SOL     OW37243   1.025   1.715   0.442  0.4722  0.3602  0.4286
 8595SOL    HW137244   1.040   1.656   0.516 -1.4338 -0.8751 -0.1834
 8595SOL    HW237245   0.955   1.770   0.477  1.0045  2.0618 -1.1773
 8596SOL     OW37246   2.005   0.355   5.316  0.1294  0.2695 -0.0578
 8596SOL    HW137247   2.018   0.266   5.282 -0.3773 -0.0427  0.5622
 8596SOL    HW237248   2.087   0.397   5.291  0.1597 -0.6556 -1.5224
 8597SOL     OW37249   0.987   0.908   7.987 -0.0918  0.3205  0.3059
 8597SOL    HW137250   0.969   0.841   7.921  0.9824  1.2227 -0.8899
 8597SOL    HW237251   0.913   0.891   8.046  0.4287  1.3706  1.2556
 8598SOL     OW37252   2.783   1.757   5.890 -0.0145 -0.1835 -0.2064
 8598SOL    HW137253   2.837   1.789   5.818  1.1533 -0.8632  0.3642
 8598SOL    HW237254   2.790   1.834   5.946 -0.7375 -1.5170  1.7116
 8599SOL     OW37255   0.426   4.258   8.436 -0.5263 -0.2003  0.2109
 8599SOL    HW137256   0.501   4.296   8.391 -0.2798 -1.4410 -0.4040
 8599SOL    HW237257   0.443   4.165   8.422  0.7510 -0.0797  0.9261
 8600SOL     OW37258   2.025   2.856   3.455 -0.3832  0.1447 -0.2190
 8600SOL    HW137259   2.034   2.772   3.409  0.0795 -0.2602  0.6117
 8600SOL    HW237260   1.982   2.909   3.388  0.0675 -0.0637 -0.6657
 8601SOL     OW37261   2.600   2.856   3.384  0.9151  0.1954 -0.0662
 8601SOL    HW137262   2.567   2.924   3.442  0.5028  0.2224 -0.3317
 8601SOL    HW237263   2.686   2.891   3.362  1.7182 -2.2658 -0.8894
 8602SOL     OW37264   4.119   1.884  16.610 -0.3005  0.1907 -0.2868
 8602SOL    HW137265   4.040   1.832  16.629  1.4659 -2.1212  0.6848
 8602SOL    HW237266   4.085   1.971  16.629  0.1639  0.6998 -1.7598
 8603SOL     OW37267   3.660   4.149  16.050 -0.1275 -0.0779 -0.3500
 8603SOL    HW137268   3.604   4.111  15.982 -1.5268  1.7165 -0.1908
 8603SOL    HW237269   3.604   4.126  16.124 -0.1228  0.0167 -0.3178
 8604SOL     OW37270   3.510   2.947   9.483  0.4067  0.6207 -0.6136
 8604SOL    HW137271   3.491   3.033   9.520 -0.0307  0.7121 -1.0406
 8604SOL    HW237272   3.467   2.933   9.398  0.6623 -0.9673 -0.4756
 8605SOL     OW37273   3.223   0.466   9.705 -0.0850  0.4428 -0.5416
 8605SOL    HW137274   3.248   0.487   9.615  0.2240 -1.9489 -1.0025
 8605SOL    HW237275   3.297   0.500   9.753 -0.2590  1.0096 -0.6751
 8606SOL     OW37276   2.035   3.593   1.585 -0.3033  0.3311  0.0200
 8606SOL    HW137277   2.018   3.502   1.563 -0.2700  0.1794  0.6107
 8606SOL    HW237278   2.118   3.593   1.634  1.4505  5.0286 -2.9736
 8607SOL     OW37279   2.681   3.412   7.943  0.6664  0.1035 -0.5736
 8607SOL    HW137280   2.651   3.470   8.013  0.6910 -1.6387  0.8785
 8607SOL    HW237281   2.601   3.368   7.914 -0.4085  0.9566  1.1198
 8608SOL     OW37282   3.243   2.052   0.600  0.5709 -0.2429 -0.4223
 8608SOL    HW137283   3.175   2.018   0.657  1.6997 -2.2475 -0.2831
 8608SOL    HW237284   3.257   2.136   0.645  0.3590  0.1162 -1.0164
 8609SOL     OW37285   0.313   3.426   7.150  0.1768 -0.0696  0.1678
 8609SOL    HW137286   0.244   3.448   7.212  0.5473  0.6212  0.3348
 8609SOL    HW237287   0.377   3.486   7.188  0.8752 -2.3147  2.5578
 8610SOL     OW37288   0.933   1.430   2.293  0.0580  0.5994 -0.3080
 8610SOL    HW137289   0.843   1.460   2.290 -1.0827 -2.8202 -0.1518
 8610SOL    HW237290   0.957   1.449   2.384  2.0466  0.4710 -0.8041
 8611SOL     OW37291   3.614   2.849   3.714 -0.3407  0.0105  0.6471
 8611SOL    HW137292   3.614   2.755   3.696 -2.7358 -0.2255  1.9621
 8611SOL    HW237293   3.520   2.861   3.704  0.0891  2.2145 -0.7136
 8612SOL     OW37294   0.577   0.964   8.816 -0.2339 -0.3280 -0.0911
 8612SOL    HW137295   0.591   0.881   8.770  3.0745 -0.1571  0.5888
 8612SOL    HW237296   0.484   0.970   8.835 -0.0505  3.0811 -0.2521
 8613SOL     OW37297   4.400   0.467  11.477 -0.2048  0.0756 -0.2504
 8613SOL    HW137298   4.319   0.418  11.463 -0.5266  0.1826  1.2350
 8613SOL    HW237299   4.433   0.467  11.387 -0.4196 -0.7362 -0.3239
 8614SOL     OW37300   2.590   0.148   0.281  0.2088  0.2887  0.1181
 8614SOL    HW137301   2.604   0.144   0.186  0.5598 -2.2074  0.2656
 8614SOL    HW237302   2.567   0.057   0.301  0.9748  0.6979  2.8872
 8615SOL     OW37303   0.948   4.329   1.752 -0.0755  0.1130  0.1184
 8615SOL    HW137304   0.948   4.410   1.803  1.0397  1.1470 -1.5469
 8615SOL    HW237305   0.855   4.326   1.730 -0.4046  1.6265  1.3185
 8616SOL     OW37306   0.663   1.079   3.686  0.2116  0.8812 -0.0163
 8616SOL    HW137307   0.634   1.120   3.604  0.0617 -0.3258 -0.5693
 8616SOL    HW237308   0.710   1.003   3.653  2.1498  0.9611  2.5767
 8617SOL     OW37309   1.771   2.573   3.053  0.2301 -0.0093 -0.1265
 8617SOL    HW137310   1.711   2.562   3.127 -0.8760 -0.9261 -1.1775
 8617SOL    HW237311   1.844   2.522   3.088  1.0126  0.3326 -1.2525
 8618SOL     OW37312   1.903   0.085   8.597 -0.2040  0.2030 -0.0413
 8618SOL    HW137313   1.881   0.081   8.504 -1.1984 -0.1275  0.2062
 8618SOL    HW237314   1.997   0.064   8.592 -0.2563  0.5148 -2.4460
 8619SOL     OW37315   4.233   0.299  14.264  0.5082 -0.9662 -0.3178
 8619SOL    HW137316   4.321   0.336  14.255 -0.3408  1.2693  0.6780
 8619SOL    HW237317   4.246   0.243  14.340  0.4525 -0.1637  0.2791
 8620SOL     OW37318   0.279   1.698   6.673 -0.0103  0.4313 -1.0933
 8620SOL    HW137319   0.259   1.605   6.684 -0.9806  0.8474  0.6332
 8620SOL    HW237320   0.372   1.688   6.655 -0.0335 -0.7259 -0.5530
 8621SOL     OW37321   4.523   4.565  16.620  0.1407  0.3124  0.4310
 8621SOL    HW137322   4.511   4.619  16.698  0.2790  0.6356  0.2309
 8621SOL    HW237323   4.465   4.610  16.559  1.0688  3.0864  1.5942
 8622SOL     OW37324   1.877   3.874   0.391  0.8306 -0.2078 -0.1899
 8622SOL    HW137325   1.859   3.810   0.459 -1.2809  1.8293  1.1920
 8622SOL    HW237326   1.972   3.885   0.387  1.0467 -2.6122 -1.3030
 8623SOL     OW37327   2.449   1.724   1.852 -0.9430 -0.0422 -0.2238
 8623SOL    HW137328   2.455   1.764   1.939 -0.9197 -0.6822  0.0690
 8623SOL    HW237329   2.537   1.688   1.841 -0.3263  0.5466  2.6761
 8624SOL     OW37330   3.002   2.719   2.299 -0.2041  0.2859 -0.4944
 8624SOL    HW137331   2.913   2.705   2.267  0.8927 -0.4323 -3.1918
 8624SOL    HW237332   3.041   2.632   2.285 -0.0693  0.1444  0.7837
 8625SOL     OW37333   3.832   1.047   2.945 -0.2852  0.2837  0.2180
 8625SOL    HW137334   3.840   1.142   2.940 -0.9996  0.4088  1.3737
 8625SOL    HW237335   3.769   1.027   2.876  0.6777 -0.6443 -0.3890
 8626SOL     OW37336   1.851   3.755   5.109 -0.4131  0.6202  0.5567
 8626SOL    HW137337   1.883   3.819   5.045 -1.1756  1.6508  1.1886
 8626SOL    HW237338   1.789   3.818   5.146 -0.2860  0.3003  1.3099
 8627SOL     OW37339   3.004   4.414   4.807  0.0473 -0.2413 -0.5983
 8627SOL    HW137340   3.097   4.421   4.783  0.7025 -1.2578  1.7473
 8627SOL    HW237341   2.963   4.484   4.756 -0.1859  1.4876  1.9904
 8628SOL     OW37342   2.645   1.754   5.600  0.4014 -0.2154  0.3416
 8628SOL    HW137343   2.631   1.769   5.693 -0.2924  0.0143  0.2020
 8628SOL    HW237344   2.570   1.700   5.575  0.1579  0.5823 -0.6489
 8629SOL     OW37345   4.342   1.948   5.563 -0.2443 -0.3255 -0.2133
 8629SOL    HW137346   4.419   2.000   5.542 -0.1782  0.3529  1.7356
 8629SOL    HW237347   4.380   1.883   5.623 -0.7855  1.5333  2.1603
 8630SOL     OW37348   4.385   1.233   3.574  0.2508  0.1186  0.8835
 8630SOL    HW137349   4.371   1.248   3.668 -0.9121 -1.0945  0.9040
 8630SOL    HW237350   4.435   1.152   3.570  0.7658  0.6932 -3.8035
 8631SOL     OW37351   1.413   3.084   3.753  0.4113  0.1153  0.5899
 8631SOL    HW137352   1.417   3.079   3.848  1.5957  0.0575  0.5407
 8631SOL    HW237353   1.319   3.090   3.734 -0.0353 -2.2029  2.1755
 8632SOL     OW37354   0.169   2.856   4.816  0.3804 -0.0015 -0.0699
 8632SOL    HW137355   0.114   2.911   4.761  2.3258  1.9030 -0.0830
 8632SOL    HW237356   0.192   2.911   4.890  1.3089  0.6204 -0.8289
 8633SOL     OW37357   4.020   2.838   8.214 -0.6095  0.4713 -0.1783
 8633SOL    HW137358   3.964   2.765   8.241  2.2822 -2.0537 -1.0818
 8633SOL    HW237359   4.051   2.879   8.294  0.0078  2.2899 -1.3501
 8634SOL     OW37360   0.074   4.575   4.617  0.0273  0.4854 -0.0548
 8634SOL    HW137361   0.010   4.510   4.647  0.3249  0.0435 -0.3704
 8634SOL    HW237362   0.036   4.587   4.530 -0.5941  1.6480  0.3719
 8635SOL     OW37363   0.307   4.651   8.687  0.1865  0.0408  0.2340
 8635SOL    HW137364   0.229   4.662   8.632  1.4281 -1.2151 -1.7855
 8635SOL    HW237365   0.284   0.002   8.746 -5.4109 -1.9778  0.5635
 8636SOL     OW37366   4.343   4.611   3.343  0.1356 -0.4164 -0.3475
 8636SOL    HW137367   4.346   4.536   3.284  0.6336 -0.4330 -0.2982
 8636SOL    HW237368   4.389   4.676   3.290  2.7715 -1.6902  0.3992
 8637SOL     OW37369   2.728   1.658   7.268 -0.3153  0.6704  0.2337
 8637SOL    HW137370   2.788   1.732   7.282  0.2152  0.2227  0.3369
 8637SOL    HW237371   2.717   1.620   7.355  0.9599 -1.6610 -0.6056
 8638SOL     OW37372   1.093   0.990   0.281 -0.3857 -0.1971 -0.5435
 8638SOL    HW137373   1.185   1.015   0.272 -0.6870  1.3873  0.7080
 8638SOL    HW237374   1.068   1.010   0.192 -0.6043  0.8993 -0.2341
 8639SOL     OW37375   1.232   1.260   0.023 -0.2168  0.0027 -0.2180
 8639SOL    HW137376   1.206   1.168   0.019 -0.1709 -0.0732  1.5475
 8639SOL    HW237377   1.245   1.270   0.117  2.4747 -1.1473 -0.4428
 8640SOL     OW37378   1.160   2.524   0.923  0.3195 -0.5153  0.6568
 8640SOL    HW137379   1.142   2.430   0.920 -0.8023 -0.2645 -0.3392
 8640SOL    HW237380   1.093   2.565   0.868  1.3561  2.2112  1.4362
 8641SOL     OW37381   4.345   1.580   4.724  0.4429  0.3662  0.2846
 8641SOL    HW137382   4.409   1.573   4.795  0.9063  1.5614 -0.0216
 8641SOL    HW237383   4.371   1.502   4.675  0.9087  1.1605 -0.7276
 8642SOL     OW37384   3.625   1.863   3.469 -0.0176  0.2533 -0.7877
 8642SOL    HW137385   3.555   1.801   3.487  0.5140  0.3270  1.4783
 8642SOL    HW237386   3.659   1.878   3.557  0.0667  0.8279 -0.9179
 8643SOL     OW37387   0.562   0.245   1.266  0.6729 -0.0432  0.1954
 8643SOL    HW137388   0.476   0.278   1.240  1.5807  1.8091 -0.4912
 8643SOL    HW237389   0.544   0.151   1.271 -0.3564  0.2827  2.6641
 8644SOL     OW37390   2.157   0.188   3.064 -0.0729 -0.0732 -0.7328
 8644SOL    HW137391   2.204   0.130   3.124 -0.5920 -0.5592 -0.7919
 8644SOL    HW237392   2.071   0.175   3.106  0.3436 -0.3066  0.0496
 8645SOL     OW37393   2.961   3.275   1.642  0.1404  0.1567  0.4795
 8645SOL    HW137394   3.016   3.351   1.621 -0.5113  0.6078  0.3953
 8645SOL    HW237395   3.010   3.204   1.602 -1.1167 -1.0450  1.0459
 8646SOL     OW37396   2.386   2.090   3.284 -0.0925  0.1419  0.2063
 8646SOL    HW137397   2.471   2.066   3.320 -0.1278 -1.9129 -1.0889
 8646SOL    HW237398   2.384   2.165   3.344 -0.3792  1.0744 -0.9695
 8647SOL     OW37399   1.759   0.981   8.197  0.1011 -0.1702  0.5367
 8647SOL    HW137400   1.704   0.922   8.249 -0.8634  1.1560  1.0204
 8647SOL    HW237401   1.700   1.015   8.129  1.2849 -1.7100 -1.2636
 8648SOL     OW37402   4.481   1.847  11.915 -0.4836 -0.0731 -0.0717
 8648SOL    HW137403   4.563   1.894  11.933 -0.6983  0.9059 -1.6424
 8648SOL    HW237404   4.497   1.814  11.827 -0.7791  0.1921 -0.2211
 8649SOL     OW37405   3.555   2.967  12.355 -0.5650 -0.1463  0.4369
 8649SOL    HW137406   3.490   2.955  12.286  0.0038 -2.2401  0.2460
 8649SOL    HW237407   3.548   3.057  12.386 -1.8652 -0.4455  1.0077
 8650SOL     OW37408   0.067   4.056   9.703  0.5006  0.1737 -0.3979
 8650SOL    HW137409   0.075   4.151   9.711 -0.2919  0.0157  2.4803
 8650SOL    HW237410   0.035   4.030   9.790 -0.4629  2.6606  0.0100
 8651SOL     OW37411   0.224   1.966  10.200 -0.1272 -0.4884 -0.2553
 8651SOL    HW137412   0.185   1.942  10.284 -0.9200  2.5580  0.2634
 8651SOL    HW237413   0.164   2.037  10.174  0.1422 -0.5889 -1.1235
 8652SOL     OW37414   0.967   2.349   9.393  0.5552  0.3637 -0.7097
 8652SOL    HW137415   1.004   2.384   9.473 -1.2557  0.4647  0.0750
 8652SOL    HW237416   0.903   2.410   9.355  0.3040  1.1916  1.0584
 8653SOL     OW37417   3.637   2.522   8.137  0.0558  0.2244 -0.1000
 8653SOL    HW137418   3.649   2.533   8.042 -0.3793 -0.3535 -0.2180
 8653SOL    HW237419   3.547   2.553   8.145  1.3272  2.2038  6.1101
 8654SOL     OW37420   2.722   0.382   9.470 -0.4674 -0.2687 -0.6809
 8654SOL    HW137421   2.815   0.389   9.491 -0.6218 -1.0637  0.2392
 8654SOL    HW237422   2.688   0.461   9.511  1.0913  0.4890 -0.8741
 8655SOL     OW37423   3.912   3.315   5.815  0.7112 -0.0632 -0.2805
 8655SOL    HW137424   3.944   3.396   5.775 -1.2018 -1.0070 -3.7083
 8655SOL    HW237425   3.924   3.248   5.748  3.6867 -0.6170  0.8191
 8656SOL     OW37426   2.282   0.239   8.305 -1.2239 -0.2013  0.5030
 8656SOL    HW137427   2.353   0.259   8.366  0.3592 -1.6926 -0.8747
 8656SOL    HW237428   2.262   0.328   8.276 -1.0818  0.6675  2.9876
 8657SOL     OW37429   2.821   1.681   0.738 -0.6901  0.5326  0.0503
 8657SOL    HW137430   2.774   1.762   0.757 -0.5681  0.7033 -0.3883
 8657SOL    HW237431   2.842   1.679   0.645  2.6021 -2.8326  0.8615
 8658SOL     OW37432   1.951   2.835  13.198  0.2536  0.2275 -0.1838
 8658SOL    HW137433   2.040   2.857  13.171  1.6865 -4.0607  1.0969
 8658SOL    HW237434   1.898   2.874  13.129  1.8359  1.6670 -0.5874
 8659SOL     OW37435   1.456   4.431   6.259 -0.4690  0.1095 -0.5645
 8659SOL    HW137436   1.527   4.372   6.283  0.0144  1.2863  0.8387
 8659SOL    HW237437   1.443   4.401   6.169  0.7935  0.8335 -0.9904
 8660SOL     OW37438   3.197   2.649   5.881  0.0563  0.1952  0.5296
 8660SOL    HW137439   3.156   2.710   5.820 -2.5446 -1.3555  0.7032
 8660SOL    HW237440   3.253   2.600   5.822 -0.1708  0.3373  0.1982
 8661SOL     OW37441   2.588   0.330   5.611  0.0888  0.1645  0.1427
 8661SOL    HW137442   2.514   0.278   5.643 -0.7060  1.0521 -0.2360
 8661SOL    HW237443   2.632   0.337   5.696  0.3221 -1.0923  0.1227
 8662SOL     OW37444   0.435   1.173   2.909  0.4086 -0.0664 -0.3338
 8662SOL    HW137445   0.393   1.257   2.929  1.0221  0.0053  0.6172
 8662SOL    HW237446   0.393   1.118   2.975 -1.1351  1.6165  0.0944
 8663SOL     OW37447   0.563   1.277  11.631  0.2372  0.0208 -0.4504
 8663SOL    HW137448   0.487   1.228  11.601 -0.9642  2.0052 -0.6362
 8663SOL    HW237449   0.535   1.369  11.630 -0.4824 -0.1983  0.1004
 8664SOL     OW37450   0.037   0.866   8.956  0.1022  0.0726  0.0065
 8664SOL    HW137451   0.130   0.888   8.965  0.6621 -1.0667 -2.7847
 8664SOL    HW237452   0.022   0.895   8.866  0.7846  1.9516  0.4930
 8665SOL     OW37453   3.524   0.551   2.040 -0.6373 -0.5050 -0.3938
 8665SOL    HW137454   3.557   0.522   1.955  2.0809  0.3497  0.3725
 8665SOL    HW237455   3.598   0.515   2.089  0.4437  0.5353 -1.2738
 8666SOL     OW37456   0.387   1.526   4.380  0.7972  0.3900 -0.4096
 8666SOL    HW137457   0.393   1.454   4.442 -2.2782 -1.1238 -1.8714
 8666SOL    HW237458   0.300   1.562   4.401 -0.2639 -1.3907 -1.7571
 8667SOL     OW37459   2.333   2.199  15.023  0.1195  0.2136  0.7025
 8667SOL    HW137460   2.412   2.152  15.052 -0.4438 -0.9341  0.3859
 8667SOL    HW237461   2.306   2.162  14.939  0.5065 -0.9893  1.1079
 8668SOL     OW37462   4.401   3.940   4.015 -0.4154  0.0934  0.2843
 8668SOL    HW137463   4.337   3.928   3.944  0.9548  0.0092 -0.9425
 8668SOL    HW237464   4.381   3.856   4.056 -2.7156 -0.2828 -1.5730
 8669SOL     OW37465   1.906   3.146   8.581  0.0572 -0.2116 -0.5953
 8669SOL    HW137466   1.832   3.092   8.608  0.3695 -0.2213  0.2539
 8669SOL    HW237467   1.854   3.220   8.549  0.5361 -0.2198 -1.3965
 8670SOL     OW37468   0.092   4.655   7.984  0.8664  0.3304  0.0177
 8670SOL    HW137469   0.133   4.572   7.962 -1.6458 -1.1820  1.1071
 8670SOL    HW237470   0.098   4.651   8.079 -1.0647 -0.5776  0.1084
 8671SOL     OW37471   4.521   3.085   0.708 -0.4266 -0.2932 -0.5096
 8671SOL    HW137472   4.442   3.131   0.735  0.5135  0.9733  0.0851
 8671SOL    HW237473   4.485   2.996   0.701  1.2734 -0.8382 -2.4060
 8672SOL     OW37474   2.471   0.951   6.191  0.1655  0.2935  0.6864
 8672SOL    HW137475   2.423   0.868   6.190 -0.4058  0.6257  0.5601
 8672SOL    HW237476   2.541   0.936   6.127 -0.1717  0.3273  0.3115
 8673SOL     OW37477   3.867   1.701   6.344  0.4115  0.0877 -0.0086
 8673SOL    HW137478   3.859   1.614   6.306 -3.1101  0.5434 -0.3500
 8673SOL    HW237479   3.883   1.746   6.261 -0.2286 -2.2441 -1.3995
 8674SOL     OW37480   0.381   2.384   2.925  0.0424  0.3910 -0.1902
 8674SOL    HW137481   0.417   2.399   2.838 -0.0030  1.4317 -0.0267
 8674SOL    HW237482   0.295   2.424   2.913  0.1158  1.4214  2.7643
 8675SOL     OW37483   0.401   2.235   0.495  0.1465  0.0555  0.3829
 8675SOL    HW137484   0.422   2.300   0.429  0.7300  0.5253  1.0268
 8675SOL    HW237485   0.361   2.172   0.436 -0.7250 -0.6645  1.7339
 8676SOL     OW37486   3.542   2.771  11.808  0.4154  0.5009  0.6199
 8676SOL    HW137487   3.457   2.805  11.779  0.9551  0.1186 -1.4420
 8676SOL    HW237488   3.573   2.728  11.728 -0.7360 -0.8853  0.9179
 8677SOL     OW37489   3.990   1.288   2.474 -0.1768 -0.4272 -0.5400
 8677SOL    HW137490   3.934   1.224   2.430 -0.7593 -1.0385  1.0543
 8677SOL    HW237491   4.017   1.236   2.550  1.1668  1.7478  0.4802
 8678SOL     OW37492   2.373   0.843   8.608 -0.4217  0.2878 -0.4757
 8678SOL    HW137493   2.393   0.795   8.528  0.1780 -2.3251  1.2304
 8678SOL    HW237494   2.392   0.932   8.579 -0.0936  1.3777  3.0773
 8679SOL     OW37495   1.177   0.803   5.484 -0.0345  0.1310  0.0652
 8679SOL    HW137496   1.136   0.797   5.398 -0.9875  0.1900  0.5149
 8679SOL    HW237497   1.156   0.895   5.500  1.4266  0.4782 -0.0107
 8680SOL     OW37498   2.698   2.707   2.292 -0.1353  0.8070  0.3968
 8680SOL    HW137499   2.605   2.716   2.273  0.0403 -0.3922 -1.0620
 8680SOL    HW237500   2.726   2.797   2.312 -0.2938  0.4551  2.1882
 8681SOL     OW37501   0.629   0.068   7.187  0.4991 -0.5178 -0.1202
 8681SOL    HW137502   0.594   0.061   7.098 -2.2499  0.8626  0.8261
 8681SOL    HW237503   0.716   0.032   7.172  1.1415 -0.2483  2.9961
 8682SOL     OW37504   3.770   3.848   9.364 -0.2117  0.3511  0.3594
 8682SOL    HW137505   3.713   3.772   9.373 -0.6889  0.5663 -0.7733
 8682SOL    HW237506   3.747   3.904   9.438  1.4280  1.1735  0.2481
 8683SOL     OW37507   3.133   0.517   2.955  0.4220  0.2638 -0.4092
 8683SOL    HW137508   3.163   0.585   3.016  0.7539 -0.1471 -0.1139
 8683SOL    HW237509   3.043   0.545   2.936 -0.2555  0.3858  2.9913
 8684SOL     OW37510   2.454   3.883   2.518 -0.1028  0.1183 -0.0393
 8684SOL    HW137511   2.383   3.883   2.453  0.3798 -0.8032 -0.5562
 8684SOL    HW237512   2.528   3.906   2.462  0.7746  0.1105  1.1160
 8685SOL     OW37513   0.504   0.874   4.602  0.2463  0.4346  0.2443
 8685SOL    HW137514   0.559   0.825   4.542  0.9143  0.6857  0.6517
 8685SOL    HW237515   0.493   0.809   4.672  0.0256  1.9557  1.6395
 8686SOL     OW37516   4.234   4.330   9.839  1.4442 -0.2806 -0.0624
 8686SOL    HW137517   4.237   4.244   9.797  0.8452 -0.2220 -0.2380
 8686SOL    HW237518   4.180   4.330   9.918  0.9091 -1.6172 -0.4258
 8687SOL     OW37519   1.621   2.325   7.497  0.1296 -0.2549  0.4072
 8687SOL    HW137520   1.555   2.381   7.456  2.1515  0.5403 -1.7785
 8687SOL    HW237521   1.633   2.361   7.585 -0.2937  2.9493 -0.8089
 8688SOL     OW37522   2.254   3.942  16.573 -0.5965 -0.6034 -0.1011
 8688SOL    HW137523   2.206   3.861  16.594 -0.0546 -0.7329  0.6502
 8688SOL    HW237524   2.182   4.004  16.581 -1.9158 -2.1268 -0.2252
 8689SOL     OW37525   3.361   3.767  15.007  0.7742 -0.0132  0.0883
 8689SOL    HW137526   3.422   3.723  15.065 -0.0349 -0.1223  0.8475
 8689SOL    HW237527   3.280   3.725  15.036 -0.3585  1.0291 -1.5716
 8690SOL     OW37528   1.481   0.941   8.892 -0.0792  0.3807  0.0105
 8690SOL    HW137529   1.398   0.981   8.917 -1.1587 -1.9281  0.1885
 8690SOL    HW237530   1.552   0.994   8.928 -0.5676  0.7704  0.3958
 8691SOL     OW37531   2.910   4.620  13.910  0.2379 -0.1767  0.3835
 8691SOL    HW137532   2.858   4.700  13.910 -0.3680 -0.5679  0.9790
 8691SOL    HW237533   2.885   4.600  14.000 -1.0047 -0.2664  0.0204
 8692SOL     OW37534   0.504   2.763   5.166 -0.4561  0.4060 -0.2458
 8692SOL    HW137535   0.592   2.730   5.183 -1.2692 -1.6394 -0.0234
 8692SOL    HW237536   0.511   2.841   5.221  1.1122  0.3512 -0.3518
 8693SOL     OW37537   2.646   3.062  10.395 -0.5027 -0.3817 -0.1325
 8693SOL    HW137538   2.738   3.039  10.385 -0.0415  1.3290  0.2573
 8693SOL    HW237539   2.647   3.115  10.475  1.1689 -0.1421 -0.3061
 8694SOL     OW37540   3.965   2.094   2.592 -0.3547 -0.0916 -0.6572
 8694SOL    HW137541   3.912   2.062   2.664 -2.4640  1.8713 -1.3284
 8694SOL    HW237542   3.928   2.040   2.522 -0.6615 -0.0798 -0.5007
 8695SOL     OW37543   2.668   3.784  10.593 -0.4232 -0.2572 -0.4598
 8695SOL    HW137544   2.678   3.762  10.685  0.1115 -1.9860 -0.9375
 8695SOL    HW237545   2.695   3.876  10.595 -0.3805 -0.2945  0.7841
 8696SOL     OW37546   2.075   1.567   1.939  0.4144  0.4348  0.3045
 8696SOL    HW137547   2.119   1.574   1.855  0.4087 -0.0352  0.2633
 8696SOL    HW237548   2.022   1.645   1.954 -0.6931 -0.2450 -0.0943
 8697SOL     OW37549   4.534   1.408   2.714  0.0532 -0.0518  0.0876
 8697SOL    HW137550   4.500   1.431   2.801 -3.2188 -1.7104 -0.7668
 8697SOL    HW237551   4.457   1.430   2.661 -0.0308  2.1877  1.1359
 8698SOL     OW37552   0.840   3.285   6.161  0.2939 -0.2116  0.1475
 8698SOL    HW137553   0.797   3.361   6.122 -1.8016 -1.7857 -0.6516
 8698SOL    HW237554   0.821   3.302   6.253  1.0995 -0.9744  0.4509
 8699SOL     OW37555   1.961   4.139   7.172  0.4031 -0.3118  0.0954
 8699SOL    HW137556   2.003   4.215   7.133 -0.5418  0.0922 -0.1461
 8699SOL    HW237557   1.985   4.149   7.264  0.1686 -0.5142  0.1782
 8700SOL     OW37558   3.947   3.987   5.068  0.5852  0.0120 -0.2409
 8700SOL    HW137559   3.931   4.074   5.032 -0.5955 -0.0826  0.0561
 8700SOL    HW237560   3.900   3.932   5.004 -0.7438 -0.3763  1.0770
 8701SOL     OW37561   0.884   2.237  15.051 -0.0648 -0.0369  0.2646
 8701SOL    HW137562   0.972   2.206  15.076  1.6008  1.4373 -3.7022
 8701SOL    HW237563   0.898   2.319  15.005  1.8887  0.0450  1.0029
 8702SOL     OW37564   2.755   3.691   9.865  0.0730  0.3058 -0.4089
 8702SOL    HW137565   2.720   3.643   9.940 -1.6378  0.8458 -0.8707
 8702SOL    HW237566   2.767   3.619   9.803 -1.5969  0.7998 -1.3165
 8703SOL     OW37567   2.935   4.080   3.393  0.2147  0.3916  0.2563
 8703SOL    HW137568   2.967   4.130   3.468  0.0428  0.7659  0.0781
 8703SOL    HW237569   2.842   4.065   3.410  0.1020  0.6667 -0.1104
 8704SOL     OW37570   3.740   1.187   7.341 -0.5190 -0.1085  0.2065
 8704SOL    HW137571   3.737   1.125   7.415  1.4064  0.0310  0.4075
 8704SOL    HW237572   3.757   1.261   7.399 -1.0346  2.0535 -2.4374
 8705SOL     OW37573   0.215   3.857   2.168 -0.0597 -0.0661 -0.2423
 8705SOL    HW137574   0.160   3.779   2.163  1.8943 -1.4475  0.0246
 8705SOL    HW237575   0.263   3.835   2.088  1.5255 -1.8396  1.1928
 8706SOL     OW37576   3.548   0.262   0.276 -0.0589 -0.1333 -0.1770
 8706SOL    HW137577   3.620   0.211   0.313  0.1005 -0.4893 -0.9720
 8706SOL    HW237578   3.538   0.317   0.353  0.6991 -0.5394  0.2135
 8707SOL     OW37579   2.037   3.151   7.395 -0.6988 -0.1405  0.2024
 8707SOL    HW137580   2.104   3.202   7.441 -1.5600 -0.8928  2.2867
 8707SOL    HW237581   2.036   3.211   7.320  0.6187  0.8736  1.0117
 8708SOL     OW37582   2.147   0.744   9.928  0.3597  0.0690 -0.5361
 8708SOL    HW137583   2.062   0.726   9.970 -0.1389 -1.6021 -2.2609
 8708SOL    HW237584   2.128   0.760   9.836  0.6706 -0.0573 -0.6217
 8709SOL     OW37585   2.556   3.328  11.125 -0.5176 -0.0338 -0.5105
 8709SOL    HW137586   2.575   3.274  11.202  2.2141  1.5080 -0.1265
 8709SOL    HW237587   2.461   3.317  11.113 -0.4240 -1.4920  0.0311
 8710SOL     OW37588   0.840   1.336   3.369 -0.2733  0.2584 -0.5033
 8710SOL    HW137589   0.865   1.426   3.348  0.1667  0.0929 -0.6846
 8710SOL    HW237590   0.807   1.305   3.285  0.9038  2.1312 -1.6489
 8711SOL     OW37591   0.671   3.912   1.937  0.6491 -0.0207  0.0159
 8711SOL    HW137592   0.655   3.969   2.013  0.0568  1.9268 -1.5823
 8711SOL    HW237593   0.762   3.936   1.924  0.9592 -0.5612  1.1403
 8712SOL     OW37594   1.595   3.496   6.984 -0.1820  0.2350  0.6185
 8712SOL    HW137595   1.527   3.513   7.049 -2.6747 -2.5596 -1.2487
 8712SOL    HW237596   1.602   3.400   6.984 -2.4329  0.0848  1.0327
 8713SOL     OW37597   3.646   0.384   2.971  1.1599 -0.2441 -0.3299
 8713SOL    HW137598   3.643   0.344   3.058  1.9185 -0.4334 -0.3899
 8713SOL    HW237599   3.671   0.473   2.997  0.1297 -0.0160 -0.1420
 8714SOL     OW37600   2.275   3.555   7.619  0.2351  0.1844 -0.3384
 8714SOL    HW137601   2.348   3.550   7.557 -1.9026 -0.1518 -2.8313
 8714SOL    HW237602   2.217   3.624   7.589 -0.7804 -1.0827 -1.2601
 8715SOL     OW37603   0.864   1.063  10.131 -0.0936  0.9238  0.6411
 8715SOL    HW137604   0.927   1.019  10.075 -0.8072  1.8283 -0.8492
 8715SOL    HW237605   0.789   1.093  10.079 -2.6684 -1.1326  3.1653
 8716SOL     OW37606   0.048   4.241   8.078 -0.3977 -0.0126  0.3889
 8716SOL    HW137607   0.117   4.274   8.136  2.1489 -0.6812 -2.2779
 8716SOL    HW237608   0.027   4.157   8.118 -1.4170 -0.2591 -0.6861
 8717SOL     OW37609   2.477   4.191   2.610  0.3121  0.4247  0.1668
 8717SOL    HW137610   2.510   4.258   2.550 -0.4368  0.0458 -0.6538
 8717SOL    HW237611   2.427   4.141   2.546  0.9823 -1.0192  0.7836
 8718SOL     OW37612   2.878   2.696   5.470  0.0004 -0.0446  0.0408
 8718SOL    HW137613   2.875   2.600   5.468  3.1758 -0.1618 -0.1795
 8718SOL    HW237614   2.830   2.719   5.390 -1.0123 -1.3242  0.2847
 8719SOL     OW37615   2.312   4.531   2.681 -0.0155 -0.0318  0.0280
 8719SOL    HW137616   2.370   4.467   2.723  0.5669  1.2600  1.1946
 8719SOL    HW237617   2.377   4.599   2.667 -1.1860  0.5661 -2.4787
 8720SOL     OW37618   0.727   2.813  12.755  0.3213  0.2178  0.2462
 8720SOL    HW137619   0.721   2.727  12.715  0.7303  0.7441 -0.9582
 8720SOL    HW237620   0.635   2.828  12.775  0.6357  1.9957  0.4258
 8721SOL     OW37621   0.249   3.810   7.712 -0.2480 -0.5234 -0.0317
 8721SOL    HW137622   0.304   3.753   7.766 -1.8462 -0.0726  2.0998
 8721SOL    HW237623   0.286   3.897   7.728 -2.6011  0.2296  1.3085
 8722SOL     OW37624   1.473   3.244   2.208 -0.0180 -0.5241  0.0783
 8722SOL    HW137625   1.556   3.260   2.253 -0.0823 -0.1491  0.0671
 8722SOL    HW237626   1.507   3.178   2.148 -1.3163 -2.6733  1.7169
 8723SOL     OW37627   4.290   0.150   5.352  0.0791  0.0215  0.5623
 8723SOL    HW137628   4.260   0.160   5.262  0.8838  1.3976  0.4547
 8723SOL    HW237629   4.380   0.184   5.351 -0.1215  0.5806  1.3534
 8724SOL     OW37630   2.893   4.620   4.671  0.1316  0.7212 -0.0880
 8724SOL    HW137631   2.905   4.654   4.583 -1.4745 -0.9965 -0.9551
 8724SOL    HW237632   2.800   4.638   4.667  0.1158  0.9106  1.1086
 8725SOL     OW37633   3.877   0.078   4.727 -0.6006 -0.1296  0.3789
 8725SOL    HW137634   3.783   0.080   4.709 -0.7480 -2.5226  0.8525
 8725SOL    HW237635   3.878   0.142   4.798  1.7457 -1.6727  1.7748
 8726SOL     OW37636   2.221   3.147   1.663  0.2817 -0.1254 -0.3130
 8726SOL    HW137637   2.271   3.076   1.703 -1.1839  0.3820  2.3813
 8726SOL    HW237638   2.287   3.206   1.626 -2.1298  2.0409 -1.2047
 8727SOL     OW37639   1.652   0.341   1.450 -0.1159  0.0835 -0.0156
 8727SOL    HW137640   1.644   0.388   1.533 -0.3749 -0.8126  0.4694
 8727SOL    HW237641   1.615   0.255   1.473 -0.9155  0.9260  1.8428
 8728SOL     OW37642   2.591   2.668   1.367  0.1855 -0.0368  0.0479
 8728SOL    HW137643   2.516   2.720   1.396  0.5809  0.8727 -0.5558
 8728SOL    HW237644   2.568   2.628   1.283 -1.7844  1.1674  0.0170
 8729SOL     OW37645   0.887   1.860   3.629  0.1104 -0.2072 -0.1516
 8729SOL    HW137646   0.876   1.775   3.671  0.1531 -0.2050 -0.1364
 8729SOL    HW237647   0.813   1.853   3.568  0.1156  0.8662 -0.2756
 8730SOL     OW37648   4.151   3.178   6.086  0.1972  0.2318  0.0353
 8730SOL    HW137649   4.184   3.144   6.003 -2.6932  2.1493 -1.8528
 8730SOL    HW237650   4.168   3.108   6.150  0.3732  2.6367  2.6477
 8731SOL     OW37651   0.594   4.394   2.683 -0.1099 -0.2855  0.1457
 8731SOL    HW137652   0.501   4.413   2.667  0.3006  0.7724 -0.9594
 8731SOL    HW237653   0.622   4.484   2.695 -0.9326  0.0096 -0.1603
 8732SOL     OW37654   2.174   0.326   7.282  0.0999 -0.2532 -0.0776
 8732SOL    HW137655   2.155   0.374   7.363 -0.7683  0.7160 -0.8563
 8732SOL    HW237656   2.083   0.324   7.251 -0.5029 -2.9526  1.8587
 8733SOL     OW37657   2.102   3.743   8.150 -0.1433 -0.1604  0.2677
 8733SOL    HW137658   2.069   3.654   8.161 -0.0028 -0.2911 -0.3735
 8733SOL    HW237659   2.101   3.753   8.055  1.7166  0.4480  0.3083
 8734SOL     OW37660   3.092   4.227   2.011  0.6876 -0.2001  0.0802
 8734SOL    HW137661   3.050   4.310   2.034  0.8081  0.4237 -1.9772
 8734SOL    HW237662   3.183   4.255   2.004  0.6615 -0.1533 -0.0687
 8735SOL     OW37663   1.783   4.066   6.139 -0.0503  0.3736 -0.2464
 8735SOL    HW137664   1.711   4.005   6.155  1.9439 -1.6417  0.9579
 8735SOL    HW237665   1.822   4.015   6.068 -1.1686  0.2087 -0.7353
 8736SOL     OW37666   0.011   1.066  16.549 -0.2484 -0.1199 -0.4822
 8736SOL    HW137667   4.714   0.972  16.553 -0.8983 -0.0500 -1.6085
 8736SOL    HW237668   4.648   1.084  16.505  1.2624  3.1470 -2.0167
 8737SOL     OW37669   1.135   0.472   7.864  0.7187 -0.0819  0.0354
 8737SOL    HW137670   1.160   0.561   7.889 -1.2249  0.3222  0.5955
 8737SOL    HW237671   1.091   0.443   7.944 -0.6677  1.2793 -0.2180
 8738SOL     OW37672   0.240   2.915   3.377  0.5213  0.1565 -0.6035
 8738SOL    HW137673   0.312   2.901   3.315  0.3622  0.7885 -0.9350
 8738SOL    HW237674   0.193   2.836   3.350 -0.5430  0.1825  1.1526
 8739SOL     OW37675   2.026   3.250   3.662 -0.0857 -0.4043  0.5185
 8739SOL    HW137676   1.950   3.308   3.665 -0.1799 -0.5986  1.9219
 8739SOL    HW237677   2.083   3.295   3.599  0.5322  0.6845  1.8395
 8740SOL     OW37678   2.437   3.101   0.923  0.5052  0.4123  0.0200
 8740SOL    HW137679   2.349   3.133   0.944  0.9798  1.6398  0.1472
 8740SOL    HW237680   2.475   3.170   0.868  1.0540 -0.3537 -0.5509
 8741SOL     OW37681   0.299   1.026   5.516 -0.8729  0.3231 -0.2875
 8741SOL    HW137682   0.252   1.040   5.433 -1.5843 -0.5940 -0.0438
 8741SOL    HW237683   0.219   1.004   5.564  0.2685 -0.5610  1.2021
 8742SOL     OW37684   4.316   3.809   0.937  0.4673 -0.2485  0.1017
 8742SOL    HW137685   4.390   3.816   0.998 -0.1256 -0.3153  0.8322
 8742SOL    HW237686   4.263   3.882   0.970  0.5710 -0.8626  1.6089
 8743SOL     OW37687   1.150   2.153  17.590 -0.4245 -0.3106 -0.0683
 8743SOL    HW137688   1.147   2.067  17.633  0.9777 -0.2432  0.1719
 8743SOL    HW237689   1.226   2.187  17.637 -0.2812 -1.0881  0.2712
 8744SOL     OW37690   2.544   4.570  14.258  0.2307  0.8333 -0.3155
 8744SOL    HW137691   2.488   4.498  14.287  0.3923  0.9573  0.3168
 8744SOL    HW237692   2.497   4.651  14.278  1.2456  1.4865 -0.5845
 8745SOL     OW37693   3.022   4.160  17.325  0.3195  0.0046  0.0721
 8745SOL    HW137694   3.040   4.216  17.401 -1.4168  1.3756 -0.5205
 8745SOL    HW237695   2.981   4.092  17.378 -1.0793  0.1365 -0.8635
 8746SOL     OW37696   1.086   0.509   6.792 -0.1141  0.5566  0.2953
 8746SOL    HW137697   1.087   0.424   6.747  3.2754  0.8886 -0.2653
 8746SOL    HW237698   1.039   0.567   6.732 -0.8515 -0.4326 -0.0769
 8747SOL     OW37699   1.474   2.296  16.416  0.1552 -0.4066 -0.1342
 8747SOL    HW137700   1.420   2.343  16.480  1.1936  1.7730 -0.8531
 8747SOL    HW237701   1.450   2.344  16.336 -1.1627 -1.5891 -0.4564
 8748SOL     OW37702   4.158   1.915   3.797  0.3321 -0.3943 -0.7105
 8748SOL    HW137703   4.252   1.930   3.789  0.2807 -0.4092 -1.3971
 8748SOL    HW237704   4.119   1.991   3.754 -1.2479 -0.0226  1.3813
 8749SOL     OW37705   0.844   0.094   8.320 -0.2265  0.0353 -0.2211
 8749SOL    HW137706   0.749   0.091   8.331 -0.1826  0.6007  0.3477
 8749SOL    HW237707   0.849   0.186   8.294 -2.4892 -0.1462 -1.3219
 8750SOL     OW37708   3.315   0.858   2.424  0.0113  0.3755  0.1605
 8750SOL    HW137709   3.339   0.795   2.356  2.1456  0.3493  0.9240
 8750SOL    HW237710   3.270   0.807   2.491 -1.7992  1.2203 -0.4068
 8751SOL     OW37711   2.550   0.443   3.845 -0.4477 -0.3972 -0.3832
 8751SOL    HW137712   2.488   0.377   3.876 -2.7475  1.2356 -1.5657
 8751SOL    HW237713   2.621   0.382   3.825 -1.0964 -1.5520  0.8867
 8752SOL     OW37714   3.055   0.893  15.067  0.0043 -0.4683  0.3314
 8752SOL    HW137715   3.065   0.849  14.983  0.4421  1.2767 -0.5303
 8752SOL    HW237716   3.022   0.977  15.036  1.6328 -0.2254 -0.7693
 8753SOL     OW37717   4.461   4.679  11.182 -0.0219 -0.0609  0.3239
 8753SOL    HW137718   4.429   4.705  11.096  0.5961  1.1172  0.4491
 8753SOL    HW237719   4.432   0.034  11.233  1.6941 -0.2219  1.5420
 8754SOL     OW37720   1.037   0.711  10.945  0.3680  0.0813  0.1264
 8754SOL    HW137721   1.107   0.766  10.979 -0.7770  2.1543 -0.8527
 8754SOL    HW237722   1.007   0.663  11.022  0.1035  1.8126  1.1112
 8755SOL     OW37723   3.629   3.406   9.357 -0.0996  0.1117  0.2194
 8755SOL    HW137724   3.642   3.500   9.365 -0.3837  0.2167 -0.5478
 8755SOL    HW237725   3.660   3.369   9.440 -1.0367  0.1413  0.5786
 8756SOL     OW37726   1.399   2.036   7.722 -0.1890 -0.1814  0.0572
 8756SOL    HW137727   1.362   2.122   7.702  0.8776  0.3322  0.3210
 8756SOL    HW237728   1.326   1.989   7.763 -0.6821  0.5604  0.0347
 8757SOL     OW37729   3.438   2.512   3.948  0.1148  0.1885  0.3329
 8757SOL    HW137730   3.430   2.486   4.040  0.1139 -2.3680 -0.3967
 8757SOL    HW237731   3.480   2.596   3.965 -2.9631  1.2079  2.9337
 8758SOL     OW37732   4.035   1.893   0.449 -0.4249 -0.2401 -0.9442
 8758SOL    HW137733   3.985   1.889   0.368  1.1002 -0.1348 -1.8921
 8758SOL    HW237734   4.019   1.978   0.489 -2.5858 -0.3375 -1.6278
 8759SOL     OW37735   0.566   0.939   0.866 -0.0418  0.5186  0.3833
 8759SOL    HW137736   0.566   1.032   0.842 -1.5813  1.1699  2.8916
 8759SOL    HW237737   0.647   0.904   0.828  0.1483 -0.4685  1.7081
 8760SOL     OW37738   2.130   1.593   6.899  0.4124 -1.1133  0.5746
 8760SOL    HW137739   2.201   1.610   6.838 -0.1420 -0.4341  0.1192
 8760SOL    HW237740   2.049   1.620   6.855  1.9346  0.7124 -1.0552
 8761SOL     OW37741   2.677   0.416   9.938  0.4983  0.5750 -0.0911
 8761SOL    HW137742   2.734   0.352   9.981 -0.2265  1.6303  2.5042
 8761SOL    HW237743   2.699   0.492   9.992  1.0155  0.7133 -0.4990
 8762SOL     OW37744   4.678   2.193   7.590 -1.0459 -0.6571  0.1837
 8762SOL    HW137745   0.002   2.110   7.576 -0.5528 -0.6142  1.5235
 8762SOL    HW237746   4.686   2.211   7.684  1.3282 -0.7008 -0.0271
 8763SOL     OW37747   0.303   3.193   5.838 -0.3509 -0.2113  0.4329
 8763SOL    HW137748   0.234   3.220   5.779 -2.0583 -1.6917  1.7517
 8763SOL    HW237749   0.270   3.211   5.926  0.3607  0.0816  0.6455
 8764SOL     OW37750   2.357   4.136  14.817  0.0818 -0.1302  0.2221
 8764SOL    HW137751   2.384   4.202  14.880  0.4332 -1.0740  1.0571
 8764SOL    HW237752   2.261   4.129  14.819  0.0834 -0.0284  0.5639
 8765SOL     OW37753   0.076   3.016   8.092  0.8333 -0.7189  1.2444
 8765SOL    HW137754   0.140   2.979   8.031  1.0135 -0.2382  1.1397
 8765SOL    HW237755   0.122   3.093   8.126 -0.4309  1.5510 -2.1814
 8766SOL     OW37756   3.587   1.855   5.827 -0.4099  0.1441 -0.0080
 8766SOL    HW137757   3.567   1.933   5.878 -1.2645 -0.3913  0.4731
 8766SOL    HW237758   3.508   1.810   5.855 -0.7392  1.3411  0.9552
 8767SOL     OW37759   1.512   2.245   5.783 -0.2187 -0.2621  0.1632
 8767SOL    HW137760   1.464   2.308   5.729  1.1435  2.0238  1.6088
 8767SOL    HW237761   1.456   2.245   5.861 -0.8642  1.9277 -0.2811
 8768SOL     OW37762   3.963   2.217  10.631 -0.0128 -0.2400 -0.1805
 8768SOL    HW137763   3.945   2.304  10.596  1.2330  0.0013 -0.2224
 8768SOL    HW237764   4.020   2.229  10.707  0.1338 -2.9853  0.1407
 8769SOL     OW37765   4.662   0.521   5.508  0.1857 -0.8544 -0.2880
 8769SOL    HW137766   4.592   0.494   5.568 -0.3321  3.1900  0.9411
 8769SOL    HW237767   4.672   0.605   5.553  0.3857 -0.7866 -0.4592
 8770SOL     OW37768   4.005   0.554   3.859  0.1518 -0.2316 -0.0337
 8770SOL    HW137769   3.986   0.494   3.787  0.1444  1.7087 -1.6675
 8770SOL    HW237770   3.996   0.639   3.816 -0.6470  1.7228  3.9669
 8771SOL     OW37771   0.342   3.465  17.279  0.0876  0.3265  0.4574
 8771SOL    HW137772   0.280   3.521  17.326  0.3844  2.2283 -1.4310
 8771SOL    HW237773   0.323   3.481  17.187 -0.3291  2.6489  0.9327
 8772SOL     OW37774   1.169   1.746   1.720  0.0054  0.2463  0.0172
 8772SOL    HW137775   1.117   1.680   1.674  2.0496 -1.0206 -0.4374
 8772SOL    HW237776   1.253   1.719   1.685  0.7801  2.1201  0.4448
 8773SOL     OW37777   0.117   3.509   5.215 -0.0879  0.1551  0.4161
 8773SOL    HW137778   0.206   3.508   5.251 -0.9987 -1.6489  2.5778
 8773SOL    HW237779   0.082   3.430   5.256 -0.1123 -0.0417  0.0237
 8774SOL     OW37780   1.375   4.421   9.639 -0.1823  0.2779  0.5013
 8774SOL    HW137781   1.403   4.413   9.548 -1.3945  2.2312 -0.0408
 8774SOL    HW237782   1.279   4.425   9.642 -0.2374  0.0250 -0.8884
 8775SOL     OW37783   0.449   4.463   9.629  0.3092  0.3354 -0.0787
 8775SOL    HW137784   0.532   4.414   9.628 -0.7930 -1.4721 -1.5523
 8775SOL    HW237785   0.478   4.527   9.694 -2.4908  1.5180 -0.0422
 8776SOL     OW37786   3.854   0.663   4.056 -0.4819  0.5398  0.2323
 8776SOL    HW137787   3.868   0.601   4.128 -0.7698  1.4323  1.0618
 8776SOL    HW237788   3.917   0.640   3.988  1.3879  1.8487  1.5278
 8777SOL     OW37789   4.053   0.999   5.733 -0.1427 -0.1259  0.0984
 8777SOL    HW137790   4.043   1.091   5.758  1.1245  0.0276  0.0365
 8777SOL    HW237791   4.082   0.969   5.819  0.8268  2.5433  0.6926
 8778SOL     OW37792   1.297   2.241   3.836 -0.0699 -0.7457  0.2747
 8778SOL    HW137793   1.247   2.318   3.808  1.3450 -0.1147 -0.5372
 8778SOL    HW237794   1.371   2.284   3.879 -1.2306 -0.4536  1.9823
 8779SOL     OW37795   2.154   2.459   0.605  0.2678 -0.2490 -0.4135
 8779SOL    HW137796   2.143   2.373   0.565 -3.2129 -1.1818  2.5445
 8779SOL    HW237797   2.197   2.503   0.533  1.3876  2.0120  1.6331
 8780SOL     OW37798   1.789   3.880   4.627  0.6507  0.7184 -0.1360
 8780SOL    HW137799   1.825   3.871   4.715  1.5338  0.8581 -0.4717
 8780SOL    HW237800   1.710   3.931   4.641  1.0166  1.3060 -0.1994
 8781SOL     OW37801   3.704   0.187   2.791 -0.1278 -0.1784 -0.2567
 8781SOL    HW137802   3.798   0.199   2.778  0.0691 -1.6536 -0.1951
 8781SOL    HW237803   3.676   0.261   2.844 -1.5826 -0.3730 -0.7574
 8782SOL     OW37804   1.500   0.355   6.646 -0.1107  0.8262 -0.0929
 8782SOL    HW137805   1.453   0.277   6.675  1.2418 -0.3332 -1.0599
 8782SOL    HW237806   1.443   0.422   6.683 -0.0217  0.7843  0.1220
 8783SOL     OW37807   3.203   0.248   1.787  0.5281  0.4472  0.4255
 8783SOL    HW137808   3.289   0.291   1.782  1.2517 -1.1263 -0.3318
 8783SOL    HW237809   3.153   0.324   1.820  0.7470  0.8306 -0.1321
 8784SOL     OW37810   1.425   4.143  11.271 -0.3176  0.3647 -0.0557
 8784SOL    HW137811   1.337   4.120  11.301 -1.0387  2.7453 -0.3623
 8784SOL    HW237812   1.456   4.196  11.345  1.1462 -0.6327  0.0616
 8785SOL     OW37813   0.409   2.192   7.539 -0.0675  0.0138 -0.1050
 8785SOL    HW137814   0.464   2.166   7.465 -1.9208 -0.1866 -1.4113
 8785SOL    HW237815   0.371   2.256   7.479  1.9702  0.9197 -0.4227
 8786SOL     OW37816   2.613   0.980   5.411  0.0326 -0.7741 -0.3642
 8786SOL    HW137817   2.633   1.003   5.320  2.5989  0.6178  0.5340
 8786SOL    HW237818   2.551   0.910   5.395  1.9140 -2.3660 -0.6458
 8787SOL     OW37819   0.803   1.114   5.686 -0.1278  0.2205  0.1685
 8787SOL    HW137820   0.709   1.110   5.667 -0.3043  1.3491  0.7490
 8787SOL    HW237821   0.813   1.023   5.713 -1.4043  1.0264  3.4436
 8788SOL     OW37822   2.477   0.518   5.848  0.2813  0.4852 -0.1194
 8788SOL    HW137823   2.475   0.607   5.881 -0.8265  0.3852  0.1158
 8788SOL    HW237824   2.390   0.486   5.875  1.1419 -2.3916 -0.7693
 8789SOL     OW37825   2.477   2.594   1.710 -0.2237  0.1346  0.2026
 8789SOL    HW137826   2.435   2.627   1.789  1.3361  3.9271 -0.5798
 8789SOL    HW237827   2.554   2.648   1.693 -0.9586  1.1431  0.0867
 8790SOL     OW37828   2.426   1.181   2.849  0.7406  0.0520  0.0034
 8790SOL    HW137829   2.514   1.204   2.878  1.7439  0.5051 -3.4591
 8790SOL    HW237830   2.392   1.270   2.859 -2.5557 -1.2419  0.3644
 8791SOL     OW37831   1.044   1.331   1.926  0.3925  0.5775 -0.0361
 8791SOL    HW137832   1.041   1.256   1.984 -0.3318  1.2038  0.7358
 8791SOL    HW237833   1.079   1.392   1.991  0.9835  0.4656 -0.2478
 8792SOL     OW37834   2.976   1.297   3.825 -0.1125  0.6275  0.4815
 8792SOL    HW137835   3.063   1.295   3.864  0.2561 -0.9250 -0.4222
 8792SOL    HW237836   2.925   1.237   3.881  0.0353 -0.6491 -0.7509
 8793SOL     OW37837   0.165   2.608   1.070 -0.1299 -0.2485 -0.2757
 8793SOL    HW137838   0.156   2.694   1.030  1.1398  0.1597  0.3340
 8793SOL    HW237839   0.249   2.619   1.115 -0.1551 -0.9216 -0.0608
 8794SOL     OW37840   2.601   2.059   4.530 -0.2966  0.7160  0.5776
 8794SOL    HW137841   2.585   1.994   4.597  1.2889  0.5529  0.7918
 8794SOL    HW237842   2.523   2.114   4.535 -0.2647  0.6622  1.5012
 8795SOL     OW37843   4.272   2.835  13.476 -0.1330 -0.2994 -0.3947
 8795SOL    HW137844   4.243   2.924  13.452 -1.0602 -0.0620  1.5833
 8795SOL    HW237845   4.298   2.848  13.567 -0.3776  1.0404 -0.5031
 8796SOL     OW37846   2.041   2.688   8.330 -0.2375 -0.6393 -0.1724
 8796SOL    HW137847   2.068   2.713   8.418  3.3512  0.8646 -1.6903
 8796SOL    HW237848   1.947   2.702   8.329 -0.0375  0.6672 -0.0323
 8797SOL     OW37849   0.975   3.373  10.440  0.4451  0.7333  0.4905
 8797SOL    HW137850   0.990   3.394  10.348  0.6154 -1.0590  0.1225
 8797SOL    HW237851   1.048   3.315  10.460 -1.5195 -1.1104  2.3357
 8798SOL     OW37852   0.190   4.222  16.198  0.1854  0.0407 -0.4244
 8798SOL    HW137853   0.109   4.262  16.166 -0.8161 -0.0717  2.0164
 8798SOL    HW237854   0.184   4.214  16.293  2.4920 -0.9999 -0.3504
 8799SOL     OW37855   3.719   3.264  17.424  0.3747  0.3305 -0.4386
 8799SOL    HW137856   3.642   3.310  17.458 -1.7631 -1.4590 -2.8753
 8799SOL    HW237857   3.750   3.215  17.500 -0.6958  0.2147 -0.0718
 8800SOL     OW37858   1.613   2.260  11.803 -0.0822  0.2735 -0.0120
 8800SOL    HW137859   1.571   2.298  11.725 -1.0539 -0.2778  0.2474
 8800SOL    HW237860   1.688   2.224  11.756 -0.7728  0.7066 -1.4475
 8801SOL     OW37861   0.885   2.319   0.363  0.0482 -0.1616 -0.0170
 8801SOL    HW137862   0.839   2.392   0.407 -0.0680 -0.5705  0.5387
 8801SOL    HW237863   0.943   2.374   0.310  0.3156  0.3518  0.8114
 8802SOL     OW37864   2.835   3.672   8.253  0.0395  0.2979  0.0056
 8802SOL    HW137865   2.846   3.680   8.158 -1.2358 -0.4564 -0.1978
 8802SOL    HW237866   2.811   3.580   8.256  0.1239  0.1794 -3.0469
 8803SOL     OW37867   2.297   2.511  16.887  0.3268 -0.4052 -0.0094
 8803SOL    HW137868   2.309   2.459  16.967  0.1594 -1.3028 -0.5760
 8803SOL    HW237869   2.375   2.480  16.841 -0.0808  0.6108 -1.3844
 8804SOL     OW37870   4.220   1.442  11.832 -0.4638 -0.2092 -0.2635
 8804SOL    HW137871   4.235   1.409  11.920 -0.1801 -1.1528 -0.6727
 8804SOL    HW237872   4.175   1.369  11.790 -2.1421  0.4612  0.3672
 8805SOL     OW37873   4.494   2.766   7.121 -0.5711  0.1622  0.5841
 8805SOL    HW137874   4.486   2.830   7.191 -1.2553 -0.9948  1.5554
 8805SOL    HW237875   4.551   2.702   7.163  1.6632  0.6780 -1.6578
 8806SOL     OW37876   0.539   1.480  12.240  0.4464 -0.0937  0.2369
 8806SOL    HW137877   0.519   1.568  12.210 -1.4023 -1.0498 -1.3252
 8806SOL    HW237878   0.476   1.473  12.312  0.0943  0.1900 -0.0517
 8807SOL     OW37879   2.157   2.919   2.006  0.0052 -0.1167  0.0293
 8807SOL    HW137880   2.134   3.012   2.006 -1.2850 -0.4281  0.3032
 8807SOL    HW237881   2.113   2.885   1.928 -0.3845 -1.9314  1.0348
 8808SOL     OW37882   4.210   0.782  11.938 -0.0096 -0.3815  0.4532
 8808SOL    HW137883   4.225   0.707  11.880  0.9367 -0.6972  1.1079
 8808SOL    HW237884   4.125   0.820  11.914  1.2861  1.2203 -1.5481
 8809SOL     OW37885   0.216   0.154   7.868  0.4093 -0.1129  0.3353
 8809SOL    HW137886   0.152   0.218   7.837  3.9752  3.0012 -0.6025
 8809SOL    HW237887   0.162   0.077   7.882  0.7606 -0.2075  1.1675
 8810SOL     OW37888   0.355   0.934   3.364 -0.5884  0.0259  0.0926
 8810SOL    HW137889   0.432   0.941   3.420 -0.1013  3.0345 -0.9645
 8810SOL    HW237890   0.306   0.981   3.431 -0.4617  1.3640 -0.7545
 8811SOL     OW37891   1.011   1.923  14.850 -0.6608 -0.1007 -0.0783
 8811SOL    HW137892   1.077   1.958  14.789  0.0366  0.4147  0.9780
 8811SOL    HW237893   1.050   1.926  14.937  0.2214  0.6715 -0.4963
 8812SOL     OW37894   3.902   4.523  13.425  0.2296  0.3255 -0.1118
 8812SOL    HW137895   3.852   4.503  13.504 -0.3052 -0.2389 -0.5915
 8812SOL    HW237896   3.982   4.554  13.466  1.1225 -1.3145 -0.6141
 8813SOL     OW37897   2.875   1.718  13.023 -0.5725  0.1610  0.1334
 8813SOL    HW137898   2.894   1.696  12.932  2.0748 -1.9509  1.2024
 8813SOL    HW237899   2.957   1.762  13.046 -0.6593  0.1673  0.4287
 8814SOL     OW37900   1.499   3.945   6.720 -0.4357  0.9026  0.0710
 8814SOL    HW137901   1.439   3.891   6.667  0.4655 -1.1111  1.0871
 8814SOL    HW237902   1.426   3.997   6.754 -1.1245  0.3302 -0.5248
 8815SOL     OW37903   0.219   0.956   7.579  0.1260  0.2071  0.2787
 8815SOL    HW137904   0.173   1.001   7.507 -0.8962  0.2719  0.9795
 8815SOL    HW237905   0.204   0.867   7.547  0.4594 -0.3219  1.6025
 8816SOL     OW37906   0.221   1.706   2.965 -0.4646  0.1262 -0.4441
 8816SOL    HW137907   0.246   1.740   3.051  0.3683 -0.9069 -0.2709
 8816SOL    HW237908   0.228   1.777   2.901 -2.5852 -0.7079 -1.6297
 8817SOL     OW37909   3.146   0.820   1.985  0.2768  0.0630  0.1930
 8817SOL    HW137910   3.090   0.835   2.061  0.4232 -2.3531  0.7666
 8817SOL    HW237911   3.081   0.805   1.915  0.3270  1.3239 -0.1149
 8818SOL     OW37912   4.382   2.438   2.771 -0.3435 -0.2090 -0.3915
 8818SOL    HW137913   4.353   2.352   2.741  0.2168 -0.8029  0.7499
 8818SOL    HW237914   4.415   2.426   2.861 -0.3692 -1.3272 -0.5312
 8819SOL     OW37915   1.506   4.228  11.507  0.3094 -0.0269 -0.1033
 8819SOL    HW137916   1.511   4.158  11.572  0.0178  2.5854  2.7117
 8819SOL    HW237917   1.470   4.299  11.560  0.8648  1.3057 -1.5214
 8820SOL     OW37918   0.731   1.248   3.146 -0.5954 -0.0914  0.0084
 8820SOL    HW137919   0.682   1.167   3.161 -0.0421  0.1417  3.2615
 8820SOL    HW237920   0.660   1.298   3.105 -0.7858 -1.8885 -1.8530
 8821SOL     OW37921   1.716   4.613   2.578 -0.2015 -0.3626  0.0305
 8821SOL    HW137922   1.661   4.563   2.517  0.1260 -1.3949  0.5734
 8821SOL    HW237923   1.758   4.665   2.510  2.2596 -1.4122  0.7244
 8822SOL     OW37924   2.554   3.183   8.782 -0.4791  0.5611 -0.0717
 8822SOL    HW137925   2.506   3.101   8.789 -1.5406  1.1114 -0.8554
 8822SOL    HW237926   2.507   3.242   8.841  0.2655  0.2260  0.8478
 8823SOL     OW37927   1.923   3.906   8.725  0.5000 -0.6652  0.1172
 8823SOL    HW137928   1.895   3.965   8.656 -1.3726 -0.0152  1.4435
 8823SOL    HW237929   1.887   3.950   8.802  0.8104 -0.1979  0.0003
 8824SOL     OW37930   3.696   4.133  12.577 -0.3477  0.3596 -0.6077
 8824SOL    HW137931   3.743   4.083  12.644 -0.5863  0.2501 -0.5244
 8824SOL    HW237932   3.611   4.141  12.620 -0.0250  0.7034 -0.0300
 8825SOL     OW37933   2.407   2.205   2.482  0.5296  0.3053  0.0842
 8825SOL    HW137934   2.326   2.160   2.506  1.7447 -1.7465  0.2523
 8825SOL    HW237935   2.376   2.290   2.449  0.9069  0.1777 -0.5947
 8826SOL     OW37936   4.296   3.262   0.378 -0.4405  0.1360  0.0829
 8826SOL    HW137937   4.201   3.269   0.369 -0.1900  3.6057  0.1787
 8826SOL    HW237938   4.300   3.189   0.441  1.7635  0.7754  0.6991
 8827SOL     OW37939   4.532   4.253   4.941  1.3763 -0.0729 -0.8058
 8827SOL    HW137940   4.598   4.208   4.994 -0.2380 -1.4757  0.0256
 8827SOL    HW237941   4.458   4.193   4.947 -0.1893  1.8898 -0.5310
 8828SOL     OW37942   3.704   0.968   1.758 -0.1866 -0.4271  0.0118
 8828SOL    HW137943   3.749   1.009   1.684  0.1908 -0.0178  0.4784
 8828SOL    HW237944   3.747   0.884   1.771 -0.5156 -0.5278  0.4547
 8829SOL     OW37945   1.953   0.693   5.450  0.3019 -0.2398 -0.0609
 8829SOL    HW137946   1.999   0.611   5.432  1.1538  0.1191  0.4396
 8829SOL    HW237947   1.872   0.654   5.483 -0.6053  0.1729 -1.7849
 8830SOL     OW37948   0.275   0.749  17.418  0.4235  0.2093 -0.3435
 8830SOL    HW137949   0.197   0.699  17.392  0.7955 -1.5910  1.9876
 8830SOL    HW237950   0.342   0.681  17.422  0.1949 -0.0299 -0.5461
 8831SOL     OW37951   0.833   2.188  15.856 -0.1211 -0.7559 -0.2770
 8831SOL    HW137952   0.800   2.162  15.942 -1.6989  0.8681 -0.3789
 8831SOL    HW237953   0.813   2.281  15.859  1.5907 -0.3886 -0.2906
 8832SOL     OW37954   3.483   3.067  11.611 -0.0196 -0.1021 -0.3885
 8832SOL    HW137955   3.400   3.113  11.601  0.0062 -0.0593 -0.4029
 8832SOL    HW237956   3.486   3.020  11.528 -2.9725  1.6156 -1.4733
 8833SOL     OW37957   4.102   2.343   3.782 -0.3717  0.1463 -0.1933
 8833SOL    HW137958   4.140   2.267   3.825 -1.1106  0.7571  1.5468
 8833SOL    HW237959   4.185   2.372   3.744 -0.4782  0.6415 -0.0489
 8834SOL     OW37960   3.911   3.273   5.202  0.2568 -0.9066 -0.4113
 8834SOL    HW137961   3.830   3.223   5.206 -0.2103 -0.0705  0.6301
 8834SOL    HW237962   3.950   3.236   5.123 -0.2722 -1.5044 -0.3918
 8835SOL     OW37963   3.930   2.574  17.591 -0.7690 -0.0695  0.4100
 8835SOL    HW137964   3.905   2.647  17.648 -1.7714  0.4665 -0.7102
 8835SOL    HW237965   4.007   2.548  17.642  0.0026 -0.5776 -1.0374
 8836SOL     OW37966   1.009   0.162   4.158  0.8751  0.1484 -0.0892
 8836SOL    HW137967   1.088   0.169   4.211  0.9740  1.2178 -0.3774
 8836SOL    HW237968   0.975   0.081   4.195 -2.0477  1.3151 -0.2224
 8837SOL     OW37969   1.488   2.675   5.807 -0.1000 -0.4740 -0.3662
 8837SOL    HW137970   1.494   2.607   5.874 -2.2215 -1.0267 -0.7230
 8837SOL    HW237971   1.456   2.751   5.856  1.2288 -0.3979  0.3691
 8838SOL     OW37972   0.580   4.423  15.645  0.5376  0.5882 -0.3906
 8838SOL    HW137973   0.571   4.421  15.740 -0.2957  1.7212 -0.4379
 8838SOL    HW237974   0.654   4.483  15.645  0.8313  0.2233 -1.4148
 8839SOL     OW37975   2.737   0.677  13.712  0.0710 -0.6725 -0.2509
 8839SOL    HW137976   2.651   0.653  13.747 -1.8332  3.1835 -2.3034
 8839SOL    HW237977   2.787   0.671  13.793 -1.3017 -2.4865  0.4625
 8840SOL     OW37978   3.928   3.185   8.461 -0.2971 -0.1674 -0.0477
 8840SOL    HW137979   3.946   3.091   8.470 -0.3640  0.0622  2.3664
 8840SOL    HW237980   3.989   3.205   8.391  0.8322 -1.2437  0.6335
 8841SOL     OW37981   0.603   0.753   9.046  0.1314  0.0635 -0.3157
 8841SOL    HW137982   0.653   0.698   9.107  0.9125  0.6467 -0.4311
 8841SOL    HW237983   0.660   0.747   8.970  0.1159 -0.7251 -0.2639
 8842SOL     OW37984   3.785   2.606   3.994 -0.2128 -0.2193 -0.3131
 8842SOL    HW137985   3.846   2.654   3.939  2.9549 -2.5729  1.1234
 8842SOL    HW237986   3.818   2.516   4.002  0.9649  0.3557  1.2996
 8843SOL     OW37987   1.103   2.070   3.233  0.1441  0.7583 -0.0098
 8843SOL    HW137988   1.159   2.062   3.311 -0.3072  1.4462  0.3823
 8843SOL    HW237989   1.157   2.050   3.156  1.0002 -1.2015  1.0866
 8844SOL     OW37990   3.891   3.973  14.188 -0.5319 -0.6709 -0.0543
 8844SOL    HW137991   3.858   4.037  14.125 -1.0909 -1.2492 -0.3524
 8844SOL    HW237992   3.811   3.929  14.216 -0.0694 -0.7395  1.1479
 8845SOL     OW37993   3.671   3.346   6.502  0.0011 -0.2133 -0.3664
 8845SOL    HW137994   3.716   3.279   6.554 -2.5098 -0.2165  1.8317
 8845SOL    HW237995   3.640   3.288   6.433  0.6448 -2.1026  0.9157
 8846SOL     OW37996   3.628   1.797   1.528  0.1205  0.1381 -0.1046
 8846SOL    HW137997   3.567   1.736   1.568 -2.1133  0.5272 -2.8860
 8846SOL    HW237998   3.609   1.878   1.574 -2.3620 -0.8093  0.5165
 8847SOL     OW37999   0.500   0.013   3.872 -0.0062  1.1720 -0.0843
 8847SOL    HW138000   0.536   4.646   3.889  0.5760  0.8820 -2.6795
 8847SOL    HW238001   0.411   4.713   3.844  0.4167 -1.3331  0.3608
 8848SOL     OW38002   0.420   3.109  10.791 -0.0752  0.2832  0.3901
 8848SOL    HW138003   0.395   3.050  10.862  1.2146 -0.6573  0.0624
 8848SOL    HW238004   0.349   3.092  10.729 -0.4255 -0.5637  1.0217
 8849SOL     OW38005   3.071   0.146  13.736 -0.1583 -0.2801 -0.1735
 8849SOL    HW138006   3.156   0.191  13.731 -0.3697  0.1976  0.4645
 8849SOL    HW238007   3.028   0.202  13.801  0.8496  0.0771  0.1870
 8850SOL     OW38008   1.666   4.577   8.475 -0.5938  0.1037 -0.0467
 8850SOL    HW138009   1.702   4.558   8.388  2.7203  1.5246  1.0113
 8850SOL    HW238010   1.741   4.605   8.527 -1.7640 -1.3828  2.4496
 8851SOL     OW38011   4.664   1.934   4.266 -0.0694 -0.6853 -0.1562
 8851SOL    HW138012   4.695   1.971   4.349  0.5504 -0.7262 -0.3673
 8851SOL    HW238013   4.670   2.008   4.205  1.2017 -1.5160 -1.0492
 8852SOL     OW38014   1.439   0.449   1.228  0.2696  1.1361 -0.2029
 8852SOL    HW138015   1.524   0.406   1.230  0.2521  1.0402 -1.6025
 8852SOL    HW238016   1.454   0.524   1.286  1.7595  0.6850 -0.0085
 8853SOL     OW38017   2.876   4.321   4.466  0.2201 -0.1980 -0.4282
 8853SOL    HW138018   2.941   4.341   4.397 -2.3844  1.7896 -2.3061
 8853SOL    HW238019   2.789   4.346   4.434  0.5626  1.5907  0.0007
 8854SOL     OW38020   0.744   1.041   0.524  0.3622  0.4557  0.5849
 8854SOL    HW138021   0.727   1.061   0.432  1.1317  0.3062  0.4050
 8854SOL    HW238022   0.758   0.946   0.519 -0.6778  0.3165  0.2780
 8855SOL     OW38023   0.334   0.603   5.110  0.4699  0.2185  0.0281
 8855SOL    HW138024   0.388   0.544   5.163  0.7972 -0.4477 -1.0529
 8855SOL    HW238025   0.246   0.565   5.112 -0.6829  2.8757 -0.8117
 8856SOL     OW38026   3.160   1.509  13.165  0.4403 -0.1341  0.1108
 8856SOL    HW138027   3.173   1.602  13.147  2.4590 -0.7934 -1.7656
 8856SOL    HW238028   3.111   1.490  13.084 -1.0776 -1.9993  1.4454
 8857SOL     OW38029   1.114   1.497   2.526 -0.2128  0.3335  0.0354
 8857SOL    HW138030   1.150   1.516   2.613  2.4350 -3.4495 -0.2419
 8857SOL    HW238031   1.190   1.509   2.469  0.4849  0.5237  0.9993
 8858SOL     OW38032   3.378   3.403   5.281 -0.0318 -0.3770  0.5678
 8858SOL    HW138033   3.448   3.410   5.345  0.5192 -0.9730  0.0318
 8858SOL    HW238034   3.402   3.481   5.232  0.8329 -0.0649  1.4777
 8859SOL     OW38035   0.431   2.597  14.736 -0.1286 -0.5143  0.3794
 8859SOL    HW138036   0.436   2.630  14.826 -0.1652 -1.4291  0.7209
 8859SOL    HW238037   0.518   2.616  14.700 -1.3184  3.3282 -0.4545
 8860SOL     OW38038   3.652   3.139   7.217 -0.2677  0.0468  0.6200
 8860SOL    HW138039   3.639   3.212   7.277  3.0613  0.4215  0.8694
 8860SOL    HW238040   3.679   3.072   7.279  0.0310 -1.3038 -0.9637
 8861SOL     OW38041   4.379   1.529   8.588 -0.1381  0.4061 -0.1497
 8861SOL    HW138042   4.288   1.552   8.575  0.0767  0.6449 -1.1914
 8861SOL    HW238043   4.398   1.582   8.666  1.4351  0.8995 -0.8501
 8862SOL     OW38044   0.284   2.766  10.563 -0.0810  0.1357 -0.1635
 8862SOL    HW138045   0.266   2.711  10.639  2.5010  1.2336  1.2491
 8862SOL    HW238046   0.351   2.719  10.513  0.7377  0.0087  1.0629
 8863SOL     OW38047   2.179   1.019   5.700  0.1402 -0.0990 -0.4412
 8863SOL    HW138048   2.263   0.996   5.741 -0.0407 -1.4065 -0.8087
 8863SOL    HW238049   2.208   1.046   5.613 -1.3821 -0.4924 -1.0694
 8864SOL     OW38050   2.171   0.412  11.201  0.1316  0.2800  0.4041
 8864SOL    HW138051   2.263   0.426  11.219 -0.0737 -1.2846  2.7715
 8864SOL    HW238052   2.162   0.443  11.111  1.6971 -0.3197  0.0463
 8865SOL     OW38053   2.437   0.343   4.713 -0.0471  0.7294  0.2417
 8865SOL    HW138054   2.459   0.256   4.746 -0.6781  0.2851 -0.5299
 8865SOL    HW238055   2.395   0.324   4.629 -0.3988  0.2341  0.5286
 8866SOL     OW38056   1.860   0.077   8.327 -0.0477 -0.6532 -0.3657
 8866SOL    HW138057   1.919   0.061   8.253 -1.1386 -0.7831 -1.2128
 8866SOL    HW238058   1.797   0.136   8.286  0.6100 -0.5175 -1.1863
 8867SOL     OW38059   0.900   1.055  10.406 -0.1167 -0.3832 -0.3533
 8867SOL    HW138060   0.995   1.060  10.391 -0.3132 -3.5228 -2.5749
 8867SOL    HW238061   0.867   1.042  10.317 -1.3118 -0.2314  0.0784
 8868SOL     OW38062   4.613   1.572   2.395  0.5494 -0.3229  0.6934
 8868SOL    HW138063   4.573   1.488   2.372  0.4257  0.4323 -1.8030
 8868SOL    HW238064   4.658   1.557   2.479 -0.9253 -1.5367  1.2751
 8869SOL     OW38065   0.750   1.547   7.340  0.0768 -0.6555 -0.4877
 8869SOL    HW138066   0.702   1.472   7.374 -3.3005  2.0250  0.6875
 8869SOL    HW238067   0.684   1.587   7.284  0.5166  0.8389  0.0475
 8870SOL     OW38068   1.429   1.856   2.853  0.4751 -0.6749  0.5569
 8870SOL    HW138069   1.498   1.923   2.852  1.4326 -1.6427  1.2758
 8870SOL    HW238070   1.449   1.787   2.915 -0.4299 -1.1212  0.3402
 8871SOL     OW38071   0.816   3.614   5.473 -0.2068  0.6049 -0.2577
 8871SOL    HW138072   0.797   3.698   5.515 -0.9957  0.5952 -0.6039
 8871SOL    HW238073   0.905   3.595   5.504  0.2906  1.5575 -1.0879
 8872SOL     OW38074   4.364   1.712   6.384 -0.1172  0.3218 -0.1479
 8872SOL    HW138075   4.430   1.765   6.429 -0.1368  0.3809 -0.1877
 8872SOL    HW238076   4.296   1.702   6.450 -1.1882 -0.2160 -1.3349
 8873SOL     OW38077   3.320   0.142   7.791  0.4680 -0.0654  0.2447
 8873SOL    HW138078   3.394   0.199   7.811  2.1168 -2.6362  1.4433
 8873SOL    HW238079   3.257   0.171   7.857  2.1878  1.6135  1.1476
 8874SOL     OW38080   1.360   1.440   4.316  0.0682  0.4445  0.4707
 8874SOL    HW138081   1.341   1.388   4.394 -1.9452 -1.4884 -1.3194
 8874SOL    HW238082   1.385   1.522   4.361 -0.5511 -1.0303  3.4964
 8875SOL     OW38083   3.789   2.163   9.853 -0.1982  0.0327  0.5329
 8875SOL    HW138084   3.722   2.202   9.909 -2.3989 -1.5169 -1.0321
 8875SOL    HW238085   3.806   2.091   9.914 -0.2035 -0.0177  0.4745
 8876SOL     OW38086   1.663   1.071  10.042 -0.0716  0.2822  0.1979
 8876SOL    HW138087   1.617   0.987  10.050 -0.3036  0.2174 -1.7589
 8876SOL    HW238088   1.596   1.126  10.002 -0.7514 -1.2180 -0.7283
 8877SOL     OW38089   1.605   1.995   4.989  0.7332  0.2718  0.5969
 8877SOL    HW138090   1.536   2.030   5.046  0.1014  1.9320 -1.1708
 8877SOL    HW238091   1.592   1.902   5.007  2.0977 -0.0913 -0.2384
 8878SOL     OW38092   1.788   3.609   4.826  0.2146 -0.0276 -0.0612
 8878SOL    HW138093   1.714   3.659   4.794 -0.8536 -1.8984 -0.5076
 8878SOL    HW238094   1.825   3.674   4.885 -0.5099  0.5029 -0.2007
 8879SOL     OW38095   3.915   4.060   3.451 -0.1134  0.2781 -0.5068
 8879SOL    HW138096   3.968   3.990   3.488 -0.0551  1.7751  2.2597
 8879SOL    HW238097   3.886   4.102   3.532 -2.5305 -1.1892 -0.6211
 8880SOL     OW38098   2.901   3.657  13.652  0.2246  0.0426  0.3625
 8880SOL    HW138099   2.828   3.598  13.632 -0.5447  0.8531  0.7635
 8880SOL    HW238100   2.852   3.739  13.657  2.9406  1.8479 -2.5412
 8881SOL     OW38101   2.327   1.768  16.065 -0.5783 -0.6166  0.3376
 8881SOL    HW138102   2.395   1.766  16.133 -0.8400  1.4650  0.6505
 8881SOL    HW238103   2.239   1.774  16.102  0.0882 -0.7165  1.9699
 8882SOL     OW38104   2.304   3.748   2.878  0.1391 -0.3252 -0.4924
 8882SOL    HW138105   2.316   3.831   2.833 -0.7095 -0.7265 -1.4797
 8882SOL    HW238106   2.230   3.757   2.937  0.5018  0.4026 -0.1550
 8883SOL     OW38107   4.467   3.182   6.155 -0.1449  0.1310  0.0923
 8883SOL    HW138108   4.516   3.169   6.236  0.2470  0.1411 -0.1393
 8883SOL    HW238109   4.383   3.141   6.174  0.9945 -1.5922  1.4029
 8884SOL     OW38110   2.122   4.416   9.813 -0.0145 -0.2230  0.5128
 8884SOL    HW138111   2.052   4.474   9.783  1.6260  2.9257  2.8082
 8884SOL    HW238112   2.071   4.342   9.847  1.8028 -2.1888 -1.0357
 8885SOL     OW38113   1.655   3.445  13.288  0.3447 -0.1391  0.2396
 8885SOL    HW138114   1.725   3.470  13.228 -0.3137  2.1900  0.4472
 8885SOL    HW238115   1.614   3.529  13.310  0.2180  0.1699 -1.2178
 8886SOL     OW38116   2.856   2.706   4.101  0.3419 -0.3275  0.0664
 8886SOL    HW138117   2.843   2.801   4.096  2.0230 -0.0836  0.3349
 8886SOL    HW238118   2.839   2.675   4.012  0.1786  0.4214 -0.1643
 8887SOL     OW38119   2.943   3.983   8.794 -0.4538 -0.3276 -0.4470
 8887SOL    HW138120   2.978   4.049   8.854 -0.5089  0.7812 -1.6177
 8887SOL    HW238121   3.024   3.936   8.775  0.2960  0.9780 -0.4721
 8888SOL     OW38122   3.502   0.227   5.845  0.5515  0.1833  0.0698
 8888SOL    HW138123   3.579   0.242   5.900  0.0516  0.3184  0.7389
 8888SOL    HW238124   3.494   0.134   5.824  0.3666 -0.0132  0.9929
 8889SOL     OW38125   4.645   3.303   4.801 -0.1083  0.0704 -0.0770
 8889SOL    HW138126   4.678   3.376   4.854 -1.3485  0.3080  0.3683
 8889SOL    HW238127   4.552   3.319   4.812  0.1959  1.7718 -0.0294
 8890SOL     OW38128   1.274   1.903   4.427 -0.4572  0.1017 -0.0039
 8890SOL    HW138129   1.296   1.813   4.401  0.8431  0.9911 -2.0208
 8890SOL    HW238130   1.235   1.881   4.512 -1.1295  2.4561  0.2985
 8891SOL     OW38131   3.435   3.436   6.584  0.0449  0.5566  0.1352
 8891SOL    HW138132   3.450   3.403   6.673  1.4846  0.4804 -0.1278
 8891SOL    HW238133   3.520   3.414   6.545  0.2673  0.2849  0.7698
 8892SOL     OW38134   4.636   1.274  16.709 -0.5759 -0.0180 -0.0699
 8892SOL    HW138135   4.575   1.217  16.663  0.4635  0.2468 -1.7688
 8892SOL    HW238136   4.690   1.288  16.631  1.0540 -1.3846  0.8051
 8893SOL     OW38137   0.892   2.912   7.602  0.1741  0.0102  0.0113
 8893SOL    HW138138   0.919   2.956   7.683 -0.9699 -0.1703  0.4875
 8893SOL    HW238139   0.810   2.956   7.580  0.8732  0.7703 -1.0383
 8894SOL     OW38140   2.345   2.864   4.576 -0.1541 -0.2167 -0.9430
 8894SOL    HW138141   2.428   2.845   4.619 -0.9638  0.7941  1.0550
 8894SOL    HW238142   2.387   2.910   4.503  2.1625 -3.0479 -1.3572
 8895SOL     OW38143   2.723   3.668   6.766 -0.2547 -0.3619 -0.3389
 8895SOL    HW138144   2.773   3.708   6.696  1.7061  0.4684  1.5509
 8895SOL    HW238145   2.674   3.741   6.803 -1.2059 -1.1606 -0.0189
 8896SOL     OW38146   3.611   0.095   0.667 -0.1716 -0.2497  0.2729
 8896SOL    HW138147   3.629   0.005   0.639  1.1274  0.0892  0.0373
 8896SOL    HW238148   3.565   0.084   0.750  0.7093  2.7129  1.1550
 8897SOL     OW38149   0.007   2.187   0.903 -0.2610  0.2740 -0.3695
 8897SOL    HW138150   4.714   2.128   0.977 -0.9336 -0.9258 -1.4544
 8897SOL    HW238151   0.009   2.126   0.830  0.3513  1.3189 -1.2219
 8898SOL     OW38152   3.278   0.997   7.672  0.0560 -0.6509 -0.2193
 8898SOL    HW138153   3.211   1.002   7.604 -0.3640  0.8403  0.3062
 8898SOL    HW238154   3.343   0.942   7.629  1.3194  2.0777 -1.7530
 8899SOL     OW38155   1.114   3.201   8.860  0.1362 -0.2367  0.2190
 8899SOL    HW138156   1.174   3.144   8.813  0.5730  1.4219 -1.2189
 8899SOL    HW238157   1.044   3.146   8.895  0.8526 -1.6489 -0.5851
 8900SOL     OW38158   0.958   4.643   8.480  0.3230  0.1064  0.0100
 8900SOL    HW138159   0.927   4.703   8.413 -2.0625 -1.2367 -0.0724
 8900SOL    HW238160   0.892   4.662   8.546  0.0388 -0.5011 -0.0939
 8901SOL     OW38161   2.353   0.059  15.482 -0.1595 -0.3716  0.2688
 8901SOL    HW138162   2.410   4.703  15.467  0.3204 -0.2283  1.3286
 8901SOL    HW238163   2.277   0.010  15.511 -2.1012  0.9291 -2.6149
 8902SOL     OW38164   4.350   4.518   0.103  0.4246 -0.2156  0.0074
 8902SOL    HW138165   4.438   4.521   0.140  0.0416 -0.5392  0.9543
 8902SOL    HW238166   4.295   4.530   0.180  1.8085 -1.4312  1.1743
 8903SOL     OW38167   3.502   0.093   6.176  0.7528 -0.6390 -0.3282
 8903SOL    HW138168   3.454   0.017   6.142  0.6682 -1.0831  0.8054
 8903SOL    HW238169   3.478   0.089   6.268 -2.5073 -1.3047 -1.1925
 8904SOL     OW38170   4.610   1.167   2.625  0.7254 -0.1659 -0.6852
 8904SOL    HW138171   4.700   1.154   2.653  0.1828  0.8077  1.5158
 8904SOL    HW238172   4.579   1.247   2.668 -0.1986 -1.4908  1.1266
 8905SOL     OW38173   1.044   2.377   4.981  0.4195  0.5288 -0.9524
 8905SOL    HW138174   0.958   2.401   5.015 -0.2269  2.3721 -3.9345
 8905SOL    HW238175   1.024   2.294   4.938  2.1800 -0.1449 -0.4817
 8906SOL     OW38176   0.337   1.110  11.761  0.0202  0.6329  0.5874
 8906SOL    HW138177   0.311   1.087  11.672 -2.1104  1.3972  1.0039
 8906SOL    HW238178   0.259   1.079  11.808  0.6865 -0.3379  1.0556
 8907SOL     OW38179   3.277   1.374   3.559 -0.0708  0.0319 -0.2530
 8907SOL    HW138180   3.356   1.367   3.612 -0.2453  0.2131  0.0301
 8907SOL    HW238181   3.293   1.461   3.523 -0.1069  0.2919  0.3544
 8908SOL     OW38182   2.906   2.621   4.541  0.6571  0.6497  0.0768
 8908SOL    HW138183   2.943   2.579   4.463  0.9821  0.3002  0.4190
 8908SOL    HW238184   2.842   2.555   4.568  1.8590 -2.1150 -3.7717
 8909SOL     OW38185   2.097   2.294   3.366  0.1122  0.6687 -0.9225
 8909SOL    HW138186   2.158   2.273   3.437 -0.4160  0.0706 -0.6552
 8909SOL    HW238187   2.119   2.387   3.365 -4.0891  1.6406 -0.8015
 8910SOL     OW38188   0.416   2.768   6.290  0.4443 -0.4143  0.5732
 8910SOL    HW138189   0.422   2.685   6.337 -1.0071  0.2601  1.9279
 8910SOL    HW238190   0.502   2.809   6.296  0.1163  0.1314  1.4676
 8911SOL     OW38191   1.932   2.239   0.577  0.2259 -0.6728 -0.4212
 8911SOL    HW138192   1.961   2.231   0.668 -0.9771  3.5705  0.3143
 8911SOL    HW238193   1.902   2.148   0.573  1.1793 -1.1559  3.0852
 8912SOL     OW38194   0.178   4.203   2.141  0.2234  0.3005  0.4860
 8912SOL    HW138195   0.189   4.247   2.057  0.1913  0.2935  0.4779
 8912SOL    HW238196   0.266   4.176   2.166  0.1469  0.0222  0.4481
 8913SOL     OW38197   2.690   3.254   8.574  0.1742 -0.4064 -0.1100
 8913SOL    HW138198   2.752   3.311   8.621  1.2061 -1.7220  0.1224
 8913SOL    HW238199   2.636   3.227   8.648 -2.2993 -1.5641 -2.3311
 8914SOL     OW38200   1.645   2.977   6.043  0.4034  0.2019 -0.5683
 8914SOL    HW138201   1.635   3.048   6.106 -2.6436  1.1957 -2.1373
 8914SOL    HW238202   1.638   2.902   6.102 -0.1308  0.4322 -0.3403
 8915SOL     OW38203   4.327   1.152  12.690  0.1239 -0.0126 -0.6969
 8915SOL    HW138204   4.312   1.091  12.618 -0.5075  0.9828 -1.4034
 8915SOL    HW238205   4.421   1.135  12.695 -0.0505 -0.9062 -0.3426
 8916SOL     OW38206   1.501   1.509   3.715  0.1768  0.3649  0.3148
 8916SOL    HW138207   1.479   1.600   3.696  2.6268  1.1513  1.3255
 8916SOL    HW238208   1.594   1.517   3.693 -0.3776  0.8790 -1.8461
 8917SOL     OW38209   2.156   3.755   8.713  0.3155 -0.1393 -0.0877
 8917SOL    HW138210   2.124   3.675   8.755  1.1273 -0.9785 -1.0491
 8917SOL    HW238211   2.078   3.810   8.713  0.6982  0.4141 -1.0019
 8918SOL     OW38212   0.314   4.464  15.449 -0.6344 -0.1734  0.3455
 8918SOL    HW138213   0.381   4.523  15.483 -0.1096  0.5250 -1.8772
 8918SOL    HW238214   0.280   4.424  15.529 -1.3085 -0.7568 -0.2325
 8919SOL     OW38215   0.607   3.022   3.029  0.0294 -0.0085 -0.1503
 8919SOL    HW138216   0.640   3.103   3.066  1.1975 -0.7682  0.4651
 8919SOL    HW238217   0.666   3.013   2.953 -1.4297 -0.2129 -1.2612
 8920SOL     OW38218   0.814   4.238   4.114 -0.1947 -0.1707 -0.1623
 8920SOL    HW138219   0.803   4.243   4.019  0.3696 -0.8037 -0.2523
 8920SOL    HW238220   0.859   4.322   4.125 -2.8176  1.3670 -1.0348
 8921SOL     OW38221   2.546   2.988   5.002 -0.2722  0.5864 -0.0618
 8921SOL    HW138222   2.561   3.025   5.090  0.9066  1.7238 -0.7358
 8921SOL    HW238223   2.629   3.000   4.957  0.8734  0.1005  1.9300
 8922SOL     OW38224   0.166   0.523   5.990 -0.0265  0.6937  0.2325
 8922SOL    HW138225   0.260   0.512   6.000  0.1384  1.6967 -0.2364
 8922SOL    HW238226   0.144   0.595   6.050 -1.0099 -1.0470  1.9823
 8923SOL     OW38227   3.262   0.218  12.485 -0.6810 -0.0168 -0.7007
 8923SOL    HW138228   3.214   0.221  12.568  1.2149 -2.8340  0.5035
 8923SOL    HW238229   3.187   0.201  12.428 -0.2385  0.5394 -1.4375
 8924SOL     OW38230   0.436   4.057   8.912  0.4165  0.1434 -0.1079
 8924SOL    HW138231   0.500   4.049   8.983 -0.4222  3.7074  1.0463
 8924SOL    HW238232   0.394   3.971   8.916  1.0113 -0.1790 -1.0563
 8925SOL     OW38233   3.195   3.864   2.057 -0.2798  0.2665  0.1422
 8925SOL    HW138234   3.277   3.844   2.012  0.6078 -0.4596  2.0817
 8925SOL    HW238235   3.144   3.799   2.009 -0.3211  0.4540 -0.0629
 8926SOL     OW38236   2.185   3.886  12.094 -0.1421 -0.1113  0.0559
 8926SOL    HW138237   2.145   3.891  12.008  0.4684  0.4513 -0.1929
 8926SOL    HW238238   2.118   3.841  12.145 -0.3689 -2.8041 -2.6360
 8927SOL     OW38239   3.736   3.505  12.885  0.4782 -0.4360 -0.1131
 8927SOL    HW138240   3.815   3.553  12.909 -0.8372  0.6517  2.0284
 8927SOL    HW238241   3.780   3.450  12.820  0.3561 -0.0338 -0.5329
 8928SOL     OW38242   3.775   2.058   0.803  0.0500 -0.0749 -0.3479
 8928SOL    HW138243   3.810   2.042   0.890 -0.4392  0.5493 -0.0409
 8928SOL    HW238244   3.695   2.006   0.798 -1.2781  1.7524  2.5784
 8929SOL     OW38245   4.674   4.340  16.156 -0.4091  0.1137 -0.5942
 8929SOL    HW138246   4.626   4.328  16.238 -1.2921 -1.3972 -1.3511
 8929SOL    HW238247   4.640   4.417  16.111  1.6012  0.2736 -1.8532
 8930SOL     OW38248   0.611   1.233   4.090 -1.0855  0.5914  0.2956
 8930SOL    HW138249   0.569   1.159   4.047  2.5856 -0.6294 -1.2310
 8930SOL    HW238250   0.557   1.299   4.047 -0.7828  0.1643 -0.7447
 8931SOL     OW38251   4.435   4.712   6.229  0.7020 -0.4745 -0.0596
 8931SOL    HW138252   4.394   4.628   6.208 -1.6022  0.7820 -0.6162
 8931SOL    HW238253   4.360   0.042   6.197  0.3586 -0.7855  0.2651
 8932SOL     OW38254   1.021   3.036   1.812 -0.1742 -0.1124  0.3409
 8932SOL    HW138255   1.046   3.121   1.850 -2.0226  1.6499 -2.4144
 8932SOL    HW238256   0.966   3.049   1.735 -0.2624 -1.1950  0.2339
 8933SOL     OW38257   2.799   0.770  14.195  0.1587  0.2073 -0.1926
 8933SOL    HW138258   2.774   0.820  14.273  0.7452  1.0333 -0.5389
 8933SOL    HW238259   2.858   0.824  14.143 -0.7152 -1.1541 -2.6085
 8934SOL     OW38260   0.629   3.272  15.566  0.0230  0.2213 -0.2253
 8934SOL    HW138261   0.671   3.188  15.587 -0.1024  0.8273  2.4563
 8934SOL    HW238262   0.632   3.321  15.648  1.8087  0.1845 -0.2758
 8935SOL     OW38263   0.040   1.508   7.572 -0.4228  0.3697  0.1901
 8935SOL    HW138264   0.003   1.465   7.494 -4.7183  0.5608  2.1291
 8935SOL    HW238265   4.688   1.482   7.629  0.5083 -0.2961  1.0658
 8936SOL     OW38266   2.461   1.462  16.485 -0.4850 -0.5519  0.4292
 8936SOL    HW138267   2.508   1.521  16.426 -1.5741  0.7224  0.8370
 8936SOL    HW238268   2.525   1.443  16.554 -0.4857 -0.1322  0.5487
 8937SOL     OW38269   0.309   1.861   7.558  0.6606 -0.3498 -0.2127
 8937SOL    HW138270   0.319   1.839   7.465  1.9324 -0.7918  0.0332
 8937SOL    HW238271   0.376   1.796   7.581 -1.0238 -1.6978  0.8435
 8938SOL     OW38272   1.376   2.604   1.052 -0.0144  0.2386 -0.0189
 8938SOL    HW138273   1.294   2.572   1.014  0.0048 -0.9917  0.9940
 8938SOL    HW238274   1.352   2.617   1.144  2.1235  1.9057  0.3025
 8939SOL     OW38275   0.435   4.089   9.244 -0.1561  0.0957  0.7824
 8939SOL    HW138276   0.463   4.178   9.222  1.1398  0.0908  2.4316
 8939SOL    HW238277   0.339   4.089   9.240 -0.1483  2.3154  0.5532
 8940SOL     OW38278   0.448   1.306   8.918 -0.4845  0.1608 -0.2256
 8940SOL    HW138279   0.527   1.351   8.948 -0.9371  1.3298 -0.7869
 8940SOL    HW238280   0.425   1.346   8.834  0.0061 -1.0186 -0.9121
 8941SOL     OW38281   3.024   1.452   6.008 -0.1457 -0.4748  0.2213
 8941SOL    HW138282   3.048   1.442   5.916 -0.2943 -0.1880  0.1497
 8941SOL    HW238283   3.055   1.372   6.051  0.1302  0.8002  2.4133
 8942SOL     OW38284   3.448   0.766  13.481  0.1311  0.0835 -0.0728
 8942SOL    HW138285   3.529   0.808  13.453 -0.1508  1.0168  0.4818
 8942SOL    HW238286   3.458   0.681  13.440 -2.0378  0.7338 -1.9671
 8943SOL     OW38287   3.715   0.759   9.935  0.2005 -0.0673  0.7983
 8943SOL    HW138288   3.723   0.851   9.959 -0.0394  0.4749 -1.2304
 8943SOL    HW238289   3.803   0.725   9.918  0.1114  0.9165 -1.6945
 8944SOL     OW38290   3.059   1.257  17.022 -0.3760 -0.3671 -0.2895
 8944SOL    HW138291   3.037   1.271  17.114  3.3919 -0.4730  0.6131
 8944SOL    HW238292   2.979   1.213  16.995  0.0444 -1.5314  0.3680
 8945SOL     OW38293   4.690   0.844   6.343  0.2786  0.0769  0.1564
 8945SOL    HW138294   4.639   0.924   6.360 -0.9605 -1.0376  1.7660
 8945SOL    HW238295   4.626   0.773   6.353 -0.2308  0.1450 -2.6811
 8946SOL     OW38296   3.556   3.180  10.201 -0.1847 -0.5506  0.5792
 8946SOL    HW138297   3.498   3.119  10.247  0.8074 -0.2596  2.1964
 8946SOL    HW238298   3.511   3.263  10.210  0.4534  0.0038 -1.2338
 8947SOL     OW38299   2.264   1.113   8.536  0.2282  0.0571 -0.0551
 8947SOL    HW138300   2.291   1.196   8.497 -0.9206 -0.3649 -1.7185
 8947SOL    HW238301   2.268   1.145   8.626 -0.4970  0.3795 -0.1371
 8948SOL     OW38302   4.598   0.336   6.695  0.4077  0.0375 -0.5316
 8948SOL    HW138303   4.513   0.369   6.665  0.3146 -1.0618 -1.4833
 8948SOL    HW238304   4.640   0.293   6.621  0.4907 -0.1342 -0.3832
 8949SOL     OW38305   2.577   4.633   7.881 -0.0294  0.2347 -0.2706
 8949SOL    HW138306   2.643   4.653   7.948 -0.1278  0.5112 -0.2570
 8949SOL    HW238307   2.493   4.654   7.921 -1.1885 -2.5908 -1.2305
 8950SOL     OW38308   2.067   0.821   0.496 -0.1364 -0.2055 -0.0027
 8950SOL    HW138309   2.106   0.802   0.582 -1.6454  0.1461  0.7591
 8950SOL    HW238310   2.146   0.850   0.450  1.0597 -1.4450  1.2495
 8951SOL     OW38311   0.384   2.854  10.910 -0.0979 -0.5039 -0.0716
 8951SOL    HW138312   0.349   2.833  10.996 -0.5695 -1.8237 -0.5850
 8951SOL    HW238313   0.341   2.785  10.860 -1.7481  0.8930 -0.5662
 8952SOL     OW38314   1.676   2.342   0.605  0.2316  0.4301  0.4816
 8952SOL    HW138315   1.768   2.321   0.590  0.3993  0.1250  1.9048
 8952SOL    HW238316   1.672   2.427   0.562 -3.0720 -0.7200 -1.5271
 8953SOL     OW38317   0.636   0.525  10.960 -0.3649  0.1651 -0.4061
 8953SOL    HW138318   0.626   0.550  11.052 -3.4709 -0.7395 -0.4982
 8953SOL    HW238319   0.596   0.438  10.953 -0.2996  0.1902 -1.0559
 8954SOL     OW38320   0.031   3.220   0.644 -0.0256  0.2856 -0.4392
 8954SOL    HW138321   0.095   3.215   0.715 -2.8387  1.1565  2.1517
 8954SOL    HW238322   4.680   3.161   0.667 -0.5359 -0.1965 -3.2068
 8955SOL     OW38323   0.886   4.462   3.558  0.0586  0.0287  0.5042
 8955SOL    HW138324   0.945   4.460   3.483 -1.0120 -2.2975 -0.2952
 8955SOL    HW238325   0.924   4.383   3.597 -2.2837 -1.2255  0.2289
 8956SOL     OW38326   1.774   3.794   5.483 -0.4112 -0.2719 -0.0972
 8956SOL    HW138327   1.740   3.881   5.505  1.2471  0.3961 -0.1443
 8956SOL    HW238328   1.826   3.831   5.412  0.8865  0.8640  1.4340
 8957SOL     OW38329   0.993   3.519   7.615  0.6355  0.0889 -0.0703
 8957SOL    HW138330   1.067   3.481   7.663  1.2086 -0.2827 -1.2412
 8957SOL    HW238331   0.930   3.447   7.621  2.7939 -1.8882 -1.1907
 8958SOL     OW38332   1.131   0.217   7.398  0.4216 -0.1599  0.0724
 8958SOL    HW138333   1.186   0.164   7.456 -1.0209 -0.4677  1.1808
 8958SOL    HW238334   1.188   0.239   7.325 -1.0180  1.1812 -0.6520
 8959SOL     OW38335   1.001   1.542   0.953 -0.2655 -0.2435 -0.1275
 8959SOL    HW138336   0.994   1.507   1.042 -1.1104 -1.0920 -0.5327
 8959SOL    HW238337   1.092   1.570   0.953 -0.0051 -1.1326 -1.9148
 8960SOL     OW38338   0.667   2.054  13.485  0.2477 -0.7391  0.3913
 8960SOL    HW138339   0.592   2.026  13.538 -0.5569  0.5836 -0.0630
 8960SOL    HW238340   0.731   2.009  13.540  0.7938  1.1266  1.2678
 8961SOL     OW38341   2.277   4.503   6.848 -0.1637 -0.0907  0.8119
 8961SOL    HW138342   2.222   4.560   6.795  0.9110 -0.5185 -0.7671
 8961SOL    HW238343   2.334   4.467   6.781  1.1736  3.1048  0.2363
 8962SOL     OW38344   4.308   2.715   5.248 -0.2051  0.2381 -0.6293
 8962SOL    HW138345   4.401   2.703   5.226  0.4091 -0.3791  2.3002
 8962SOL    HW238346   4.263   2.652   5.192  0.1059  0.5018 -1.1810
 8963SOL     OW38347   4.309   1.364  12.091  0.5593 -0.0605 -0.2742
 8963SOL    HW138348   4.263   1.281  12.102  1.3537 -0.3205  1.1235
 8963SOL    HW238349   4.396   1.335  12.120  1.1426 -0.1551 -2.1310
 8964SOL     OW38350   1.452   2.917   8.533  0.2538  0.1653  0.1594
 8964SOL    HW138351   1.437   2.829   8.567 -0.4677 -0.6551 -2.2450
 8964SOL    HW238352   1.500   2.900   8.452  1.9229  2.5127  0.6400
 8965SOL     OW38353   1.404   4.209   7.363  0.2564  0.1912  0.1680
 8965SOL    HW138354   1.359   4.282   7.406  2.7848  1.6592  0.2760
 8965SOL    HW238355   1.441   4.244   7.282  1.8185 -3.7388 -0.7917
 8966SOL     OW38356   0.185   4.240   8.582  0.8823 -0.1391  0.4678
 8966SOL    HW138357   0.174   4.285   8.666  0.1736 -0.6093  0.6263
 8966SOL    HW238358   0.262   4.283   8.546  0.4826  0.2063  0.0352
 8967SOL     OW38359   2.433   4.580   7.293  0.2039 -0.1425 -0.0711
 8967SOL    HW138360   2.508   4.544   7.246  0.4551 -0.7717  0.8164
 8967SOL    HW238361   2.428   4.523   7.370  1.6543 -0.6729 -0.3685
 8968SOL     OW38362   3.337   3.820   2.658  0.3320 -0.7486 -0.7954
 8968SOL    HW138363   3.281   3.892   2.630 -1.0441 -0.1465  3.4471
 8968SOL    HW238364   3.376   3.794   2.575 -0.8709 -1.1295 -1.2402
 8969SOL     OW38365   3.228   1.957  12.918 -0.8334  0.1019 -0.1344
 8969SOL    HW138366   3.289   1.898  12.873 -0.1141  1.6556 -1.2204
 8969SOL    HW238367   3.292   2.015  12.959 -1.2439 -0.3835  1.1944
 8970SOL     OW38368   3.861   0.232  11.007 -0.1334  0.8263  0.1509
 8970SOL    HW138369   3.883   0.243  10.915  2.5284 -0.6346  0.6173
 8970SOL    HW238370   3.800   0.306  11.009 -1.9827 -0.6409 -1.6182
 8971SOL     OW38371   1.371   1.691   1.547 -0.1030 -0.1673 -0.4503
 8971SOL    HW138372   1.451   1.736   1.519 -1.0917  1.3338 -0.8467
 8971SOL    HW238373   1.379   1.616   1.487  0.1419 -0.0010 -0.6262
 8972SOL     OW38374   4.259   0.861   1.602  0.3587  0.4603 -0.0039
 8972SOL    HW138375   4.307   0.791   1.647 -0.3496  1.2020  1.8902
 8972SOL    HW238376   4.213   0.899   1.677  0.3783 -0.0503  0.2686
 8973SOL     OW38377   1.346   1.203  11.319 -0.0286 -0.1162 -0.2308
 8973SOL    HW138378   1.259   1.200  11.358 -0.5331  0.0955 -1.3377
 8973SOL    HW238379   1.342   1.141  11.247  1.0097 -0.2704 -0.1677
 8974SOL     OW38380   0.888   1.664   5.721  0.1787  0.6606  0.1157
 8974SOL    HW138381   0.862   1.574   5.702  2.4610 -0.1731  1.0063
 8974SOL    HW238382   0.819   1.703   5.667  0.3816  1.1105  0.1841
 8975SOL     OW38383   1.809   1.032   1.008 -0.0076  0.3784  0.0077
 8975SOL    HW138384   1.864   1.095   0.962  0.7232  0.4871  1.0170
 8975SOL    HW238385   1.852   0.949   0.988 -0.0149  0.0335  1.4061
 8976SOL     OW38386   0.707   3.497  15.764 -0.4604 -0.3899 -0.1171
 8976SOL    HW138387   0.758   3.577  15.780 -0.1488 -0.1589 -2.3256
 8976SOL    HW238388   0.733   3.454  15.846 -2.3063  1.3111  1.3680
 8977SOL     OW38389   4.331   0.966   4.811  0.0264 -0.0578 -0.8063
 8977SOL    HW138390   4.388   0.942   4.738  1.0714  1.2690 -0.4291
 8977SOL    HW238391   4.248   0.920   4.792 -0.1352 -0.1340  0.0830
 8978SOL     OW38392   3.445   2.907   5.056  0.0512 -0.0517  0.8341
 8978SOL    HW138393   3.446   3.002   5.057 -0.2537 -0.0416  0.2740
 8978SOL    HW238394   3.414   2.877   4.970 -0.0060  2.0666  0.1225
 8979SOL     OW38395   0.333   4.127  10.827 -0.5442 -0.3678 -0.5970
 8979SOL    HW138396   0.355   4.104  10.917 -0.7613  0.9117 -0.2069
 8979SOL    HW238397   0.237   4.127  10.834 -0.6037 -0.7915 -1.4097
 8980SOL     OW38398   2.347   1.486   0.991  0.2248 -0.1568 -0.1609
 8980SOL    HW138399   2.361   1.392   0.984  0.7320 -0.1817  1.2707
 8980SOL    HW238400   2.317   1.490   1.082  0.5784 -1.5315  0.0181
 8981SOL     OW38401   4.477   1.963   7.200 -0.2842  0.2035  0.0183
 8981SOL    HW138402   4.489   2.001   7.113  0.7657 -0.9988 -0.3514
 8981SOL    HW238403   4.418   1.893   7.171 -1.1196  1.1833 -0.6871
 8982SOL     OW38404   1.080   1.390   6.913  0.1603 -0.6864 -0.0620
 8982SOL    HW138405   1.045   1.402   7.001  2.4318  0.1796  0.7380
 8982SOL    HW238406   1.122   1.474   6.894  1.3806 -0.9053  1.7138
 8983SOL     OW38407   2.335   2.019   1.959  0.2485 -0.6825  0.2541
 8983SOL    HW138408   2.391   2.090   1.927 -0.1318 -0.7839 -0.6448
 8983SOL    HW238409   2.394   1.979   2.023 -0.1305  1.7107  2.1242
 8984SOL     OW38410   2.574   3.505   2.043  0.0408  1.1338  0.4734
 8984SOL    HW138411   2.608   3.595   2.041  2.5495  0.1574 -1.6534
 8984SOL    HW238412   2.480   3.521   2.050 -0.0734  0.4101  0.5583
 8985SOL     OW38413   3.251   2.933   5.393 -0.1780  0.1859  0.7547
 8985SOL    HW138414   3.335   2.937   5.439  0.4670 -0.4503 -0.3732
 8985SOL    HW238415   3.237   3.026   5.374  0.0260 -0.0966 -0.8021
 8986SOL     OW38416   4.100   4.475  15.478  0.4662  0.1129 -0.2573
 8986SOL    HW138417   4.107   4.383  15.452  2.1419 -0.1637  1.1379
 8986SOL    HW238418   4.048   4.511  15.407  1.1954 -0.3542 -1.0302
 8987SOL     OW38419   2.805   4.295   0.419  0.3119 -0.0811 -0.2287
 8987SOL    HW138420   2.873   4.306   0.486 -2.4336 -0.8697  2.6950
 8987SOL    HW238421   2.789   4.200   0.419  0.4925 -0.1104 -0.5255
 8988SOL     OW38422   0.273   1.978   6.391  0.6602 -0.9746  0.5714
 8988SOL    HW138423   0.338   1.940   6.451  0.9848 -1.6316 -0.1981
 8988SOL    HW238424   0.298   1.932   6.311 -1.4564 -0.8583 -0.1477
 8989SOL     OW38425   0.399   4.703   1.321 -0.4247 -0.2553 -0.7848
 8989SOL    HW138426   0.352   4.691   1.403  2.0564 -0.0503  0.6728
 8989SOL    HW238427   0.419   4.611   1.302 -2.4381 -0.3982 -2.2104
 8990SOL     OW38428   2.254   2.678   0.093 -0.4230  0.0139  0.0383
 8990SOL    HW138429   2.238   2.677  17.683 -0.8564 -0.5471  0.1184
 8990SOL    HW238430   2.176   2.632   0.125 -1.6371  0.3292 -2.4882
 8991SOL     OW38431   1.488   0.829   8.636 -0.1984  0.6860  0.5310
 8991SOL    HW138432   1.579   0.852   8.614  1.7964 -2.5170  5.4970
 8991SOL    HW238433   1.459   0.898   8.695 -2.0896  1.4107 -1.2303
 8992SOL     OW38434   3.051   3.413   6.955 -0.2078  0.0851  0.1646
 8992SOL    HW138435   2.995   3.441   7.027 -3.0073 -0.8230 -1.6391
 8992SOL    HW238436   3.078   3.324   6.977 -1.3495 -0.3184 -0.0586
 8993SOL     OW38437   2.415   2.117  10.894  0.0725 -0.2499  0.6250
 8993SOL    HW138438   2.364   2.197  10.902  0.6858  0.1086  0.9534
 8993SOL    HW238439   2.405   2.089  10.803 -0.5228  1.5208  0.1513
 8994SOL     OW38440   3.855   2.263   9.191 -0.1288 -0.0990 -0.8610
 8994SOL    HW138441   3.937   2.280   9.144 -0.1674  0.4334 -0.7381
 8994SOL    HW238442   3.861   2.329   9.260 -1.1299  0.9783 -1.8144
 8995SOL     OW38443   3.749   3.130   4.850  0.1218 -0.4721  0.0222
 8995SOL    HW138444   3.753   3.052   4.794 -0.6936 -0.3393 -0.2142
 8995SOL    HW238445   3.703   3.193   4.795  0.6291  0.0513  0.1991
 8996SOL     OW38446   3.183   4.549   0.036 -0.1229  0.3254 -0.1222
 8996SOL    HW138447   3.276   4.573   0.040  0.1796 -0.7158 -0.9673
 8996SOL    HW238448   3.185   4.465   0.083  0.5071 -0.1599 -1.0181
 8997SOL     OW38449   3.391   0.024  11.748 -0.0406 -0.2226  0.0635
 8997SOL    HW138450   3.456   0.057  11.810 -0.7676 -1.6806  1.5911
 8997SOL    HW238451   3.442   4.667  11.725  0.9163  0.4212 -0.0120
 8998SOL     OW38452   3.770   3.932  12.745 -0.2551  0.2399 -0.0938
 8998SOL    HW138453   3.809   3.916  12.659  3.1758  0.0869  1.4836
 8998SOL    HW238454   3.777   3.844  12.782 -1.3200 -1.4305 -3.7974
 8999SOL     OW38455   3.991   1.211   4.406 -0.2554 -0.0161 -0.2120
 8999SOL    HW138456   4.086   1.205   4.399 -0.0298  1.9919  1.1498
 8999SOL    HW238457   3.982   1.285   4.466 -2.8691 -0.0793 -0.5077
 9000SOL     OW38458   3.945   0.001   8.348 -0.3296  0.0944 -0.0226
 9000SOL    HW138459   3.894   0.081   8.358 -1.6580 -0.5666 -1.4045
 9000SOL    HW238460   3.956   4.696   8.440 -3.1676  0.1394  0.3282
 9001SOL     OW38461   2.813   0.194   9.741 -0.0982  0.3543 -0.3501
 9001SOL    HW138462   2.837   0.287   9.735 -0.6991  0.6056  1.1731
 9001SOL    HW238463   2.720   0.201   9.764  0.1795 -1.1341  1.1609
 9002SOL     OW38464   3.735   2.314   5.686 -0.1175  0.1843  0.5074
 9002SOL    HW138465   3.755   2.398   5.645  0.5503 -0.1094  0.2321
 9002SOL    HW238466   3.714   2.342   5.775 -3.1808 -1.3036  0.2711
 9003SOL     OW38467   3.114   1.770   8.992  0.1796 -0.3037 -0.0019
 9003SOL    HW138468   3.198   1.810   8.971 -1.2116  1.2638 -2.5008
 9003SOL    HW238469   3.147   1.701   9.050  0.9220  0.7087  0.7877
 9004SOL     OW38470   0.826   2.637   8.204  0.5859  0.0998  0.1287
 9004SOL    HW138471   0.801   2.712   8.259  1.3816 -1.5825  2.7701
 9004SOL    HW238472   0.753   2.628   8.142  0.0262 -0.2270  0.8403
 9005SOL     OW38473   2.215   1.935   1.144  0.0924 -0.5622 -0.5238
 9005SOL    HW138474   2.161   1.926   1.066 -0.3018  0.8622 -0.4124
 9005SOL    HW238475   2.173   1.869   1.200  0.8892 -1.3407 -0.8318
 9006SOL     OW38476   3.031   3.533   4.303 -0.5640  0.2835  0.3084
 9006SOL    HW138477   2.979   3.613   4.307 -0.3332  0.5244 -1.2584
 9006SOL    HW238478   2.974   3.463   4.335 -2.8915  1.8645 -0.3193
 9007SOL     OW38479   2.591   1.369   7.974  0.1850  0.0258  0.5541
 9007SOL    HW138480   2.663   1.342   8.031 -0.0555  1.5084  1.5504
 9007SOL    HW238481   2.520   1.322   8.018 -0.0483 -0.6567 -0.5535
 9008SOL     OW38482   1.572   3.287  14.704  0.6791 -0.8298  0.3267
 9008SOL    HW138483   1.514   3.224  14.662 -0.9696 -0.1360  1.5515
 9008SOL    HW238484   1.650   3.287  14.649 -0.2247  1.4187 -0.9367
 9009SOL     OW38485   4.376   3.287   6.964 -0.1418  0.6025  0.2929
 9009SOL    HW138486   4.468   3.311   6.961  0.0161  0.0107  0.3793
 9009SOL    HW238487   4.356   3.238   6.884  1.8393 -3.0764  2.0481
 9010SOL     OW38488   1.692   3.914  10.557 -0.4445 -0.2111 -0.0184
 9010SOL    HW138489   1.680   4.007  10.576 -0.0165  0.1245 -1.4190
 9010SOL    HW238490   1.632   3.901  10.484 -1.1373  2.1700  0.1154
 9011SOL     OW38491   2.890   4.009   5.433  0.5694 -0.2520 -0.0414
 9011SOL    HW138492   2.933   3.927   5.458  0.5388 -1.1624 -2.9592
 9011SOL    HW238493   2.861   3.978   5.347 -2.0309  1.3653  0.2652
 9012SOL     OW38494   4.414   1.107  16.624 -0.2218 -0.3553 -0.0324
 9012SOL    HW138495   4.407   1.013  16.638 -2.6288 -0.2410 -0.3399
 9012SOL    HW238496   4.373   1.128  16.708  0.0284 -3.6639  0.9274
 9013SOL     OW38497   0.258   3.015   4.549  0.8443  0.2657  0.3640
 9013SOL    HW138498   0.304   3.097   4.536 -1.2852  1.0279 -2.4756
 9013SOL    HW238499   0.284   3.000   4.639  0.1396 -1.1711  0.3361
 9014SOL     OW38500   0.033   1.797   0.695 -0.4593 -0.4393  0.3424
 9014SOL    HW138501   4.701   1.766   0.768  0.3575 -0.1403  1.0585
 9014SOL    HW238502   0.059   1.715   0.654 -1.1953 -0.1565 -0.6944
 9015SOL     OW38503   1.637   4.032  13.944  0.0430 -0.0886  0.1027
 9015SOL    HW138504   1.543   4.027  13.929  0.0083 -1.5230  0.7391
 9015SOL    HW238505   1.662   4.094  13.876  1.7913 -1.7833 -0.8165
 9016SOL     OW38506   3.814   1.099  11.169 -0.6769 -0.3733  0.1901
 9016SOL    HW138507   3.747   1.123  11.104  0.3769  0.8455 -0.4397
 9016SOL    HW238508   3.802   1.177  11.223 -0.9592  0.1636 -0.6340
 9017SOL     OW38509   3.414   1.795   4.624 -0.0123  0.0666 -0.2546
 9017SOL    HW138510   3.374   1.857   4.685 -1.0661  0.4658 -1.3569
 9017SOL    HW238511   3.381   1.718   4.671 -0.3403 -0.4682 -1.3845
 9018SOL     OW38512   1.121   0.608  12.402 -0.2819 -0.1091  0.1184
 9018SOL    HW138513   1.085   0.650  12.324  2.2051 -0.1566 -1.0464
 9018SOL    HW238514   1.211   0.639  12.397  0.0263 -0.4553  3.6037
 9019SOL     OW38515   1.243   3.407   7.462 -0.4077 -0.7854  0.0305
 9019SOL    HW138516   1.315   3.431   7.403  1.1492 -2.5347  1.2186
 9019SOL    HW238517   1.182   3.480   7.457  0.7864  0.2729  0.9165
 9020SOL     OW38518   0.766   0.400   8.004  0.2381 -0.0010 -0.2414
 9020SOL    HW138519   0.722   0.484   7.995 -3.3186 -1.8347  0.3718
 9020SOL    HW238520   0.694   0.338   8.012 -0.0345  0.1381 -1.6073
 9021SOL     OW38521   3.372   2.588   9.009  0.9135 -0.6389 -0.1558
 9021SOL    HW138522   3.399   2.498   8.995  2.1857  0.0719 -2.2816
 9021SOL    HW238523   3.458   2.614   9.041  1.3000  0.5537 -2.1685
 9022SOL     OW38524   3.454   4.634   0.067  0.0215 -0.2043 -0.2455
 9022SOL    HW138525   3.545   4.652   0.045  0.7446 -1.6376  1.5336
 9022SOL    HW238526   3.455   4.626   0.163  2.2819 -0.0492 -0.2663
 9023SOL     OW38527   0.908   1.315  10.334  0.0301 -0.3739  0.1713
 9023SOL    HW138528   0.911   1.262  10.414 -0.8688 -1.4616 -0.5138
 9023SOL    HW238529   0.934   1.246  10.273  1.6907 -1.6400  2.3039
 9024SOL     OW38530   3.228   4.025  10.570  0.0711  0.9372 -0.8995
 9024SOL    HW138531   3.178   4.059  10.645 -0.7700  0.3713 -1.2008
 9024SOL    HW238532   3.262   4.102  10.525 -2.8971  1.5246 -2.1380
 9025SOL     OW38533   1.210   1.882   7.852 -0.3216  0.3339 -0.0236
 9025SOL    HW138534   1.143   1.926   7.903 -0.2617  1.2685 -0.7465
 9025SOL    HW238535   1.155   1.863   7.776 -0.8194  1.5391  0.0268
 9026SOL     OW38536   2.062   3.778   5.273 -0.4799 -0.0680 -0.2484
 9026SOL    HW138537   2.046   3.684   5.285  1.2351 -0.4707 -1.1073
 9026SOL    HW238538   2.009   3.783   5.194  0.4538 -0.0057 -0.8670
 9027SOL     OW38539   4.419   1.781   6.140 -0.4243  0.2786 -0.7052
 9027SOL    HW138540   4.375   1.755   6.221 -0.3534  0.0190 -0.7490
 9027SOL    HW238541   4.505   1.795   6.179 -2.3062  0.4878  3.3845
 9028SOL     OW38542   0.605   0.767   7.767 -0.2183  1.0082 -0.1202
 9028SOL    HW138543   0.568   0.828   7.831  1.0102  1.5845  0.0552
 9028SOL    HW238544   0.539   0.756   7.699 -1.3207 -2.2358  1.4682
 9029SOL     OW38545   0.047   3.422  10.351 -0.2563  0.0579  0.5752
 9029SOL    HW138546   0.076   3.511  10.331 -0.3008  0.1374  0.8645
 9029SOL    HW238547   0.001   3.429  10.435 -2.6326 -1.2297 -0.6223
 9030SOL     OW38548   3.681   4.636   2.871  0.3043 -0.4136 -0.3715
 9030SOL    HW138549   3.713   4.637   2.962 -1.6197  0.2698  0.2964
 9030SOL    HW238550   3.698   0.004   2.839  1.5079 -0.6272 -0.3105
 9031SOL     OW38551   2.409   3.956  10.984 -0.1823  0.1080 -0.5450
 9031SOL    HW138552   2.334   3.943  10.926 -0.4442 -1.4811  0.1464
 9031SOL    HW238553   2.423   4.050  10.988  0.3457  0.0542 -1.0970
 9032SOL     OW38554   0.887   1.850   6.761  0.1898 -0.0536 -0.4315
 9032SOL    HW138555   0.819   1.917   6.756 -0.4119 -0.7179 -1.2600
 9032SOL    HW238556   0.875   1.817   6.850 -3.0243  0.5064 -0.6678
 9033SOL     OW38557   3.663   4.693  17.598  0.5147  0.1158  0.7456
 9033SOL    HW138558   3.690   0.065  17.593  0.2864  0.0036 -2.6500
 9033SOL    HW238559   3.648   4.669  17.507  1.3687 -0.4070  0.7462
 9034SOL     OW38560   3.566   2.829   7.727 -0.2131 -0.2770 -0.4920
 9034SOL    HW138561   3.551   2.865   7.815 -2.9940  1.0430 -1.4958
 9034SOL    HW238562   3.537   2.899   7.668  0.2757  0.7216  0.4549
 9035SOL     OW38563   1.672   1.505  11.214  0.1483 -0.4356  0.3062
 9035SOL    HW138564   1.600   1.562  11.187 -0.2171 -0.3694  1.4020
 9035SOL    HW238565   1.631   1.471  11.294 -1.2378 -1.7648 -0.9668
 9036SOL     OW38566   1.669   4.631  11.478  0.2313  0.2838  0.4678
 9036SOL    HW138567   1.705   4.544  11.492  1.4986  0.8916  1.0011
 9036SOL    HW238568   1.746   4.688  11.486 -0.1727  0.8565  0.3228
 9037SOL     OW38569   0.858   1.606  17.331  0.1378 -0.3425  0.0423
 9037SOL    HW138570   0.909   1.554  17.269  0.7782  2.0308 -1.4319
 9037SOL    HW238571   0.778   1.618  17.280 -0.1126 -2.2010 -0.0118
 9038SOL     OW38572   2.741   2.000   2.908 -0.0724  0.2743  0.0317
 9038SOL    HW138573   2.769   1.914   2.878  0.6465  0.3720  0.4290
 9038SOL    HW238574   2.674   2.030   2.846 -1.9830 -1.0176  1.4663
 9039SOL     OW38575   4.242   0.459  11.117 -0.6829 -0.1644  0.0208
 9039SOL    HW138576   4.197   0.426  11.040 -0.6699  0.1575 -0.1255
 9039SOL    HW238577   4.168   0.479  11.175 -0.4822 -0.8935  0.5264
 9040SOL     OW38578   2.906   0.391   9.059 -0.7883 -0.3163  0.2932
 9040SOL    HW138579   2.992   0.373   9.020  0.9240  0.7293  3.5301
 9040SOL    HW238580   2.904   0.309   9.108 -1.3835 -1.8428 -2.3204
 9041SOL     OW38581   2.989   4.337   9.129 -0.3111  0.3735 -0.5747
 9041SOL    HW138582   2.911   4.386   9.102  0.0537  1.6703  0.7199
 9041SOL    HW238583   3.025   4.399   9.193 -1.0480  0.1583  0.0465
 9042SOL     OW38584   2.365   0.115   6.768 -0.0091 -0.3502  0.5366
 9042SOL    HW138585   2.300   0.062   6.722  0.5586 -0.5745 -0.0091
 9042SOL    HW238586   2.353   0.086   6.858  0.7619  1.3588  1.1808
 9043SOL     OW38587   1.912   4.419   4.900  0.4275 -0.0539  0.2485
 9043SOL    HW138588   1.838   4.446   4.953  1.4516  1.0378  1.1255
 9043SOL    HW238589   1.978   4.388   4.961 -0.3313 -1.5080  0.3297
 9044SOL     OW38590   3.413   3.580   9.647  0.5617  0.0158  0.6663
 9044SOL    HW138591   3.385   3.522   9.576  2.4998  0.0862 -0.1461
 9044SOL    HW238592   3.335   3.583   9.702  1.3383 -2.2442  1.8796
 9045SOL     OW38593   1.894   2.834  14.569  0.0782 -0.1959  0.2379
 9045SOL    HW138594   1.897   2.739  14.572 -0.7637 -0.2037  0.8640
 9045SOL    HW238595   1.902   2.845  14.475 -0.5433 -0.3618  0.1673
 9046SOL     OW38596   1.257   3.717   6.253  1.0876 -0.5185 -0.1298
 9046SOL    HW138597   1.251   3.643   6.313  0.5584 -0.6252 -0.3102
 9046SOL    HW238598   1.297   3.672   6.179  0.7341  1.6445 -1.6229
 9047SOL     OW38599   2.079   2.557  10.183 -0.1953 -0.9856  0.7848
 9047SOL    HW138600   2.129   2.598  10.112 -1.1764  2.3786  2.0595
 9047SOL    HW238601   2.071   2.616  10.258 -1.0850  1.8674 -1.5521
 9048SOL     OW38602   3.999   0.472  13.953  0.3071 -0.4266 -0.0669
 9048SOL    HW138603   3.960   0.545  14.001  0.2863 -1.7515  1.9341
 9048SOL    HW238604   3.929   0.451  13.892 -0.2731 -3.1863  1.5637
 9049SOL     OW38605   1.462   2.559   7.149 -0.4635 -0.2529  0.4203
 9049SOL    HW138606   1.468   2.557   7.245  0.7097 -3.6995  0.2512
 9049SOL    HW238607   1.543   2.602   7.121 -1.3055  1.2963  0.3650
 9050SOL     OW38608   4.336   3.146   4.743  0.1453 -0.2491 -0.5742
 9050SOL    HW138609   4.358   3.162   4.651 -0.6572  1.7790 -0.4264
 9050SOL    HW238610   4.284   3.067   4.730  0.7843 -0.7989  0.2264
 9051SOL     OW38611   0.956   2.287   6.755 -0.0150 -0.3018  0.2099
 9051SOL    HW138612   1.042   2.295   6.715  0.5420  0.4690  1.5897
 9051SOL    HW238613   0.974   2.212   6.813  0.9081 -0.8130 -0.7355
 9052SOL     OW38614   0.274   0.509   4.494 -0.3760 -0.4640 -0.4196
 9052SOL    HW138615   0.354   0.473   4.455 -1.7084 -4.0934  0.1989
 9052SOL    HW238616   0.259   0.439   4.558 -1.6574 -0.7578 -1.0421
 9053SOL     OW38617   1.908   3.585  11.673 -0.1296  0.5892 -0.0830
 9053SOL    HW138618   1.860   3.656  11.632 -0.6781  0.4352  0.3015
 9053SOL    HW238619   1.991   3.625  11.646  0.5932 -0.2066  0.9753
 9054SOL     OW38620   0.514   0.352   7.062  0.2752  0.0502 -0.1211
 9054SOL    HW138621   0.600   0.336   7.023  0.6726  0.0789  0.7478
 9054SOL    HW238622   0.476   0.269   7.035 -1.0171  0.0916  1.5022
 9055SOL     OW38623   0.438   3.816   3.173 -0.1007 -0.2999  0.3122
 9055SOL    HW138624   0.343   3.801   3.171 -0.1748  0.3313 -1.2665
 9055SOL    HW238625   0.447   3.911   3.169 -0.0202 -0.3451 -0.5608
 9056SOL     OW38626   1.753   2.640   0.897  0.1605 -0.4825  0.1557
 9056SOL    HW138627   1.812   2.645   0.822  0.5030  0.3863  0.4862
 9056SOL    HW238628   1.805   2.615   0.974  0.2607 -0.9294 -0.0561
 9057SOL     OW38629   0.704   0.210   6.447 -0.0669 -0.1303 -0.3018
 9057SOL    HW138630   0.649   0.284   6.421 -2.0627 -0.8208  1.9350
 9057SOL    HW238631   0.791   0.247   6.432 -0.7634  1.4392 -0.4890
 9058SOL     OW38632   0.028   0.856   0.520  0.4220 -0.7027  0.1907
 9058SOL    HW138633   4.668   0.906   0.534  1.3487  1.3988 -1.8902
 9058SOL    HW238634   0.014   0.785   0.583  1.4049 -0.0030  1.1903
 9059SOL     OW38635   1.808   3.813  13.882 -0.0965 -0.2802  0.2086
 9059SOL    HW138636   1.786   3.803  13.789  1.7541 -0.9526 -0.1702
 9059SOL    HW238637   1.763   3.896  13.891 -1.0773 -1.2320  3.8541
 9060SOL     OW38638   4.243   3.916   3.772  0.0388  0.5583 -0.0340
 9060SOL    HW138639   4.169   3.970   3.801  1.3475  1.5628  1.4472
 9060SOL    HW238640   4.202   3.831   3.758 -0.8813  0.8839  0.6608
 9061SOL     OW38641   0.870   4.385   2.274 -0.3630  0.2940 -0.0153
 9061SOL    HW138642   0.858   4.308   2.329 -0.5304 -0.6305 -1.3346
 9061SOL    HW238643   0.810   4.445   2.319 -0.5253 -0.0501  0.2208
 9062SOL     OW38644   0.300   2.676  15.240  0.5087  0.2215  0.0246
 9062SOL    HW138645   0.314   2.758  15.287 -0.2709  0.7649 -0.6915
 9062SOL    HW238646   0.330   2.612  15.305  0.2825 -0.0149 -0.1012
 9063SOL     OW38647   4.113   2.095   5.656 -1.2310 -0.1797  0.6827
 9063SOL    HW138648   4.069   2.060   5.734  0.4304 -1.6987  0.9225
 9063SOL    HW238649   4.201   2.058   5.658 -1.2354 -0.2231  0.2329
 9064SOL     OW38650   3.146   3.657  15.318  0.5335 -0.2312  0.2050
 9064SOL    HW138651   3.066   3.709  15.328 -0.0127 -1.0718  0.2211
 9064SOL    HW238652   3.137   3.616  15.231  3.2628  0.2157 -0.2928
 9065SOL     OW38653   3.798   1.928  15.915 -0.1742 -0.1549 -0.0984
 9065SOL    HW138654   3.796   1.879  15.833 -0.1995 -0.4357  0.0682
 9065SOL    HW238655   3.853   1.858  15.950 -0.8945 -1.0896 -0.8452
 9066SOL     OW38656   1.856   3.733   7.479  0.0047  0.2816  0.4552
 9066SOL    HW138657   1.829   3.799   7.416 -0.6573 -0.7677 -0.3762
 9066SOL    HW238658   1.782   3.673   7.470  1.0619 -0.8830 -0.6062
 9067SOL     OW38659   1.340   1.217   7.050  0.2306  0.2180 -0.6777
 9067SOL    HW138660   1.365   1.196   6.960  0.6195 -0.3703 -0.4327
 9067SOL    HW238661   1.427   1.233   7.087  1.1070 -1.5974 -1.9525
 9068SOL     OW38662   3.673   4.621   9.243 -1.0133 -0.1883  0.5526
 9068SOL    HW138663   3.715   4.657   9.164  0.5127 -0.7745  1.0961
 9068SOL    HW238664   3.604   4.571   9.201 -1.2041  1.2050 -0.8156
 9069SOL     OW38665   2.478   0.435   9.109  0.2661 -0.0955 -0.2808
 9069SOL    HW138666   2.494   0.437   9.015  0.8098  1.8743 -0.1574
 9069SOL    HW238667   2.538   0.500   9.146  0.0085 -1.0729  1.8601
 9070SOL     OW38668   1.697   1.252   1.929  0.1850  0.3808  0.4809
 9070SOL    HW138669   1.637   1.327   1.921 -1.2767 -0.8097  0.3438
 9070SOL    HW238670   1.774   1.294   1.890  1.5235 -0.8505  1.8079
 9071SOL     OW38671   2.098   2.396   6.169 -0.1042  0.6125  0.4291
 9071SOL    HW138672   2.125   2.344   6.244  2.0156  1.0001 -0.0892
 9071SOL    HW238673   2.029   2.341   6.130 -0.7435  1.9195 -0.2916
 9072SOL     OW38674   3.424   3.637   5.145 -0.2072 -0.7922  0.2951
 9072SOL    HW138675   3.392   3.660   5.058  0.9342 -0.7993 -0.1231
 9072SOL    HW238676   3.382   3.701   5.203 -0.3354 -2.2868  1.8422
 9073SOL     OW38677   4.684   3.136  17.325 -0.1211  0.3843  1.0072
 9073SOL    HW138678   4.679   3.056  17.274  1.6549 -0.0845  1.5615
 9073SOL    HW238679   4.647   3.106  17.409 -1.4475  0.1517  0.3388
 9074SOL     OW38680   2.234   2.057   3.915  0.8222 -0.1247 -0.6077
 9074SOL    HW138681   2.205   2.003   3.842  2.7003  1.9557 -2.8813
 9074SOL    HW238682   2.279   2.127   3.867 -1.4006  1.9916  0.3820
 9075SOL     OW38683   0.618   3.505  11.785  0.1473  0.6337 -0.3831
 9075SOL    HW138684   0.659   3.589  11.804  0.7531 -0.1967  1.9689
 9075SOL    HW238685   0.695   3.456  11.756 -1.5263 -1.8689 -0.6735
 9076SOL     OW38686   4.447   3.133   3.024 -0.7403  0.6023 -0.1077
 9076SOL    HW138687   4.424   3.041   3.040 -0.9834  1.1551  2.8263
 9076SOL    HW238688   4.365   3.162   2.986  0.6981  2.1634 -1.9852
 9077SOL     OW38689   1.008   0.495   0.518 -0.0945  0.5872  0.2498
 9077SOL    HW138690   1.041   0.571   0.469  1.4201 -1.3036 -1.6807
 9077SOL    HW238691   0.925   0.526   0.554 -0.9694 -0.7930 -0.5409
 9078SOL     OW38692   1.407   3.457   1.850  0.2575 -0.0367 -0.0083
 9078SOL    HW138693   1.391   3.501   1.933 -0.7768  0.9494 -0.7295
 9078SOL    HW238694   1.498   3.429   1.853  0.4724  0.6329 -0.3002
 9079SOL     OW38695   2.274   4.299   7.834 -0.6083  0.6578  0.1435
 9079SOL    HW138696   2.339   4.276   7.900  0.5401  2.0806 -0.4840
 9079SOL    HW238697   2.282   4.216   7.787 -1.2878 -0.1665  1.4777
 9080SOL     OW38698   0.486   0.289   3.538 -0.2620 -0.1162  0.0766
 9080SOL    HW138699   0.418   0.274   3.472 -2.5942 -1.8101  2.8688
 9080SOL    HW238700   0.498   0.197   3.562  2.8607  0.7204  1.6490
 9081SOL     OW38701   3.584   1.857  14.956  0.0830 -0.1651 -0.2058
 9081SOL    HW138702   3.648   1.803  15.003 -0.1960 -0.5399 -0.2550
 9081SOL    HW238703   3.598   1.826  14.866 -0.4625  0.9931 -0.7025
 9082SOL     OW38704   0.383   4.172  16.728 -0.2074  0.2504 -0.7516
 9082SOL    HW138705   0.393   4.217  16.644 -0.6766  1.9976  0.1510
 9082SOL    HW238706   0.300   4.216  16.747  2.0012  3.9208  0.2751
 9083SOL     OW38707   4.507   2.953   9.137  0.2332  0.0116 -0.3864
 9083SOL    HW138708   4.447   2.988   9.202  2.2240  1.7504  0.5281
 9083SOL    HW238709   4.586   2.950   9.192  1.0772 -0.4192 -1.6132
 9084SOL     OW38710   4.643   1.155   2.033  0.2429 -0.0043  0.0692
 9084SOL    HW138711   4.597   1.162   2.117  1.9791 -2.2887  1.2197
 9084SOL    HW238712   0.010   1.182   2.059 -0.6595  2.7418  0.2164
 9085SOL     OW38713   4.308   4.403  13.330 -0.2719  0.2217 -0.2416
 9085SOL    HW138714   4.215   4.395  13.308 -0.0415 -1.4417 -0.5575
 9085SOL    HW238715   4.322   4.312  13.354  1.9934 -0.8290 -5.6268
 9086SOL     OW38716   1.063   2.724   4.274  0.7075 -0.6659  0.1994
 9086SOL    HW138717   1.155   2.702   4.259  0.0356 -2.3567 -1.4946
 9086SOL    HW238718   1.029   2.635   4.287  0.8309 -0.5791  1.0849
 9087SOL     OW38719   3.635   3.607   3.361  0.4152 -0.1842 -0.5962
 9087SOL    HW138720   3.632   3.593   3.266 -0.9185 -0.1956 -0.5471
 9087SOL    HW238721   3.623   3.701   3.371 -0.2494 -0.2128 -1.1310
 9088SOL     OW38722   3.367   1.979   2.675 -0.1514 -0.2292  0.2780
 9088SOL    HW138723   3.276   1.982   2.703 -0.1331 -0.6617  0.3937
 9088SOL    HW238724   3.369   1.926   2.594  2.0074 -0.1113  0.2431
 9089SOL     OW38725   3.901   1.757   9.914 -0.4375 -0.5841 -0.5825
 9089SOL    HW138726   3.979   1.741   9.862 -0.6436 -0.3382 -0.9650
 9089SOL    HW238727   3.935   1.724   9.997  0.7541 -2.1980 -1.7117
 9090SOL     OW38728   1.546   1.062   3.911  0.2847 -0.3752  0.1117
 9090SOL    HW138729   1.621   1.091   3.963  1.2557 -1.4993 -0.6641
 9090SOL    HW238730   1.503   1.146   3.894 -0.1357 -0.5587  0.2632
 9091SOL     OW38731   3.035   2.123   8.380 -0.0908 -0.4639 -0.4484
 9091SOL    HW138732   2.984   2.152   8.456 -0.7262  0.4334 -1.2200
 9091SOL    HW238733   3.071   2.205   8.347 -2.3057  0.2961 -0.9175
 9092SOL     OW38734   0.084   3.961  15.488  0.0191  0.0989 -0.1783
 9092SOL    HW138735   0.076   4.007  15.571  2.7106 -2.6869  1.5812
 9092SOL    HW238736   0.092   3.871  15.521 -1.2815 -0.0731 -0.3092
 9093SOL     OW38737   0.857   1.482   8.081 -0.2616 -0.3056  0.2898
 9093SOL    HW138738   0.845   1.576   8.095  0.6193  0.2452 -2.5936
 9093SOL    HW238739   0.899   1.462   8.165 -2.1635 -1.3049  1.0198
 9094SOL     OW38740   2.310   2.807   6.287 -0.1970 -0.1140 -0.2118
 9094SOL    HW138741   2.250   2.736   6.310 -0.8346  0.3339 -0.4754
 9094SOL    HW238742   2.357   2.824   6.369  0.4793 -0.0055 -0.6200
 9095SOL     OW38743   1.737   2.404  14.684 -0.2261 -0.7478  0.2046
 9095SOL    HW138744   1.704   2.359  14.606  0.5018 -1.9800  0.6080
 9095SOL    HW238745   1.717   2.492  14.654 -4.0910 -1.5497  0.3892
 9096SOL     OW38746   3.759   0.369   6.111  0.0686 -0.2132 -0.0333
 9096SOL    HW138747   3.755   0.292   6.054 -4.0912 -0.6843  0.8610
 9096SOL    HW238748   3.778   0.434   6.043 -1.3978  2.1728  1.8512
 9097SOL     OW38749   2.141   1.265   2.771 -0.2114  0.2498  0.3401
 9097SOL    HW138750   2.180   1.257   2.684 -1.1589  0.1132 -0.0725
 9097SOL    HW238751   2.136   1.360   2.779 -0.0753  0.3103 -0.2922
 9098SOL     OW38752   0.633   1.233   9.221 -0.0117 -0.1762  0.0969
 9098SOL    HW138753   0.660   1.292   9.151 -1.2317 -0.4286 -0.5770
 9098SOL    HW238754   0.624   1.153   9.170 -0.7299 -0.6519  0.9669
 9099SOL     OW38755   4.533   2.209   2.892 -0.1101 -0.1680 -0.1574
 9099SOL    HW138756   4.504   2.273   2.957 -1.2465  0.2906 -1.1177
 9099SOL    HW238757   4.604   2.167   2.941 -0.7509 -1.0671 -0.0022
 9100SOL     OW38758   3.035   4.464   5.394 -0.4603 -0.3357  0.0547
 9100SOL    HW138759   3.025   4.547   5.442  1.2756  0.1139 -0.3726
 9100SOL    HW238760   3.082   4.413   5.459 -1.1723  0.6304  1.3186
 9101SOL     OW38761   1.234   1.838   2.435  0.6361 -0.1848 -0.7392
 9101SOL    HW138762   1.258   1.787   2.513 -3.0904 -0.7314  0.0255
 9101SOL    HW238763   1.164   1.786   2.396  0.0537 -0.3733  0.5561
 9102SOL     OW38764   0.116   3.505   7.624  0.0694  1.0234  0.1412
 9102SOL    HW138765   0.147   3.529   7.537 -0.3706 -1.9391 -0.8511
 9102SOL    HW238766   0.108   3.412   7.601  1.7524  0.9181 -0.0705
 9103SOL     OW38767   2.055   2.922   6.505  0.9523  0.1892 -0.1233
 9103SOL    HW138768   2.146   2.954   6.504  2.1392 -3.1683  1.2219
 9103SOL    HW238769   2.021   2.990   6.448  0.6432  1.5986  1.7134
 9104SOL     OW38770   0.610   4.215   7.232  0.6748 -0.1506  0.4266
 9104SOL    HW138771   0.518   4.230   7.209  1.0935  1.7974 -0.0151
 9104SOL    HW238772   0.603   4.144   7.295  1.3988  0.9078  1.7036
 9105SOL     OW38773   2.874   2.027  12.766  0.5021 -0.2171 -0.5531
 9105SOL    HW138774   2.871   2.056  12.674  0.5229 -1.2663 -0.8880
 9105SOL    HW238775   2.966   2.043  12.784 -0.1568  0.7257  1.8503
 9106SOL     OW38776   4.579   2.280  10.700  0.0420 -0.0778  0.1185
 9106SOL    HW138777   4.543   2.369  10.695 -1.9955 -0.8307  1.4643
 9106SOL    HW238778   4.572   2.261  10.794 -1.1262  1.4378  0.3429
 9107SOL     OW38779   2.492   0.596  17.171 -0.0418  0.6935 -0.0518
 9107SOL    HW138780   2.397   0.598  17.156 -0.0173  0.3900 -0.2506
 9107SOL    HW238781   2.496   0.620  17.264  0.3562 -0.8959  0.3406
 9108SOL     OW38782   1.695   0.377   8.455  0.0542  0.6232 -0.6527
 9108SOL    HW138783   1.698   0.349   8.364 -2.8616  0.8195 -0.8135
 9108SOL    HW238784   1.601   0.394   8.463 -0.1002  0.3698 -2.0224
 9109SOL     OW38785   4.463   0.228   1.850  0.9039  0.0830 -0.5517
 9109SOL    HW138786   4.427   0.316   1.847  0.3059 -0.1006  1.0493
 9109SOL    HW238787   4.558   0.240   1.847  0.8542  0.5463 -0.3172
 9110SOL     OW38788   4.017   4.274   1.858  0.3101  0.3989 -0.5350
 9110SOL    HW138789   4.027   4.240   1.769 -1.9525  1.8559 -1.3488
 9110SOL    HW238790   4.050   4.364   1.852  0.7927  0.2455 -0.1722
 9111SOL     OW38791   0.190   0.254  16.384 -0.1922  0.2541  0.6552
 9111SOL    HW138792   0.114   0.302  16.353  0.4493  0.7859 -0.0840
 9111SOL    HW238793   0.254   0.325  16.392  1.0226 -0.7937  0.4471
 9112SOL     OW38794   4.457   3.740  14.318  0.2147 -0.1537  0.2472
 9112SOL    HW138795   4.372   3.739  14.275 -0.2618 -2.9982  1.2546
 9112SOL    HW238796   4.505   3.745  14.236  0.0678 -2.8158  0.0072
 9113SOL     OW38797   3.101   0.718  11.909 -0.4172  0.4094 -0.5330
 9113SOL    HW138798   3.149   0.801  11.913  0.9029 -0.3189 -1.1272
 9113SOL    HW238799   3.075   0.701  11.818  0.5801 -0.8517 -0.5881
 9114SOL     OW38800   2.574   4.095  16.477  0.3556 -0.1999 -0.0433
 9114SOL    HW138801   2.659   4.056  16.458  0.2673 -0.2852 -0.2601
 9114SOL    HW238802   2.527   4.044  16.411  0.0511 -1.1763  0.9359
 9115SOL     OW38803   0.914   0.375   4.871  0.6600 -0.7425 -0.3775
 9115SOL    HW138804   0.835   0.334   4.835 -0.2936 -0.6165  1.5797
 9115SOL    HW238805   0.935   0.448   4.812 -1.2648 -0.4030 -0.6525
 9116SOL     OW38806   4.495   0.597   9.078 -0.2445 -0.4550 -0.3883
 9116SOL    HW138807   4.446   0.518   9.100 -0.7425 -0.5256 -1.7534
 9116SOL    HW238808   4.469   0.615   8.987 -0.3397 -0.5480 -0.3801
 9117SOL     OW38809   0.923   3.170   4.121 -0.1895  0.5150  0.2327
 9117SOL    HW138810   0.998   3.113   4.141  0.8279  2.1575  1.0910
 9117SOL    HW238811   0.896   3.126   4.041 -0.6606 -1.2904  1.3871
 9118SOL     OW38812   0.050   4.458   6.971 -0.8953  0.1773  0.4307
 9118SOL    HW138813   4.675   4.464   6.979 -1.1737 -0.5428 -2.1436
 9118SOL    HW238814   0.075   4.459   7.063  0.3675  0.1189  0.0792
 9119SOL     OW38815   2.944   3.441  13.222 -0.5018  0.3132  0.1146
 9119SOL    HW138816   2.949   3.536  13.231 -0.7455  0.5067 -1.7208
 9119SOL    HW238817   2.994   3.427  13.142  1.5739  1.9205  1.1321
 9120SOL     OW38818   1.370   2.108   4.280 -0.8625  0.3416 -0.0956
 9120SOL    HW138819   1.340   2.030   4.325 -3.7930  1.8711  0.5988
 9120SOL    HW238820   1.295   2.167   4.287 -1.2305 -0.3128  1.4862
 9121SOL     OW38821   4.552   2.785   2.279 -0.1994  0.0047  0.1238
 9121SOL    HW138822   4.559   2.758   2.370 -1.3810 -2.4728 -0.5371
 9121SOL    HW238823   4.637   2.824   2.257  0.2747  0.1882  2.2513
 9122SOL     OW38824   1.666   1.524   2.616  0.6666  0.0514  0.3223
 9122SOL    HW138825   1.652   1.552   2.707 -2.1664  0.7222 -0.3136
 9122SOL    HW238826   1.585   1.476   2.596  1.6351 -0.5177 -2.2251
 9123SOL     OW38827   4.322   0.704   3.688 -0.0332 -0.0801  0.1384
 9123SOL    HW138828   4.321   0.620   3.735 -1.6300  1.1127  2.2157
 9123SOL    HW238829   4.313   0.682   3.596 -1.0250 -0.4067  0.3096
 9124SOL     OW38830   4.675   2.652   2.642  0.5000 -0.3511  0.2997
 9124SOL    HW138831   0.045   2.668   2.612  0.0112 -0.1390 -1.0519
 9124SOL    HW238832   4.629   2.735   2.631  0.1219 -0.4765  0.9594
 9125SOL     OW38833   1.287   2.491  14.213  0.2895 -0.4124 -0.5529
 9125SOL    HW138834   1.295   2.469  14.305  0.1200  1.4397 -0.0825
 9125SOL    HW238835   1.215   2.554  14.223  0.8166  0.4137 -1.8965
 9126SOL     OW38836   0.294   0.437  11.733 -0.9004 -0.7619 -0.1706
 9126SOL    HW138837   0.200   0.428  11.748 -0.7015 -4.0174 -0.9115
 9126SOL    HW238838   0.318   0.351  11.769  1.9827  0.1891  0.1376
 9127SOL     OW38839   3.170   4.496   7.482 -0.3095 -0.4384 -0.3243
 9127SOL    HW138840   3.083   4.521   7.453  1.0319  2.3536 -2.0068
 9127SOL    HW238841   3.168   4.402   7.499  1.0121 -0.8534 -2.5279
 9128SOL     OW38842   2.504   4.504   4.535  0.7911  0.2821  0.2433
 9128SOL    HW138843   2.432   4.547   4.581 -0.7689 -0.8466 -1.1292
 9128SOL    HW238844   2.572   4.568   4.558  1.3660 -0.2804  0.0912
 9129SOL     OW38845   0.475   3.947  12.425 -0.4603  0.2454 -0.5947
 9129SOL    HW138846   0.455   3.865  12.469  0.8945 -0.2628 -0.9167
 9129SOL    HW238847   0.502   3.997  12.503 -0.0551  0.2076 -0.7115
 9130SOL     OW38848   3.759   2.709   6.282  0.5064 -0.0766 -0.0837
 9130SOL    HW138849   3.779   2.778   6.219  0.3400  0.3279  0.3034
 9130SOL    HW238850   3.841   2.675   6.320  0.4714  0.4545  0.4714
 9131SOL     OW38851   4.433   1.170   1.027  0.2597 -0.5649 -0.7979
 9131SOL    HW138852   4.432   1.093   0.969 -0.6032 -0.1174 -1.3766
 9131SOL    HW238853   4.459   1.236   0.963 -1.8877 -0.8876 -1.9930
 9132SOL     OW38854   0.456   0.854   5.098  0.0741  0.0603  0.2913
 9132SOL    HW138855   0.488   0.891   5.180  0.5524 -0.2315  0.2367
 9132SOL    HW238856   0.409   0.777   5.128 -2.6976  1.1247 -1.3321
 9133SOL     OW38857   4.405   2.342   4.758 -0.1296  0.3564  0.1673
 9133SOL    HW138858   4.393   2.313   4.848  0.6811 -1.2777 -0.2462
 9133SOL    HW238859   4.409   2.435   4.779  0.5738  0.4082 -0.2005
 9134SOL     OW38860   0.113   3.670  10.157 -0.0644  0.2906 -0.0389
 9134SOL    HW138861   0.156   3.718  10.227  0.3013  2.6987 -1.9179
 9134SOL    HW238862   0.123   3.723  10.077  0.8407 -2.5118 -1.7958
 9135SOL     OW38863   1.008   0.979   6.223 -0.6063 -0.0537  0.3063
 9135SOL    HW138864   0.930   0.963   6.170 -0.3600 -2.4250  0.6782
 9135SOL    HW238865   0.972   0.941   6.303  0.5109  1.1645  1.3788
 9136SOL     OW38866   2.529   0.854   9.164  0.5247 -0.2162  0.4300
 9136SOL    HW138867   2.506   0.801   9.240 -1.4412  0.6808  0.4556
 9136SOL    HW238868   2.497   0.805   9.088  1.7685 -2.2769  1.2305
 9137SOL     OW38869   3.140   2.532   8.864 -0.0454 -0.1000  0.2519
 9137SOL    HW138870   3.121   2.454   8.916 -1.2903  0.3673  0.5087
 9137SOL    HW238871   3.228   2.553   8.892 -0.2281 -0.2471  0.9371
 9138SOL     OW38872   2.820   3.777   5.797 -0.2841 -0.3243  0.0489
 9138SOL    HW138873   2.821   3.871   5.814  0.9150 -0.8712  3.0312
 9138SOL    HW238874   2.830   3.747   5.887  0.8383 -0.3920 -0.0916
 9139SOL     OW38875   3.792   1.974  10.050  0.5285 -0.6661  0.9267
 9139SOL    HW138876   3.710   1.939  10.086 -0.0436 -0.2614  0.0004
 9139SOL    HW238877   3.820   1.905   9.991 -0.4780  0.8432 -1.3049
 9140SOL     OW38878   3.128   4.173   1.242 -0.4812 -0.2713  0.4053
 9140SOL    HW138879   3.212   4.148   1.204 -0.1774 -0.2457  1.0669
 9140SOL    HW238880   3.104   4.087   1.276  1.4480 -1.1141 -0.3648
 9141SOL     OW38881   2.289   2.240   3.545 -0.1095 -0.0312  0.5516
 9141SOL    HW138882   2.318   2.283   3.626 -0.3823 -0.7821  1.0489
 9141SOL    HW238883   2.371   2.195   3.526 -1.2026 -0.5683 -2.7381
 9142SOL     OW38884   1.930   4.270   7.420  0.0178 -0.3431  0.6609
 9142SOL    HW138885   1.934   4.363   7.445  1.7438 -0.4412  0.7421
 9142SOL    HW238886   1.838   4.257   7.398  0.7112 -0.3030 -2.2395
 9143SOL     OW38887   1.689   1.385  14.566  0.1580  0.0737 -0.0613
 9143SOL    HW138888   1.726   1.472  14.551  1.2054  0.0399  2.4423
 9143SOL    HW238889   1.771   1.343  14.539 -1.0560 -1.6041 -1.1676
 9144SOL     OW38890   3.359   3.122   7.196 -0.1175 -0.0230  0.0462
 9144SOL    HW138891   3.319   3.062   7.258  1.8175 -1.0620  0.2915
 9144SOL    HW238892   3.447   3.085   7.189 -0.6611 -1.3133  0.0045
 9145SOL     OW38893   0.641   3.974   5.954 -0.1220  0.6037  0.7515
 9145SOL    HW138894   0.690   4.056   5.943  1.3562 -0.4110 -0.3775
 9145SOL    HW238895   0.583   3.971   5.878 -0.3770  0.6153  0.9475
 9146SOL     OW38896   0.277   1.405   8.204  0.3769  0.1024 -0.0512
 9146SOL    HW138897   0.200   1.453   8.171  0.6080  0.1597 -0.5109
 9146SOL    HW238898   0.317   1.367   8.125 -0.0045 -0.6217  0.1089
 9147SOL     OW38899   0.895   4.346   5.921 -0.0182  0.1200  0.1418
 9147SOL    HW138900   0.892   4.275   5.857 -1.5093 -0.2799  0.6600
 9147SOL    HW238901   0.832   4.300   5.976 -2.1218  1.1580 -1.3794
 9148SOL     OW38902   3.028   0.460   3.641  0.2584  0.4316 -1.2415
 9148SOL    HW138903   3.039   0.544   3.595  0.0355  1.7873  1.1933
 9148SOL    HW238904   2.978   0.478   3.720  0.4503 -0.4633 -0.9178
 9149SOL     OW38905   3.493   2.575   2.246  0.3716  0.6566 -0.4549
 9149SOL    HW138906   3.495   2.515   2.321  1.4637  0.5429 -0.5697
 9149SOL    HW238907   3.470   2.655   2.293 -1.5909 -0.2212  0.0703
 9150SOL     OW38908   3.858   3.917   2.846  0.2732 -0.0581 -0.4484
 9150SOL    HW138909   3.954   3.916   2.835  0.3385  0.5801  0.0866
 9150SOL    HW238910   3.848   4.000   2.799  1.3328 -0.8925 -2.1943
 9151SOL     OW38911   0.223   2.684   9.634  0.4511 -0.1085  0.1826
 9151SOL    HW138912   0.245   2.671   9.542  1.0206 -2.7180  0.6877
 9151SOL    HW238913   0.183   2.771   9.636  0.2044 -0.2494  1.6172
 9152SOL     OW38914   2.398   0.620   2.633 -0.7182  0.0936 -0.2207
 9152SOL    HW138915   2.356   0.643   2.550 -0.2412  0.2067 -0.4313
 9152SOL    HW238916   2.463   0.555   2.605 -0.9953 -0.4472  0.4224
 9153SOL     OW38917   2.458   3.193   3.230 -0.4169  0.1997 -0.0448
 9153SOL    HW138918   2.376   3.144   3.237 -0.7101  0.5866 -0.7317
 9153SOL    HW238919   2.423   3.273   3.191 -0.1806 -0.0140 -0.6975
 9154SOL     OW38920   3.353   0.535   9.466 -0.4376  0.7500 -0.3105
 9154SOL    HW138921   3.406   0.457   9.449  0.5174  1.7650 -1.9737
 9154SOL    HW238922   3.394   0.605   9.417  0.3485  2.1978  2.4255
 9155SOL     OW38923   3.138   0.583   8.713  0.0121 -0.3493 -0.4490
 9155SOL    HW138924   3.158   0.658   8.770 -0.3839 -1.6826  1.4369
 9155SOL    HW238925   3.194   0.512   8.741 -0.7710  0.3440  2.8705
 9156SOL     OW38926   2.270   0.301   7.860 -0.4324 -0.8893  0.1518
 9156SOL    HW138927   2.321   0.252   7.926  1.3488  0.7986  0.0508
 9156SOL    HW238928   2.290   0.253   7.780 -1.0895  0.9600 -1.0983
 9157SOL     OW38929   3.131   4.712   8.287 -0.4050  0.3514  0.6148
 9157SOL    HW138930   3.082   0.073   8.302 -0.8915  0.4822 -1.7473
 9157SOL    HW238931   3.162   4.675   8.370 -0.5910  0.5354  0.7663
 9158SOL     OW38932   1.928   4.137   3.511 -0.1168 -0.4271 -0.2813
 9158SOL    HW138933   1.943   4.226   3.480  0.5061 -1.1144 -1.9554
 9158SOL    HW238934   1.910   4.163   3.601  1.2444 -0.5045  0.0187
 9159SOL     OW38935   4.440   3.505   7.405 -0.5788 -0.1659 -0.5932
 9159SOL    HW138936   4.349   3.520   7.377 -0.2400 -0.6704 -1.9815
 9159SOL    HW238937   4.425   3.436   7.470  0.9156  1.9695  1.9694
 9160SOL     OW38938   1.205   0.635   6.042  0.3200  0.4219  0.1296
 9160SOL    HW138939   1.249   0.551   6.026  0.3769  0.3870  0.4650
 9160SOL    HW238940   1.278   0.697   6.037 -0.8198  1.5880 -1.7872
 9161SOL     OW38941   0.006   2.656  14.328  0.2364 -0.6099  0.2610
 9161SOL    HW138942   0.057   2.585  14.368  1.4475 -0.4114 -0.9641
 9161SOL    HW238943   0.060   2.734  14.341  0.1080 -0.2780 -1.2437
 9162SOL     OW38944   1.216   1.063   5.896  0.6363 -0.9396  0.5406
 9162SOL    HW138945   1.258   1.015   5.825 -2.9221 -2.0794 -0.8203
 9162SOL    HW238946   1.292   1.109   5.929  0.1814  0.5765 -0.5207
 9163SOL     OW38947   3.462   0.048   8.099  0.4019  0.0487 -0.2230
 9163SOL    HW138948   3.437   4.695   8.156  1.7072  1.4039  2.1295
 9163SOL    HW238949   3.407   0.034   8.022 -1.4559  2.1942  0.7070
 9164SOL     OW38950   1.843   1.860   6.158 -0.3945  0.1603  0.6793
 9164SOL    HW138951   1.885   1.946   6.163 -1.4131  0.6272  1.1711
 9164SOL    HW238952   1.869   1.833   6.247 -0.3532  1.6212  1.1075
 9165SOL     OW38953   1.270   2.809   6.003 -0.1737 -0.2185  0.3945
 9165SOL    HW138954   1.187   2.840   6.039 -2.1108 -3.3296 -1.3823
 9165SOL    HW238955   1.253   2.719   6.030  1.4750 -0.4837  0.5620
 9166SOL     OW38956   0.572   4.285   4.958  0.2444 -0.0838  0.1464
 9166SOL    HW138957   0.660   4.323   4.956 -0.5073  1.6045 -1.4586
 9166SOL    HW238958   0.556   4.271   4.864  0.3851  1.5242 -0.1216
 9167SOL     OW38959   3.183   0.917   4.265  0.0242  0.1094 -0.8919
 9167SOL    HW138960   3.150   0.875   4.186  0.4888 -1.4952 -0.2371
 9167SOL    HW238961   3.267   0.947   4.230  1.0806 -0.0598  1.4867
 9168SOL     OW38962   2.351   4.324  12.185 -0.0215 -0.4401 -0.1506
 9168SOL    HW138963   2.385   4.376  12.259 -0.9715 -1.2547  0.8577
 9168SOL    HW238964   2.313   4.257  12.241 -1.0543 -1.6255 -2.2856
 9169SOL     OW38965   0.468   0.401   2.857  0.4598  0.0375  0.3168
 9169SOL    HW138966   0.560   0.402   2.883  0.6938 -1.2032 -0.4679
 9169SOL    HW238967   0.467   0.355   2.773 -0.2158  1.9306 -0.7195
 9170SOL     OW38968   3.916   0.535   2.276  0.6814  0.2595  0.1992
 9170SOL    HW138969   3.963   0.453   2.291 -0.0713 -0.0197  1.0145
 9170SOL    HW238970   3.836   0.510   2.231  0.2770  0.6681  0.6914
 9171SOL     OW38971   2.730   2.367  12.279 -0.4385 -0.0120 -0.2210
 9171SOL    HW138972   2.663   2.346  12.344 -0.9730  1.5714 -0.2683
 9171SOL    HW238973   2.800   2.308  12.306  0.3443  1.3139  0.6488
 9172SOL     OW38974   1.822   3.701   6.571  0.6030 -0.0491  0.9595
 9172SOL    HW138975   1.833   3.639   6.643  2.0305 -0.2474  0.5630
 9172SOL    HW238976   1.902   3.751   6.588  0.7137 -0.9807  3.2064
 9173SOL     OW38977   1.920   1.901   3.338 -0.0088  0.1577  0.7360
 9173SOL    HW138978   1.918   1.867   3.427 -0.4928 -0.9995  0.2788
 9173SOL    HW238979   1.908   1.817   3.295  1.0271  0.6583 -0.5618
 9174SOL     OW38980   0.695   0.356   1.882  0.2909 -0.3566  0.3062
 9174SOL    HW138981   0.601   0.343   1.891  0.4874 -1.6189  0.4603
 9174SOL    HW238982   0.729   0.347   1.972  1.3919 -0.6691 -0.1375
 9175SOL     OW38983   2.448   3.524   7.413  0.1124 -0.1477  0.2787
 9175SOL    HW138984   2.474   3.432   7.401  1.5334  0.3743 -0.6637
 9175SOL    HW238985   2.505   3.572   7.353  0.3621 -2.8566 -1.6591
 9176SOL     OW38986   1.446   1.267  17.357 -0.0952 -0.2560 -0.6911
 9176SOL    HW138987   1.377   1.332  17.360 -0.2408 -0.6240  4.0716
 9176SOL    HW238988   1.452   1.260  17.261  0.6130 -1.2349 -0.5838
 9177SOL     OW38989   3.371   1.666   6.645  0.2907 -0.3177 -0.3835
 9177SOL    HW138990   3.354   1.696   6.734  0.1174  1.3891 -1.0035
 9177SOL    HW238991   3.439   1.598   6.646  1.5101  0.9113 -0.8462
 9178SOL     OW38992   0.689   2.348   2.158 -0.2025  0.2116 -0.3741
 9178SOL    HW138993   0.781   2.340   2.132  0.0056 -1.6917  0.9626
 9178SOL    HW238994   0.647   2.361   2.073  2.2341  0.1058 -1.6101
 9179SOL     OW38995   3.758   0.037   7.755  0.4530 -0.2406  0.4051
 9179SOL    HW138996   3.835   0.058   7.807  1.1911  1.0924 -1.2506
 9179SOL    HW238997   3.780   4.684   7.699 -3.0676 -0.4970 -0.6247
 9180SOL     OW38998   1.510   1.763   4.721 -0.2890 -0.5071 -0.3883
 9180SOL    HW138999   1.446   1.784   4.789 -2.5834 -1.9157 -2.1178
 9180SOL    HW239000   1.587   1.763   4.778 -1.3581  2.5882  1.0508
 9181SOL     OW39001   1.320   2.885   8.087  0.2751  0.1214 -0.5730
 9181SOL    HW139002   1.334   2.797   8.052 -1.5110 -0.2700 -0.3264
 9181SOL    HW239003   1.298   2.925   8.003  1.2656  1.3710 -0.2242
 9182SOL     OW39004   1.775   1.979   0.020 -0.4410  0.0769 -1.1171
 9182SOL    HW139005   1.776   2.073   0.032 -1.4512  0.3468 -3.1595
 9182SOL    HW239006   1.699   1.964  17.647 -1.5935 -2.5534  1.1404
 9183SOL     OW39007   3.566   0.926   2.504 -0.3232 -0.0447 -0.1212
 9183SOL    HW139008   3.588   0.906   2.413 -0.3903  0.4242 -0.2409
 9183SOL    HW239009   3.473   0.946   2.496 -0.4915 -0.1022  1.5742
 9184SOL     OW39010   1.183   2.577   3.057  0.3129  0.1886  0.4257
 9184SOL    HW139011   1.260   2.521   3.045  0.6694  0.8892 -0.5480
 9184SOL    HW239012   1.125   2.541   2.989  1.0545  2.7117 -1.5357
 9185SOL     OW39013   2.402   1.501   4.811 -0.1263  0.2619  0.1658
 9185SOL    HW139014   2.320   1.545   4.788 -0.7514 -0.2651  1.4348
 9185SOL    HW239015   2.420   1.441   4.738 -2.6919 -0.9513  0.5432
 9186SOL     OW39016   3.112   3.769   7.978  0.4050  0.2355 -0.0394
 9186SOL    HW139017   3.153   3.850   8.005  0.5710 -0.1348  0.8038
 9186SOL    HW239018   3.175   3.705   8.009  0.7992  0.5333 -0.2309
 9187SOL     OW39019   2.772   4.206  14.069  0.1871 -0.6698 -0.4221
 9187SOL    HW139020   2.708   4.135  14.070  1.3703 -1.7441 -2.4070
 9187SOL    HW239021   2.860   4.170  14.081  1.6800  3.1356  0.1457
 9188SOL     OW39022   3.697   2.897   4.218 -0.4303 -0.5940  0.5624
 9188SOL    HW139023   3.664   2.947   4.143 -1.3348  0.9476  1.9842
 9188SOL    HW239024   3.681   2.809   4.184 -1.4992  0.2425 -1.1307
 9189SOL     OW39025   2.822   1.363  16.830  0.5610 -0.0536 -0.0231
 9189SOL    HW139026   2.814   1.288  16.888 -0.7447  1.2138  1.4295
 9189SOL    HW239027   2.878   1.419  16.884 -0.3765  1.4232 -0.5737
 9190SOL     OW39028   1.490   2.846   0.982  0.9572  0.0308 -0.0200
 9190SOL    HW139029   1.477   2.760   1.023 -1.6198  1.0892  1.4386
 9190SOL    HW239030   1.493   2.820   0.890 -3.6650  1.3132 -0.5550
 9191SOL     OW39031   3.740   2.986   9.198 -0.4227  0.7030  0.0151
 9191SOL    HW139032   3.780   3.049   9.259  0.2751 -1.3909  1.7050
 9191SOL    HW239033   3.801   2.913   9.209 -0.9948  0.4180  1.3278
 9192SOL     OW39034   0.385   4.038   7.745  0.0449  0.0501 -0.0389
 9192SOL    HW139035   0.382   4.133   7.734 -0.2253  0.1869  1.2033
 9192SOL    HW239036   0.458   4.026   7.806 -1.6989 -1.5331  1.7322
 9193SOL     OW39037   1.979   2.388   7.558 -0.1743  0.3892  0.4331
 9193SOL    HW139038   2.057   2.430   7.595  1.3897  1.2131 -3.8204
 9193SOL    HW239039   1.979   2.301   7.599 -1.8648  0.1114 -0.1505
 9194SOL     OW39040   1.612   2.528   3.255 -0.1296  0.5130  0.1736
 9194SOL    HW139041   1.549   2.569   3.314  0.0910  0.4248  0.4660
 9194SOL    HW239042   1.548   2.486   3.197 -1.2030  0.5596  1.3331
 9195SOL     OW39043   2.536   4.099  16.935 -0.6392 -0.5517  0.1562
 9195SOL    HW139044   2.490   4.130  16.856  2.1618 -1.0052 -1.6434
 9195SOL    HW239045   2.477   4.046  16.989 -1.5670  0.9018  0.5681
 9196SOL     OW39046   0.266   3.762  15.204 -0.7808  0.3197  0.0644
 9196SOL    HW139047   0.296   3.683  15.248 -0.5050  0.2592 -0.2311
 9196SOL    HW239048   0.241   3.721  15.121 -0.2755 -0.4145  0.2804
 9197SOL     OW39049   0.491   4.635   4.447 -0.5320  0.3164  0.6236
 9197SOL    HW139050   0.448   4.639   4.533 -1.8961  0.3357 -0.0596
 9197SOL    HW239051   0.421   4.636   4.382 -0.9255  1.1626  1.0540
 9198SOL     OW39052   4.056   1.057   8.929  0.0667  0.4378  0.0115
 9198SOL    HW139053   4.149   1.058   8.949  0.3856 -1.0521 -1.4396
 9198SOL    HW239054   4.016   1.031   9.012  2.1315 -1.2706  0.4417
 9199SOL     OW39055   3.990   3.018   7.274 -0.1846 -0.0839 -0.0456
 9199SOL    HW139056   4.044   2.945   7.242 -0.7425  0.9390 -3.3849
 9199SOL    HW239057   3.985   2.988   7.364 -1.8041  0.8937  0.1915
 9200SOL     OW39058   2.670   0.328   5.899  0.2725 -0.1275  0.2874
 9200SOL    HW139059   2.655   0.301   5.989 -0.5319 -0.6930 -0.0222
 9200SOL    HW239060   2.618   0.409   5.901  0.8395  0.2231  0.7693
 9201SOL     OW39061   0.010   2.776  10.970  0.5353  0.0076 -0.8347
 9201SOL    HW139062   0.011   2.771  11.065 -0.2449 -0.3770 -0.8479
 9201SOL    HW239063   0.055   2.859  10.957 -1.5102  1.2991  0.3497
 9202SOL     OW39064   0.970   3.018   1.061 -0.6553 -0.4331 -0.7493
 9202SOL    HW139065   1.064   3.019   1.080 -1.5342 -1.7246  3.8715
 9202SOL    HW239066   0.958   2.926   1.038  0.9247 -1.2156  1.4770
 9203SOL     OW39067   3.102   2.603  14.774  0.4020 -0.3134  0.8091
 9203SOL    HW139068   3.183   2.572  14.735 -0.2127  2.7229 -2.8333
 9203SOL    HW239069   3.113   2.583  14.867  0.9532  2.0146  1.2631
 9204SOL     OW39070   2.523   1.958   6.113 -0.7787  0.7076 -0.5535
 9204SOL    HW139071   2.513   1.996   6.200  0.0122  0.0052 -0.1441
 9204SOL    HW239072   2.453   1.987   6.056 -1.4412  0.1573 -0.0199
 9205SOL     OW39073   1.207   3.981   6.261 -0.3246  0.1904 -0.2957
 9205SOL    HW139074   1.235   3.892   6.241 -0.5830 -0.0924  0.6158
 9205SOL    HW239075   1.284   4.016   6.307 -0.7002 -0.4538  0.8064
 9206SOL     OW39076   1.039   0.947   8.842  0.0446  0.1140 -0.2371
 9206SOL    HW139077   0.994   0.925   8.923  1.9283 -1.3639  0.4089
 9206SOL    HW239078   1.119   0.986   8.877  0.0907  1.2219 -1.5542
 9207SOL     OW39079   3.915   4.247   2.451 -0.0849  0.0514  0.3719
 9207SOL    HW139080   3.989   4.211   2.403 -0.6291 -1.2128  0.4879
 9207SOL    HW239081   3.891   4.174   2.507 -1.0793 -0.5185 -0.7899
 9208SOL     OW39082   0.691   0.146   0.551  0.2238 -0.0678  0.0062
 9208SOL    HW139083   0.759   0.155   0.618  2.4904  1.5242 -2.4744
 9208SOL    HW239084   0.740   0.092   0.489 -0.0780 -0.3100 -0.0214
 9209SOL     OW39085   2.572   4.293   4.693 -0.0792  0.3738 -0.4275
 9209SOL    HW139086   2.546   4.358   4.627  0.6429 -0.8811 -1.9494
 9209SOL    HW239087   2.666   4.314   4.695  0.0830 -0.4946  1.2197
 9210SOL     OW39088   2.864   4.143   8.598  0.1373  0.5252 -0.8169
 9210SOL    HW139089   2.935   4.131   8.535 -0.0444  1.5307 -1.2145
 9210SOL    HW239090   2.890   4.084   8.668  0.7896  2.6387  0.7263
 9211SOL     OW39091   3.021   0.281  11.893 -0.1464 -0.0523 -0.3495
 9211SOL    HW139092   2.938   0.238  11.916 -1.8199  1.7861 -2.9084
 9211SOL    HW239093   2.990   0.372  11.891  0.9334  0.3376  0.8548
 9212SOL     OW39094   3.968   1.415   4.193  0.0566  0.0765  0.3201
 9212SOL    HW139095   3.992   1.501   4.229 -1.2811  0.2336  0.8422
 9212SOL    HW239096   3.989   1.362   4.270  0.6840  1.3748  1.0443
 9213SOL     OW39097   3.576   4.692   4.172  0.2729  0.0680 -0.0967
 9213SOL    HW139098   3.666   0.004   4.176 -0.6246  2.2132  3.0322
 9213SOL    HW239099   3.551   0.006   4.258  2.7566  0.0874  0.6342
 9214SOL     OW39100   4.065   1.803   5.422 -0.3580  0.3915  0.4133
 9214SOL    HW139101   4.070   1.817   5.517  0.8670 -1.1413  0.5638
 9214SOL    HW239102   3.991   1.860   5.400 -0.0431  0.5516 -0.2248
 9215SOL     OW39103   0.543   1.807   7.310 -0.1093 -0.8634 -1.1467
 9215SOL    HW139104   0.474   1.769   7.255 -2.0764 -0.2471  0.8708
 9215SOL    HW239105   0.543   1.741   7.379 -2.2951  0.5228  0.1953
 9216SOL     OW39106   4.501   1.251  15.968 -0.1643 -0.1987  0.3871
 9216SOL    HW139107   4.512   1.315  16.038 -1.3105 -0.1261  0.4986
 9216SOL    HW239108   4.589   1.254  15.931  0.4367  1.0765  1.9234
 9217SOL     OW39109   0.678   2.263   9.464  0.6644 -0.3420  0.0904
 9217SOL    HW139110   0.734   2.340   9.454 -0.6461  0.4616 -0.8837
 9217SOL    HW239111   0.667   2.261   9.559 -0.6617 -1.5676 -0.0959
 9218SOL     OW39112   1.419   4.705   6.256  0.5884  0.2602  0.3513
 9218SOL    HW139113   1.406   4.610   6.257  0.7942  0.2382  0.8483
 9218SOL    HW239114   1.352   4.716   6.324  1.8222  1.5861  1.3310
 9219SOL     OW39115   1.920   1.231  10.608 -0.6511  0.2543 -0.0282
 9219SOL    HW139116   1.895   1.242  10.699 -0.5176 -2.4657  0.3602
 9219SOL    HW239117   1.881   1.308  10.567  1.7376  1.6797  0.3966
 9220SOL     OW39118   2.697   1.029   1.408 -0.0902  0.1168  0.0737
 9220SOL    HW139119   2.643   0.986   1.341 -1.6297 -0.5652  1.7741
 9220SOL    HW239120   2.778   1.049   1.360  0.5644 -1.7750  0.3789
 9221SOL     OW39121   0.300   0.452   0.940 -0.0167  0.0472 -0.1108
 9221SOL    HW139122   0.328   0.541   0.918 -2.7288  0.7357 -0.6975
 9221SOL    HW239123   0.295   0.417   0.851  1.2689  0.2628 -0.2743
 9222SOL     OW39124   0.836   3.847   9.115  0.1258  0.2141 -0.0953
 9222SOL    HW139125   0.866   3.863   9.025  0.1212 -0.3606 -0.2029
 9222SOL    HW239126   0.894   3.908   9.161 -1.4691  0.9468  0.9142
 9223SOL     OW39127   4.357   4.715   3.872 -0.1034  0.6139  0.1448
 9223SOL    HW139128   4.394   4.628   3.888 -1.3607  0.2205  0.9099
 9223SOL    HW239129   4.337   4.703   3.779 -0.1047 -0.6501  0.3079
 9224SOL     OW39130   2.974   2.075   3.052  0.8599  0.1250 -0.3706
 9224SOL    HW139131   2.956   2.164   3.024  0.9597 -0.4390 -2.1972
 9224SOL    HW239132   2.908   2.028   3.001  0.3776  1.0567 -0.6023
 9225SOL     OW39133   3.418   3.844   3.701  0.7617 -0.1195  0.2936
 9225SOL    HW139134   3.347   3.900   3.732 -1.4176 -1.5090 -2.1600
 9225SOL    HW239135   3.376   3.760   3.683  1.4300 -0.0184 -1.7535
 9226SOL     OW39136   3.894   4.552   6.807  0.7118 -0.2875  0.7066
 9226SOL    HW139137   3.881   4.461   6.835 -0.8100 -0.4730 -0.6314
 9226SOL    HW239138   3.948   4.534   6.729  1.1218 -1.7031  1.3163
 9227SOL     OW39139   3.128   0.861   6.520 -0.1748 -0.5337  0.1559
 9227SOL    HW139140   3.135   0.821   6.434  0.9371 -0.9873  0.4517
 9227SOL    HW239141   3.062   0.928   6.500 -0.6850 -0.4931  1.9554
 9228SOL     OW39142   0.186   0.075   5.440 -0.3354 -0.0530 -0.3352
 9228SOL    HW139143   0.150   4.718   5.484 -0.2555 -0.1118 -0.3730
 9228SOL    HW239144   0.169   0.150   5.497  1.8440  1.0097 -1.1107
 9229SOL     OW39145   2.544   1.977   1.737  0.0283  0.0678 -0.0329
 9229SOL    HW139146   2.548   1.922   1.815  3.7402  1.7910  1.0091
 9229SOL    HW239147   2.509   1.922   1.667 -1.7639  2.1728 -0.7744
 9230SOL     OW39148   0.278   1.507   7.247 -0.2906  0.0997  0.5993
 9230SOL    HW139149   0.195   1.464   7.269 -0.2094 -1.1177 -1.5531
 9230SOL    HW239150   0.287   1.472   7.159 -0.4468  1.3387  0.0885
 9231SOL     OW39151   1.958   2.803   7.354  0.0075  0.4425  0.1208
 9231SOL    HW139152   1.894   2.840   7.294  0.1993 -0.7843 -0.8525
 9231SOL    HW239153   2.018   2.867   7.392  1.1934 -1.3489  1.3310
 9232SOL     OW39154   3.074   2.994   6.516  0.4093  0.2817  0.3731
 9232SOL    HW139155   3.121   2.952   6.589  0.7499 -0.7866 -0.4608
 9232SOL    HW239156   3.117   2.958   6.438  0.8122  0.8890  0.3141
 9233SOL     OW39157   3.049   1.470   8.614  0.1134 -0.0875 -0.3627
 9233SOL    HW139158   3.118   1.410   8.586 -0.9457 -0.8012 -1.4500
 9233SOL    HW239159   3.096   1.549   8.639  0.5323 -1.0096  1.7819
 9234SOL     OW39160   2.293   4.370   3.264  0.0960  0.0151 -0.3884
 9234SOL    HW139161   2.258   4.382   3.352  0.0025  0.8164 -0.5331
 9234SOL    HW239162   2.226   4.406   3.206  1.0101  1.5164 -0.5306
 9235SOL     OW39163   2.286   1.538   7.782  0.1680 -0.7110 -0.3937
 9235SOL    HW139164   2.213   1.574   7.732 -0.1992 -1.7663 -0.6304
 9235SOL    HW239165   2.296   1.602   7.852  0.2648 -1.3669  0.1988
 9236SOL     OW39166   4.336   1.825   5.051  0.3925 -0.3538  0.0518
 9236SOL    HW139167   4.343   1.817   5.146  0.8953  1.7806  0.1851
 9236SOL    HW239168   4.420   1.867   5.035  0.8050 -1.2414 -0.1308
 9237SOL     OW39169   3.357   3.895   8.994 -0.0729  0.1455 -0.3684
 9237SOL    HW139170   3.388   3.972   9.043  1.4206  0.0526 -1.1658
 9237SOL    HW239171   3.429   3.879   8.933  0.3543 -1.6357  0.6008
 9238SOL     OW39172   0.664   4.049  16.611 -0.2962  0.1085 -0.2565
 9238SOL    HW139173   0.709   4.060  16.528 -2.8892 -0.5895 -1.7432
 9238SOL    HW239174   0.690   4.127  16.660 -1.4516 -0.0857  0.6937
 9239SOL     OW39175   3.718   4.189   4.219  0.3055 -0.2371 -0.0827
 9239SOL    HW139176   3.645   4.152   4.170  1.1962 -0.6018 -1.1261
 9239SOL    HW239177   3.672   4.265   4.254 -1.2370 -2.3703  2.5885
 9240SOL     OW39178   3.086   1.533   2.195 -0.3274  0.2961  0.4921
 9240SOL    HW139179   3.019   1.507   2.258 -0.5966 -0.2368 -0.0185
 9240SOL    HW239180   3.152   1.568   2.256  1.5630 -1.4898 -0.5329
 9241SOL     OW39181   2.961   1.183  11.888  0.2572  0.2681 -0.2985
 9241SOL    HW139182   2.949   1.232  11.806  0.9251 -0.1382 -0.6387
 9241SOL    HW239183   2.946   1.251  11.954  3.2115  0.9198 -0.2894
 9242SOL     OW39184   3.050   3.073   4.269  0.0315  0.2533 -0.2083
 9242SOL    HW139185   3.019   3.140   4.208  0.9711 -0.2628 -1.2718
 9242SOL    HW239186   2.965   3.042   4.301  0.8764 -0.5195  1.2853
 9243SOL     OW39187   4.560   3.200  15.013  0.6420 -0.0036 -0.3921
 9243SOL    HW139188   4.599   3.114  14.995  1.5782  0.1228  1.0729
 9243SOL    HW239189   4.600   3.246  14.939  2.2088 -0.1408  0.3915
 9244SOL     OW39190   2.944   0.515   6.234  0.6145 -0.1565 -0.1794
 9244SOL    HW139191   2.951   0.605   6.203 -1.8885  0.3985  0.9633
 9244SOL    HW239192   2.983   0.459   6.166 -1.0714 -0.6120 -0.7615
 9245SOL     OW39193   4.039   0.513   9.362  0.1575  0.1134 -0.1520
 9245SOL    HW139194   4.009   0.522   9.272  0.8745  0.1804 -0.3888
 9245SOL    HW239195   4.093   0.433   9.361  2.5233  1.7505 -2.0030
 9246SOL     OW39196   1.251   4.599  14.947 -0.4205  0.0628  0.9291
 9246SOL    HW139197   1.283   4.679  14.906  0.3747 -1.0317 -0.6331
 9246SOL    HW239198   1.168   4.576  14.904 -0.1451 -0.0143  0.4398
 9247SOL     OW39199   1.103   2.601   2.703  0.5490 -0.1352 -0.2777
 9247SOL    HW139200   1.055   2.682   2.684 -1.8410 -1.4604  0.1043
 9247SOL    HW239201   1.195   2.627   2.702  0.5111  0.0178  1.1676
 9248SOL     OW39202   0.057   3.257   8.718 -0.7280  0.6661  0.3856
 9248SOL    HW139203   0.123   3.325   8.728 -0.3146  0.1696  1.0020
 9248SOL    HW239204   0.055   3.213   8.803  0.8839 -0.5274 -0.1821
 9249SOL     OW39205   3.221   2.751  11.393  0.4121 -0.1209  0.1707
 9249SOL    HW139206   3.167   2.804  11.335  0.2975 -0.5483 -0.1173
 9249SOL    HW239207   3.156   2.703  11.445 -0.1871  0.3087 -0.1844
 9250SOL     OW39208   1.558   0.870   1.626 -0.3095  0.3508  0.2711
 9250SOL    HW139209   1.561   0.867   1.721 -2.6203 -0.6424  0.3114
 9250SOL    HW239210   1.644   0.835   1.605 -0.2311  0.6745  0.0448
 9251SOL     OW39211   3.197   2.557   0.635  0.1714 -0.0442  0.2301
 9251SOL    HW139212   3.236   2.580   0.719 -0.6414 -0.7938  0.8161
 9251SOL    HW239213   3.217   2.638   0.588 -0.8525  1.1780  1.9272
 9252SOL     OW39214   3.829   1.487   7.920  0.0724 -0.5758 -0.1735
 9252SOL    HW139215   3.901   1.427   7.938 -0.3629 -0.0768  3.2722
 9252SOL    HW239216   3.870   1.534   7.847  2.0147 -1.5762  0.2718
 9253SOL     OW39217   2.416   0.827  15.631 -0.2854  0.0783  0.0375
 9253SOL    HW139218   2.342   0.853  15.687  0.0106  0.3873  0.2851
 9253SOL    HW239219   2.459   0.913  15.632  2.4995 -1.3500  0.9662
 9254SOL     OW39220   3.766   2.085   5.164 -0.0883  0.6422 -0.4323
 9254SOL    HW139221   3.760   2.136   5.245 -1.2615  2.4759 -1.6591
 9254SOL    HW239222   3.715   2.139   5.103 -0.9714 -0.2631 -0.5000
 9255SOL     OW39223   4.565   0.532   3.242 -0.1857 -0.2437  0.0232
 9255SOL    HW139224   4.501   0.588   3.197 -2.2334 -0.8249  2.2548
 9255SOL    HW239225   4.636   0.525   3.178  1.4032  0.6131  1.6915
 9256SOL     OW39226   0.006   0.423   1.040 -0.1915 -0.3967 -0.2326
 9256SOL    HW139227   4.671   0.450   1.114  1.1938  0.8846  0.3461
 9256SOL    HW239228   0.063   0.499   1.025  1.8872 -1.9249 -0.0159
 9257SOL     OW39229   4.522   2.952  10.151  0.3058  0.3266  0.0653
 9257SOL    HW139230   4.583   2.891  10.193  1.7404  0.3815 -1.9272
 9257SOL    HW239231   4.590   3.017  10.133  0.8102  0.0712  1.0314
 9258SOL     OW39232   4.714   3.819   6.433 -0.5686  0.4194 -0.0637
 9258SOL    HW139233   4.651   3.870   6.482  0.6846  2.9841 -1.1441
 9258SOL    HW239234   0.021   3.877   6.362 -1.6259  0.6137 -0.3067
 9259SOL     OW39235   4.411   0.820   9.578  0.0779 -0.1237  0.9141
 9259SOL    HW139236   4.383   0.729   9.590  0.0327 -0.0316  1.5281
 9259SOL    HW239237   4.350   0.865   9.636 -2.4488  0.5460 -2.2686
 9260SOL     OW39238   3.372   0.590   6.102  0.2064  0.1541  0.8856
 9260SOL    HW139239   3.366   0.494   6.096 -3.3160  0.3968  0.2778
 9260SOL    HW239240   3.345   0.622   6.016  2.6272 -0.3547 -0.0576
 9261SOL     OW39241   0.891   4.157  16.786 -0.4120 -0.2228 -0.3293
 9261SOL    HW139242   0.983   4.171  16.807 -0.6744  1.7760 -0.4858
 9261SOL    HW239243   0.857   4.244  16.766  1.0859  0.9992  2.4204
 9262SOL     OW39244   0.685   3.003   2.141  0.0203  0.4761 -0.2988
 9262SOL    HW139245   0.734   2.941   2.194 -2.7023  2.0529  4.1257
 9262SOL    HW239246   0.599   2.961   2.132  1.0871 -1.8536  0.5484
 9263SOL     OW39247   3.003   0.231   3.925 -0.1741 -0.0528  0.0368
 9263SOL    HW139248   2.979   0.318   3.894 -1.0610  0.2714  1.6892
 9263SOL    HW239249   3.096   0.231   3.902  0.7582 -0.3732  3.8233
 9264SOL     OW39250   2.824   3.214   5.561  0.1125 -0.0576  0.3733
 9264SOL    HW139251   2.788   3.228   5.649  2.9280 -0.9318  1.6525
 9264SOL    HW239252   2.845   3.121   5.564 -1.9057 -0.5344  0.1619
 9265SOL     OW39253   1.888   2.397   2.369  0.1037 -0.1059 -0.4684
 9265SOL    HW139254   1.865   2.410   2.277  3.2917 -0.9837 -1.3913
 9265SOL    HW239255   1.926   2.310   2.359  1.3548  0.5802 -1.6675
 9266SOL     OW39256   4.605   1.991   5.946 -0.2124  0.3865 -0.1974
 9266SOL    HW139257   4.570   1.902   5.947  0.2658  0.2059  0.5058
 9266SOL    HW239258   4.625   2.006   6.038  0.7110  3.1206 -0.8595
 9267SOL     OW39259   3.741   0.847  13.518 -0.0718 -0.3782  0.2028
 9267SOL    HW139260   3.761   0.935  13.485 -0.4198 -0.0035  0.9886
 9267SOL    HW239261   3.708   0.862  13.607  2.5900 -1.6986  1.4022
 9268SOL     OW39262   3.661   2.561  17.515 -0.1263 -0.3997  0.3914
 9268SOL    HW139263   3.678   2.467  17.517  1.6308 -0.0537  1.8339
 9268SOL    HW239264   3.751   2.588  17.533 -0.4318  2.0350 -1.6275
 9269SOL     OW39265   4.709   3.137   8.418 -0.2401 -0.2934  0.5575
 9269SOL    HW139266   4.677   3.129   8.508 -0.9466  0.4540  0.3711
 9269SOL    HW239267   0.071   3.092   8.436 -0.7259 -1.1004  0.7716
 9270SOL     OW39268   3.662   0.585   3.766 -0.4565 -0.7450  0.1312
 9270SOL    HW139269   3.734   0.575   3.705 -1.7319 -3.3106 -0.9597
 9270SOL    HW239270   3.684   0.544   3.850 -0.9711  1.1659  1.2086
 9271SOL     OW39271   4.223   0.940   0.252  0.1772 -0.5960  0.0737
 9271SOL    HW139272   4.167   1.013   0.226  0.1580 -0.3165  0.8943
 9271SOL    HW239273   4.196   0.925   0.343 -1.1178  0.0473 -0.2157
 9272SOL     OW39274   4.685   3.922   0.871 -0.2678  0.0176  0.5460
 9272SOL    HW139275   4.669   3.999   0.815 -1.0407 -0.0779  0.6302
 9272SOL    HW239276   4.704   3.973   0.950 -1.6662  0.7536  0.4151
 9273SOL     OW39277   1.882   4.081   2.126  0.1597 -0.3384 -0.8775
 9273SOL    HW139278   1.861   3.988   2.125 -2.3815  0.2310 -0.1731
 9273SOL    HW239279   1.957   4.091   2.185  1.3233 -0.0372 -2.3928
 9274SOL     OW39280   3.881   1.113   2.270  0.2742  0.2026  0.3698
 9274SOL    HW139281   3.936   1.051   2.223  0.0399  1.7828 -1.9670
 9274SOL    HW239282   3.842   1.160   2.197  0.9960  1.1729  0.6099
 9275SOL     OW39283   4.634   1.468   8.645 -0.2919 -0.1138  0.2403
 9275SOL    HW139284   4.544   1.495   8.626  0.6834  3.2319  0.2757
 9275SOL    HW239285   4.672   1.555   8.656 -0.0337 -0.3179  0.9378
 9276SOL     OW39286   2.133   3.759   0.416 -0.8170 -0.6714 -0.1329
 9276SOL    HW139287   2.120   3.669   0.445 -0.1095 -0.0075  2.2099
 9276SOL    HW239288   2.134   3.746   0.321  2.4514 -4.5661  0.4057
 9277SOL     OW39289   3.880   0.311  16.132  0.1860  0.2863  0.6173
 9277SOL    HW139290   3.857   0.384  16.191 -1.5245  1.4196 -1.4302
 9277SOL    HW239291   3.900   0.252  16.204  0.7814  0.6987  0.7883
 9278SOL     OW39292   3.955   0.242  12.635  0.0291  0.2555 -0.5741
 9278SOL    HW139293   3.997   0.328  12.635  0.1352  0.2027 -0.4204
 9278SOL    HW239294   3.905   0.253  12.716  1.4012  1.9564  0.0455
 9279SOL     OW39295   3.789   1.751   8.973 -0.3334  0.4134 -0.1344
 9279SOL    HW139296   3.832   1.666   8.960 -2.0975 -0.5906  0.5822
 9279SOL    HW239297   3.862   1.809   8.992 -1.0428  1.6391 -1.1837
 9280SOL     OW39298   3.305   3.612   3.656 -0.4426 -0.1050  0.0179
 9280SOL    HW139299   3.238   3.594   3.591  2.0628 -1.1272 -2.3009
 9280SOL    HW239300   3.253   3.586   3.732 -0.9309 -1.3161 -0.7354
 9281SOL     OW39301   2.849   3.084   3.565  0.3880 -0.0534  0.2284
 9281SOL    HW139302   2.757   3.074   3.589  0.3547  2.9218  1.3594
 9281SOL    HW239303   2.833   3.160   3.509  2.6583 -0.1523 -0.5676
 9282SOL     OW39304   4.416   1.342   5.052 -0.0346 -0.2361 -0.3842
 9282SOL    HW139305   4.353   1.275   5.075  0.4325 -0.8495 -0.8962
 9282SOL    HW239306   4.469   1.298   4.986  1.5559  1.3022 -0.1333
 9283SOL     OW39307   4.508   4.195   6.197  0.5309 -0.6524 -0.0876
 9283SOL    HW139308   4.416   4.185   6.220 -0.6119  4.2767 -2.4683
 9283SOL    HW239309   4.526   4.129   6.129  0.9933 -0.9746  0.3528
 9284SOL     OW39310   4.541   3.865  11.186 -0.5747  0.4007  0.1389
 9284SOL    HW139311   4.545   3.887  11.092  0.0751  3.2261  0.8108
 9284SOL    HW239312   4.505   3.777  11.190  0.4392 -0.1344 -2.6123
 9285SOL     OW39313   2.689   2.335   1.347  0.0715 -0.2016  0.3288
 9285SOL    HW139314   2.630   2.301   1.414  0.7617 -3.4654 -0.7293
 9285SOL    HW239315   2.694   2.261   1.286 -0.8294  0.0700 -0.0712
 9286SOL     OW39316   3.555   3.721   0.410 -0.0249  0.0407 -0.2951
 9286SOL    HW139317   3.584   3.633   0.436 -0.7600 -0.1348 -0.0512
 9286SOL    HW239318   3.478   3.697   0.358  0.3718  0.2271 -0.9608
 9287SOL     OW39319   0.525   3.707  13.979  0.1263 -0.6504  0.0693
 9287SOL    HW139320   0.457   3.722  14.045 -0.1433 -2.3416  0.1766
 9287SOL    HW239321   0.566   3.794  13.979 -1.2062 -0.0238 -0.5177
 9288SOL     OW39322   3.019   1.073   1.551 -0.0531  0.1283 -0.0134
 9288SOL    HW139323   2.938   1.120   1.571  1.1560  2.1088  0.2069
 9288SOL    HW239324   3.070   1.139   1.506  0.8723 -0.5527  0.0405
 9289SOL     OW39325   1.365   3.400   3.183 -0.3033  0.2190 -0.1546
 9289SOL    HW139326   1.365   3.478   3.238  1.3408 -0.8713  1.3845
 9289SOL    HW239327   1.365   3.336   3.254  1.1617  0.3690 -0.0172
 9290SOL     OW39328   0.797   2.513   3.984  0.0307 -0.3229 -0.1074
 9290SOL    HW139329   0.725   2.478   3.932  0.8863 -0.0186 -1.5081
 9290SOL    HW239330   0.813   2.448   4.052 -0.0114  0.3056  0.5066
 9291SOL     OW39331   4.542   2.136   8.234  0.0953 -0.4045 -0.5021
 9291SOL    HW139332   4.480   2.080   8.281  1.2237 -0.1810  1.2233
 9291SOL    HW239333   4.622   2.122   8.284 -0.1518  2.6362  0.7590
 9292SOL     OW39334   3.224   1.348   5.798  0.0946 -0.2590 -0.5534
 9292SOL    HW139335   3.315   1.377   5.806 -0.4919  0.5588  3.1384
 9292SOL    HW239336   3.206   1.375   5.708 -1.1248  2.3839  0.4550
 9293SOL     OW39337   4.372   4.399   4.598  0.7548 -0.2480  0.1374
 9293SOL    HW139338   4.293   4.392   4.652  1.3241  1.3669  1.1922
 9293SOL    HW239339   4.403   4.490   4.608 -0.8988  0.6709 -3.0873
 9294SOL     OW39340   3.323   0.813   6.962 -0.4909  0.9087 -0.3813
 9294SOL    HW139341   3.291   0.783   6.877 -1.2525  1.3553 -0.2495
 9294SOL    HW239342   3.267   0.756   7.014  0.8523 -0.2820 -0.2285
 9295SOL     OW39343   1.903   0.312   2.155  0.7979 -0.0852  0.4806
 9295SOL    HW139344   1.881   0.221   2.134  0.3351 -0.7634  3.9190
 9295SOL    HW239345   1.987   0.314   2.110  0.2361  1.1122 -0.5322
 9296SOL     OW39346   2.208   2.085   8.707  0.5756 -0.8361  0.2567
 9296SOL    HW139347   2.139   2.113   8.767  1.0550  4.4548 -1.6451
 9296SOL    HW239348   2.275   2.151   8.723 -0.1272  0.5812 -2.5030
 9297SOL     OW39349   2.178   2.957   2.850  0.4134  0.2562  0.3465
 9297SOL    HW139350   2.102   2.911   2.884  0.8629  0.0582  1.0981
 9297SOL    HW239351   2.172   2.933   2.758  0.9361 -3.0869  1.1897
 9298SOL     OW39352   0.637   1.530   8.675 -0.1498 -0.2102 -0.2535
 9298SOL    HW139353   0.719   1.570   8.704 -0.9013 -0.9765  2.8993
 9298SOL    HW239354   0.576   1.574   8.734 -0.4874 -2.0741  0.8230
 9299SOL     OW39355   1.544   3.768   4.836  0.5955  0.0140 -0.0909
 9299SOL    HW139356   1.449   3.772   4.846  0.6891  1.5763  0.2465
 9299SOL    HW239357   1.572   3.848   4.881 -1.0157  0.2077  0.5561
 9300SOL     OW39358   0.649   3.808  16.747 -0.3533  0.2186 -0.5287
 9300SOL    HW139359   0.716   3.813  16.816  0.4780  0.5962 -1.3607
 9300SOL    HW239360   0.662   3.895  16.709 -0.3287 -0.6043 -2.3610
 9301SOL     OW39361   4.368   2.808   9.716 -0.0960  0.3859 -0.0691
 9301SOL    HW139362   4.421   2.876   9.757 -2.4615  2.6754 -0.8423
 9301SOL    HW239363   4.309   2.863   9.666  0.6237  0.0522 -1.2767
 9302SOL     OW39364   1.445   0.491  10.340  0.0711 -0.3547 -0.1582
 9302SOL    HW139365   1.437   0.458  10.250 -2.1018 -0.9043  0.2385
 9302SOL    HW239366   1.352   0.495  10.362  0.0720  0.8626 -0.3265
 9303SOL     OW39367   0.134   2.545   5.728 -0.0453  0.0672 -0.0384
 9303SOL    HW139368   0.183   2.626   5.744 -1.1947  0.5752  0.8571
 9303SOL    HW239369   0.052   2.581   5.762 -0.9460 -1.1580 -0.9310
 9304SOL     OW39370   1.850   1.595   1.343  0.2601 -0.5422  0.4247
 9304SOL    HW139371   1.884   1.563   1.426 -1.7643  0.1427  1.5026
 9304SOL    HW239372   1.926   1.583   1.285 -0.3340 -2.2633 -0.0015
 9305SOL     OW39373   1.405   3.019  10.339 -0.1490 -0.4263  0.2142
 9305SOL    HW139374   1.388   3.113  10.348  0.1945 -0.1467 -2.2102
 9305SOL    HW239375   1.481   3.013  10.397 -0.8086 -0.8553  1.0386
 9306SOL     OW39376   3.367   2.843  17.482 -0.3755 -0.3060  0.1122
 9306SOL    HW139377   3.434   2.826  17.548 -0.0993  0.8048  0.1279
 9306SOL    HW239378   3.311   2.770  17.506 -1.7925  1.3787  1.9879
 9307SOL     OW39379   1.824   0.725  15.074 -0.6019  0.1080  0.1110
 9307SOL    HW139380   1.756   0.684  15.020 -1.8866  2.5404 -0.1433
 9307SOL    HW239381   1.882   0.650  15.088 -1.7822 -0.7791  0.1868
 9308SOL     OW39382   3.996   3.025  15.913  0.3601 -0.4462  0.0621
 9308SOL    HW139383   4.003   2.943  15.961 -3.7589 -1.7288 -1.4993
 9308SOL    HW239384   4.087   3.046  15.893  0.8460  0.1227  2.8936
 9309SOL     OW39385   3.758   0.425  17.172 -0.3739 -0.2415 -1.0474
 9309SOL    HW139386   3.727   0.514  17.188 -0.2994 -0.2267 -0.9876
 9309SOL    HW239387   3.812   0.414  17.250 -0.9535 -0.0745 -0.6229
 9310SOL     OW39388   2.718   2.390   1.807  0.3674 -0.7793 -0.0394
 9310SOL    HW139389   2.723   2.434   1.722  0.8042  1.1812  1.0110
 9310SOL    HW239390   2.738   2.467   1.860  1.1141  0.3889 -2.0293
 9311SOL     OW39391   2.529   4.425   9.329 -0.2112  0.3545 -0.0903
 9311SOL    HW139392   2.542   4.382   9.414 -2.7854 -0.4833 -0.0969
 9311SOL    HW239393   2.506   4.515   9.353 -0.0711  0.3738 -0.0307
 9312SOL     OW39394   0.151   1.156  15.600  0.8989  0.1218 -0.2891
 9312SOL    HW139395   0.139   1.062  15.616 -0.8918  0.3847 -0.0774
 9312SOL    HW239396   0.245   1.156  15.583  1.0990 -1.0322  0.8489
 9313SOL     OW39397   0.070   1.064   6.083  0.0762  0.0721 -0.1409
 9313SOL    HW139398   0.105   1.068   6.172  1.1744  1.1244 -0.6157
 9313SOL    HW239399   0.082   1.149   6.040 -0.6657 -0.6876 -1.8170
 9314SOL     OW39400   2.378   4.320   7.412  0.2303 -0.2953  0.8666
 9314SOL    HW139401   2.344   4.262   7.480 -2.0310 -0.1492 -0.1379
 9314SOL    HW239402   2.330   4.283   7.339 -0.5052  0.7414  0.8224
 9315SOL     OW39403   4.206   3.280   9.006  0.7877 -0.2301 -0.1657
 9315SOL    HW139404   4.199   3.339   8.931 -1.9538 -0.9070 -0.4456
 9315SOL    HW239405   4.298   3.279   9.032 -0.4774  1.1767  4.2657
 9316SOL     OW39406   1.090   0.364   5.576  0.1696  0.0691 -0.2252
 9316SOL    HW139407   1.006   0.325   5.551 -0.1614 -0.3039  1.4531
 9316SOL    HW239408   1.133   0.366   5.491 -0.4523 -2.4885 -0.5997
 9317SOL     OW39409   3.363   1.927   5.342  0.0774  0.0492 -0.1986
 9317SOL    HW139410   3.350   1.954   5.433 -0.2102  2.6638 -1.0075
 9317SOL    HW239411   3.277   1.923   5.302 -0.4465  0.8309  0.8492
 9318SOL     OW39412   2.160   1.169   8.123 -0.1928 -0.3654 -0.2909
 9318SOL    HW139413   2.173   1.218   8.042  1.5012  0.3116  0.3915
 9318SOL    HW239414   2.098   1.098   8.106 -0.1216 -0.6235  0.4981
 9319SOL     OW39415   0.250   2.833   3.042 -0.7526  0.5402 -0.1024
 9319SOL    HW139416   0.323   2.844   3.103  1.4833  0.9427 -2.8051
 9319SOL    HW239417   0.296   2.825   2.958 -2.4879 -3.0070 -0.7221
 9320SOL     OW39418   3.420   3.200   4.131 -0.5866  0.1492  0.3344
 9320SOL    HW139419   3.413   3.173   4.223  0.4179  1.2480  0.7323
 9320SOL    HW239420   3.424   3.113   4.091 -1.0539  0.2707  0.0291
 9321SOL     OW39421   3.106   2.599   3.508  0.0970  0.1625 -0.0698
 9321SOL    HW139422   3.045   2.670   3.490  0.1278  0.7033  1.9487
 9321SOL    HW239423   3.133   2.589   3.417 -0.0072  2.1261 -0.3251
 9322SOL     OW39424   2.452   0.265  15.635  0.2154 -0.5721  0.1001
 9322SOL    HW139425   2.522   0.312  15.591  0.7407  0.0376  1.5841
 9322SOL    HW239426   2.401   0.224  15.565 -0.1953 -2.3502  1.4144
 9323SOL     OW39427   0.370   0.276   9.932  0.5136 -0.3038 -0.2808
 9323SOL    HW139428   0.373   0.348   9.869  2.6420  0.4198  0.6437
 9323SOL    HW239429   0.401   0.318  10.012  1.0278  0.6918 -1.0017
 9324SOL     OW39430   3.792   4.064  11.534 -0.3622  0.1112  0.1207
 9324SOL    HW139431   3.728   4.089  11.601  0.6837 -0.5097  1.3652
 9324SOL    HW239432   3.775   4.135  11.472 -0.8494 -0.8523 -0.8406
 9325SOL     OW39433   2.344   2.408   2.908 -0.6047 -0.2829  0.5097
 9325SOL    HW139434   2.362   2.389   3.000  0.3051  0.6730  0.5314
 9325SOL    HW239435   2.402   2.484   2.896 -1.2346  0.1950  0.4555
 9326SOL     OW39436   1.078   2.071   5.237 -0.0569  0.5302 -0.1636
 9326SOL    HW139437   1.088   2.023   5.154 -0.3009 -0.2035  0.2270
 9326SOL    HW239438   1.029   2.009   5.292  1.5184 -1.9256 -1.5344
 9327SOL     OW39439   0.029   3.271   3.024 -0.2467  0.5383 -0.0193
 9327SOL    HW139440   4.706   3.229   3.098  0.2141 -0.2602 -0.1939
 9327SOL    HW239441   0.015   3.359   3.057 -1.2653  0.5339 -0.4632
 9328SOL     OW39442   2.614   2.883   3.843 -0.4451 -0.0382 -0.3110
 9328SOL    HW139443   2.653   2.941   3.909  0.4518  0.0426 -0.9138
 9328SOL    HW239444   2.658   2.801   3.867 -0.9091  0.3490  1.8875
 9329SOL     OW39445   1.442   4.156  10.317 -0.1659  0.8010  0.4636
 9329SOL    HW139446   1.418   4.174  10.226  0.0330 -3.5245 -0.4710
 9329SOL    HW239447   1.412   4.243  10.344  1.6304  2.1841 -1.9949
 9330SOL     OW39448   2.001   0.938   8.068  0.3527  0.2230 -0.6194
 9330SOL    HW139449   1.962   0.963   7.984 -0.3088  1.0513 -0.0723
 9330SOL    HW239450   1.918   0.935   8.115 -0.2561 -0.1793 -1.7208
 9331SOL     OW39451   3.377   3.385  14.900  0.0494  0.1882 -0.5881
 9331SOL    HW139452   3.424   3.373  14.983 -1.0295 -2.4545 -0.3652
 9331SOL    HW239453   3.450   3.414  14.846  0.8648 -2.0285 -0.6764
 9332SOL     OW39454   4.298   4.558   7.915  0.0337  0.3904 -0.3366
 9332SOL    HW139455   4.244   4.592   7.987  0.2486  0.9972 -0.4677
 9332SOL    HW239456   4.364   4.504   7.958  0.8964  1.0540 -0.8429
 9333SOL     OW39457   2.748   0.508  15.106 -0.2517  0.2614  0.3967
 9333SOL    HW139458   2.781   0.419  15.096  0.7701  0.6435  0.2795
 9333SOL    HW239459   2.831   0.555  15.114  0.9201 -2.1483  2.3245
 9334SOL     OW39460   0.521   3.313   6.185  0.2584 -0.4600 -0.1285
 9334SOL    HW139461   0.559   3.337   6.100 -0.9024 -1.1803 -0.8435
 9334SOL    HW239462   0.490   3.395   6.223  0.5457 -1.0217  1.3272
 9335SOL     OW39463   0.767   2.615  11.432 -0.1693  0.6696  0.0937
 9335SOL    HW139464   0.843   2.671  11.417 -0.0731  0.4299 -0.2930
 9335SOL    HW239465   0.781   2.576  11.519 -0.8935 -1.0257 -0.5485
 9336SOL     OW39466   1.162   1.611  12.445 -0.0147 -0.2518  0.4906
 9336SOL    HW139467   1.234   1.565  12.488  2.4248  2.4398 -0.7027
 9336SOL    HW239468   1.207   1.694  12.430  2.0363 -1.0587  2.1290
 9337SOL     OW39469   3.931   0.706   2.055 -0.2109  0.4097 -0.1490
 9337SOL    HW139470   3.928   0.656   2.138 -0.8221  1.6071  0.5456
 9337SOL    HW239471   3.962   0.642   1.991  0.1609  1.5414 -1.1009
 9338SOL     OW39472   3.596   0.406   4.084 -0.3893 -0.3613 -0.1398
 9338SOL    HW139473   3.680   0.378   4.049  0.1629  0.2116  0.7129
 9338SOL    HW239474   3.610   0.395   4.178  2.1074 -2.2723 -0.7686
 9339SOL     OW39475   1.719   2.628   2.217  0.3179 -0.2155  0.3303
 9339SOL    HW139476   1.714   2.724   2.223 -1.9284 -0.2500 -0.9444
 9339SOL    HW239477   1.629   2.598   2.231  1.4019 -3.5864  0.0387
 9340SOL     OW39478   0.110   4.249  10.642  0.4658  0.2442  0.4622
 9340SOL    HW139479   0.022   4.273  10.670 -0.1719 -1.9645  0.3007
 9340SOL    HW239480   0.139   4.230  10.731 -1.9167  0.8503  1.3619
 9341SOL     OW39481   1.582   3.388   3.886  0.1566  0.2551 -0.4009
 9341SOL    HW139482   1.521   3.322   3.920  0.8042  0.7396  1.7540
 9341SOL    HW239483   1.557   3.466   3.936  1.9016 -1.2433  2.8514
 9342SOL     OW39484   3.686   1.405  13.902  0.2480  0.2303  0.4179
 9342SOL    HW139485   3.637   1.323  13.895  0.5618  0.0891 -0.2000
 9342SOL    HW239486   3.740   1.394  13.823 -0.0796 -0.1279  0.2449
 9343SOL     OW39487   4.677   3.178   5.224 -0.2503  0.0712 -0.2063
 9343SOL    HW139488   4.653   3.110   5.161  4.2000 -1.1240 -0.6010
 9343SOL    HW239489   4.634   3.248   5.176 -0.8362 -0.8893 -1.0916
 9344SOL     OW39490   2.533   1.375  15.022 -0.1420  0.1576  0.2279
 9344SOL    HW139491   2.614   1.334  15.051  0.1330  0.2530 -0.3835
 9344SOL    HW239492   2.571   1.419  14.945 -0.7951 -1.6470 -1.1367
 9345SOL     OW39493   4.236   4.526   2.340  0.2220  0.5163  0.3650
 9345SOL    HW139494   4.261   4.610   2.302 -0.5840 -0.2400 -1.8064
 9345SOL    HW239495   4.310   4.471   2.317 -1.2588 -1.2649 -0.0978
 9346SOL     OW39496   1.153   4.089   5.526  0.6118  0.0592 -0.0192
 9346SOL    HW139497   1.108   4.005   5.518 -1.3823  1.3008 -1.8739
 9346SOL    HW239498   1.241   4.061   5.505  0.0040 -0.7698 -1.4454
 9347SOL     OW39499   4.530   4.282  10.734 -0.4010 -0.4178 -0.0473
 9347SOL    HW139500   4.560   4.360  10.780 -1.2064 -0.1549  0.0310
 9347SOL    HW239501   4.466   4.327  10.678 -1.5991 -1.7605  0.2167
 9348SOL     OW39502   0.135   3.496   5.890 -0.3201  0.1619  0.8690
 9348SOL    HW139503   0.068   3.555   5.927 -2.0020 -1.8739  1.0685
 9348SOL    HW239504   0.156   3.445   5.968 -0.6031 -1.0271  0.1597
 9349SOL     OW39505   3.484   0.137  12.008 -0.2052  0.6462  0.0428
 9349SOL    HW139506   3.406   0.181  11.974 -2.0611 -3.9323 -1.6322
 9349SOL    HW239507   3.494   0.170  12.097 -1.2716  2.3729 -0.4835
 9350SOL     OW39508   0.269   1.008   6.930 -0.1071  0.6311 -0.1636
 9350SOL    HW139509   0.315   0.942   6.879  0.6816  1.4947 -0.5690
 9350SOL    HW239510   0.337   1.029   6.994 -0.0964 -1.5821  0.5690
 9351SOL     OW39511   1.226   4.103   7.819  0.0647  0.4515  0.1033
 9351SOL    HW139512   1.248   4.050   7.742  0.7356  0.3465  0.3707
 9351SOL    HW239513   1.135   4.131   7.809  0.5094  1.2425 -1.7515
 9352SOL     OW39514   2.808   4.408   4.052  0.5208  0.0778 -0.3224
 9352SOL    HW139515   2.747   4.370   4.115  2.6086 -2.8584 -0.0967
 9352SOL    HW239516   2.881   4.442   4.105  1.5788 -0.9724 -1.0920
 9353SOL     OW39517   4.220   4.414   1.491 -0.5742  0.0075 -0.0823
 9353SOL    HW139518   4.168   4.472   1.435 -1.2455 -1.1885 -0.7037
 9353SOL    HW239519   4.183   4.435   1.577 -0.7147  1.0807 -0.4031
 9354SOL     OW39520   3.584   2.741  14.886  0.4884  0.0405  0.1919
 9354SOL    HW139521   3.557   2.812  14.944  0.4638  0.8984 -0.8908
 9354SOL    HW239522   3.578   2.795  14.808  0.4934  0.1402  0.2600
 9355SOL     OW39523   0.022   0.683   4.846 -0.2613 -0.6593  0.0270
 9355SOL    HW139524   4.709   0.633   4.920 -1.5902 -0.7470 -0.6291
 9355SOL    HW239525   4.717   0.627   4.773  2.5041 -0.9663 -0.7040
 9356SOL     OW39526   4.162   1.763   3.313  0.0487  0.0437  0.0135
 9356SOL    HW139527   4.170   1.740   3.405  1.3271 -1.8891 -0.5766
 9356SOL    HW239528   4.098   1.833   3.326 -0.3168 -0.0141 -1.4790
 9357SOL     OW39529   0.998   0.399   3.010  0.3624  0.2503 -0.0177
 9357SOL    HW139530   0.945   0.415   3.088 -0.5610  0.4838 -0.6994
 9357SOL    HW239531   0.930   0.371   2.949  1.6875 -0.7249 -1.0583
 9358SOL     OW39532   4.117   1.113  15.334  0.2062  0.0915 -0.0077
 9358SOL    HW139533   4.141   1.039  15.278 -1.4845 -0.6939  0.3224
 9358SOL    HW239534   4.181   1.182  15.315  0.8148 -0.2574  0.7885
 9359SOL     OW39535   2.958   4.327   6.258  0.1379 -0.1946 -0.2012
 9359SOL    HW139536   2.917   4.350   6.342  1.2862  3.3261 -0.6203
 9359SOL    HW239537   2.985   4.236   6.266 -0.6169 -0.1462  3.0208
 9360SOL     OW39538   1.842   1.727   8.849 -0.8929 -0.5604  0.3774
 9360SOL    HW139539   1.764   1.710   8.902  0.2629 -1.5137  1.7590
 9360SOL    HW239540   1.898   1.774   8.911  0.9275  0.7919 -2.3109
 9361SOL     OW39541   4.707   1.204   0.266 -0.2792 -0.8221 -0.5515
 9361SOL    HW139542   4.625   1.157   0.278 -0.5874  0.0687  0.7204
 9361SOL    HW239543   4.706   1.216   0.171 -2.8790 -2.9839 -0.7987
 9362SOL     OW39544   3.674   1.096   0.079 -0.1434 -0.0335  0.5163
 9362SOL    HW139545   3.657   1.045  17.683  1.3593  0.0173  0.1740
 9362SOL    HW239546   3.748   1.152   0.056 -1.2078  0.5306 -1.6468
 9363SOL     OW39547   4.586   4.437   6.529  0.2783  0.1455 -0.4111
 9363SOL    HW139548   4.507   4.405   6.572  1.2039 -1.4150  0.1249
 9363SOL    HW239549   4.605   4.504   6.595  3.3598 -1.3443  0.1765
 9364SOL     OW39550   3.344   1.989  10.153  0.3739 -0.1195 -0.0219
 9364SOL    HW139551   3.278   2.033  10.208 -0.8937 -0.1781 -1.4854
 9364SOL    HW239552   3.415   1.984  10.217  1.0992  1.0681 -0.7335
 9365SOL     OW39553   4.685   3.910  10.208  0.3186 -0.4272  0.1848
 9365SOL    HW139554   4.690   3.967  10.284  1.2768 -0.0238 -0.1868
 9365SOL    HW239555   4.686   3.821  10.244  0.7736 -0.0937  0.9990
 9366SOL     OW39556   1.394   4.701   3.808  0.1319  0.2050 -0.9466
 9366SOL    HW139557   1.373   4.608   3.803 -0.1973  0.1420  2.1344
 9366SOL    HW239558   1.394   0.004   3.715  1.7318 -0.6324 -1.1644
 9367SOL     OW39559   3.676   0.250  12.521 -0.4347  0.1437 -0.3605
 9367SOL    HW139560   3.642   0.203  12.596  0.1315  2.8463  1.5962
 9367SOL    HW239561   3.670   0.342  12.547  0.8866  1.1667 -3.6668
 9368SOL     OW39562   4.233   4.503   5.722 -0.4522  0.2163  0.5062
 9368SOL    HW139563   4.286   4.426   5.742 -3.8623 -2.3767 -0.4885
 9368SOL    HW239564   4.164   4.464   5.669 -1.0179  1.1344  0.5769
 9369SOL     OW39565   1.828   2.292   7.336  0.5679 -0.3683  0.4016
 9369SOL    HW139566   1.881   2.351   7.390  1.3237 -1.1360  0.4943
 9369SOL    HW239567   1.745   2.297   7.383  0.8239 -1.2450  0.9469
 9370SOL     OW39568   1.442   4.610   2.383 -0.2185 -0.0088 -0.2286
 9370SOL    HW139569   1.375   4.584   2.320  1.7305  0.3199 -2.4240
 9370SOL    HW239570   1.517   4.634   2.330  2.1224  0.5631  3.3547
 9371SOL     OW39571   0.295   4.641   6.628 -0.7703 -0.2443  0.5259
 9371SOL    HW139572   0.352   4.564   6.633  0.1441  0.2647 -2.1885
 9371SOL    HW239573   0.258   4.653   6.715  0.0403  0.2409  0.8114
 9372SOL     OW39574   0.460   0.195  13.494 -0.2937  0.1609 -0.1151
 9372SOL    HW139575   0.396   0.231  13.432 -0.3423 -0.4106 -0.3983
 9372SOL    HW239576   0.430   0.104  13.488 -0.6872  0.2750  0.1368
 9373SOL     OW39577   0.345   3.770  14.215 -0.7473  0.1109 -0.0384
 9373SOL    HW139578   0.257   3.735  14.205  0.0101 -1.3999 -1.2741
 9373SOL    HW239579   0.369   3.747  14.304  0.6208  0.1971 -0.3743
 9374SOL     OW39580   2.281   3.022   4.175  0.0074  0.2222  0.2597
 9374SOL    HW139581   2.271   3.059   4.262 -2.9214 -0.3582  0.1751
 9374SOL    HW239582   2.306   3.095   4.118 -0.8380 -0.6084 -1.1715
 9375SOL     OW39583   3.765   4.393   6.512 -0.8410  0.4841  0.2463
 9375SOL    HW139584   3.719   4.472   6.542  0.2644  1.2663 -0.1245
 9375SOL    HW239585   3.769   4.339   6.591 -0.3811 -0.6171 -0.5427
 9376SOL     OW39586   4.480   1.809  11.016 -0.0070 -0.4491  0.6063
 9376SOL    HW139587   4.517   1.819  11.103 -0.4161  1.6727  0.5461
 9376SOL    HW239588   4.440   1.896  11.013 -2.4673 -1.6710 -1.8608
 9377SOL     OW39589   1.965   2.634  13.672 -0.0708  0.2959 -0.0621
 9377SOL    HW139590   1.936   2.724  13.688  1.4116  1.0147 -1.3786
 9377SOL    HW239591   1.965   2.618  13.767  0.4174 -0.0901 -0.1311
 9378SOL     OW39592   2.543   4.068  12.635  0.1483  0.1784  0.0485
 9378SOL    HW139593   2.580   3.980  12.649  0.5580  0.7955  2.7965
 9378SOL    HW239594   2.566   4.083  12.543 -1.1073 -1.3428 -0.5208
 9379SOL     OW39595   0.918   0.694   2.833 -0.6491  0.2360  0.4097
 9379SOL    HW139596   0.935   0.763   2.769  0.8028  0.0236  0.5775
 9379SOL    HW239597   1.002   0.649   2.832 -1.0562 -0.5327  0.9189
 9380SOL     OW39598   4.630   2.413   6.169 -0.2320  0.0910  0.5038
 9380SOL    HW139599   4.538   2.404   6.195 -0.4005 -3.2378 -1.3015
 9380SOL    HW239600   4.664   2.345   6.228 -0.4096 -0.5135 -0.0918
 9381SOL     OW39601   4.342   0.365   2.235 -0.1950 -0.4262  0.1405
 9381SOL    HW139602   4.366   0.294   2.296 -1.3405  0.1784  1.3007
 9381SOL    HW239603   4.430   0.400   2.221 -1.4183  1.8342 -1.6958
 9382SOL     OW39604   1.258   3.123   7.580  0.3032 -0.2763 -0.0893
 9382SOL    HW139605   1.226   3.211   7.558 -0.6928 -1.1823 -2.2555
 9382SOL    HW239606   1.313   3.114   7.501  0.1661  0.0185 -0.2192
 9383SOL     OW39607   3.252   4.075   6.721 -0.3364 -0.3412  0.4881
 9383SOL    HW139608   3.299   4.148   6.760  0.2829 -0.8387  0.6635
 9383SOL    HW239609   3.292   4.072   6.634 -2.5429  0.4297 -0.5407
 9384SOL     OW39610   1.486   0.383   5.118 -0.0772 -0.0188 -0.5132
 9384SOL    HW139611   1.529   0.323   5.179 -2.7976 -0.3219  1.1116
 9384SOL    HW239612   1.506   0.463   5.166  0.3737 -0.2039 -0.3944
 9385SOL     OW39613   3.746   4.435   6.241 -0.2339 -0.1249  0.5363
 9385SOL    HW139614   3.650   4.437   6.238 -0.2812  0.3156  2.5122
 9385SOL    HW239615   3.759   4.401   6.329  0.8427 -1.5112 -0.1573
 9386SOL     OW39616   4.022   1.720   5.748 -0.3556  0.0905  0.8313
 9386SOL    HW139617   3.959   1.692   5.681  0.4791 -0.0470  0.1043
 9386SOL    HW239618   4.094   1.658   5.733 -0.6916 -0.2475  0.5985
 9387SOL     OW39619   0.422   2.847  12.810  0.4615 -0.4537 -0.1934
 9387SOL    HW139620   0.331   2.841  12.837  0.2546  1.4777 -0.4822
 9387SOL    HW239621   0.426   2.927  12.757  0.0699 -0.1236  0.2888
 9388SOL     OW39622   1.176   1.438   3.170  0.2472  0.1534  0.4899
 9388SOL    HW139623   1.233   1.399   3.103  0.8517  2.0323 -0.1133
 9388SOL    HW239624   1.137   1.360   3.208 -0.6822  0.4792  0.1858
 9389SOL     OW39625   1.136   1.643   7.234  0.4967  0.0434  0.2555
 9389SOL    HW139626   1.092   1.719   7.272  0.1273  0.6118 -1.3005
 9389SOL    HW239627   1.221   1.645   7.277  1.4011  2.8179 -1.6383
 9390SOL     OW39628   4.382   0.669   1.741 -0.3043  0.5592  0.2561
 9390SOL    HW139629   4.360   0.658   1.834 -3.5421 -0.0475 -0.5755
 9390SOL    HW239630   4.465   0.712   1.763 -1.1348  1.7516  1.0634
 9391SOL     OW39631   3.065   4.553   4.051 -0.2026 -0.3429  0.3685
 9391SOL    HW139632   3.050   4.646   4.067  0.2715 -0.0428 -0.8909
 9391SOL    HW239633   3.106   4.560   3.965 -0.2835  1.4172  0.4596
 9392SOL     OW39634   0.098   0.537   0.507  0.0251 -0.1743 -0.4355
 9392SOL    HW139635   0.067   0.521   0.418  0.0029  0.1715 -0.4894
 9392SOL    HW239636   0.026   0.589   0.542  0.9762  1.2534 -0.5997
 9393SOL     OW39637   0.291   3.157  14.720  0.0076 -0.1880 -0.2368
 9393SOL    HW139638   0.207   3.111  14.724 -0.5642  0.7996 -0.8899
 9393SOL    HW239639   0.336   3.098  14.781 -0.2475 -1.3245 -1.1588
 9394SOL     OW39640   0.366   1.667   9.751 -0.0691  0.3357  0.3308
 9394SOL    HW139641   0.329   1.737   9.697  0.0356 -0.2219 -0.4565
 9394SOL    HW239642   0.457   1.694   9.768 -0.0029  0.6014 -0.4297
 9395SOL     OW39643   4.441   3.812  15.328 -0.0151 -1.0173  0.7821
 9395SOL    HW139644   4.414   3.846  15.413 -2.2543  0.3587 -0.4847
 9395SOL    HW239645   4.536   3.803  15.338  0.0883  0.3593  0.9945
 9396SOL     OW39646   1.583   2.321   3.906  0.6324  0.2810 -0.0678
 9396SOL    HW139647   1.557   2.301   3.996  0.8578  0.7798  0.1075
 9396SOL    HW239648   1.618   2.235   3.886 -0.9580 -0.3592 -0.1268
 9397SOL     OW39649   1.631   3.953  10.179  0.0435 -0.1674  0.3852
 9397SOL    HW139650   1.561   4.010  10.211 -0.4029 -0.9366  0.7856
 9397SOL    HW239651   1.617   3.879  10.238 -0.7013  0.7515  1.3659
 9398SOL     OW39652   1.243   3.247  10.493 -0.4890 -0.0747 -0.4413
 9398SOL    HW139653   1.271   3.290  10.412  2.3489 -1.1828 -0.0744
 9398SOL    HW239654   1.275   3.319  10.548 -2.1029  0.2303  0.0797
 9399SOL     OW39655   1.402   1.053  14.409  0.2674 -0.6712  0.2789
 9399SOL    HW139656   1.425   1.138  14.448 -3.8101  0.0914  0.9756
 9399SOL    HW239657   1.316   1.039  14.448 -0.7533 -0.5967 -2.0038
 9400SOL     OW39658   4.193   4.139   8.620 -0.0956  0.0099 -0.2110
 9400SOL    HW139659   4.148   4.114   8.539  0.1525  0.7121 -0.5571
 9400SOL    HW239660   4.147   4.217   8.652  1.2907  0.3743  0.8883
 9401SOL     OW39661   2.997   2.495   9.232  0.9122  0.4086 -0.2656
 9401SOL    HW139662   2.903   2.482   9.248  1.5810 -0.4317  2.7907
 9401SOL    HW239663   3.020   2.404   9.216  1.2747  0.4139  0.2263
 9402SOL     OW39664   2.118   4.333  14.380  0.2210  0.1935 -0.0529
 9402SOL    HW139665   2.065   4.401  14.421  1.4263  1.0694  0.0583
 9402SOL    HW239666   2.076   4.320  14.295 -1.4500  0.5442  0.7162
 9403SOL     OW39667   2.927   3.376   3.157  0.0282 -0.3489 -0.6520
 9403SOL    HW139668   2.995   3.370   3.090  1.0029  0.8918  0.2505
 9403SOL    HW239669   2.926   3.282   3.175  1.6682 -0.0959  0.7102
 9404SOL     OW39670   3.316   4.545   6.759  0.0435  0.1292  0.2998
 9404SOL    HW139671   3.296   4.578   6.671  2.2878  1.0035  0.1130
 9404SOL    HW239672   3.334   4.628   6.803  1.1589  1.1050 -1.9633
 9405SOL     OW39673   2.216   3.971   0.575 -0.3124 -0.4241  0.4095
 9405SOL    HW139674   2.189   3.900   0.516 -0.0844  0.4191 -0.7122
 9405SOL    HW239675   2.163   3.979   0.654 -0.5038  0.0348  0.2309
 9406SOL     OW39676   0.532   1.172   3.450 -0.0051  0.3392 -0.3569
 9406SOL    HW139677   0.443   1.200   3.430  0.3665  1.2431 -0.7672
 9406SOL    HW239678   0.547   1.125   3.368 -0.5234  0.0365 -0.2743
 9407SOL     OW39679   4.253   2.029   4.637  0.0577 -0.3288 -0.0754
 9407SOL    HW139680   4.259   1.958   4.701 -0.4361 -0.8762 -0.6403
 9407SOL    HW239681   4.160   2.047   4.646  0.5830  2.1072  0.3984
 9408SOL     OW39682   1.233   0.292   4.297 -0.0765  0.0552  0.1258
 9408SOL    HW139683   1.303   0.293   4.362 -0.4674  1.1993  0.5351
 9408SOL    HW239684   1.240   0.377   4.253  0.5417 -0.3646 -0.5998
 9409SOL     OW39685   0.108   2.756  16.777  0.5957  0.3320 -0.4883
 9409SOL    HW139686   0.159   2.693  16.829 -0.9233  0.1044  0.7365
 9409SOL    HW239687   0.073   2.818  16.840  0.7700  0.4259 -0.4825
 9410SOL     OW39688   4.039   1.129   6.676 -0.0096  0.4182 -0.5819
 9410SOL    HW139689   4.018   1.048   6.630  3.0706 -0.0365 -1.2115
 9410SOL    HW239690   3.960   1.180   6.659 -0.2095  0.2464 -0.1626
 9411SOL     OW39691   4.669   0.628   8.783 -0.0696  0.0697 -0.1863
 9411SOL    HW139692   4.688   0.674   8.701  0.8667  0.2443  0.1258
 9411SOL    HW239693   4.679   0.699   8.846 -2.5835 -0.7504  1.1300
 9412SOL     OW39694   1.658   3.757  14.959  0.4401 -0.0773  0.1684
 9412SOL    HW139695   1.567   3.774  14.933  0.0935 -1.7210  0.2787
 9412SOL    HW239696   1.653   3.784  15.051  0.7891  0.0198  0.1568
 9413SOL     OW39697   0.708   1.530   2.935 -0.8601 -0.2185  0.3065
 9413SOL    HW139698   0.633   1.585   2.913  0.5073  1.7567  0.6322
 9413SOL    HW239699   0.737   1.501   2.848  0.1643  0.3290  0.4617
 9414SOL     OW39700   2.733   3.664  10.839 -0.2852 -0.1714 -0.0210
 9414SOL    HW139701   2.694   3.624  10.917 -2.1133  1.7670  0.0341
 9414SOL    HW239702   2.825   3.649  10.864 -0.1257  0.7499 -0.0531
 9415SOL     OW39703   3.936   0.724   6.105  0.4329  0.8649  0.0489
 9415SOL    HW139704   3.954   0.816   6.083 -0.7894  1.1197  0.1495
 9415SOL    HW239705   4.000   0.677   6.050 -0.2952 -1.9647  1.6536
 9416SOL     OW39706   0.251   2.630  10.801  0.1040  0.1424 -0.7672
 9416SOL    HW139707   0.164   2.644  10.839  2.0388 -0.3392  3.8247
 9416SOL    HW239708   0.247   2.535  10.808 -0.5261  0.2621  0.4902
 9417SOL     OW39709   0.022   1.730   6.605 -0.1381  0.4914  0.0327
 9417SOL    HW139710   0.112   1.737   6.638  0.8308 -3.0037 -1.8495
 9417SOL    HW239711   4.714   1.818   6.580  1.5623  1.1972  0.5992
 9418SOL     OW39712   1.931   4.321   4.348 -0.3010 -0.8486  0.2974
 9418SOL    HW139713   1.983   4.334   4.427  1.6078  1.9185 -1.4075
 9418SOL    HW239714   1.906   4.234   4.378 -0.4136 -1.3602 -1.2674
 9419SOL     OW39715   0.032   1.962   6.963  0.5065 -0.2823  0.5505
 9419SOL    HW139716   0.021   1.875   7.002 -2.5346  0.9442  2.4458
 9419SOL    HW239717   0.123   1.961   6.933  1.3024 -0.1010  3.0093
 9420SOL     OW39718   2.212   2.263   1.151 -0.1200 -0.4391 -0.1348
 9420SOL    HW139719   2.302   2.241   1.126  0.5063  1.5805  0.3449
 9420SOL    HW239720   2.178   2.178   1.182  1.0055 -1.1884 -0.9583
 9421SOL     OW39721   0.343   4.528   3.162 -0.1675  0.0063 -0.7586
 9421SOL    HW139722   0.389   4.469   3.222  0.3023 -1.6728 -2.7469
 9421SOL    HW239723   0.253   4.495   3.160  0.1267 -0.7553 -1.6784
 9422SOL     OW39724   1.796   3.624   3.932  0.2922  0.0970 -0.1240
 9422SOL    HW139725   1.841   3.541   3.915  2.2841  1.3404 -0.8262
 9422SOL    HW239726   1.816   3.626   4.026 -0.2275 -1.3164  0.0100
 9423SOL     OW39727   4.247   4.094   9.688  0.5253  1.1805  0.1477
 9423SOL    HW139728   4.175   4.102   9.627  1.4876  1.1079 -0.9934
 9423SOL    HW239729   4.199   4.033   9.744  0.6063  1.6842  0.7672
 9424SOL     OW39730   3.328   3.660   0.283 -0.1750 -0.1321 -0.0255
 9424SOL    HW139731   3.275   3.625   0.354 -1.0394 -0.0389 -0.6309
 9424SOL    HW239732   3.370   3.583   0.242  1.5558  0.3736  0.7921
 9425SOL     OW39733   4.517   0.378  14.294  1.1435  0.3176  0.1389
 9425SOL    HW139734   4.600   0.400  14.336  0.7401 -0.1378  1.1600
 9425SOL    HW239735   4.466   0.365  14.373 -1.6341 -3.7985 -2.3356
 9426SOL     OW39736   2.254   0.181   2.489  0.2330 -0.3344  0.6226
 9426SOL    HW139737   2.302   0.182   2.406 -2.2894  0.4600 -0.8272
 9426SOL    HW239738   2.307   0.109   2.524 -0.9268  0.6130  4.3154
 9427SOL     OW39739   0.411   2.988   3.787 -0.0839  0.1789 -0.0542
 9427SOL    HW139740   0.480   3.051   3.806  0.8960 -0.3965 -1.7238
 9427SOL    HW239741   0.439   2.951   3.703  1.9677  0.1734  0.6404
 9428SOL     OW39742   1.854   0.090   7.244  0.5449 -0.5568 -0.0013
 9428SOL    HW139743   1.905   0.170   7.233 -0.9866 -0.1400 -3.9135
 9428SOL    HW239744   1.920   0.053   7.303  1.2508 -2.3159 -1.9319
 9429SOL     OW39745   3.970   2.912   8.482 -0.1851  0.7241 -0.0498
 9429SOL    HW139746   4.036   2.904   8.550 -1.2444 -0.8333  0.7955
 9429SOL    HW239747   3.904   2.844   8.500 -0.8894  2.1381  2.6646
 9430SOL     OW39748   0.243   1.910   2.784  0.1704 -0.0858  0.2542
 9430SOL    HW139749   0.337   1.893   2.770  0.1842 -2.3258  2.9638
 9430SOL    HW239750   0.233   1.999   2.749  1.0804  0.0837  0.4191
 9431SOL     OW39751   3.007   1.736   7.340  0.4298 -0.4115 -0.0220
 9431SOL    HW139752   3.096   1.733   7.375  0.7176 -0.2955 -0.7446
 9431SOL    HW239753   2.992   1.650   7.302  0.3201 -1.3017  2.0045
 9432SOL     OW39754   3.503   4.638   4.817  0.0927 -0.6020 -0.1312
 9432SOL    HW139755   3.582   4.620   4.868 -0.2303 -2.1742 -0.1898
 9432SOL    HW239756   3.534   4.693   4.745 -0.2009 -1.1946 -0.7088
 9433SOL     OW39757   4.443   0.475   5.653 -0.2524 -0.1598 -0.2442
 9433SOL    HW139758   4.363   0.427   5.638  1.2585 -3.1156  1.1957
 9433SOL    HW239759   4.445   0.461   5.748 -0.2772 -2.3508 -0.5679
 9434SOL     OW39760   0.185   3.435   6.893 -0.7385 -0.2080  0.0977
 9434SOL    HW139761   0.252   3.419   6.959 -0.9167 -2.9521 -0.3881
 9434SOL    HW239762   0.207   3.520   6.855 -0.4622  0.2906  1.4091
 9435SOL     OW39763   1.281   2.726   5.536  0.0582  0.1735 -0.2419
 9435SOL    HW139764   1.309   2.663   5.469  1.9058  0.3880  0.3414
 9435SOL    HW239765   1.360   2.780   5.541  0.7459 -0.7373 -1.4538
 9436SOL     OW39766   2.175   0.076   5.871 -0.3518 -0.6422  0.1739
 9436SOL    HW139767   2.125   0.054   5.792 -0.1216 -0.1794 -0.1008
 9436SOL    HW239768   2.143   0.006   5.928  1.3028 -1.6409 -0.1453
 9437SOL     OW39769   4.668   0.117   1.373 -0.5262  0.8826  0.5086
 9437SOL    HW139770   0.017   0.074   1.424 -0.4829 -1.1503 -1.2602
 9437SOL    HW239771   4.720   0.161   1.306 -0.2310  0.3946  0.4152
 9438SOL     OW39772   3.146   1.436  12.077 -0.2130 -0.2263 -0.6192
 9438SOL    HW139773   3.056   1.406  12.064 -0.9273  1.8214 -0.3582
 9438SOL    HW239774   3.179   1.421  11.989 -3.1144 -0.3129 -1.7065
 9439SOL     OW39775   0.974   1.520   1.727 -0.1882 -0.4242  0.2262
 9439SOL    HW139776   0.990   1.443   1.781 -0.0212 -1.3634 -1.1577
 9439SOL    HW239777   0.925   1.578   1.786 -0.3683 -0.1236 -0.2123
 9440SOL     OW39778   2.506   1.366   9.081  0.3119 -0.4693 -0.1859
 9440SOL    HW139779   2.519   1.272   9.091  1.6561 -0.3753 -1.1480
 9440SOL    HW239780   2.497   1.384   8.988 -1.7135 -0.6527 -0.0369
 9441SOL     OW39781   3.831   4.380  15.724  0.0586 -0.0342 -0.2263
 9441SOL    HW139782   3.899   4.317  15.699 -0.7585 -1.8801  2.1856
 9441SOL    HW239783   3.764   4.325  15.764 -1.5106 -0.6601 -3.7847
 9442SOL     OW39784   1.976   4.067  16.407  0.4353 -0.0203 -0.3255
 9442SOL    HW139785   1.888   4.039  16.380  0.7587 -0.7249 -0.6555
 9442SOL    HW239786   1.955   4.133  16.473  2.6364  0.2380  0.1237
 9443SOL     OW39787   2.385   3.739   3.283 -0.1668  0.0895 -0.8419
 9443SOL    HW139788   2.298   3.733   3.244 -0.5482 -2.4976  0.3796
 9443SOL    HW239789   2.377   3.674   3.352 -0.6585 -1.4322 -2.3211
 9444SOL     OW39790   1.944   4.505   4.155  0.3183  0.0796 -0.1554
 9444SOL    HW139791   1.880   4.575   4.163  0.6748  0.1665  1.8344
 9444SOL    HW239792   1.942   4.446   4.230 -0.5420  1.2729  0.7620
 9445SOL     OW39793   4.441   4.568   7.235 -0.5072 -0.1740 -0.0884
 9445SOL    HW139794   4.458   4.633   7.167 -0.6514  1.7943  1.7646
 9445SOL    HW239795   4.345   4.563   7.235 -0.5881  1.9017 -2.0688
 9446SOL     OW39796   2.662   2.862  15.665  0.2813  0.2576  0.1950
 9446SOL    HW139797   2.683   2.949  15.631  0.4491 -0.4707 -1.5393
 9446SOL    HW239798   2.594   2.893  15.725 -0.1855  1.4579 -0.9429
 9447SOL     OW39799   2.401   2.316  15.554  0.3069 -0.4030  0.0867
 9447SOL    HW139800   2.353   2.396  15.576 -0.9048 -1.1292  0.1396
 9447SOL    HW239801   2.461   2.350  15.489 -2.2196 -0.1870 -2.1466
 9448SOL     OW39802   0.731   1.939   1.743 -0.5331  0.2931  0.3459
 9448SOL    HW139803   0.718   1.943   1.838 -0.6135 -3.2595  0.4853
 9448SOL    HW239804   0.819   1.978   1.734 -0.5712  0.6008  1.3144
 9449SOL     OW39805   0.582   0.211   4.919 -0.1491 -0.0815 -0.4543
 9449SOL    HW139806   0.489   0.199   4.938  0.1778 -1.4023  0.2980
 9449SOL    HW239807   0.630   0.140   4.962 -0.1751 -0.5308 -1.1592
 9450SOL     OW39808   3.301   3.569   7.526  0.2898  0.3933  0.6470
 9450SOL    HW139809   3.205   3.566   7.536  0.1805 -1.4075 -0.9688
 9450SOL    HW239810   3.307   3.599   7.435  1.2255 -1.7931  0.0012
 9451SOL     OW39811   1.715   1.169   7.611  0.2085  0.0127  0.4530
 9451SOL    HW139812   1.638   1.153   7.666 -0.7340 -1.9454 -1.4386
 9451SOL    HW239813   1.789   1.175   7.671  0.6265  1.6929 -0.2401
 9452SOL     OW39814   4.513   0.149   4.709  0.4559 -0.3969  0.2681
 9452SOL    HW139815   4.497   0.205   4.785  0.7952 -2.1656  1.6547
 9452SOL    HW239816   4.569   0.204   4.655  1.2880 -2.9490 -1.4553
 9453SOL     OW39817   3.969   2.549  16.152 -0.2584  0.1935 -0.2192
 9453SOL    HW139818   3.912   2.606  16.203  1.5606  1.0430  0.8651
 9453SOL    HW239819   4.052   2.595  16.167 -0.1910 -0.1091  0.3334
 9454SOL     OW39820   3.007   3.825   7.722  0.3401 -0.1514  0.4433
 9454SOL    HW139821   3.082   3.822   7.662  1.1543 -0.7058  1.4842
 9454SOL    HW239822   3.060   3.823   7.801  3.6510  1.5463 -1.7167
 9455SOL     OW39823   1.000   1.172   4.052 -0.0575 -0.7316 -0.1408
 9455SOL    HW139824   1.024   1.248   4.105 -2.3039  0.6557 -1.1054
 9455SOL    HW239825   1.089   1.142   4.032 -0.2901  0.2745 -2.6773
 9456SOL     OW39826   3.766   1.789  15.240  0.0635  0.0343  0.2663
 9456SOL    HW139827   3.818   1.765  15.163 -2.2259  0.5956 -1.4384
 9456SOL    HW239828   3.824   1.757  15.310 -0.6088  0.4837  1.0341
 9457SOL     OW39829   0.374   3.795   5.772  0.2168 -0.5662  0.6704
 9457SOL    HW139830   0.339   3.884   5.778 -4.1177 -2.1999  0.0185
 9457SOL    HW239831   0.402   3.788   5.681  0.3435  0.1281  0.6536
 9458SOL     OW39832   0.532   3.610   3.607  0.2673  0.1796 -0.1823
 9458SOL    HW139833   0.611   3.562   3.630  0.5085  0.0485 -1.2567
 9458SOL    HW239834   0.560   3.632   3.518 -0.6148 -0.2953 -0.5815
 9459SOL     OW39835   1.537   1.752   5.126 -0.0705 -0.0363 -0.0959
 9459SOL    HW139836   1.507   1.661   5.118 -1.1666  0.2622  0.5716
 9459SOL    HW239837   1.530   1.766   5.220  2.2405 -0.0935  0.0721
 9460SOL     OW39838   1.211   0.722   4.337  0.1325  0.4383  0.0302
 9460SOL    HW139839   1.177   0.806   4.307  1.4608  0.9220 -0.1153
 9460SOL    HW239840   1.146   0.659   4.367  1.0723  0.0414  1.2362
 9461SOL     OW39841   1.756   2.926   3.366  0.1358  0.0438  0.3847
 9461SOL    HW139842   1.817   2.975   3.310  1.5989 -1.4544  0.6726
 9461SOL    HW239843   1.669   2.952   3.335  0.7081  0.3289 -1.0014
 9462SOL     OW39844   3.342   4.617  16.969 -0.0242 -0.4437  0.5186
 9462SOL    HW139845   3.295   4.682  16.915  0.7236 -1.6567 -1.6110
 9462SOL    HW239846   3.348   4.659  17.054 -1.6654 -1.0355  0.9277
 9463SOL     OW39847   1.318   4.309   2.976  0.8606 -0.2569  0.3053
 9463SOL    HW139848   1.410   4.327   2.956  1.3452 -1.1492  1.7627
 9463SOL    HW239849   1.287   4.268   2.895 -2.0377  1.9410  0.2883
 9464SOL     OW39850   0.950   2.025  11.451  0.3087  0.2599  1.0253
 9464SOL    HW139851   0.872   2.046  11.399  1.0284 -1.6640 -0.8221
 9464SOL    HW239852   0.932   2.087  11.522  0.0136 -1.0866  2.1262
 9465SOL     OW39853   3.873   1.466   6.200  0.0178 -0.0621  0.2760
 9465SOL    HW139854   3.875   1.384   6.150 -3.4232 -0.4160  0.7042
 9465SOL    HW239855   3.838   1.530   6.138  0.5669 -0.7336 -0.7288
 9466SOL     OW39856   2.962   2.002   8.139 -0.2772  0.0548  0.0775
 9466SOL    HW139857   2.989   2.027   8.227 -1.0249  2.9413 -0.5139
 9466SOL    HW239858   2.876   2.044   8.135 -0.3512  0.0456  1.3361
 9467SOL     OW39859   2.207   3.294   7.577  0.1502  0.4529 -0.4549
 9467SOL    HW139860   2.296   3.274   7.545  0.4941 -0.3646  1.0056
 9467SOL    HW239861   2.218   3.387   7.597  1.7710 -0.1534  1.5003
 9468SOL     OW39862   3.448   4.153   8.731 -0.0812 -0.0549 -0.0234
 9468SOL    HW139863   3.535   4.172   8.696 -0.7948 -1.8968 -2.8074
 9468SOL    HW239864   3.439   4.059   8.745 -1.7655  0.0276 -0.5155
 9469SOL     OW39865   2.275   0.502   4.888 -0.1485  0.0530 -0.9718
 9469SOL    HW139866   2.322   0.442   4.829  2.3665 -1.6285  2.7649
 9469SOL    HW239867   2.222   0.435   4.932 -0.3249  1.5787  1.1199
 9470SOL     OW39868   3.565   2.537   7.233 -0.2574 -0.7218  0.4764
 9470SOL    HW139869   3.562   2.616   7.287  1.4761 -0.7061  0.5317
 9470SOL    HW239870   3.643   2.498   7.272 -1.2482 -2.1418  1.0076
 9471SOL     OW39871   3.501   1.201   6.644 -0.7696  0.6953 -0.5259
 9471SOL    HW139872   3.497   1.151   6.725 -2.0227 -2.2080 -2.3901
 9471SOL    HW239873   3.416   1.178   6.606 -1.3425 -1.6716  2.2240
 9472SOL     OW39874   2.773   1.717   8.053  0.6281  0.5108 -0.0693
 9472SOL    HW139875   2.814   1.657   8.116 -0.4201 -1.8838 -1.7113
 9472SOL    HW239876   2.858   1.751   8.025  1.7208 -1.6471  0.6240
 9473SOL     OW39877   1.251   4.461   7.367 -1.0144 -0.5303 -0.1623
 9473SOL    HW139878   1.200   4.536   7.397  0.0229 -0.1202  0.5877
 9473SOL    HW239879   1.181   4.410   7.328 -1.6257  0.3592 -0.2251
 9474SOL     OW39880   4.210   1.849  16.059  0.2803  0.4315 -0.0982
 9474SOL    HW139881   4.225   1.866  16.152 -1.1421  2.6560 -0.2813
 9474SOL    HW239882   4.274   1.913  16.027  1.9190 -0.5343  1.2215
 9475SOL     OW39883   2.174   0.364   6.961 -0.0388  0.0176  0.2034
 9475SOL    HW139884   2.252   0.329   7.004  0.5197 -0.4411 -1.1834
 9475SOL    HW239885   2.170   0.447   7.008 -1.0248 -1.1628  2.2396
 9476SOL     OW39886   3.798   3.466   3.081  0.5255 -0.2040 -0.4566
 9476SOL    HW139887   3.771   3.538   3.024 -0.5372  0.1983  0.5315
 9476SOL    HW239888   3.833   3.528   3.146 -1.5467  0.1194  0.3718
 9477SOL     OW39889   1.879   3.327   0.438  0.1083 -0.2607  0.4374
 9477SOL    HW139890   1.846   3.401   0.386  1.8433  0.2861  0.1134
 9477SOL    HW239891   1.813   3.265   0.410 -2.4445  2.4243  0.5106
 9478SOL     OW39892   4.137   4.011   1.017  0.0801 -0.6326 -0.2524
 9478SOL    HW139893   4.095   4.081   0.967  1.3658 -0.6654 -1.3790
 9478SOL    HW239894   4.082   4.017   1.095  1.2092  1.4636  0.3847
 9479SOL     OW39895   4.589   0.563   4.068  0.6410  0.4414  0.2526
 9479SOL    HW139896   4.573   0.616   3.990 -0.0239  1.8917  1.3690
 9479SOL    HW239897   4.578   0.630   4.135 -2.6096 -1.3671  1.5413
 9480SOL     OW39898   2.613   2.815   7.675 -0.0644 -0.4635 -0.0218
 9480SOL    HW139899   2.704   2.826   7.702  0.4020 -1.4372 -1.2115
 9480SOL    HW239900   2.596   2.730   7.715 -0.1757  0.2407  1.4335
 9481SOL     OW39901   3.707   0.835   9.341  0.2640  0.6929  0.6877
 9481SOL    HW139902   3.643   0.840   9.412  0.1044 -0.0288  0.6026
 9481SOL    HW239903   3.766   0.776   9.388  0.1342  0.6940  0.8507
 9482SOL     OW39904   2.259   0.416   8.912 -0.5096  0.0442  0.5287
 9482SOL    HW139905   2.229   0.339   8.863  0.4739  0.6781 -1.0648
 9482SOL    HW239906   2.293   0.461   8.835 -1.5152 -0.8374 -0.4324
 9483SOL     OW39907   4.289   3.994   4.449  0.4044 -0.5116 -0.1587
 9483SOL    HW139908   4.211   3.938   4.445 -1.1170  1.7212 -1.5737
 9483SOL    HW239909   4.311   3.987   4.541 -3.4689 -0.5192  0.7702
 9484SOL     OW39910   3.052   4.565   9.312 -0.2771 -0.4085 -0.7879
 9484SOL    HW139911   3.020   4.534   9.397  0.6397  1.9125  0.3987
 9484SOL    HW239912   3.126   4.617   9.341 -0.6351 -1.2702  1.7504
 9485SOL     OW39913   1.227   0.749   7.881 -0.2402  0.1650  0.1721
 9485SOL    HW139914   1.203   0.828   7.832  1.9700  1.9685  1.9641
 9485SOL    HW239915   1.322   0.748   7.871 -0.3600 -0.7430 -0.9090
 9486SOL     OW39916   2.549   4.630   6.653  0.5945 -0.0755  0.2312
 9486SOL    HW139917   2.549   4.671   6.739  0.2233  1.9284 -0.6983
 9486SOL    HW239918   2.481   4.678   6.604  1.2180  0.6189  0.0359
 9487SOL     OW39919   0.816   1.577   3.753  0.8127  0.4803 -0.4914
 9487SOL    HW139920   0.795   1.518   3.825  0.7361  0.6969 -0.3355
 9487SOL    HW239921   0.801   1.517   3.681 -0.3066 -0.7437  0.7751
 9488SOL     OW39922   3.079   2.255   9.056 -0.1931  0.6434 -0.1249
 9488SOL    HW139923   3.077   2.175   9.108  2.4366  0.7781  0.1702
 9488SOL    HW239924   3.020   2.234   8.983  2.3974 -0.8517 -1.7604
 9489SOL     OW39925   1.676   4.021  16.501 -0.5781 -0.4468 -0.2625
 9489SOL    HW139926   1.683   4.043  16.594  1.3894  0.4561 -0.6259
 9489SOL    HW239927   1.595   4.068  16.480 -0.6172 -0.6290 -0.5085
 9490SOL     OW39928   1.087   0.753   3.326  0.1599  0.2853 -0.2449
 9490SOL    HW139929   1.156   0.808   3.363 -0.7029  1.1403  0.1107
 9490SOL    HW239930   1.133   0.708   3.255  1.1177 -0.9497  1.1565
 9491SOL     OW39931   1.735   3.721   8.669  0.3388 -0.0063  0.2844
 9491SOL    HW139932   1.654   3.768   8.650  0.3077 -0.0810  0.2328
 9491SOL    HW239933   1.792   3.798   8.670  0.7108 -0.2819 -0.1447
 9492SOL     OW39934   1.622   3.769  15.210 -0.0860 -0.1101  0.3541
 9492SOL    HW139935   1.602   3.854  15.248 -1.2938 -0.6235  0.8762
 9492SOL    HW239936   1.624   3.711  15.287  2.7469  1.3533  1.4014
 9493SOL     OW39937   0.679   0.922  11.321  0.1954 -0.5684 -0.0967
 9493SOL    HW139938   0.736   0.910  11.245  0.4964  0.9073 -0.1162
 9493SOL    HW239939   0.687   1.015  11.342 -0.5799  0.3833 -4.0887
 9494SOL     OW39940   1.457   0.615   1.463  0.1666  0.3097 -0.1433
 9494SOL    HW139941   1.496   0.576   1.541  1.8121  1.6387 -0.3151
 9494SOL    HW239942   1.366   0.599   1.486  1.2074 -1.6793  2.5865
 9495SOL     OW39943   0.618   3.538   8.000  0.2010 -0.3060 -0.2870
 9495SOL    HW139944   0.559   3.607   8.029 -0.2895 -1.4562  1.5001
 9495SOL    HW239945   0.663   3.578   7.925 -1.6284  0.4358 -0.9681
 9496SOL     OW39946   2.339   2.546   8.574 -0.2792 -0.2702  0.5821
 9496SOL    HW139947   2.281   2.621   8.566 -2.0520 -1.6940  0.0971
 9496SOL    HW239948   2.279   2.472   8.581  1.0984 -1.2064  2.3651
 9497SOL     OW39949   0.121   3.632   2.037 -0.0065 -0.1860 -0.4653
 9497SOL    HW139950   0.080   3.606   1.955  0.5239 -2.1139 -0.1383
 9497SOL    HW239951   0.141   3.547   2.078 -0.7101 -0.0807  0.0841
 9498SOL     OW39952   0.531   1.369   0.400  0.5060  0.1984 -0.0354
 9498SOL    HW139953   0.435   1.366   0.400  0.5403 -1.0942  0.5393
 9498SOL    HW239954   0.542   1.455   0.439 -1.2457  0.6561 -0.5492
 9499SOL     OW39955   4.599   0.157  11.348  0.0239 -0.3690 -0.5210
 9499SOL    HW139956   4.672   0.194  11.298 -1.0502  0.3483 -1.5378
 9499SOL    HW239957   4.524   0.211  11.322 -0.7044 -0.5577  1.1941
 9500SOL     OW39958   2.052   0.432   7.784  0.3882  0.3108 -0.1003
 9500SOL    HW139959   2.125   0.375   7.809  0.9265 -0.3011 -3.1235
 9500SOL    HW239960   1.995   0.356   7.774 -0.1220  0.6675  0.1111
 9501SOL     OW39961   1.562   2.492   6.540  0.1629  0.7052  0.0926
 9501SOL    HW139962   1.599   2.577   6.514  2.4156 -0.6336 -1.0761
 9501SOL    HW239963   1.641   2.444   6.517  0.5773  1.6602 -0.4642
 9502SOL     OW39964   1.384   2.031  10.427  0.1467  0.1300  0.1150
 9502SOL    HW139965   1.465   1.983  10.441 -0.4951 -1.4325 -1.5814
 9502SOL    HW239966   1.389   2.107  10.485 -1.1290 -0.7947  1.4209
 9503SOL     OW39967   3.306   1.962   5.596  0.4275  0.4692 -0.0969
 9503SOL    HW139968   3.216   1.995   5.591  0.1967 -0.2812 -1.0282
 9503SOL    HW239969   3.354   2.014   5.660  1.6811 -1.9755  0.9436
 9504SOL     OW39970   0.997   0.513   7.100  0.1779 -0.1301 -0.3499
 9504SOL    HW139971   1.000   0.492   7.007  2.9621  1.1840 -0.5887
 9504SOL    HW239972   1.036   0.433   7.135  1.6888  0.5891 -0.3618
 9505SOL     OW39973   2.293   2.062   1.416 -0.0468 -0.0252  0.0856
 9505SOL    HW139974   2.276   2.033   1.326 -1.1406  1.4369 -0.1716
 9505SOL    HW239975   2.328   1.983   1.457 -1.5337 -0.8664 -0.2410
 9506SOL     OW39976   3.659   0.305   6.534 -0.0773  0.0964  0.0880
 9506SOL    HW139977   3.621   0.337   6.452  0.7204 -1.9555 -1.0593
 9506SOL    HW239978   3.751   0.302   6.506  0.1720 -0.9078  1.0409
 9507SOL     OW39979   2.605   1.858   3.579 -0.0174 -0.0128 -0.7042
 9507SOL    HW139980   2.613   1.764   3.590 -0.5794 -0.1626 -1.5762
 9507SOL    HW239981   2.678   1.880   3.637 -0.7585  0.7562 -0.0638
 9508SOL     OW39982   0.033   1.180   5.085  0.0666 -0.1152  0.2102
 9508SOL    HW139983   0.105   1.159   5.026  0.8540  0.0375  1.1074
 9508SOL    HW239984   4.679   1.147   5.035 -0.4226 -1.1305  1.6020
 9509SOL     OW39985   3.746   1.808  14.102  0.3338 -0.1857 -0.0146
 9509SOL    HW139986   3.669   1.847  14.144  0.0140 -1.4372  0.5680
 9509SOL    HW239987   3.796   1.787  14.180  0.7826 -0.7439 -0.4579
 9510SOL     OW39988   0.295   1.284   3.348 -0.4529 -0.3890  0.1490
 9510SOL    HW139989   0.228   1.215   3.342 -1.9955  0.8484  3.0702
 9510SOL    HW239990   0.249   1.368   3.354  2.1763  1.2361 -2.2482
 9511SOL     OW39991   2.578   0.286   6.821  0.1386 -0.7737 -0.0961
 9511SOL    HW139992   2.521   0.305   6.896  0.3762  1.9947 -0.6353
 9511SOL    HW239993   2.533   0.212   6.779 -1.5846  1.0101 -1.4314
 9512SOL     OW39994   0.247   1.079   1.117  0.0831 -0.2544 -0.0628
 9512SOL    HW139995   0.252   1.163   1.071  0.8627 -0.1689  0.1816
 9512SOL    HW239996   0.276   1.116   1.200  0.5318 -1.2958  0.2402
 9513SOL     OW39997   3.173   0.250   0.727  0.3748  0.2036  0.3714
 9513SOL    HW139998   3.173   0.310   0.801  1.4974 -0.7698  1.1691
 9513SOL    HW239999   3.095   0.275   0.678 -0.2515 -1.0985  0.6989
 9514SOL     OW40000   4.226   3.877  10.918 -0.0711 -0.3726  0.0423
 9514SOL    HW140001   4.226   3.855  11.011  1.5023  2.2391  0.6900
 9514SOL    HW240002   4.218   3.973  10.919 -2.3386 -0.5654 -0.1972
 9515SOL     OW40003   0.462   0.034  10.003  0.2637  0.7189  0.0415
 9515SOL    HW140004   0.440   0.124   9.979  0.3195  1.1297  1.5199
 9515SOL    HW240005   0.380   4.708   9.987  0.3285  0.1172  1.4310
 9516SOL     OW40006   4.534   1.391   7.704 -0.0904 -0.2406  0.0748
 9516SOL    HW140007   4.454   1.393   7.758 -0.4666  2.2594 -0.5695
 9516SOL    HW240008   4.536   1.296   7.690 -0.4832 -0.5186  1.8460
 9517SOL     OW40009   1.386   1.279   3.787  0.0807 -0.3787  0.2972
 9517SOL    HW140010   1.326   1.280   3.712 -0.2861 -2.0803  0.5623
 9517SOL    HW240011   1.428   1.365   3.779 -0.5417  0.0819  2.0229
 9518SOL     OW40012   3.791   3.420  10.771 -0.0062  0.2381 -0.8471
 9518SOL    HW140013   3.821   3.337  10.808 -1.6089  0.0766  0.0864
 9518SOL    HW240014   3.826   3.411  10.682  0.6517  0.2638 -0.5933
 9519SOL     OW40015   1.357   3.308  10.259 -0.4308 -0.5967 -0.0965
 9519SOL    HW140016   1.423   3.377  10.259 -0.0586 -0.9525  1.4865
 9519SOL    HW240017   1.372   3.258  10.178  2.8173 -0.9862  0.7282
 9520SOL     OW40018   0.938   1.993   7.921 -0.6713  0.2884 -0.1461
 9520SOL    HW140019   0.886   1.947   7.856  3.1855 -0.0526 -2.9890
 9520SOL    HW240020   0.871   2.005   7.989  1.8679 -2.6484  2.8811
 9521SOL     OW40021   3.698   3.356   0.385 -0.2168 -0.2228 -0.3014
 9521SOL    HW140022   3.762   3.378   0.453  1.3664  0.8359 -2.1040
 9521SOL    HW240023   3.755   3.382   0.312 -0.0805 -1.2967 -0.5857
 9522SOL     OW40024   2.078   4.170   5.510 -0.5514  0.3165  0.0775
 9522SOL    HW140025   2.095   4.169   5.604 -1.7514 -1.9428  0.2723
 9522SOL    HW240026   2.164   4.198   5.480 -1.1512  1.1388 -0.8703
 9523SOL     OW40027   2.833   2.747  13.756  0.0210  0.6865  0.3026
 9523SOL    HW140028   2.917   2.736  13.712 -0.8959  1.2645 -1.5937
 9523SOL    HW240029   2.784   2.684  13.704  0.9061 -0.1196  0.4405
 9524SOL     OW40030   1.208   0.723   2.866 -0.1293 -0.2189 -0.3362
 9524SOL    HW140031   1.285   0.733   2.810  1.5827  0.0415  2.0292
 9524SOL    HW240032   1.165   0.806   2.845 -0.3418 -0.1962  0.1938
 9525SOL     OW40033   2.411   0.688   4.255  0.3601 -0.1725 -0.1778
 9525SOL    HW140034   2.385   0.706   4.164 -0.1879  2.8231  0.5716
 9525SOL    HW240035   2.434   0.776   4.283  0.4467  0.2913 -1.7105
 9526SOL     OW40036   0.946   0.531   1.890  0.3619 -0.2081 -0.0616
 9526SOL    HW140037   0.921   0.604   1.834 -1.4617 -0.4628  0.3958
 9526SOL    HW240038   0.992   0.484   1.821 -0.5564  0.5851 -1.2095
 9527SOL     OW40039   0.300   1.466   1.518 -0.2404 -0.2947 -0.4787
 9527SOL    HW140040   0.238   1.488   1.587 -0.9292  0.6273 -1.3890
 9527SOL    HW240041   0.379   1.513   1.545 -1.4664  0.7626  1.2447
 9528SOL     OW40042   1.769   0.502   3.905  0.5562  0.2729 -0.9717
 9528SOL    HW140043   1.676   0.515   3.888 -0.2205 -0.0333  3.1410
 9528SOL    HW240044   1.787   0.433   3.841  0.2701 -0.0524 -0.7002
 9529SOL     OW40045   3.227   2.865   8.541 -0.0418 -0.0490  0.5352
 9529SOL    HW140046   3.271   2.832   8.619  1.5746 -0.2609 -0.4738
 9529SOL    HW240047   3.153   2.912   8.580 -0.0107  0.9740 -0.6666
 9530SOL     OW40048   0.090   0.707   0.892  0.3877 -0.4723  0.7319
 9530SOL    HW140049   0.162   0.759   0.859  1.7541 -0.6583  3.4030
 9530SOL    HW240050   0.080   0.757   0.973  0.2744 -1.6687  1.4571
 9531SOL     OW40051   0.900   1.755   4.513 -0.1648  0.0845 -0.5007
 9531SOL    HW140052   0.989   1.723   4.505 -0.7844 -1.7716  0.1047
 9531SOL    HW240053   0.905   1.851   4.506  0.3690  0.4032  4.3286
 9532SOL     OW40054   4.715   1.350   7.241 -0.1037  0.4107 -1.0816
 9532SOL    HW140055   4.637   1.382   7.287 -0.3939 -2.8715  0.7392
 9532SOL    HW240056   4.698   1.378   7.151 -0.5953  0.5730 -0.9410
 9533SOL     OW40057   2.489   2.885   8.513 -0.5703 -0.1776  0.0220
 9533SOL    HW140058   2.564   2.841   8.554  0.5603  0.6591 -1.1496
 9533SOL    HW240059   2.453   2.824   8.449  1.4739 -1.2814 -0.0651
 9534SOL     OW40060   0.917   3.825   5.999 -0.4510  0.5494 -0.3073
 9534SOL    HW140061   0.841   3.792   6.047 -0.4276  1.4544  0.3432
 9534SOL    HW240062   0.944   3.901   6.049  0.6133 -1.6836  2.4930
 9535SOL     OW40063   0.309   0.909   1.371  0.1063 -0.5128 -0.2294
 9535SOL    HW140064   0.370   0.894   1.444  0.4829 -0.6580 -0.5705
 9535SOL    HW240065   0.362   0.968   1.317  0.6495  0.0293  0.8851
 9536SOL     OW40066   1.503   0.090   4.182  0.4328 -0.7372 -0.5658
 9536SOL    HW140067   1.539   0.178   4.170 -3.5932  1.0414  0.3691
 9536SOL    HW240068   1.412   0.098   4.154  0.4778 -0.1310 -0.5304
 9537SOL     OW40069   1.865   3.616  14.835 -0.2761  0.1893 -0.0466
 9537SOL    HW140070   1.837   3.682  14.771  0.4369 -0.1178 -0.6740
 9537SOL    HW240071   1.805   3.646  14.903 -1.2320 -1.5114 -0.1444
 9538SOL     OW40072   3.625   0.881   1.223 -0.6033  0.2999  0.3583
 9538SOL    HW140073   3.563   0.905   1.292  0.3293 -0.1683  1.3587
 9538SOL    HW240074   3.574   0.925   1.155 -0.0690 -0.5845 -0.6079
 9539SOL     OW40075   0.691   1.814   4.167  0.4417  0.1404  0.2340
 9539SOL    HW140076   0.786   1.806   4.166  0.3177 -1.0714 -2.3186
 9539SOL    HW240077   0.673   1.795   4.075 -0.1698 -0.3918  0.4637
 9540SOL     OW40078   1.598   1.283   7.110  0.2208 -0.0355 -0.3852
 9540SOL    HW140079   1.654   1.205   7.098 -0.6755 -1.0944  2.2747
 9540SOL    HW240080   1.581   1.289   7.204 -1.2544  0.1106 -0.6692
 9541SOL     OW40081   4.453   2.272   6.757  0.2909  0.0283  0.0806
 9541SOL    HW140082   4.436   2.190   6.710 -0.6882 -0.2257  0.8902
 9541SOL    HW240083   4.375   2.321   6.733  0.9772 -0.6088 -3.4866
 9542SOL     OW40084   2.445   4.210  14.554 -0.2243 -0.1537  0.1153
 9542SOL    HW140085   2.409   4.157  14.625  0.9057  0.1698  0.9305
 9542SOL    HW240086   2.536   4.214  14.584  0.0866  0.6853 -0.9611
 9543SOL     OW40087   3.905   1.960   1.010  0.1158 -0.2582 -0.0297
 9543SOL    HW140088   3.888   1.866   1.024  1.5904 -0.6020 -0.4927
 9543SOL    HW240089   3.963   1.984   1.083 -0.5093 -0.2292  0.4553
 9544SOL     OW40090   0.484   4.144   2.227  0.1400  0.6819 -0.6951
 9544SOL    HW140091   0.576   4.167   2.216 -0.2490  2.1335 -0.9740
 9544SOL    HW240092   0.468   4.099   2.144 -1.2588  1.5469 -0.8927
 9545SOL     OW40093   1.870   0.923   2.089 -0.3998 -0.1487  0.5348
 9545SOL    HW140094   1.781   0.890   2.083 -0.9562  0.7401  4.0455
 9545SOL    HW240095   1.883   0.960   2.001  0.1196  0.4377  0.8588
 9546SOL     OW40096   3.321   4.466   7.139 -0.4817 -0.0453 -0.5671
 9546SOL    HW140097   3.408   4.483   7.103 -0.6016  0.4242 -0.6413
 9546SOL    HW240098   3.322   4.528   7.212 -1.2799  0.5993 -1.0897
 9547SOL     OW40099   4.434   2.175   5.796 -1.0162  0.5973 -0.3299
 9547SOL    HW140100   4.497   2.235   5.755  2.0322 -1.7847  0.8720
 9547SOL    HW240101   4.495   2.120   5.845 -0.1576  0.7552 -1.2119
 9548SOL     OW40102   2.849   3.987   1.591  0.3843  0.2537 -0.7797
 9548SOL    HW140103   2.810   3.902   1.614 -2.1524  1.3607 -1.0072
 9548SOL    HW240104   2.827   3.982   1.498  3.1597 -1.3981 -1.3513
 9549SOL     OW40105   1.097   3.242  16.018 -0.7116  0.3955  0.5169
 9549SOL    HW140106   1.152   3.164  16.020  0.0653  0.9947  2.2849
 9549SOL    HW240107   1.062   3.253  16.107 -0.2883  0.1604  0.7097
 9550SOL     OW40108   3.722   3.069  15.854  0.1927 -0.1540  0.0674
 9550SOL    HW140109   3.815   3.056  15.870  0.7379  0.8551 -2.3689
 9550SOL    HW240110   3.694   3.147  15.902 -0.2880  0.7528 -1.6654
 9551SOL     OW40111   0.032   3.574  13.949 -0.2626  0.1422 -0.1743
 9551SOL    HW140112   0.070   3.504  13.896  1.1628  0.4212  0.4951
 9551SOL    HW240113   4.671   3.583  13.900  0.0671  0.9463 -0.5696
 9552SOL     OW40114   2.301   0.505   9.367 -0.4732 -0.5154 -0.4849
 9552SOL    HW140115   2.315   0.477   9.457 -2.2000 -1.9782 -0.6531
 9552SOL    HW240116   2.368   0.572   9.358  0.3661 -1.5547 -1.9766
 9553SOL     OW40117   0.108   3.141   3.804  0.2771  0.4546  0.2080
 9553SOL    HW140118   0.054   3.204   3.852 -0.3375 -1.0282  1.4402
 9553SOL    HW240119   0.149   3.191   3.733  1.6191 -1.0883 -0.0895
 9554SOL     OW40120   4.031   2.027   4.132 -0.5670 -0.1010  0.5613
 9554SOL    HW140121   3.956   1.967   4.134 -0.4406 -0.2519  0.7147
 9554SOL    HW240122   4.091   1.976   4.186 -1.8586 -1.0267  1.1482
 9555SOL     OW40123   0.587   3.115   1.574 -0.1956  0.2148 -0.1457
 9555SOL    HW140124   0.660   3.169   1.605  0.4069  0.6183 -2.2573
 9555SOL    HW240125   0.631   3.050   1.520 -2.0195 -0.9187 -0.2581
 9556SOL     OW40126   2.806   4.716  13.625 -0.0772 -1.0515 -0.2881
 9556SOL    HW140127   2.737   4.718  13.559 -0.6165  1.9735  0.3840
 9556SOL    HW240128   2.763   4.656  13.686  1.2666 -3.1077 -1.3187
 9557SOL     OW40129   3.694   3.764   5.884  0.2826 -0.1544 -0.5651
 9557SOL    HW140130   3.690   3.765   5.980 -0.5288  0.4885 -0.6074
 9557SOL    HW240131   3.604   3.788   5.862 -0.1903 -0.4134  1.0939
 9558SOL     OW40132   1.301   0.154   4.019 -0.2879 -0.3289 -0.4363
 9558SOL    HW140133   1.325   0.098   3.946 -2.1148 -1.1468 -0.4098
 9558SOL    HW240134   1.349   0.236   4.006 -0.8509 -0.2646 -2.0507
 9559SOL     OW40135   0.650   3.932   2.341 -0.3002 -0.0307  0.0242
 9559SOL    HW140136   0.610   4.014   2.369 -0.5741  0.3360 -1.4493
 9559SOL    HW240137   0.720   3.970   2.287  0.3919  3.1172  3.1165
 9560SOL     OW40138   4.394   0.186   9.726  0.3452  0.2029 -0.6426
 9560SOL    HW140139   4.307   0.225   9.719  0.9129  1.4431 -0.7397
 9560SOL    HW240140   4.446   0.240   9.785  4.0026 -1.0996 -2.6510
 9561SOL     OW40141   0.027   4.583   5.601  0.8693  0.1567  0.1402
 9561SOL    HW140142   4.671   4.600   5.657  0.5821  1.7341 -0.7214
 9561SOL    HW240143   0.086   4.535   5.659  2.0871  2.8871  1.1660
 9562SOL     OW40144   2.800   4.304   2.584 -0.0417 -0.2315 -0.1134
 9562SOL    HW140145   2.807   4.242   2.657  1.7632 -0.3950 -0.4205
 9562SOL    HW240146   2.718   4.275   2.544 -1.1936  0.6028  1.5859
 9563SOL     OW40147   0.181   0.070   5.157  1.1095 -0.0354 -0.4474
 9563SOL    HW140148   0.134   4.708   5.148 -0.4805  0.7889  0.2713
 9563SOL    HW240149   0.166   0.085   5.251  1.5538 -0.9176 -0.2434
 9564SOL     OW40150   0.020   4.080  15.993  0.6520  0.1595 -0.4282
 9564SOL    HW140151   4.705   4.167  16.009 -1.2127 -0.5916 -0.5223
 9564SOL    HW240152   0.087   4.065  16.060  0.0441  0.5957  0.2795
 9565SOL     OW40153   0.300   1.997  14.980 -0.0587 -0.4483 -0.2011
 9565SOL    HW140154   0.265   2.051  14.909  1.7110  0.1760 -0.5921
 9565SOL    HW240155   0.232   2.007  15.047 -0.9366  1.1143 -1.3413
   4.72031   4.72031  17.68386
