Membrane in water
40155
    1TCq1    O1    1   2.341   4.195  10.957 -0.0866 -0.4307 -0.2540
    1TCq1    C1    2   2.450   4.193  11.038  0.3985 -0.5477 -0.9273
    1TCq1    O2    3   2.506   4.296  11.076  0.2007  0.9965  0.6852
    1TCq1    C2    4   2.443   4.079  11.129 -0.0412  0.6253  0.2886
    1TCq1    C3    5   2.431   3.953  11.075  0.1450 -0.0636  0.0584
    1TCq1    C4    6   2.424   3.845  11.165  0.0133  0.2765  0.5800
    1TCq1    C5    7   2.421   3.870  11.304 -0.0736 -0.4944  0.7085
    1TCq1    C6    8   2.423   3.997  11.353  0.4208  0.2051  0.0056
    1TCq1    C7    9   2.438   4.101  11.263  0.0725 -0.3925 -0.7613
    1TCq1    C8   10   2.402   4.033  11.492  0.7416 -0.2898 -0.1593
    1TCq1    O4   11   2.386   4.155  11.516  0.6405  1.0667 -0.5588
    1TCq1    C9   12   2.414   3.706  11.124 -0.6330 -0.2418 -0.1597
    1TCq1    O5   13   2.398   3.691  10.994 -0.6068  0.4115 -0.3311
    1TCq1    O6   14   2.388   3.621  11.213  0.1302  0.3851  0.3161
    1TCq1    H1   15   2.290   4.112  10.954  2.1400 -1.8321  1.1525
    1TCq1    H2   16   2.441   3.933  10.969  1.1002 -0.7172  0.2755
    1TCq1    H3   17   2.429   3.783  11.370 -0.5067  0.1470  1.6000
    1TCq1    H4   18   2.449   4.201  11.304 -1.0568 -0.5740 -0.0120
    2MPD2     C   19   2.319   3.898  11.985  0.4241  0.1489 -0.2893
    2MPD2    C1   20   2.345   4.026  11.932 -0.2940 -0.5717 -0.5495
    2MPD2    C2   21   2.353   4.032  11.792 -0.0922  0.1830  0.3227
    2MPD2    C3   22   2.364   3.923  11.708 -0.7592  0.6911 -0.0717
    2MPD2    C4   23   2.347   3.802  11.763  0.4978  0.0923 -0.5365
    2MPD2    C5   24   2.320   3.789  11.899 -0.2439 -0.3624 -0.4098
    2MPD2     H   25   2.373   4.128  11.744  0.0677 -0.2100 -0.4017
    2MPD2    H1   26   2.339   3.714  11.701 -1.8889 -0.8922  1.1513
    2MPD2    H2   27   2.302   3.875  12.090 -2.2367 -1.2642 -1.0332
    2MPD2    H3   28   2.292   3.696  11.947 -2.3079 -0.2428 -1.3946
    2MPD2     N   29   2.390   3.927  11.572 -0.2355 -0.4087 -0.0942
    2MPD2    H5   30   2.394   3.835  11.528 -2.0985 -0.1520 -0.7823
    2MPD2    N1   31   2.359   4.148  12.001 -0.6950 -0.2136 -0.0979
    2MPD2    H7   32   2.325   4.229  11.951 -0.6731 -0.5740 -0.7022
    3TCq1    O1   33   1.474   0.837  10.315 -0.4532 -0.3722 -0.3121
    3TCq1    C1   34   1.396   0.945  10.343 -0.8470  0.4116 -0.7003
    3TCq1    O2   35   1.281   0.933  10.384  0.6026  0.3525  0.1293
    3TCq1    C2   36   1.483   1.049  10.397  0.2743  1.0526  0.3065
    3TCq1    C3   37   1.587   1.082  10.315 -0.5786  0.5923 -0.1424
    3TCq1    C4   38   1.678   1.174  10.373 -0.0842  0.1048  0.0887
    3TCq1    C5   39   1.670   1.224  10.500  0.7393  0.1152 -0.2276
    3TCq1    C6   40   1.568   1.171  10.580  0.0040  0.6946  0.0097
    3TCq1    C7   41   1.470   1.091  10.527  0.4456 -0.1097  0.5654
    3TCq1    C8   42   1.521   1.221  10.710  0.1588  0.1357  0.8478
    3TCq1    O4   43   1.460   1.135  10.777  0.2931  0.1254  0.0020
    3TCq1    C9   44   1.787   1.206  10.290 -0.3988 -1.0260 -1.0617
    3TCq1    O5   45   1.796   1.145  10.179 -0.0878 -0.1307 -0.4793
    3TCq1    O6   46   1.888   1.251  10.344 -0.1293  0.1682 -0.3482
    3TCq1    H1   47   1.567   0.855  10.288  0.0862 -0.8543  1.2586
    3TCq1    H2   48   1.598   1.051  10.212  0.0046  0.6255 -0.0911
    3TCq1    H3   49   1.724   1.313  10.532 -0.0403  1.5886 -3.0411
    3TCq1    H4   50   1.390   1.057  10.592 -0.7537 -0.3494 -1.0600
    4MPD2     C   51   1.396   1.573  11.062  0.2545 -0.9352 -0.4365
    4MPD2    C1   52   1.446   1.642  10.950  0.1800  0.3560 -0.9445
    4MPD2    C2   53   1.500   1.572  10.847 -0.3412 -0.1327  0.2526
    4MPD2    C3   54   1.508   1.428  10.850  0.0360  0.7458 -0.5949
    4MPD2    C4   55   1.467   1.362  10.968 -0.1267  1.0417 -0.9097
    4MPD2    C5   56   1.405   1.437  11.066 -0.2163 -0.1208 -0.0539
    4MPD2     H   57   1.521   1.630  10.758 -1.8955 -1.4114 -0.9556
    4MPD2    H1   58   1.478   1.255  10.979  4.3646  1.5743 -0.2714
    4MPD2    H2   59   1.353   1.628  11.146 -1.5124 -1.9653 -0.6637
    4MPD2    H3   60   1.367   1.385  11.153 -1.0137 -0.9181 -0.8876
    4MPD2     N   61   1.540   1.362  10.729 -1.0106 -0.0833 -0.2929
    4MPD2    H5   62   1.579   1.423  10.658  0.1037 -0.3677  0.0656
    4MPD2    N1   63   1.424   1.784  10.932 -0.5744 -0.2858  0.1266
    4MPD2    H7   64   1.449   1.811  10.838 -0.2555 -1.4905 -0.1325
    5TCq1    O1   65   2.646   2.920  11.847  0.5176 -0.2704 -0.2072
    5TCq1    C1   66   2.677   2.990  11.734  0.5416 -0.0424  0.3483
    5TCq1    O2   67   2.787   3.000  11.681  0.2727 -0.3687 -0.0957
    5TCq1    C2   68   2.562   2.981  11.650 -0.2141  0.3503  0.4593
    5TCq1    C3   69   2.442   2.991  11.711 -0.4959  0.0791 -0.7288
    5TCq1    C4   70   2.332   2.978  11.629  0.4383 -0.0401 -0.1320
    5TCq1    C5   71   2.337   2.944  11.495  0.1352  0.6527 -0.4255
    5TCq1    C6   72   2.463   2.913  11.449 -0.1345 -0.5550  0.2835
    5TCq1    C7   73   2.570   2.928  11.532 -0.3144  0.6945 -0.3115
    5TCq1    C8   74   2.486   2.830  11.336 -0.0817 -0.5808  0.5601
    5TCq1    O4   75   2.569   2.740  11.348 -0.3386  0.4693 -0.3406
    5TCq1    C9   76   2.197   3.014  11.676 -1.0298 -0.1453  0.5042
    5TCq1    O5   77   2.116   3.046  11.587 -0.0602  0.1845 -0.0147
    5TCq1    O6   78   2.166   2.992  11.796 -0.3443  0.4191 -0.4603
    5TCq1    H1   79   2.552   2.891  11.847  0.5776 -0.4603 -0.3154
    5TCq1    H2   80   2.444   3.042  11.807 -0.5789  2.7933 -2.1698
    5TCq1    H3   81   2.247   2.912  11.444  0.0939  0.9438 -0.5388
    5TCq1    H4   82   2.668   2.903  11.494 -0.9674 -2.3527  0.0077
    6MPD2     C   83   2.275   2.851  11.034 -0.1406  0.2581  0.2113
    6MPD2    C1   84   2.369   2.793  11.116 -0.5344  0.2116  0.0195
    6MPD2    C2   85   2.439   2.684  11.080 -0.3208  0.0830  0.5523
    6MPD2    C3   86   2.412   2.624  10.956  0.2658  0.0255  0.1978
    6MPD2    C4   87   2.323   2.684  10.870 -0.6778 -0.2431  0.0603
    6MPD2    C5   88   2.254   2.796  10.911 -0.3302  0.3935  1.0416
    6MPD2     H   89   2.508   2.643  11.153  1.5536  0.2670 -1.1434
    6MPD2    H1   90   2.311   2.646  10.770  1.3258  0.1655 -0.3354
    6MPD2    H2   91   2.224   2.937  11.074 -1.4273  0.6174 -2.2043
    6MPD2    H3   92   2.189   2.849  10.842 -0.6697  0.2029  1.2110
    6MPD2     N   93   2.480   2.502  10.922  0.6071  0.4292  0.2583
    6MPD2    H5   94   2.530   2.450  10.993  1.3189  1.3417  0.4400
    6MPD2    N1   95   2.391   2.859  11.240 -0.1907  0.5136  0.7247
    6MPD2    H7   96   2.348   2.949  11.261 -0.2016  0.6874 -0.0139
    7TCq1    O1   97   4.336   2.577  12.432  0.0444  0.0047 -0.3126
    7TCq1    C1   98   4.330   2.495  12.540  0.8682  0.0389 -0.4592
    7TCq1    O2   99   4.354   2.374  12.538 -0.0823  0.5372 -0.6108
    7TCq1    C2  100   4.308   2.583  12.660  0.6869 -0.4256 -0.3805
    7TCq1    C3  101   4.350   2.711  12.657  0.4766  0.1170 -0.6824
    7TCq1    C4  102   4.398   2.765  12.776 -0.2476 -0.1727  0.7724
    7TCq1    C5  103   4.408   2.689  12.888  0.2522 -0.3376 -0.1808
    7TCq1    C6  104   4.363   2.559  12.885  0.2008 -0.5421 -0.2853
    7TCq1    C7  105   4.306   2.504  12.768 -0.3127  0.6632  0.2541
    7TCq1    C8  106   4.358   2.473  13.003 -0.3439 -0.6778  0.4021
    7TCq1    O4  107   4.344   2.352  12.981 -0.4997  0.0361  0.2196
    7TCq1    C9  108   4.461   2.889  12.775  0.6014  0.1455  0.1258
    7TCq1    O5  109   4.527   2.910  12.668 -0.0685  0.6603 -0.0899
    7TCq1    O6  110   4.475   2.945  12.880  0.2013  0.0917  0.0684
    7TCq1    H1  111   4.272   2.651  12.431  0.2479  0.2441  4.1483
    7TCq1    H2  112   4.344   2.780  12.574 -2.6323  1.7264  0.8671
    7TCq1    H3  113   4.454   2.730  12.978 -1.5767  1.8135 -0.2267
    7TCq1    H4  114   4.265   2.405  12.753  2.5285 -0.0694 -2.7107
    8MPD2     C  115   4.532   2.368  13.472 -0.3787  0.2661  0.6319
    8MPD2    C1  116   4.519   2.289  13.359 -0.0856  0.1929  0.7217
    8MPD2    C2  117   4.462   2.341  13.246 -0.7718  0.3816 -0.0517
    8MPD2    C3  118   4.419   2.472  13.238  0.1553 -0.4058 -0.7650
    8MPD2    C4  119   4.423   2.544  13.356  0.0844  0.5587 -0.4811
    8MPD2    C5  120   4.476   2.493  13.470 -0.7797  0.2375  1.0258
    8MPD2     H  121   4.451   2.273  13.162 -3.0676  1.6787 -0.8317
    8MPD2    H1  122   4.391   2.648  13.354 -1.9556 -0.0853 -0.9876
    8MPD2    H2  123   4.579   2.335  13.564  0.3004 -2.1892 -0.5793
    8MPD2    H3  124   4.489   2.556  13.558 -2.2608  3.6633 -1.2118
    8MPD2     N  125   4.390   2.536  13.117 -0.0217 -0.0313  0.3640
    8MPD2    H5  126   4.387   2.638  13.116 -0.6822 -0.0659 -1.4054
    8MPD2    N1  127   4.548   2.153  13.379  0.2248 -0.1255 -0.5805
    8MPD2    H7  128   4.573   2.129  13.475 -1.8915  2.2057  0.5465
    9TCq1    O1  129   1.553   0.650  10.700  0.5662  0.2611  0.3386
    9TCq1    C1  130   1.633   0.737  10.768 -0.1266 -0.3046  0.0210
    9TCq1    O2  131   1.624   0.766  10.885  0.3849 -0.0916  0.2066
    9TCq1    C2  132   1.758   0.757  10.692  0.7682  0.6237  0.0809
    9TCq1    C3  133   1.750   0.779  10.556 -0.1446  0.6835 -0.3567
    9TCq1    C4  134   1.858   0.831  10.487 -0.4246  0.3446  0.4951
    9TCq1    C5  135   1.973   0.853  10.552 -0.7116 -0.3263 -0.2209
    9TCq1    C6  136   1.988   0.832  10.688  0.5047  0.4128 -0.3286
    9TCq1    C7  137   1.878   0.777  10.759  0.2671 -0.0984 -0.2786
    9TCq1    C8  138   2.126   0.807  10.742 -0.0105  0.4365  0.2997
    9TCq1    O4  139   2.213   0.792  10.654 -0.1112 -0.0908 -0.0897
    9TCq1    C9  140   1.848   0.856  10.347 -0.0061 -0.3950  0.2338
    9TCq1    O5  141   1.738   0.827  10.292 -0.3707  0.0600 -0.4277
    9TCq1    O6  142   1.945   0.908  10.282  0.0510 -0.7601  0.2097
    9TCq1    H1  143   1.593   0.611  10.620 -1.0447  0.0909 -0.3961
    9TCq1    H2  144   1.656   0.754  10.508 -1.0759  2.8035  0.3646
    9TCq1    H3  145   2.053   0.904  10.501 -2.9793  1.5768 -1.8909
    9TCq1    H4  146   1.881   0.767  10.867  0.7163 -0.7470 -0.3505
   10MPD2     C  147   2.368   0.758  10.902  0.2845 -0.1894 -0.0237
   10MPD2    C1  148   2.242   0.782  10.957 -0.7967  0.2990  0.2296
   10MPD2    C2  149   2.227   0.783  11.099  0.5685 -1.0520 -0.1043
   10MPD2    C3  150   2.332   0.747  11.178 -0.6077  0.3498  0.7270
   10MPD2    C4  151   2.456   0.723  11.119  0.5987 -0.2252 -0.6955
   10MPD2    C5  152   2.469   0.732  10.982  0.5779  0.0896 -0.8830
   10MPD2     H  153   2.133   0.803  11.148  0.6861  1.5999 -0.9534
   10MPD2    H1  154   2.529   0.687  11.190 -0.0875  0.4432  0.3388
   10MPD2    H2  155   2.382   0.755  10.795 -0.7489  0.7191 -0.1835
   10MPD2    H3  156   2.567   0.707  10.943 -0.2503 -0.6003 -2.4936
   10MPD2     N  157   2.315   0.732  11.320  0.9715 -0.4835  0.5008
   10MPD2    H5  158   2.397   0.704  11.372 -0.1393 -1.7047  1.5662
   10MPD2    N1  159   2.130   0.809  10.877 -0.0698  0.3404 -0.1376
   10MPD2    H7  160   2.047   0.828  10.932 -0.3478 -1.1122 -0.0461
   11TCq1    O1  161   2.995   1.130  14.632  0.0893  0.2990 -0.3684
   11TCq1    C1  162   2.871   1.164  14.589 -0.1771 -0.7376 -0.4333
   11TCq1    O2  163   2.770   1.170  14.654 -0.2813 -0.0837  0.3616
   11TCq1    C2  164   2.879   1.102  14.459  0.5220 -0.1136  0.0409
   11TCq1    C3  165   2.967   1.141  14.364  0.6953 -0.3544 -0.2010
   11TCq1    C4  166   2.993   1.060  14.257  0.0470 -0.4762  0.4615
   11TCq1    C5  167   2.914   0.948  14.234 -0.6430  0.0897  0.1058
   11TCq1    C6  168   2.812   0.923  14.331 -0.5406 -0.3941  0.1339
   11TCq1    C7  169   2.799   0.992  14.445  0.1958 -0.1135  0.6891
   11TCq1    C8  170   2.699   0.837  14.301 -0.3418  0.1247 -1.0271
   11TCq1    O4  171   2.611   0.814  14.387 -0.1642  0.0783 -0.0044
   11TCq1    C9  172   3.087   1.091  14.151 -0.5458 -0.6672 -0.6370
   11TCq1    O5  173   3.124   1.007  14.068 -0.3930  0.3261  0.2877
   11TCq1    O6  174   3.156   1.193  14.165  0.1478 -0.2295  0.0102
   11TCq1    H1  175   3.050   1.086  14.564  0.4262 -0.6747  0.5311
   11TCq1    H2  176   3.028   1.229  14.383 -2.2864  1.6398  0.1283
   11TCq1    H3  177   2.918   0.905  14.135 -0.4359  1.2914 -0.4116
   11TCq1    H4  178   2.722   0.961  14.516 -1.7496 -1.2852 -1.9285
   12MPD2     C  179   2.487   0.762  14.129  0.1491 -0.4455  0.6189
   12MPD2    C1  180   2.618   0.717  14.108  0.1862 -0.1063  0.6361
   12MPD2    C2  181   2.650   0.638  13.992  0.0079  0.1809 -0.0983
   12MPD2    C3  182   2.545   0.610  13.904 -0.0245 -0.3751  0.1281
   12MPD2    C4  183   2.413   0.652  13.927 -0.3720  0.3225  0.2683
   12MPD2    C5  184   2.387   0.723  14.043 -0.5664 -0.3990 -0.1988
   12MPD2     H  185   2.752   0.609  13.968  0.4605  1.5366  0.1722
   12MPD2    H1  186   2.327   0.611  13.874  0.0195 -0.1926  0.0259
   12MPD2    H2  187   2.461   0.816  14.219  0.5314  0.6386  0.0801
   12MPD2    H3  188   2.283   0.748  14.065 -1.0089 -1.3538 -1.2173
   12MPD2     N  189   2.563   0.518  13.805 -0.3810 -0.4542 -0.2825
   12MPD2    H5  190   2.487   0.529  13.738 -0.1157 -1.5370 -0.7567
   12MPD2    N1  191   2.719   0.773  14.179 -0.2052  0.5561 -0.2385
   12MPD2    H7  192   2.814   0.756  14.146 -0.0604  0.9944 -0.0605
   13TCq1    O1  193   2.557   0.376  10.741  0.2375 -0.1338  0.3785
   13TCq1    C1  194   2.521   0.493  10.672 -0.2388  0.2796 -0.0972
   13TCq1    O2  195   2.603   0.575  10.629 -0.4663  1.1877 -0.4995
   13TCq1    C2  196   2.392   0.470  10.614  0.1316  0.5033  0.6923
   13TCq1    C3  197   2.367   0.539  10.496 -0.6390 -1.3367 -0.3861
   13TCq1    C4  198   2.235   0.564  10.458  0.2103  0.5706 -0.1836
   13TCq1    C5  199   2.132   0.531  10.541  0.9046 -0.7709  0.2395
   13TCq1    C6  200   2.161   0.470  10.664  0.2986  0.8947  0.1089
   13TCq1    C7  201   2.289   0.441  10.701  0.1848  0.5623 -0.0869
   13TCq1    C8  202   2.052   0.452  10.764  0.5587  0.3091  0.1392
   13TCq1    O4  203   2.074   0.451  10.882  0.3277  0.1147 -0.3847
   13TCq1    C9  204   2.206   0.653  10.348 -0.4807 -0.8035 -0.2110
   13TCq1    O5  205   2.304   0.716  10.298 -0.0264 -0.0757 -0.2098
   13TCq1    O6  206   2.092   0.655  10.304  0.1731 -0.0310 -0.8228
   13TCq1    H1  207   2.498   0.298  10.743 -1.6494  1.1420 -4.7422
   13TCq1    H2  208   2.449   0.551  10.427  1.1007  0.6087  2.0443
   13TCq1    H3  209   2.034   0.571  10.519  2.0151  1.2640 -1.0401
   13TCq1    H4  210   2.317   0.377  10.784 -0.3654  1.0796  0.4931
   14MPD2     C  211   1.718   0.341  10.712 -0.2354 -0.4177 -0.3113
   14MPD2    C1  212   1.815   0.403  10.778  0.1299  0.3983  0.2089
   14MPD2    C2  213   1.792   0.455  10.905 -0.2026  0.4103 -0.0787
   14MPD2    C3  214   1.666   0.451  10.966 -0.1628  0.2949 -0.0828
   14MPD2    C4  215   1.564   0.390  10.892 -0.5551 -0.1415 -0.9725
   14MPD2    C5  216   1.594   0.330  10.778 -0.2011 -0.4220  0.4329
   14MPD2     H  217   1.869   0.511  10.956  0.3274 -0.1646 -0.2377
   14MPD2    H1  218   1.463   0.392  10.932 -0.8037  0.6044 -1.6354
   14MPD2    H2  219   1.721   0.295  10.614 -0.4771 -1.8204  0.3417
   14MPD2    H3  220   1.521   0.271  10.723 -0.7139 -0.3298  1.0134
   14MPD2     N  221   1.639   0.515  11.085 -0.3634  0.0355  0.3157
   14MPD2    H5  222   1.711   0.581  11.112  0.6322 -0.7565 -0.3852
   14MPD2    N1  223   1.932   0.422  10.709 -0.6938 -0.1652  0.1722
   14MPD2    H7  224   1.927   0.383  10.615 -1.9559 -1.5946  0.8446
   15TCq1    O1  225   2.887   0.344   1.509 -0.0325 -0.1857 -0.0550
   15TCq1    C1  226   2.952   0.273   1.410  0.5673  0.6700 -0.0516
   15TCq1    O2  227   3.060   0.295   1.359  0.1640  0.4821 -0.3375
   15TCq1    C2  228   2.871   0.152   1.396 -0.5785  0.2411  0.4934
   15TCq1    C3  229   2.739   0.152   1.409 -0.0781 -0.1445  0.0554
   15TCq1    C4  230   2.676   0.034   1.371  0.0135  0.4615 -0.1561
   15TCq1    C5  231   2.744   4.642   1.330  0.6117 -0.6902  0.0853
   15TCq1    C6  232   2.877   4.653   1.315 -0.1515  0.0160 -0.1788
   15TCq1    C7  233   2.941   0.049   1.342  0.2640 -0.6814 -0.6966
   15TCq1    C8  234   2.955   4.547   1.262 -0.1130 -0.3243 -0.5319
   15TCq1    O4  235   3.077   4.561   1.254 -1.1512  0.2543 -0.0901
   15TCq1    C9  236   2.532   0.029   1.369  0.7873  0.0920 -0.0716
   15TCq1    O5  237   2.488   4.636   1.334  0.0234  0.2140 -0.4956
   15TCq1    O6  238   2.478   0.117   1.437 -0.1865  0.2360 -0.2134
   15TCq1    H1  239   2.828   0.284   1.561 -1.4748  1.1633 -0.1357
   15TCq1    H2  240   2.679   0.238   1.435 -0.3482  0.1860 -1.6747
   15TCq1    H3  241   2.689   4.550   1.315  1.1995 -1.0230 -0.0354
   15TCq1    H4  242   3.048   0.058   1.324  0.5951  2.0965  2.5952
   16MPD2     C  243   2.855   4.244   1.099 -0.0087 -0.0217 -0.0007
   16MPD2    C1  244   2.937   4.332   1.157  0.7092  0.2826 -0.4901
   16MPD2    C2  245   3.072   4.290   1.162  0.7056 -0.3143 -0.1947
   16MPD2    C3  246   3.113   4.168   1.108  0.0832  0.4095  0.1420
   16MPD2    C4  247   3.025   4.081   1.056  0.6717  0.2101 -0.2793
   16MPD2    C5  248   2.899   4.123   1.050 -0.1232 -0.3719  0.9484
   16MPD2     H  249   3.147   4.348   1.214  0.8104  0.1259 -0.8334
   16MPD2    H1  250   3.050   3.982   1.021 -0.6583  0.1046 -0.9434
   16MPD2    H2  251   2.752   4.278   1.090 -0.1685  0.5892  4.1491
   16MPD2    H3  252   2.822   4.068   0.996  0.5152 -0.1073 -0.2479
   16MPD2     N  253   3.253   4.148   1.120 -0.3659 -0.2082 -0.3348
   16MPD2    H5  254   3.308   4.225   1.157  2.2807 -1.5956 -1.3925
   16MPD2    N1  255   2.880   4.439   1.223 -0.1118  0.0323  0.3632
   16MPD2    H7  256   2.778   4.441   1.220  0.0006  1.3037 -2.8089
   17TCq1    O1  257   1.519   4.710  10.981 -0.1613  0.0799  0.4075
   17TCq1    C1  258   1.444   4.649  10.891  0.1686  0.1433 -0.1559
   17TCq1    O2  259   1.323   4.647  10.902 -0.1506  0.5354 -0.5516
   17TCq1    C2  260   1.524   4.652  10.766  0.4186  0.9879  0.9441
   17TCq1    C3  261   1.464   4.668  10.645  0.2247 -0.2889 -0.7061
   17TCq1    C4  262   1.539   4.651  10.531  0.4665 -0.2375  0.5517
   17TCq1    C5  263   1.663   4.597  10.538 -0.3216 -0.6362  0.7402
   17TCq1    C6  264   1.715   4.566  10.665  0.3342  0.8844  0.0369
   17TCq1    C7  265   1.643   4.591  10.779 -0.3439  0.1018 -0.2464
   17TCq1    C8  266   1.811   4.455  10.686  0.6587 -0.6033  0.6928
   17TCq1    O4  267   1.775   4.381  10.775  0.1951  0.1777 -0.0476
   17TCq1    C9  268   1.480   4.704  10.410 -0.3841 -0.9969  0.1302
   17TCq1    O5  269   1.365   0.039  10.411 -0.4228 -0.3645  0.0564
   17TCq1    O6  270   1.554   4.691  10.309 -0.5171 -0.1897 -0.0058
   17TCq1    H1  271   1.608   0.005  10.943  1.3306 -1.3307  3.3003
   17TCq1    H2  272   1.360   4.699  10.644  0.2631 -0.1556 -0.4059
   17TCq1    H3  273   1.722   4.575  10.450  2.8708  0.0998  2.7071
   17TCq1    H4  274   1.682   4.563  10.876 -0.9161 -1.7014 -0.5461
   18MPD2     C  275   2.016   4.247  10.681  0.7135  0.2148 -0.4780
   18MPD2    C1  276   2.014   4.358  10.599 -0.5190 -0.4381  0.2753
   18MPD2    C2  277   2.122   4.373  10.504 -0.6707 -0.8738  0.5391
   18MPD2    C3  278   2.241   4.298  10.514 -0.6540 -0.3864  0.0899
   18MPD2    C4  279   2.243   4.197  10.609  0.1833  0.9897 -0.3750
   18MPD2    C5  280   2.127   4.168  10.677 -0.4715  0.6933  0.6132
   18MPD2     H  281   2.118   4.456  10.435  0.8980 -1.5854 -0.4001
   18MPD2    H1  282   2.332   4.137  10.628 -1.0647 -0.5786  0.5444
   18MPD2    H2  283   1.940   4.219  10.753  0.1946  1.0036 -0.7201
   18MPD2    H3  284   2.130   4.078  10.738  0.0381  1.1236  1.2272
   18MPD2     N  285   2.355   4.336  10.443 -0.0507 -0.5646  0.1815
   18MPD2    H5  286   2.435   4.279  10.467  0.9716  0.1463 -1.5752
   18MPD2    N1  287   1.906   4.441  10.589 -0.4398  0.3871  0.1729
   18MPD2    H7  288   1.913   4.518  10.523 -0.8110  0.4495  0.2045
   19TMC2    C1  289   3.600   0.465  13.933 -0.1171  0.1378 -0.1781
   19TMC2    C2  290   3.540   0.535  13.831 -0.4842  0.1491  0.4041
   19TMC2    C3  291   3.409   0.519  13.799  0.2199 -0.3530  0.5130
   19TMC2    C4  292   3.516   0.371  13.998  0.6350  0.1479  0.2894
   19TMC2    C5  293   3.389   0.346  13.958 -0.8497 -0.2124 -0.2160
   19TMC2    C6  294   3.336   0.415  13.855  0.0089 -0.1759  0.3234
   19TMC2     C  295   3.703   0.537  14.000 -0.1138 -0.1778 -0.5415
   19TMC2     O  296   3.733   0.649  13.958 -0.3799  0.2439 -1.0076
   19TMC2     H  297   3.596   0.615  13.785 -1.0638  0.7088  0.6733
   19TMC2    H1  298   3.567   0.321  14.079 -0.8308 -1.8408 -0.0354
   19TMC2    H2  299   3.239   0.390  13.813 -0.0612 -2.8686  2.0584
   19TMC2    C7  300   3.331   0.216  13.982  0.0153 -0.8728 -0.0611
   19TMC2    C8  301   3.341   0.573  13.678  0.3361 -0.4177 -0.0525
   19TMC2    O1  302   3.407   0.119  13.991  0.1167  0.2500  0.0739
   19TMC2    O2  303   3.257   0.521  13.611  0.0185 -0.0984  0.7887
   19TMC2    O5  304   3.386   0.700  13.664  0.6868  0.0672 -0.1891
   19TMC2    H5  305   3.432   0.733  13.745 -0.6779  1.0685  0.1803
   20MPD2     C  306   3.956   0.615  14.128  0.3885 -0.0874  0.7543
   20MPD2    C1  307   3.883   0.500  14.159 -0.0934  0.3511 -0.2454
   20MPD2    C2  308   3.934   0.429  14.264  0.4584 -0.1221 -0.1001
   20MPD2    C3  309   4.044   0.466  14.343  0.1431 -0.2973 -0.0577
   20MPD2    C4  310   4.109   0.584  14.309 -0.8655 -0.7941 -0.2271
   20MPD2    C5  311   4.060   0.653  14.205 -0.3851  0.1303  0.2073
   20MPD2     H  312   3.871   0.350  14.303  0.3767  0.6747  1.3972
   20MPD2    H1  313   4.190   0.623  14.369 -0.8322 -0.3315 -0.5797
   20MPD2    H2  314   3.926   0.685  14.051 -0.7487 -1.4003  0.0143
   20MPD2    H3  315   4.111   0.746  14.184  1.0988 -1.4930 -3.2844
   20MPD2     N  316   4.096   0.397  14.457  0.1546  0.2368 -0.0724
   20MPD2    H5  317   4.164   0.440  14.519 -1.5003  1.0990  1.1615
   20MPD2    N1  318   3.768   0.463  14.092 -0.1370 -0.5199  0.1566
   20MPD2    H7  319   3.738   0.367  14.107  1.7978 -1.4038 -1.6408
   21MPD2     C  320   1.291   1.182  13.951 -0.4953  0.1574 -0.2432
   21MPD2    C1  321   1.319   1.057  13.997 -0.5954  0.3027  0.1284
   21MPD2    C2  322   1.252   1.007  14.107  0.3621  0.8014 -0.1568
   21MPD2    C3  323   1.158   1.088  14.170  0.1261  0.6364  0.1997
   21MPD2    C4  324   1.119   1.207  14.116  0.3494  0.6904  0.9784
   21MPD2    C5  325   1.182   1.251  14.002  0.5637  0.1072  0.4714
   21MPD2     H  326   1.268   0.908  14.148  1.9685  0.7137 -1.0078
   21MPD2    H1  327   1.039   1.268  14.154  0.1517  1.7458 -1.1171
   21MPD2    H2  328   1.343   1.233  13.870  0.2795  1.7520  1.2649
   21MPD2    H3  329   1.137   1.338  13.956 -0.4470 -2.0046 -2.5957
   21MPD2     N  330   1.077   1.041  14.275 -0.1899  0.5794 -0.1879
   21MPD2    H5  331   1.000   1.095  14.314 -0.7620  0.3814 -1.0353
   21MPD2    N1  332   1.409   0.966  13.939 -1.0603  0.4062  0.4461
   21MPD2    H7  333   1.420   0.872  13.976 -4.1185 -0.2745 -0.3726
   22TCq2    C1  334   1.090   0.925  14.338 -0.1519  0.4331  0.2706
   22TCq2    O2  335   1.153   0.822  14.316  0.1412  0.8113  0.2109
   22TCq2    C2  336   1.000   0.916  14.450 -0.4245  0.9107  0.0892
   22TCq2    C3  337   0.965   0.796  14.500  0.0686  0.6856  0.2396
   22TCq2    C4  338   0.908   0.795  14.627 -0.0402 -0.7374 -0.8983
   22TCq2    C5  339   0.892   0.899  14.704 -0.3569  0.0660  0.0150
   22TCq2    C6  340   0.934   1.016  14.649 -0.4177  0.0963  0.2466
   22TCq2    C7  341   0.989   1.027  14.525  0.3850  0.1892 -0.2599
   22TCq2    C8  342   0.866   1.134  14.704 -0.2497  0.0939 -0.3098
   22TCq2    O4  343   0.880   1.148  14.824 -0.4192 -0.4936  0.2475
   22TCq2    C9  344   0.866   0.671  14.684 -0.2091  0.8431  0.5529
   22TCq2    O5  345   0.908   0.568  14.624 -0.2655  0.1467 -0.6720
   22TCq2    O6  346   0.857   0.675  14.809  0.1138 -0.1392 -0.3636
   22TCq2    H2  347   0.970   0.700  14.449  0.3216 -0.2968  2.0976
   22TCq2    H3  348   0.840   0.888  14.798  0.2069  0.7191  0.4047
   22TCq2    H4  349   1.040   1.118  14.495 -0.2906  1.0616  1.2401
   23MPD2     C  350   2.283   2.098  14.805  0.0869  0.3537 -0.2509
   23MPD2    C1  351   2.383   2.026  14.748 -0.3817 -0.6801  0.3620
   23MPD2    C2  352   2.372   2.000  14.613  0.6327  0.3029 -0.1269
   23MPD2    C3  353   2.263   2.047  14.536  0.2045 -0.3741  0.2601
   23MPD2    C4  354   2.158   2.112  14.599 -0.4329 -0.2980 -0.0986
   23MPD2    C5  355   2.172   2.144  14.733  0.1974 -0.1477  0.6897
   23MPD2     H  356   2.456   1.950  14.567  0.4969  0.4311 -0.5140
   23MPD2    H1  357   2.066   2.135  14.546  0.2631 -1.9250 -2.0165
   23MPD2    H2  358   2.287   2.129  14.909  1.9201 -1.0658  0.0959
   23MPD2    H3  359   2.087   2.195  14.777  0.4223  1.7897 -1.1010
   23MPD2     N  360   2.245   2.018  14.403  0.6735 -0.2078  0.1259
   23MPD2    H5  361   2.149   2.028  14.372 -0.1403 -1.0501  2.3744
   23MPD2    N1  362   2.484   1.987  14.842  0.2250 -0.2040  0.0502
   23MPD2    H7  363   2.464   2.015  14.937  3.4189 -0.8688  0.8869
   24TCq2    C1  364   2.345   1.986  14.313 -0.1199 -0.6946  0.6968
   24TCq2    O2  365   2.459   2.022  14.329  0.3272 -0.3741 -0.2438
   24TCq2    C2  366   2.294   1.938  14.180 -0.7391 -0.3428 -0.3325
   24TCq2    C3  367   2.383   1.934  14.074  0.7857 -0.2534 -0.5267
   24TCq2    C4  368   2.360   1.844  13.974  1.0848 -0.4489 -0.7168
   24TCq2    C5  369   2.257   1.758  13.980 -0.7223  0.5745  0.0543
   24TCq2    C6  370   2.167   1.768  14.087  0.0634  0.1996  0.5076
   24TCq2    C7  371   2.185   1.857  14.190  0.1517  0.4540 -0.2424
   24TCq2    C8  372   2.052   1.679  14.088  0.3535 -0.5455  1.1006
   24TCq2    O4  373   2.046   1.603  13.991  0.3376 -0.0240 -0.2147
   24TCq2    C9  374   2.444   1.831  13.860  0.9652 -0.1286  0.3822
   24TCq2    O5  375   2.517   1.934  13.839  0.1372 -0.0391 -0.5264
   24TCq2    O6  376   2.428   1.731  13.780  0.3147  0.0665 -0.4007
   24TCq2    H2  377   2.469   2.000  14.084 -0.5668  1.0447  2.7295
   24TCq2    H3  378   2.256   1.676  13.909  0.8250  0.9646 -0.4144
   24TCq2    H4  379   2.121   1.856  14.277  1.2995 -0.9080  0.5940
   25TMC2    C1  380   1.983   4.121  11.131 -0.4938  0.0470  0.3052
   25TMC2    C2  381   2.071   4.213  11.176  0.0396  0.2888  0.6679
   25TMC2    C3  382   2.028   4.299  11.272 -0.4165 -0.4108  0.3506
   25TMC2    C4  383   1.861   4.096  11.176  0.9712 -0.7022  0.0924
   25TMC2    C5  384   1.820   4.179  11.279  0.6355  0.5123 -0.0918
   25TMC2    C6  385   1.903   4.284  11.324  1.1215  0.8129 -0.3769
   25TMC2     C  386   2.026   4.031  11.026 -0.2309  0.4186 -0.3801
   25TMC2     O  387   2.145   4.037  10.993 -0.0164 -0.4569 -0.1159
   25TMC2     H  388   2.173   4.205  11.140  0.2981  2.4691  0.9226
   25TMC2    H1  389   1.811   4.001  11.163 -0.6079 -0.3370  3.3470
   25TMC2    H2  390   1.873   4.339  11.413  0.7528  0.9046 -0.5590
   25TMC2    C7  391   1.733   4.132  11.388 -0.0362 -0.0065 -0.1589
   25TMC2    C8  392   2.125   4.396  11.327 -0.5153 -0.0612 -0.1330
   25TMC2    O1  393   1.765   4.167  11.500  0.1492 -0.6672 -0.1038
   25TMC2    O2  394   2.243   4.365  11.345  0.3617  0.0952 -0.0524
   25TMC2    O5  395   2.061   4.482  11.403 -0.0677  0.4242 -0.2635
   25TMC2    H5  396   1.964   4.488  11.395  0.1052  1.3809 -1.5480
   26MPD2     C  397   1.936   3.718  10.628 -0.2539  0.2014 -0.1187
   26MPD2    C1  398   1.815   3.737  10.686 -0.5807 -0.1829  0.5073
   26MPD2    C2  399   1.810   3.831  10.793  0.2098  0.6875  0.0575
   26MPD2    C3  400   1.927   3.895  10.846  0.0130  0.8400  0.0085
   26MPD2    C4  401   2.043   3.856  10.790  0.4236 -0.4326 -0.0022
   26MPD2    C5  402   2.050   3.769  10.687  0.0146  0.5309  0.5017
   26MPD2     H  403   1.715   3.857  10.837 -0.2152 -1.3162  0.3174
   26MPD2    H1  404   2.139   3.886  10.831  0.0262  0.1915  0.4760
   26MPD2    H2  405   1.947   3.665  10.534 -2.1187 -1.2957  0.5086
   26MPD2    H3  406   2.142   3.747  10.634 -1.3991 -0.5677 -1.5185
   26MPD2     N  407   1.915   3.975  10.958  0.6278  0.1352 -0.4619
   26MPD2    H5  408   1.825   3.989  11.003  0.4114 -2.3415 -0.0942
   26MPD2    N1  409   1.700   3.679  10.627  0.0604  0.2521  0.3962
   26MPD2    H7  410   1.708   3.624  10.541 -1.5805  1.0384 -0.2454
   27TMC2    C1  411   0.144   1.743  11.512  0.5505 -0.1338  0.2480
   27TMC2    C2  412   0.078   1.797  11.408 -0.0243 -0.4710 -0.0984
   27TMC2    C3  413   0.063   1.936  11.400  0.6626 -0.8244  0.0755
   27TMC2    C4  414   0.201   1.824  11.607 -0.6532  0.0099  0.1928
   27TMC2    C5  415   0.176   1.959  11.598  0.4008  0.2449 -0.6220
   27TMC2    C6  416   0.108   2.017  11.499  0.2460  0.2876 -0.1648
   27TMC2     C  417   0.099   1.608  11.557 -0.7306 -0.3926  0.7249
   27TMC2     O  418   0.032   1.545  11.478  0.3407 -0.1593  0.0076
   27TMC2     H  419   0.007   1.741  11.349  0.3188 -0.4250 -0.5504
   27TMC2    H1  420   0.266   1.784  11.684  2.1228  0.4497 -1.9070
   27TMC2    H2  421   0.110   2.124  11.485  0.1186  0.2199 -0.6914
   27TMC2    C7  422   0.243   2.033  11.702 -0.4541 -0.0356 -0.3418
   27TMC2    C8  423   4.697   1.989  11.300  0.3974  0.4194 -0.5147
   27TMC2    O1  424   0.344   1.991  11.756  0.5511 -0.8286  0.1734
   27TMC2    O2  425   4.646   2.098  11.307  0.2445  0.2798 -0.7421
   27TMC2    O5  426   0.021   1.937  11.185  0.1499  0.6118  0.0282
   27TMC2    H5  427   0.084   1.862  11.191 -0.7618 -0.0584  1.0899
   28MPD2     C  428   4.720   1.263  11.924  0.0431  0.8299  0.5124
   28MPD2    C1  429   0.051   1.375  11.987  0.2736  0.0830 -0.4635
   28MPD2    C2  430   0.085   1.480  11.905 -0.1931 -0.7436  0.4899
   28MPD2    C3  431   0.065   1.480  11.769 -0.3971  0.3827 -0.1414
   28MPD2    C4  432   0.018   1.367  11.711  0.6790  0.4456 -0.1367
   28MPD2    C5  433   4.696   1.265  11.790  0.2487 -0.1078 -0.7749
   28MPD2     H  434   0.138   1.568  11.941 -0.8468 -0.2975  0.3694
   28MPD2    H1  435   0.034   1.340  11.607 -2.0483 -0.2315 -0.3983
   28MPD2    H2  436   4.689   1.177  11.983 -0.0629  0.3748 -0.2061
   28MPD2    H3  437   4.652   1.178  11.743 -0.1760  0.2783 -1.1023
   28MPD2     N  438   0.109   1.592  11.695  0.1902 -0.4096  0.5600
   28MPD2    H5  439   0.146   1.671  11.746 -0.8943 -0.0645  0.8148
   28MPD2    N1  440   0.069   1.367  12.126  0.3279 -0.0906 -0.2125
   28MPD2    H7  441   0.032   1.290  12.180 -0.9644  0.4810 -0.2910
   29MPD2     C  442   4.092   3.601  14.265  0.3304 -0.3254  0.3217
   29MPD2    C1  443   4.172   3.596  14.377  0.0739 -0.0487 -0.5798
   29MPD2    C2  444   4.195   3.707  14.452  0.3855  0.0716 -0.1273
   29MPD2    C3  445   4.153   3.825  14.410  0.2599  0.4419  0.4546
   29MPD2    C4  446   4.078   3.835  14.297  0.4338  0.6082 -0.0210
   29MPD2    C5  447   4.047   3.724  14.230 -0.2493 -0.5655 -0.3005
   29MPD2     H  448   4.231   3.686  14.552  1.5581 -1.1103 -0.8085
   29MPD2    H1  449   4.033   3.930  14.270 -1.2411 -0.1664  0.0948
   29MPD2    H2  450   4.078   3.520  14.194 -0.9769  0.1231  0.0769
   29MPD2    H3  451   3.970   3.732  14.154  2.7177 -1.2937 -3.3574
   29MPD2     N  452   4.170   3.945  14.485 -0.2208 -0.0059  0.2503
   29MPD2    H5  453   4.153   4.035  14.442  0.2416 -0.0672 -0.0624
   29MPD2    N1  454   4.227   3.474  14.416  0.1849 -0.5707 -0.2560
   29MPD2    H7  455   4.298   3.483  14.488  0.5551 -0.2398 -0.6646
   30TCq2    C1  456   4.213   3.945  14.618 -0.2218 -0.3485 -0.7967
   30TCq2    O2  457   4.208   3.858  14.707  0.3066  0.0639 -0.3924
   30TCq2    C2  458   4.276   4.072  14.657 -0.1956 -0.0215 -0.0223
   30TCq2    C3  459   4.308   4.078  14.793 -0.3728 -0.1694  0.0785
   30TCq2    C4  460   4.381   4.188  14.850 -0.4784 -0.2977  0.8722
   30TCq2    C5  461   4.433   4.280  14.759 -0.4667  0.0013 -0.1390
   30TCq2    C6  462   4.409   4.265  14.623  0.0986  0.0717  0.3038
   30TCq2    C7  463   4.326   4.166  14.570 -1.0033  0.5017  0.7840
   30TCq2    C8  464   4.470   4.350  14.524  0.5547 -0.4327  0.2323
   30TCq2    O4  465   4.451   4.319  14.405 -0.0961  0.1785 -0.5736
   30TCq2    C9  466   4.417   4.197  14.991  0.5314  0.1508 -0.6110
   30TCq2    O5  467   4.370   4.117  15.077  0.3686  0.3898  0.2321
   30TCq2    O6  468   4.496   4.286  15.020 -0.1601 -0.1461 -0.6551
   30TCq2    H2  469   4.282   4.001  14.865  0.0119  1.7350  2.2254
   30TCq2    H3  470   4.505   4.352  14.795  0.8996 -1.1203 -0.6031
   30TCq2    H4  471   4.291   4.168  14.467 -0.9416 -2.2425  0.7250
   31MPD2     C  472   2.386   2.798  14.918 -0.9146  0.2850 -0.3725
   31MPD2    C1  473   2.257   2.828  14.887 -0.2578 -0.7560  0.4182
   31MPD2    C2  474   2.159   2.836  14.985  0.7128 -0.5766 -0.0984
   31MPD2    C3  475   2.199   2.803  15.119 -0.2464 -0.4776  0.2982
   31MPD2    C4  476   2.331   2.780  15.151  0.1627  0.4200  0.6593
   31MPD2    C5  477   2.421   2.780  15.052 -0.7363 -0.4987 -0.6948
   31MPD2     H  478   2.052   2.839  14.967  0.3779 -1.7146  1.6976
   31MPD2    H1  479   2.371   2.783  15.252  0.3486 -4.3468  0.7299
   31MPD2    H2  480   2.464   2.788  14.843  0.8830  1.1134  1.3823
   31MPD2    H3  481   2.525   2.775  15.085 -0.4524 -1.5972 -1.7519
   31MPD2     N  482   2.106   2.797  15.222  0.6159  0.1126  0.2299
   31MPD2    H5  483   2.140   2.779  15.316  0.9842  0.9325  0.2540
   31MPD2    N1  484   2.231   2.849  14.745 -0.0764  0.4553  0.1937
   31MPD2    H7  485   2.310   2.840  14.681 -0.2624  2.5134 -0.3406
   32TCq2    C1  486   1.972   2.841  15.218  0.7250  0.1723 -0.5621
   32TCq2    O2  487   1.915   2.906  15.131  0.0168  0.0576  0.2306
   32TCq2    C2  488   1.907   2.820  15.348 -0.4933  1.0759  0.0862
   32TCq2    C3  489   1.774   2.850  15.353 -0.6736  0.5379  0.2068
   32TCq2    C4  490   1.697   2.797  15.458  0.5325 -0.4211 -0.2499
   32TCq2    C5  491   1.755   2.733  15.559 -0.3175  0.0626 -0.1076
   32TCq2    C6  492   1.887   2.705  15.559 -0.0073  0.6249 -1.0098
   32TCq2    C7  493   1.970   2.743  15.453 -0.3532 -0.3696  0.0517
   32TCq2    C8  494   1.958   2.650  15.674 -0.2483 -0.5407 -0.2949
   32TCq2    O4  495   2.071   2.606  15.657  0.0553 -0.4186 -0.2360
   32TCq2    C9  496   1.554   2.833  15.476  0.0115 -0.2954 -0.2768
   32TCq2    O5  497   1.497   2.896  15.381  0.0970 -0.2257  0.3211
   32TCq2    O6  498   1.508   2.828  15.594 -0.5098  0.1392  0.6047
   32TCq2    H2  499   1.722   2.902  15.274  0.0252 -0.4235 -0.8846
   32TCq2    H3  500   1.694   2.689  15.637 -0.8695  1.0197  0.0042
   32TCq2    H4  501   2.076   2.722  15.462 -0.2691  0.1537  0.2925
   33MPD2     C  502   2.966   0.241  10.150 -0.3279  0.5689 -0.3745
   33MPD2    C1  503   2.839   0.210  10.118  0.4057 -0.4323 -0.1402
   33MPD2    C2  504   2.760   0.305  10.053  0.6634  0.0685 -0.2293
   33MPD2    C3  505   2.813   0.423  10.004 -0.5274 -0.2454 -0.2633
   33MPD2    C4  506   2.942   0.445  10.040  0.4857  0.1459  0.5306
   33MPD2    C5  507   3.016   0.359  10.113  0.5570 -0.1006 -0.0314
   33MPD2     H  508   2.659   0.278  10.025 -0.8967  1.4802  4.1569
   33MPD2    H1  509   2.998   0.533  10.009 -0.3843  0.4626 -0.1346
   33MPD2    H2  510   3.035   0.183  10.211 -0.3982 -0.4102 -1.2269
   33MPD2    H3  511   3.120   0.380  10.134  0.4116 -0.9455  1.5429
   33MPD2     N  512   2.737   0.519   9.941  0.8833 -0.6881 -0.2419
   33MPD2    H5  513   2.793   0.596   9.908 -1.1825  0.6558 -0.5719
   33MPD2    N1  514   2.784   0.080  10.148  0.3818  0.0192 -0.3351
   33MPD2    H7  515   2.846   0.019  10.201 -0.0948 -0.0570  0.1387
   34TCq2    C1  516   2.595   0.515   9.932  0.8544 -0.0771  0.0307
   34TCq2    O2  517   2.515   0.442   9.992  0.3224 -0.0625 -0.4980
   34TCq2    C2  518   2.536   0.625   9.853  0.4183  0.9249 -0.1113
   34TCq2    C3  519   2.417   0.668   9.890  0.3749  0.1460  0.3808
   34TCq2    C4  520   2.365   0.792   9.854  0.4828 -0.6778  0.3556
   34TCq2    C5  521   2.437   0.877   9.773  0.3951  0.3538  0.0612
   34TCq2    C6  522   2.563   0.832   9.734  0.3989  0.3516 -0.0933
   34TCq2    C7  523   2.612   0.712   9.778 -0.4290 -0.2187  0.2609
   34TCq2    C8  524   2.666   0.925   9.680 -0.5051  0.0144 -0.2412
   34TCq2    O4  525   2.784   0.896   9.705  0.3171 -0.2188 -0.4130
   34TCq2    C9  526   2.234   0.825   9.886 -0.0188  0.4205 -0.2959
   34TCq2    O5  527   2.197   0.947   9.873  0.1232 -0.4403 -0.4356
   34TCq2    O6  528   2.163   0.736   9.935  0.3628  0.1759  0.1748
   34TCq2    H2  529   2.367   0.611   9.966 -0.1534  0.1052 -0.0018
   34TCq2    H3  530   2.405   0.977   9.746  0.4310 -0.0588 -1.5326
   34TCq2    H4  531   2.707   0.668   9.750 -0.8130  0.4329 -2.0914
   35MPD2     C  532   4.523   1.550  11.252 -0.2906 -0.2408  0.1791
   35MPD2    C1  533   4.424   1.537  11.345 -0.0568  0.1613 -0.6172
   35MPD2    C2  534   4.295   1.555  11.305  0.3196 -0.3215  0.0983
   35MPD2    C3  535   4.263   1.591  11.170 -0.1218 -0.5666 -0.0407
   35MPD2    C4  536   4.362   1.594  11.079 -0.0800 -0.0927 -0.0342
   35MPD2    C5  537   4.492   1.576  11.117 -0.0877 -0.2259  0.3286
   35MPD2     H  538   4.216   1.555  11.380 -0.6973 -0.0278 -0.9874
   35MPD2    H1  539   4.352   1.613  10.973  0.4456  2.7544  0.4236
   35MPD2    H2  540   4.624   1.538  11.287  0.5152  0.7303 -1.8141
   35MPD2    H3  541   4.574   1.575  11.045  0.1606 -0.5818  0.6183
   35MPD2     N  542   4.130   1.631  11.149  0.2691 -0.2678  0.5467
   35MPD2    H5  543   4.065   1.630  11.227 -0.0432 -1.4060  0.2745
   35MPD2    N1  544   4.461   1.519  11.482  0.3013 -0.3625  0.1047
   35MPD2    H7  545   4.561   1.528  11.496  0.0840  0.9211  0.8255
   36TCq2    C1  546   4.083   1.674  11.033  0.4403  0.5672  0.1404
   36TCq2    O2  547   4.134   1.700  10.930 -0.0679 -0.1009 -0.1706
   36TCq2    C2  548   3.938   1.676  11.029  0.8094  0.1340  1.0610
   36TCq2    C3  549   3.880   1.730  10.920  0.3526 -0.1053  0.2113
   36TCq2    C4  550   3.752   1.730  10.908 -0.5098  0.5885 -0.5495
   36TCq2    C5  551   3.668   1.677  11.002  0.4792  0.4569 -0.8531
   36TCq2    C6  552   3.726   1.614  11.105 -0.5486  0.1864  0.3614
   36TCq2    C7  553   3.863   1.618  11.127 -0.1724  0.1081  0.2503
   36TCq2    C8  554   3.637   1.570  11.208 -0.7175 -0.0463 -0.9519
   36TCq2    O4  555   3.530   1.526  11.172 -0.5786  0.1257 -0.0028
   36TCq2    C9  556   3.690   1.779  10.792 -0.3879  0.1855  0.3554
   36TCq2    O5  557   3.753   1.864  10.718 -0.3231 -0.4783  0.4930
   36TCq2    O6  558   3.577   1.736  10.768 -0.5499  0.3065 -0.2116
   36TCq2    H2  559   3.930   1.768  10.832  0.9318 -0.3781  0.4260
   36TCq2    H3  560   3.563   1.672  10.979  0.8723  1.7129 -2.9961
   36TCq2    H4  561   3.906   1.595  11.224 -0.2414 -0.4476  0.1465
   37TMC2    C1  562   1.396   2.211  11.225  0.3054 -0.4567 -0.5965
   37TMC2    C2  563   1.378   2.316  11.137 -0.6231  0.9501 -0.7909
   37TMC2    C3  564   1.488   2.373  11.083  0.0480 -0.2445  0.2417
   37TMC2    C4  565   1.518   2.158  11.255  0.6803  0.1642  0.5148
   37TMC2    C5  566   1.625   2.231  11.197 -0.4100 -0.2997  0.2471
   37TMC2    C6  567   1.616   2.334  11.109 -0.1929 -0.7068 -0.2904
   37TMC2     C  568   1.274   2.158  11.284  0.2052 -0.5649 -0.7778
   37TMC2     O  569   1.170   2.210  11.251 -0.5197  0.2730 -0.4524
   37TMC2     H  570   1.277   2.354  11.124 -1.5139 -1.8227 -1.8999
   37TMC2    H1  571   1.539   2.067  11.309  1.4616  1.5628  2.5657
   37TMC2    H2  572   1.697   2.381  11.054 -0.6592 -0.1825 -0.5276
   37TMC2    C7  573   1.757   2.179  11.219  0.3379  0.0030  0.3803
   37TMC2    C8  574   1.469   2.480  10.992 -0.3741  0.1311 -0.2473
   37TMC2    O1  575   1.781   2.104  11.310  0.3554  0.3246 -0.5182
   37TMC2    O2  576   1.364   2.502  10.934 -0.5969 -0.1891 -0.5766
   37TMC2    O5  577   1.563   2.572  11.020 -0.3705  0.0009  0.1217
   37TMC2    H5  578   1.625   2.551  11.093  0.5035  3.6108  0.4231
   38MPD2     C  579   1.000   1.844  11.583 -0.7404  0.3000  0.1510
   38MPD2    C1  580   1.120   1.861  11.643 -0.4948 -0.1865 -0.3705
   38MPD2    C2  581   1.214   1.946  11.582  0.2722 -0.8896 -0.0770
   38MPD2    C3  582   1.192   2.008  11.460  1.0073  0.3052 -0.7448
   38MPD2    C4  583   1.064   1.999  11.409  0.6429  0.4831 -0.1714
   38MPD2    C5  584   0.969   1.928  11.478  0.2740 -0.2096  0.3542
   38MPD2     H  585   1.307   1.964  11.634 -0.7808  4.4043 -0.0088
   38MPD2    H1  586   1.028   2.041  11.316  0.6946  0.9204  0.0046
   38MPD2    H2  587   0.919   1.779  11.618  0.0678 -1.1902 -0.7232
   38MPD2    H3  588   0.881   1.905  11.418 -0.1761  0.1930  0.8591
   38MPD2     N  589   1.295   2.074  11.390  0.4018  0.4823  0.2786
   38MPD2    H5  590   1.386   2.045  11.426  0.4622 -1.2680 -1.3224
   38MPD2    N1  591   1.158   1.798  11.763 -0.5898 -0.7545  0.0251
   38MPD2    H7  592   1.249   1.813  11.805 -0.4064  2.3279 -1.5407
   39MPD2     C  593   4.115   3.678   1.429 -0.4317 -0.1125  0.9911
   39MPD2    C1  594   4.034   3.782   1.457 -0.1137 -0.0764 -0.1609
   39MPD2    C2  595   3.897   3.764   1.448 -0.3794  0.2538 -0.3173
   39MPD2    C3  596   3.844   3.639   1.417  0.6086 -0.6028  0.0812
   39MPD2    C4  597   3.929   3.531   1.408 -0.1143  0.2743  0.0550
   39MPD2    C5  598   4.060   3.559   1.411  0.1581 -0.1053  0.0223
   39MPD2     H  599   3.827   3.844   1.471 -1.6976 -0.8323 -0.5127
   39MPD2    H1  600   3.897   3.436   1.366  1.3357 -0.0153 -0.3810
   39MPD2    H2  601   4.221   3.668   1.446 -0.5378 -0.7122  1.3166
   39MPD2    H3  602   4.127   3.479   1.383  0.3624  0.3213 -0.6958
   39MPD2     N  603   3.712   3.609   1.387 -0.7335  0.6596  0.3853
   39MPD2    H5  604   3.686   3.514   1.362 -0.7536  0.6606  0.4019
   39MPD2    N1  605   4.096   3.900   1.506 -0.0369 -0.2805  0.2758
   39MPD2    H7  606   4.198   3.906   1.505  0.0512 -1.8233 -0.6100
   40TCq2    C1  607   4.031   4.019   1.536 -0.7554  0.4689 -0.8102
   40TCq2    O2  608   3.914   4.055   1.527 -0.1066 -0.0142 -0.2691
   40TCq2    C2  609   4.134   4.121   1.555 -0.2967  0.6190 -0.2118
   40TCq2    C3  610   4.118   4.208   1.655  0.3862 -0.1253  0.8065
   40TCq2    C4  611   4.217   4.305   1.678  0.3862  0.2442 -0.3113
   40TCq2    C5  612   4.329   4.296   1.605 -0.3879  0.2656 -0.1462
   40TCq2    C6  613   4.337   4.205   1.503 -0.4980 -0.0949  0.1493
   40TCq2    C7  614   4.240   4.120   1.474  0.6509  0.0816 -0.0650
   40TCq2    C8  615   4.454   4.207   1.417  0.3726 -0.0051 -0.2412
   40TCq2    O4  616   4.453   4.135   1.322  0.0922 -0.3933 -0.2091
   40TCq2    C9  617   4.211   4.393   1.795 -0.4260  0.5723  0.4306
   40TCq2    O5  618   4.130   4.362   1.888 -0.0873  0.1427  0.2839
   40TCq2    O6  619   4.299   4.480   1.812  0.8526  0.0604 -0.5332
   40TCq2    H2  620   4.036   4.196   1.725  1.7243  0.3729  2.4542
   40TCq2    H3  621   4.402   4.367   1.641 -0.0104 -1.3428  2.2766
   40TCq2    H4  622   4.251   4.052   1.390  0.9899  0.0451  0.0093
   41TMC2    C1  623   3.013   1.972  13.880  0.5677 -0.5270 -0.1035
   41TMC2    C2  624   2.931   2.061  13.953  0.2035  0.3939 -0.7784
   41TMC2    C3  625   2.808   2.080  13.902  0.2641 -0.4317 -0.2550
   41TMC2    C4  626   2.989   1.938  13.747 -0.9111  0.3108 -0.8227
   41TMC2    C5  627   2.873   1.992  13.697  0.6234  0.3956 -0.4389
   41TMC2    C6  628   2.778   2.047  13.778 -0.4352 -0.3287  0.2156
   41TMC2     C  629   3.142   1.936  13.945  0.0675 -0.3999  0.5355
   41TMC2     O  630   3.236   1.900  13.873  0.3425 -0.0467 -0.0448
   41TMC2     H  631   2.946   2.103  14.052 -1.3322 -0.1627 -0.3068
   41TMC2    H1  632   3.066   1.893  13.685  0.3155  0.4754  0.5758
   41TMC2    H2  633   2.696   2.095  13.727 -0.0542 -1.5166 -1.5356
   41TMC2    C7  634   2.850   1.999  13.551  0.8396  0.3136 -0.1023
   41TMC2    C8  635   2.730   2.182  13.961  0.1875 -0.0053 -0.5393
   41TMC2    O1  636   2.730   2.009  13.518 -0.3107  0.1278  0.5225
   41TMC2    O2  637   2.772   2.273  14.034  0.5181  0.4529  0.0640
   41TMC2    O5  638   2.603   2.145  13.954 -0.3264  0.1668  0.4718
   41TMC2    H5  639   2.593   2.065  13.897  0.7599 -0.3269  0.9729
   42MPD2     C  640   3.344   1.869  14.157 -0.1369  0.0524 -0.1208
   42MPD2    C1  641   3.204   1.874  14.179 -0.4246  0.2593  0.2384
   42MPD2    C2  642   3.153   1.848  14.305 -0.7193  0.4418  0.5374
   42MPD2    C3  643   3.240   1.821  14.415 -0.0578  0.0043 -0.7650
   42MPD2    C4  644   3.375   1.810  14.388  0.4112 -0.0162  0.2434
   42MPD2    C5  645   3.427   1.831  14.262 -0.0745  0.0525  0.1383
   42MPD2     H  646   3.047   1.863  14.319 -0.7513 -0.5511  1.3281
   42MPD2    H1  647   3.450   1.786  14.462  0.3461 -0.2543  0.2319
   42MPD2    H2  648   3.395   1.891  14.064  1.0318 -0.5536  0.3822
   42MPD2    H3  649   3.532   1.818  14.239  0.3945  1.9018  1.2929
   42MPD2     N  650   3.196   1.814  14.549  0.2494  0.1697 -0.2826
   42MPD2    H5  651   3.269   1.795  14.617 -0.4602 -0.2206  0.3617
   42MPD2    N1  652   3.111   1.903  14.075 -0.5484 -0.1662  0.5755
   42MPD2    H7  653   3.012   1.903  14.098 -0.3626 -3.2805  1.3876
   43MPD2     C  654   0.076   0.571   0.081  0.1285  0.6708  0.2506
   43MPD2    C1  655   0.099   0.517   0.208 -0.4638 -0.1971  0.1703
   43MPD2    C2  656   0.009   0.552   0.303 -0.1080  0.2515 -1.2358
   43MPD2    C3  657   4.618   0.620   0.280  0.7085 -0.5413  0.1160
   43MPD2    C4  658   4.592   0.657   0.151 -0.1362  0.4548  0.1555
   43MPD2    C5  659   4.680   0.635   0.052 -0.3780  0.0658 -0.1157
   43MPD2     H  660   0.033   0.524   0.405  0.0739  2.4214 -0.6859
   43MPD2    H1  661   4.506   0.718   0.124 -0.2296  0.3352  0.1806
   43MPD2    H2  662   0.150   0.567   0.002  0.2471 -1.1246  0.4609
   43MPD2    H3  663   4.671   0.671  17.636  1.3587 -1.3823 -0.7703
   43MPD2     N  664   4.521   0.651   0.370 -0.4068  0.0748  0.3439
   43MPD2    H5  665   4.431   0.682   0.334 -0.6084  0.3776  1.1233
   43MPD2    N1  666   0.214   0.447   0.255  0.1669  0.5509  0.0778
   43MPD2    H7  667   0.217   0.414   0.351 -0.5240 -0.5694 -0.2845
   44TCq2    C1  668   4.303   0.635   0.927 -0.5461 -0.5746  0.4849
   44TCq2    O2  669   4.393   0.565   0.970  0.3643  0.0688 -0.6093
   44TCq2    C2  670   4.303   0.669   0.786 -0.1431  0.5928  0.0575
   44TCq2    C3  671   4.193   0.722   0.725  0.2183  0.0152 -0.2901
   44TCq2    C4  672   4.198   0.756   0.594  0.2694  0.6448  0.3107
   44TCq2    C5  673   4.310   0.742   0.516 -0.1572 -0.2282  0.8692
   44TCq2    C6  674   4.420   0.694   0.581 -0.2496  0.5023  0.0907
   44TCq2    C7  675   4.416   0.657   0.712 -0.7198  0.8055 -0.4399
   44TCq2    C8  676   4.536   0.646   0.505 -0.5493 -0.0686  1.3274
   44TCq2    O4  677   4.635   0.622   0.573  0.0735  0.2161 -0.1102
   44TCq2    C9  678   4.086   0.820   0.528  1.1951 -0.3587  0.2721
   44TCq2    O5  679   4.104   0.847   0.408 -0.6386  0.0803  0.0564
   44TCq2    O6  680   3.972   0.797   0.581  0.0010  0.3479  0.0686
   44TCq2    H2  681   4.106   0.750   0.782  0.1270 -1.3522  0.2496
   44TCq2    H3  682   4.312   0.779   0.414 -0.3185  0.5407  1.1470
   44TCq2    H4  683   4.508   0.643   0.768 -0.5777  1.8808 -0.4201
   45TMC2    C1  684   0.064   3.019   8.836  0.1175  0.1722 -0.2649
   45TMC2    C2  685   4.655   3.009   8.797 -0.0157 -0.0579 -0.5708
   45TMC2    C3  686   4.569   3.095   8.851  0.0078  0.1953 -1.2219
   45TMC2    C4  687   0.106   3.095   8.941 -0.3114 -0.4508  0.4595
   45TMC2    C5  688   0.015   3.187   8.994  0.1529 -0.2621  0.5261
   45TMC2    C6  689   4.606   3.189   8.947 -0.2297  0.1689  0.5582
   45TMC2     C  690   0.167   2.934   8.793  0.6697 -1.0388  0.0995
   45TMC2     O  691   0.277   2.985   8.788  0.3429  0.4878 -0.0668
   45TMC2     H  692   4.623   2.940   8.719  0.9779 -0.2856 -0.7696
   45TMC2    H1  693   0.205   3.089   8.986 -1.2083 -0.0818  2.5294
   45TMC2    H2  694   4.531   3.250   8.994  0.5737  0.8430  0.9469
   45TMC2    C7  695   0.042   3.280   9.103  0.7669 -0.5149  0.1356
   45TMC2    C8  696   4.434   3.086   8.804 -0.3113 -0.1497  0.0508
   45TMC2    O1  697   4.666   3.347   9.133  0.2175  0.0981  0.1216
   45TMC2    O2  698   4.373   2.981   8.794 -0.2668 -0.2380  0.4742
   45TMC2    O5  699   4.379   3.209   8.812 -0.4827 -0.1553 -0.1547
   45TMC2    H5  700   4.448   3.278   8.817 -1.3028  0.6184  0.7468
   46MPD2     C  701   0.323   2.721   8.640  0.3490 -0.0296  0.2659
   46MPD2    C1  702   0.193   2.712   8.683 -0.1906  0.1125 -0.3615
   46MPD2    C2  703   0.124   2.600   8.649 -0.5208 -0.0040 -0.0363
   46MPD2    C3  704   0.186   2.499   8.578  0.2589  0.5312 -0.6597
   46MPD2    C4  705   0.316   2.507   8.540  1.1207  0.3411  0.2014
   46MPD2    C5  706   0.385   2.622   8.571  0.2646  0.5535 -0.4577
   46MPD2     H  707   0.025   2.593   8.692 -0.7783  1.0590 -0.4383
   46MPD2    H1  708   0.365   2.432   8.478 -1.3219 -0.0120 -1.3406
   46MPD2    H2  709   0.372   2.818   8.648 -2.1038  1.3221 -1.2028
   46MPD2    H3  710   0.483   2.642   8.529  0.7818  1.2852  1.0689
   46MPD2     N  711   0.102   2.386   8.555  0.0451 -0.8714  0.0636
   46MPD2    H5  712   0.016   2.378   8.609 -1.0037  1.2960 -1.2910
   46MPD2    N1  713   0.114   2.812   8.750 -0.1730 -0.5132 -0.0390
   46MPD2    H7  714   0.017   2.791   8.771 -0.9434  2.9475 -0.1678
   47TMC2    C1  715   3.103   2.880   9.200 -0.0295  0.9949  0.3654
   47TMC2    C2  716   3.144   2.794   9.098 -0.3646 -0.0249 -0.5619
   47TMC2    C3  717   3.045   2.755   9.013 -0.0130 -0.3386 -0.0795
   47TMC2    C4  718   2.974   2.941   9.200 -0.3200 -0.3782 -0.2411
   47TMC2    C5  719   2.882   2.898   9.106  0.1565  0.1289 -0.7185
   47TMC2    C6  720   2.918   2.804   9.017 -0.4728  0.2250  1.0091
   47TMC2     C  721   3.189   2.919   9.313 -0.3711 -0.2303 -0.0615
   47TMC2     O  722   3.134   3.005   9.384 -0.2382 -0.0452 -0.2660
   47TMC2     H  723   3.247   2.762   9.088 -0.2104 -0.0307  1.0479
   47TMC2    H1  724   2.948   3.029   9.257  1.0240  0.4606 -0.9290
   47TMC2    H2  725   2.849   2.768   8.942  0.5082 -2.2056  1.2838
   47TMC2    C7  726   2.750   2.958   9.094 -1.3561 -0.6459 -0.3897
   47TMC2    C8  727   3.084   2.706   8.883  0.2277  0.1719 -0.0090
   47TMC2    O1  728   2.707   2.947   8.983 -0.3457 -0.0842 -0.0091
   47TMC2    O2  729   3.013   2.731   8.789 -0.0130  0.6339  0.4263
   47TMC2    O5  730   3.153   2.592   8.894 -0.8516 -0.4512  0.0621
   47TMC2    H5  731   3.154   2.575   8.991  0.7204 -1.6199 -0.1582
   48MPD2     C  732   3.396   2.930   9.527  0.2446 -0.4637 -0.7420
   48MPD2    C1  733   3.387   2.818   9.441 -0.2973  0.2514 -0.5978
   48MPD2    C2  734   3.460   2.705   9.470  0.4072  0.1735  0.4119
   48MPD2    C3  735   3.548   2.711   9.584  0.3087 -0.2249  0.5335
   48MPD2    C4  736   3.552   2.820   9.669  0.2637  0.4687 -0.4511
   48MPD2    C5  737   3.474   2.927   9.643 -0.1404  0.0521 -0.4647
   48MPD2     H  738   3.445   2.612   9.417 -1.1570  1.5411 -1.5404
   48MPD2    H1  739   3.625   2.826   9.749 -0.3204 -1.7491  0.2655
   48MPD2    H2  740   3.338   3.020   9.510  0.9053  0.0708 -0.1598
   48MPD2    H3  741   3.482   3.014   9.708  4.1078 -0.4054 -0.3831
   48MPD2     N  742   3.638   2.604   9.590 -0.1446  0.3493  0.3368
   48MPD2    H5  743   3.621   2.527   9.526  0.1980 -0.6276  1.4230
   48MPD2    N1  744   3.285   2.822   9.343  0.4296 -0.1476 -0.7039
   48MPD2    H7  745   3.282   2.736   9.290 -0.8305 -0.1992 -0.5371
   49MPD2     C  746   2.145   0.097  10.018 -0.1739 -0.6075 -0.3962
   49MPD2    C1  747   2.026   0.055  10.080  0.1794  0.0475 -0.4998
   49MPD2    C2  748   2.017   0.044  10.214  0.4458  0.3526  0.4642
   49MPD2    C3  749   2.117   0.090  10.297 -0.0969  0.5041 -0.5817
   49MPD2    C4  750   2.232   0.143  10.234  0.5720  0.1105  0.4106
   49MPD2    C5  751   2.241   0.149  10.100  0.4274  0.1544 -0.0303
   49MPD2     H  752   1.918   0.012  10.246  1.0669 -0.8841  1.1469
   49MPD2    H1  753   2.321   0.177  10.286  0.9061 -1.7006  1.0148
   49MPD2    H2  754   2.159   0.092   9.911 -1.2494 -0.2415 -0.5541
   49MPD2    H3  755   2.333   0.188  10.059  1.5696  0.0464  2.4832
   49MPD2     N  756   2.122   0.098  10.439  0.3756 -0.6442  0.7445
   49MPD2    H5  757   2.202   0.149  10.474  0.5196 -0.4488  0.1294
   49MPD2    N1  758   1.913   0.009  10.000  0.4070  0.0187  0.4958
   49MPD2    H7  759   1.840   4.678  10.047  0.1304 -0.6603 -0.7003
   50TCq2    C1  760   1.902   0.037   9.867  0.8260 -0.6734  0.4437
   50TCq2    O2  761   1.974   0.106   9.794 -0.0177 -0.1548 -0.3973
   50TCq2    C2  762   1.769   0.011   9.818 -0.7592 -0.7492  0.2582
   50TCq2    C3  763   1.722   0.080   9.709 -0.3690 -0.1120 -0.2837
   50TCq2    C4  764   1.600   0.044   9.643 -0.2569  0.2142 -0.5065
   50TCq2    C5  765   1.528   4.655   9.693  0.4051 -0.2090  0.7495
   50TCq2    C6  766   1.587   4.576   9.785 -0.3469  0.6346  0.2363
   50TCq2    C7  767   1.704   4.618   9.852 -0.9125  0.0087  0.0708
   50TCq2    C8  768   1.528   4.450   9.816 -0.5761 -0.0690  0.7781
   50TCq2    O4  769   1.417   4.434   9.770  0.3523  0.3584 -0.4567
   50TCq2    C9  770   1.542   0.128   9.538 -0.0404 -0.5437 -0.1557
   50TCq2    O5  771   1.626   0.197   9.476  0.3120  0.1465  0.1929
   50TCq2    O6  772   1.426   0.092   9.499 -0.2333 -0.2124  0.2580
   50TCq2    H2  773   1.770   0.168   9.669  2.5799 -2.1058 -1.1093
   50TCq2    H3  774   1.422   4.646   9.671  0.8386  2.3221 -2.3414
   50TCq2    H4  775   1.744   4.563   9.937  0.0078  1.9393  0.9050
   51MPD2     C  776   1.333   2.465   1.422 -0.4018  0.9866  0.4683
   51MPD2    C1  777   1.437   2.432   1.343  0.2407 -0.6474  0.4691
   51MPD2    C2  778   1.561   2.411   1.400 -0.3175 -0.5293 -0.2381
   51MPD2    C3  779   1.566   2.414   1.539 -0.7241  0.1752 -0.0893
   51MPD2    C4  780   1.454   2.423   1.618  0.3295  0.0092  0.0479
   51MPD2    C5  781   1.331   2.450   1.558  0.4951 -0.5182  0.2022
   51MPD2     H  782   1.650   2.411   1.339 -0.4608 -1.9202 -0.4528
   51MPD2    H1  783   1.465   2.423   1.726  2.0723 -0.7033 -0.1320
   51MPD2    H2  784   1.237   2.494   1.382 -0.3512 -0.0527 -0.3932
   51MPD2    H3  785   1.251   2.482   1.624  0.9023 -1.2689  1.0768
   51MPD2     N  786   1.688   2.415   1.604 -0.2054  0.0691  0.4222
   51MPD2    H5  787   1.690   2.449   1.699 -0.5589 -0.0517  0.4736
   51MPD2    N1  788   1.427   2.456   1.202  0.0243 -0.9282 -0.2656
   51MPD2    H7  789   1.513   2.458   1.148  0.2120 -1.4947  0.0176
   52TCq2    C1  790   1.809   2.376   1.550 -0.0909 -0.2648  0.2893
   52TCq2    O2  791   1.829   2.304   1.456  0.2922 -0.1998  0.2137
   52TCq2    C2  792   1.914   2.436   1.626  0.2630 -0.3910 -0.3539
   52TCq2    C3  793   2.038   2.373   1.616 -0.4785 -0.1127 -0.0690
   52TCq2    C4  794   2.152   2.447   1.637 -1.0300 -0.2782  0.0431
   52TCq2    C5  795   2.149   2.578   1.671 -0.1519  0.0367  0.0971
   52TCq2    C6  796   2.028   2.636   1.672  0.7842 -0.7489 -0.5526
   52TCq2    C7  797   1.910   2.573   1.650 -1.1906 -0.5268 -0.8389
   52TCq2    C8  798   2.010   2.774   1.719  0.6506 -0.0039 -1.0676
   52TCq2    O4  799   1.902   2.811   1.767 -0.2024 -0.2686 -0.2474
   52TCq2    C9  800   2.281   2.386   1.619  0.3244 -0.3888 -0.0151
   52TCq2    O5  801   2.280   2.267   1.570  0.1617 -0.3149 -0.4492
   52TCq2    O6  802   2.383   2.451   1.655  0.1627  0.7257 -0.1740
   52TCq2    H2  803   2.042   2.271   1.581 -0.0358 -0.5372  1.2093
   52TCq2    H3  804   2.237   2.638   1.687 -0.7241  1.2175 -1.2130
   52TCq2    H4  805   1.816   2.627   1.647 -0.7494  0.3085 -0.0399
   53TMC2    C1  806   2.409   2.193  11.565  0.4051 -0.0534  0.6251
   53TMC2    C2  807   2.525   2.134  11.603  0.2125  0.2618  0.1060
   53TMC2    C3  808   2.556   2.129  11.735  0.9099 -0.2878 -0.1773
   53TMC2    C4  809   2.318   2.250  11.647 -0.1072  0.2330  0.0560
   53TMC2    C5  810   2.349   2.229  11.783  0.1631 -0.3636 -0.3766
   53TMC2    C6  811   2.456   2.160  11.830 -0.2921  0.1599 -0.2931
   53TMC2     C  812   2.384   2.201  11.428  0.0143 -0.2813  0.8980
   53TMC2     O  813   2.484   2.197  11.355  0.4611  0.4063 -0.0540
   53TMC2     H  814   2.599   2.096  11.534 -1.1413 -0.4372 -0.9836
   53TMC2    H1  815   2.227   2.301  11.618  0.1568  0.3891 -0.4887
   53TMC2    H2  816   2.466   2.128  11.933  0.2081  1.5008  0.0690
   53TMC2    C7  817   2.242   2.264  11.869 -0.3604 -0.0419  0.3719
   53TMC2    C8  818   2.688   2.072  11.766  0.4932 -0.0952  0.3024
   53TMC2    O1  819   2.128   2.261  11.825 -0.7435 -0.9739 -0.2269
   53TMC2    O2  820   2.779   2.054  11.688 -0.0457 -0.1700  0.1090
   53TMC2    O5  821   2.691   2.022  11.890  0.1876 -0.2259 -0.4932
   53TMC2    H5  822   2.606   1.999  11.933  0.3943  2.8401  1.5469
   54MPD2     C  823   2.257   2.265  11.158  0.2752 -1.1057 -0.2618
   54MPD2    C1  824   2.189   2.222  11.264  0.2405  0.2887  0.6818
   54MPD2    C2  825   2.053   2.213  11.258 -0.1812 -0.4345  0.2502
   54MPD2    C3  826   1.983   2.240  11.139  0.5538 -0.3395 -0.1664
   54MPD2    C4  827   2.055   2.284  11.029 -0.3964  0.0875  0.0574
   54MPD2    C5  828   2.189   2.299  11.044 -0.5807  0.0577  0.2468
   54MPD2     H  829   1.998   2.179  11.345  0.5795 -1.8077  0.1902
   54MPD2    H1  830   2.014   2.318  10.935 -0.2616 -1.0223 -0.4001
   54MPD2    H2  831   2.364   2.280  11.157 -0.1478  1.8060 -0.9230
   54MPD2    H3  832   2.245   2.338  10.960  1.2963 -0.6451  1.1798
   54MPD2     N  833   1.845   2.220  11.120 -0.2326  0.0598  0.1336
   54MPD2    H5  834   1.804   2.245  11.031 -1.4519  1.3075  1.0219
   54MPD2    N1  835   2.245   2.190  11.388  0.8473  0.4676 -0.6491
   54MPD2    H7  836   2.188   2.173  11.470  1.8388  2.3908  0.4400
   55MPD2     C  837   2.679   4.212   0.212  0.0430  0.5230 -0.2152
   55MPD2    C1  838   2.585   4.129   0.268 -0.1406 -0.5731  0.1684
   55MPD2    C2  839   2.464   4.187   0.325  0.4714 -0.0639 -0.4914
   55MPD2    C3  840   2.446   4.328   0.326 -0.4221 -0.0722  0.4962
   55MPD2    C4  841   2.549   4.411   0.277  0.0683  0.4424 -0.4897
   55MPD2    C5  842   2.664   4.350   0.225  0.2627  0.4617 -0.7633
   55MPD2     H  843   2.388   4.125   0.372 -2.2319  2.4230 -1.5579
   55MPD2    H1  844   2.555   4.517   0.299  0.2329  0.0099  1.5555
   55MPD2    H2  845   2.768   4.167   0.169  1.0314  0.0545  2.2693
   55MPD2    H3  846   2.744   4.419   0.202 -0.5957  1.5276 -0.5649
   55MPD2     N  847   2.331   4.375   0.396 -0.2968 -0.1911 -0.0621
   55MPD2    H5  848   2.266   4.305   0.431  0.9393 -0.5355  1.5246
   55MPD2    N1  849   2.612   3.995   0.263  0.0929 -0.2234  0.4745
   55MPD2    H7  850   2.699   3.962   0.221 -0.1239  1.4249 -1.2731
   56TCq2    C1  851   2.534   3.897   0.320 -0.2949 -0.4798  0.0463
   56TCq2    O2  852   2.427   3.901   0.379  0.2080  0.1594 -0.3118
   56TCq2    C2  853   2.589   3.762   0.309 -0.7036 -0.4995 -0.3183
   56TCq2    C3  854   2.698   3.745   0.236 -0.4035  0.7471  0.4538
   56TCq2    C4  855   2.790   3.653   0.272 -0.1733  0.9422 -0.4399
   56TCq2    C5  856   2.770   3.581   0.384  0.1206  0.0861 -0.1782
   56TCq2    C6  857   2.650   3.587   0.452 -0.2953  0.2935  0.0412
   56TCq2    C7  858   2.564   3.682   0.416  0.1268 -0.3709 -0.1514
   56TCq2    C8  859   2.628   3.489   0.559 -0.3589 -0.0045 -0.2657
   56TCq2    O4  860   2.729   3.440   0.603 -0.0287 -0.7647  0.2747
   56TCq2    C9  861   2.921   3.641   0.203  0.4962  0.1845 -0.0328
   56TCq2    O5  862   3.003   3.553   0.246 -0.7206  0.3168  0.4153
   56TCq2    O6  863   2.939   3.695   0.089  0.2007  0.1015 -0.3942
   56TCq2    H2  864   2.723   3.809   0.152  2.4144 -2.3893 -1.0957
   56TCq2    H3  865   2.840   3.505   0.415 -1.1782 -1.3715 -0.8693
   56TCq2    H4  866   2.470   3.694   0.469 -1.4479 -2.2389 -2.5716
   57TMC2    C1  867   2.044   0.873  13.428 -0.4180 -0.0547 -0.1337
   57TMC2    C2  868   2.083   0.776  13.510  0.3514  0.4181 -0.1454
   57TMC2    C3  869   2.218   0.751  13.507 -0.0442  0.9116 -0.4816
   57TMC2    C4  870   2.125   0.949  13.351 -0.1013 -0.4078  0.0909
   57TMC2    C5  871   2.256   0.916  13.356 -0.0460  0.4845 -0.1456
   57TMC2    C6  872   2.307   0.819  13.437  0.8490 -0.3821 -0.1689
   57TMC2     C  873   1.899   0.902  13.435 -0.4264  0.8829  0.1529
   57TMC2     O  874   1.842   0.878  13.544 -0.2171  0.7011  0.1378
   57TMC2     H  875   2.015   0.719  13.573  1.0120  0.6060  0.7322
   57TMC2    H1  876   2.092   1.031  13.288 -0.7264 -0.2045  0.6786
   57TMC2    H2  877   2.414   0.802  13.439  0.7017 -1.4385 -2.1051
   57TMC2    C7  878   2.315   0.904  13.225 -0.1619  0.0732  0.3964
   57TMC2    C8  879   2.253   0.642  13.593 -0.1755 -0.6039 -0.1132
   57TMC2    O1  880   2.308   1.001  13.154  0.4608 -0.4733 -1.1600
   57TMC2    O2  881   2.171   0.560  13.632  0.2665  0.0128  0.0062
   57TMC2    O5  882   2.375   0.668  13.645 -0.0386 -0.9487  0.3555
   57TMC2    H5  883   2.393   0.763  13.632  1.2180 -1.3705 -1.0730
   58MPD2     C  884   1.448   1.040  13.255  0.8068  0.2285 -0.4419
   58MPD2    C1  885   1.502   1.051  13.381  0.1453 -0.3464 -0.1595
   58MPD2    C2  886   1.635   1.026  13.394 -0.5553  0.0473  0.6299
   58MPD2    C3  887   1.713   0.976  13.291  0.3118 -0.1031  0.3274
   58MPD2    C4  888   1.659   0.972  13.165 -0.2172  0.7499 -0.5446
   58MPD2    C5  889   1.527   1.005  13.148  0.4896 -0.7058  0.1067
   58MPD2     H  890   1.674   1.045  13.494 -0.4926 -0.4203  0.6964
   58MPD2    H1  891   1.717   0.955  13.075 -0.9088  1.2640 -1.0895
   58MPD2    H2  892   1.347   1.074  13.232 -0.2136 -2.0011  0.7930
   58MPD2    H3  893   1.484   0.997  13.049  0.5129 -0.2306  0.0578
   58MPD2     N  894   1.845   0.934  13.314  0.8484 -0.0100  0.1486
   58MPD2    H5  895   1.898   0.916  13.229  2.2414  0.5005  0.9075
   58MPD2    N1  896   1.439   1.102  13.496  0.1176  0.2283 -0.5203
   58MPD2    H7  897   1.491   1.120  13.581  0.1894 -1.1580 -0.2746
   59MPD2     C  898   4.675   0.852  12.744 -0.0020 -0.4315  0.8926
   59MPD2    C1  899   4.589   0.935  12.807 -0.0611 -0.4838 -0.7896
   59MPD2    C2  900   4.647   1.008  12.918 -1.0885  0.0258 -0.2894
   59MPD2    C3  901   0.054   0.983  12.961 -0.4526 -0.9897  0.0933
   59MPD2    C4  902   0.137   0.897  12.894 -0.5778 -0.4551 -0.2318
   59MPD2    C5  903   0.084   0.829  12.787 -0.1133 -0.2610 -0.1133
   59MPD2     H  904   4.586   1.089  12.956  2.6368  1.7830  2.0121
   59MPD2    H1  905   0.239   0.871  12.922 -0.4845  0.8326  0.6474
   59MPD2    H2  906   4.637   0.786  12.667  1.8386  1.3652 -1.5316
   59MPD2    H3  907   0.150   0.761  12.735  1.1457 -0.6470  1.9861
   59MPD2     N  908   0.109   1.065  13.058  0.2968  0.2860 -0.1937
   59MPD2    H5  909   0.210   1.064  13.074  0.5497 -2.1504 -1.8814
   59MPD2    N1  910   4.453   0.961  12.770  0.6774 -0.3021  0.2777
   59MPD2    H7  911   4.396   1.026  12.824 -0.6604 -0.6688 -0.7161
   60TCq2    C1  912   4.390   0.903  12.661 -0.3524 -0.0462  0.1561
   60TCq2    O2  913   4.446   0.855  12.563 -0.3798  0.4905 -0.2779
   60TCq2    C2  914   4.247   0.932  12.663 -0.2975  0.4363  0.4301
   60TCq2    C3  915   4.187   0.904  12.781  0.1861  1.3197 -0.0388
   60TCq2    C4  916   4.054   0.932  12.790  0.2359  0.7641  0.4428
   60TCq2    C5  917   3.983   0.989  12.685  0.4347  0.5726  0.5240
   60TCq2    C6  918   4.050   1.020  12.566  0.1720  0.3085  0.1268
   60TCq2    C7  919   4.183   0.983  12.552 -0.6778  0.2307  0.0343
   60TCq2    C8  920   4.000   1.133  12.493 -0.3299  0.8239  0.0108
   60TCq2    O4  921   3.887   1.167  12.533  0.2857  0.3282  0.1091
   60TCq2    C9  922   3.981   0.900  12.908  1.5926  0.2178 -0.0538
   60TCq2    O5  923   4.039   0.841  13.006  0.1932  0.0113  0.0275
   60TCq2    O6  924   3.865   0.946  12.908 -0.0624  0.8372 -0.0320
   60TCq2    H2  925   4.239   0.853  12.860  1.6574 -1.2949 -2.6884
   60TCq2    H3  926   3.875   0.998  12.690  0.3690  0.4552 -0.6839
   60TCq2    H4  927   4.237   1.010  12.462 -1.4562  0.6186 -0.3135
   61MPD2     C  928   3.616   2.353  14.450  0.1042 -0.6190 -0.4802
   61MPD2    C1  929   3.536   2.396  14.552 -0.5592 -0.2246 -0.2438
   61MPD2    C2  930   3.419   2.463  14.517 -0.5579  0.2518 -0.0625
   61MPD2    C3  931   3.392   2.506  14.388 -0.0870  0.1563  0.4910
   61MPD2    C4  932   3.476   2.469  14.295 -0.4340  0.6410  0.2900
   61MPD2    C5  933   3.584   2.395  14.327 -0.9609  0.1314  0.2423
   61MPD2     H  934   3.355   2.489  14.601 -2.3542  1.1834 -1.7317
   61MPD2    H1  935   3.461   2.481  14.188  0.3977 -0.7611  0.0169
   61MPD2    H2  936   3.698   2.286  14.470  1.0101  0.1551 -1.6156
   61MPD2    H3  937   3.648   2.360  14.247 -1.1665  3.3245 -1.3385
   61MPD2     N  938   3.278   2.577  14.360 -0.2240 -0.3089  1.0264
   61MPD2    H5  939   3.284   2.618  14.267  1.0799 -0.5086  1.0182
   61MPD2    N1  940   3.562   2.367  14.681  0.1496 -0.3900  0.3557
   61MPD2    H7  941   3.488   2.397  14.744  0.0474 -0.6811  0.3766
   62TCq2    C1  942   3.680   2.324  14.740 -0.1015 -0.2992 -0.1930
   62TCq2    O2  943   3.784   2.306  14.681 -0.8796  0.7347 -0.5097
   62TCq2    C2  944   3.687   2.357  14.885  0.2714 -0.1454  0.0116
   62TCq2    C3  945   3.803   2.337  14.949  0.1052 -0.3047 -0.1504
   62TCq2    C4  946   3.832   2.401  15.067 -0.4728  0.0524  0.1822
   62TCq2    C5  947   3.734   2.475  15.126  0.3258  0.1631  0.2433
   62TCq2    C6  948   3.618   2.498  15.057  0.3852 -0.0919 -1.0132
   62TCq2    C7  949   3.591   2.441  14.933  0.6366  0.1797  0.5489
   62TCq2    C8  950   3.546   2.617  15.099 -0.3173  0.0661  0.0449
   62TCq2    O4  951   3.606   2.699  15.166 -0.1929 -0.4335  0.4204
   62TCq2    C9  952   3.950   2.377  15.143  0.2186 -0.0424 -0.2639
   62TCq2    O5  953   4.043   2.315  15.087 -0.2424 -0.6150  0.3951
   62TCq2    O6  954   3.944   2.399  15.267 -0.7469  0.7066 -0.3867
   62TCq2    H2  955   3.879   2.275  14.902 -1.2540 -0.0937 -2.5911
   62TCq2    H3  956   3.741   2.498  15.231 -0.7394 -4.3170  1.2683
   62TCq2    H4  957   3.510   2.481  14.874  1.6412 -0.0380 -0.9723
   63TMC2    C1  958   3.702   1.997  11.208  0.5158 -0.5624  0.7043
   63TMC2    C2  959   3.752   2.064  11.314  1.0853 -0.1919  0.5166
   63TMC2    C3  960   3.814   2.186  11.287  0.3951 -0.1496  0.3398
   63TMC2    C4  961   3.709   2.044  11.082  0.6602  0.1222  0.2007
   63TMC2    C5  962   3.782   2.157  11.058 -1.4598 -0.0220  0.6383
   63TMC2    C6  963   3.820   2.230  11.164  0.1624 -0.4345  0.1826
   63TMC2     C  964   3.577   1.924  11.245  0.2234  0.3251 -0.1685
   63TMC2     O  965   3.544   1.904  11.361  0.2029 -0.1243 -0.4527
   63TMC2     H  966   3.722   2.043  11.416  2.9815  0.4268  1.1941
   63TMC2    H1  967   3.652   2.007  10.997  2.5956  2.9039 -2.3035
   63TMC2    H2  968   3.855   2.331  11.146 -1.3459  0.0759  0.0827
   63TMC2    C7  969   3.750   2.212  10.923  0.1377 -0.1953 -0.2304
   63TMC2    C8  970   3.814   2.291  11.391 -0.3119  0.4678 -0.2436
   63TMC2    O1  971   3.706   2.137  10.835 -0.0148 -0.3421  0.5873
   63TMC2    O2  972   3.825   2.411  11.368 -0.5790 -0.1986  0.0103
   63TMC2    O5  973   3.825   2.235  11.509  0.4023 -0.4116  0.8120
   63TMC2    H5  974   3.854   2.141  11.511 -0.2278 -0.6409 -1.2850
   64MPD2     C  975   3.122   1.706  11.132 -0.3674  0.6205  0.0261
   64MPD2    C1  976   3.161   1.775  11.018  0.1580  0.0291 -0.5579
   64MPD2    C2  977   3.288   1.832  11.026  0.4361  1.0297 -0.3431
   64MPD2    C3  978   3.372   1.821  11.133 -0.1201  0.0845 -0.0199
   64MPD2    C4  979   3.322   1.768  11.247  0.1669 -0.0909  0.3593
   64MPD2    C5  980   3.203   1.705  11.244  0.2729  0.5347 -0.5285
   64MPD2     H  981   3.325   1.898  10.949  0.5762  2.6028  1.0770
   64MPD2    H1  982   3.375   1.758  11.340 -0.2151 -0.0159  0.5864
   64MPD2    H2  983   3.022   1.666  11.147 -0.5694  1.5188  1.0732
   64MPD2    H3  984   3.168   1.662  11.337 -0.2497  2.2724  0.0714
   64MPD2     N  985   3.495   1.900  11.133 -0.3115  0.9056  0.6015
   64MPD2    H5  986   3.505   1.964  11.055 -4.2344 -1.0324 -1.5028
   64MPD2    N1  987   3.087   1.774  10.898 -0.0568  0.2835  0.6473
   64MPD2    H7  988   3.139   1.805  10.817 -0.0001 -2.6149 -0.4155
   65MPD2     C  989   4.382   1.747  15.799  1.0450 -0.5318  0.9102
   65MPD2    C1  990   4.386   1.756  15.664  0.0230  0.4707  0.5247
   65MPD2    C2  991   4.355   1.645  15.585 -0.0135 -0.0840  0.0943
   65MPD2    C3  992   4.302   1.534  15.646 -0.8243  0.1070 -0.0276
   65MPD2    C4  993   4.307   1.525  15.784  0.0202  0.2594 -0.5384
   65MPD2    C5  994   4.337   1.634  15.862  0.3794  0.3442  0.0418
   65MPD2     H  995   4.361   1.657  15.478  2.8130 -0.5875  0.2177
   65MPD2    H1  996   4.277   1.431  15.828  1.0010  0.7565  1.1945
   65MPD2    H2  997   4.423   1.820  15.869 -1.2643 -0.4690  2.1980
   65MPD2    H3  998   4.334   1.637  15.971 -2.4666  2.1048 -0.0777
   65MPD2     N  999   4.251   1.419  15.577 -0.0295  0.3085 -0.0789
   65MPD2    H5 1000   4.223   1.349  15.644 -1.4509  0.9463  0.0046
   65MPD2    N1 1001   4.429   1.867  15.595  0.0169 -0.1332  0.1976
   65MPD2    H7 1002   4.457   1.851  15.499 -1.2822  1.3220 -0.4162
   66TCq2    C1 1003   4.437   1.991  15.648 -0.4465 -0.0832  0.0842
   66TCq2    O2 1004   4.406   2.026  15.758  0.2102  0.3312  0.0078
   66TCq2    C2 1005   4.457   2.099  15.551 -0.6393 -0.3545  0.5198
   66TCq2    C3 1006   4.486   2.080  15.419 -0.4888  0.0527  0.1019
   66TCq2    C4 1007   4.485   2.185  15.329  0.1855 -0.1472 -0.4167
   66TCq2    C5 1008   4.471   2.315  15.374 -0.1714 -0.5856 -0.2294
   66TCq2    C6 1009   4.444   2.339  15.508  0.2620 -0.0973 -0.1561
   66TCq2    C7 1010   4.449   2.234  15.594 -0.0647  0.2721 -0.5672
   66TCq2    C8 1011   4.416   2.475  15.546 -0.8809 -0.3785  0.2018
   66TCq2    O4 1012   4.446   2.561  15.463  0.1859  0.3516 -0.0616
   66TCq2    C9 1013   4.509   2.169  15.187  0.4741  0.6634  0.4757
   66TCq2    O5 1014   4.529   2.053  15.146 -0.2451  0.4940 -0.0013
   66TCq2    O6 1015   4.465   2.266  15.114 -0.1122  0.7769 -0.8325
   66TCq2    H2 1016   4.490   1.981  15.375  2.6741  0.6298 -0.9109
   66TCq2    H3 1017   4.466   2.399  15.306 -1.8569 -0.3669  0.1606
   66TCq2    H4 1018   4.430   2.242  15.701 -3.4940  1.2585 -1.2385
   67MPD2     C 1019   4.457   1.301  13.986  0.7834  0.3698 -0.5464
   67MPD2    C1 1020   4.371   1.322  14.095  0.7643 -0.3022 -0.1143
   67MPD2    C2 1021   4.241   1.319  14.062 -0.1860  0.2084  0.2988
   67MPD2    C3 1022   4.194   1.297  13.931  0.4204  0.1363 -0.4265
   67MPD2    C4 1023   4.289   1.297  13.824  0.5040 -0.5316 -0.5742
   67MPD2    C5 1024   4.423   1.299  13.853  0.4346 -0.0044 -1.1789
   67MPD2     H 1025   4.176   1.350  14.143  1.0668  1.4223  0.8497
   67MPD2    H1 1026   4.259   1.289  13.720  0.0372 -0.4750 -0.4406
   67MPD2    H2 1027   4.563   1.301  14.012  0.5117  1.2469  0.5166
   67MPD2    H3 1028   4.504   1.302  13.782 -1.0007 -1.3388 -2.8693
   67MPD2     N 1029   4.054   1.303  13.892  0.1232 -0.5493  0.0398
   67MPD2    H5 1030   4.047   1.316  13.792 -1.7212 -1.4413  0.0544
   67MPD2    N1 1031   4.413   1.329  14.230  0.8889  0.0345 -0.2147
   67MPD2    H7 1032   4.339   1.345  14.297 -0.9944 -0.5900 -2.1264
   68TCq2    C1 1033   4.538   1.332  14.281  0.0959  0.1028 -0.5522
   68TCq2    O2 1034   4.639   1.286  14.230 -0.1866 -0.6306 -0.0908
   68TCq2    C2 1035   4.538   1.372  14.420  0.1638  0.6586  0.2353
   68TCq2    C3 1036   4.425   1.437  14.474 -0.4397  0.1388 -0.1696
   68TCq2    C4 1037   4.433   1.457  14.615 -0.7859  0.1207 -0.5707
   68TCq2    C5 1038   4.539   1.425  14.687  0.0126  0.0571  0.1872
   68TCq2    C6 1039   4.656   1.382  14.631 -0.1300 -0.4760 -0.9915
   68TCq2    C7 1040   4.653   1.349  14.496  0.0184  0.3948  0.6740
   68TCq2    C8 1041   0.049   1.359  14.709 -0.4170  0.2741 -0.0667
   68TCq2    O4 1042   0.152   1.346  14.647 -0.4251 -0.2984 -0.4707
   68TCq2    C9 1043   4.321   1.513  14.686  0.9872  0.0878  0.1425
   68TCq2    O5 1044   4.240   1.576  14.617 -0.2419 -0.1245 -0.1261
   68TCq2    O6 1045   4.301   1.476  14.802 -0.2561 -0.0681 -0.1194
   68TCq2    H2 1046   4.332   1.459  14.422  0.3766 -1.0517 -2.1409
   68TCq2    H3 1047   4.535   1.461  14.790 -0.5601 -0.5942  0.3893
   68TCq2    H4 1048   0.015   1.294  14.453  1.7693  2.4056  1.4509
   69TMC2    C1 1049   1.783   2.663  12.024 -0.6719  0.0002 -0.4296
   69TMC2    C2 1050   1.668   2.645  11.961  0.1971 -0.3353 -0.0586
   69TMC2    C3 1051   1.678   2.648  11.821 -0.2699 -0.6578  0.1402
   69TMC2    C4 1052   1.904   2.669  11.961 -0.2215 -0.2051 -0.8000
   69TMC2    C5 1053   1.907   2.656  11.828 -0.2741 -0.6135  0.4275
   69TMC2    C6 1054   1.793   2.664  11.753  0.0786  0.0057  0.5067
   69TMC2     C 1055   1.779   2.724  12.155  0.3876 -1.0096  0.1493
   69TMC2     O 1056   1.700   2.677  12.234  0.0475 -0.0586  0.1604
   69TMC2     H 1057   1.573   2.648  12.014  0.4498  0.6949  0.3221
   69TMC2    H1 1058   1.998   2.675  12.014  0.1762  1.1334 -1.6539
   69TMC2    H2 1059   1.791   2.649  11.646 -0.2788 -1.0297  0.6581
   69TMC2    C7 1060   2.038   2.661  11.758 -0.2082 -0.3640 -0.2061
   69TMC2    C8 1061   1.561   2.655  11.743  0.2306 -0.3948  0.4330
   69TMC2    O1 1062   2.137   2.679  11.827 -0.3075  0.3279  0.2124
   69TMC2    O2 1063   1.531   2.733  11.653  0.0622  0.6313 -0.0698
   69TMC2    O5 1064   1.468   2.594  11.819  0.0407  0.9739 -0.4605
   69TMC2    H5 1065   1.494   2.525  11.884  0.7626 -0.0791 -1.8630
   70MPD2     C 1066   1.963   3.004  12.305 -0.6918 -0.1322  0.3202
   70MPD2    C1 1067   1.901   2.883  12.295  0.2066 -0.0457 -0.1624
   70MPD2    C2 1068   1.893   2.805  12.408 -0.1981  0.4873  0.1185
   70MPD2    C3 1069   1.956   2.848  12.527  0.3444 -0.3957 -0.3850
   70MPD2    C4 1070   2.026   2.970  12.523 -0.2849  0.1326  0.1252
   70MPD2    C5 1071   2.020   3.048  12.420 -0.0001 -0.0938  0.2765
   70MPD2     H 1072   1.855   2.703  12.406 -1.6991  0.9611  3.2517
   70MPD2    H1 1073   2.065   3.010  12.616  0.2763  2.6055 -1.1682
   70MPD2    H2 1074   1.975   3.066  12.216 -1.0986 -0.0452  0.3248
   70MPD2    H3 1075   2.058   3.149  12.414 -1.1062  0.3769  1.1648
   70MPD2     N 1076   1.974   2.760  12.639  0.0520  0.6401 -0.4016
   70MPD2    H5 1077   2.058   2.783  12.690  0.6873 -1.3360 -0.5475
   70MPD2    N1 1078   1.866   2.822  12.169 -0.0241 -0.0443 -0.3199
   70MPD2    H7 1079   1.911   2.859  12.085 -0.2465 -0.2966 -0.5467
   71TMC2    C1 1080   3.406   3.344   1.921  0.0773  0.2405 -0.3165
   71TMC2    C2 1081   3.463   3.459   1.961  0.0375  0.1288  0.5062
   71TMC2    C3 1082   3.381   3.558   2.013 -0.3426 -0.2003  0.3178
   71TMC2    C4 1083   3.267   3.323   1.927  0.2876  0.2268  0.3984
   71TMC2    C5 1084   3.190   3.429   1.974  0.6187 -0.3628  0.7624
   71TMC2    C6 1085   3.250   3.541   2.035 -0.4939 -0.5031 -0.5594
   71TMC2     C 1086   3.483   3.240   1.853  0.1420 -0.0763  0.2381
   71TMC2     O 1087   3.596   3.273   1.821  0.3003  0.0937 -0.6886
   71TMC2     H 1088   3.570   3.472   1.954  0.0551 -0.6725 -0.7798
   71TMC2    H1 1089   3.227   3.250   1.857 -0.4482  1.4117 -0.4097
   71TMC2    H2 1090   3.186   3.621   2.070 -0.2282 -0.2804 -0.5799
   71TMC2    C7 1091   3.054   3.447   1.918 -0.2521  0.3720  0.1894
   71TMC2    C8 1092   3.449   3.658   2.096 -0.3335  0.2270  0.8833
   71TMC2    O1 1093   3.005   3.554   1.948 -0.0743  0.1497  0.6368
   71TMC2    O2 1094   3.403   3.767   2.128  0.2132  0.4438  0.3170
   71TMC2    O5 1095   3.543   3.590   2.166 -0.1777  0.1699  0.2255
   71TMC2    H5 1096   3.544   3.497   2.136  0.0984  0.0982  0.4661
   72MPD2     C 1097   3.495   2.804   1.593  0.4963  0.1845  0.3988
   72MPD2    C1 1098   3.558   2.928   1.574  1.3954  0.3062  0.6337
   72MPD2    C2 1099   3.544   3.027   1.674 -0.2944 -0.1351 -0.2796
   72MPD2    C3 1100   3.462   3.009   1.778  0.7400  0.2067 -0.2742
   72MPD2    C4 1101   3.397   2.886   1.794  0.1362  0.0036  0.6287
   72MPD2    C5 1102   3.418   2.780   1.704  0.4770  0.2037 -0.1475
   72MPD2     H 1103   3.578   3.126   1.647  3.0417 -0.8969  1.0830
   72MPD2    H1 1104   3.327   2.866   1.874 -1.6221  1.3918 -0.5650
   72MPD2    H2 1105   3.491   2.732   1.512 -0.8133  0.1315  0.5114
   72MPD2    H3 1106   3.350   2.696   1.705  0.7296 -0.0024 -0.3509
   72MPD2     N 1107   3.430   3.113   1.872  0.1443 -0.3814  0.3467
   72MPD2    H5 1108   3.360   3.105   1.945  1.0659  0.6088  1.3251
   72MPD2    N1 1109   3.633   2.964   1.456 -0.3131  0.2864  0.6638
   72MPD2    H7 1110   3.692   3.045   1.471 -0.1511  0.4332 -0.7738
   73TMC2    C1 1111   3.830   4.671  13.993 -0.2568 -0.4486  0.5782
   73TMC2    C2 1112   3.736   4.702  14.091  0.5104 -0.7591  0.3312
   73TMC2    C3 1113   3.776   4.704  14.219 -0.4087 -0.0766  0.0017
   73TMC2    C4 1114   3.957   4.647  14.035  0.4014  0.1546  0.5653
   73TMC2    C5 1115   3.987   4.644  14.165  0.3464 -0.0897  0.1723
   73TMC2    C6 1116   3.903   4.671  14.266  0.2470 -1.1264  0.1514
   73TMC2     C 1117   3.833   0.033  13.874 -0.6706  0.0689  0.0905
   73TMC2     O 1118   3.943   0.085  13.872 -0.1900 -0.6200  0.0144
   73TMC2     H 1119   3.637   0.017  14.065  0.9591  0.2307 -0.0172
   73TMC2    H1 1120   4.033   4.624  13.962 -1.4374 -1.7194 -0.7676
   73TMC2    H2 1121   3.940   4.675  14.368  0.9462  0.1723 -0.1633
   73TMC2    C7 1122   4.113   4.709  14.186 -0.1210  0.5475 -0.2018
   73TMC2    C8 1123   3.724   0.098  14.284  0.1355 -0.1163  0.6012
   73TMC2    O1 1124   4.190   4.664  14.274 -0.2404  0.0402 -0.2953
   73TMC2    O2 1125   3.703   0.202  14.222 -0.3532  0.1202  0.1529
   73TMC2    O5 1126   3.665   0.062  14.402  0.3703 -0.6099 -0.2912
   73TMC2    H5 1127   3.714   4.705  14.433 -0.3724 -1.1804 -0.5596
   74MPD2     C 1128   3.641   0.383  13.561  0.7510  0.2291  0.5102
   74MPD2    C1 1129   3.756   0.382  13.634 -0.0482 -0.2451 -0.0368
   74MPD2    C2 1130   3.785   0.277  13.716 -0.4337  0.3316  0.1713
   74MPD2    C3 1131   3.693   0.178  13.736 -0.4373 -0.0691 -0.3544
   74MPD2    C4 1132   3.568   0.195  13.674  0.3586  0.2917 -0.3116
   74MPD2    C5 1133   3.547   0.288  13.584 -0.2623  0.5354 -0.8827
   74MPD2     H 1134   3.871   0.281  13.781 -0.5495 -0.4592  0.3719
   74MPD2    H1 1135   3.481   0.137  13.704 -0.2920 -0.1615 -3.0771
   74MPD2    H2 1136   3.618   0.466  13.495 -0.0135 -0.3409  0.0468
   74MPD2    H3 1137   3.450   0.294  13.537 -0.4403  2.0733 -0.3101
   74MPD2     N 1138   3.709   0.068  13.824  0.4064 -0.1901 -0.9348
   74MPD2    H5 1139   3.625   0.018  13.849 -0.2230  0.6960 -1.2616
   74MPD2    N1 1140   3.848   0.488  13.624  0.3680  0.6942  0.2035
   74MPD2    H7 1141   3.815   0.569  13.573 -0.3581 -0.0427 -0.5109
   75TCq2    C1 1142   3.946   1.334  13.973 -0.9529  0.3948  0.3168
   75TCq2    O2 1143   3.939   1.329  14.096  0.4829 -0.1992  0.5270
   75TCq2    C2 1144   3.823   1.345  13.901 -0.4156 -0.0510  0.0092
   75TCq2    C3 1145   3.707   1.315  13.974 -0.1296  0.2579 -0.0942
   75TCq2    C4 1146   3.582   1.321  13.919 -0.1770 -0.2223 -0.2321
   75TCq2    C5 1147   3.559   1.366  13.796  0.5411  0.3245  0.9546
   75TCq2    C6 1148   3.677   1.410  13.725  0.2854  0.8989 -0.4824
   75TCq2    C7 1149   3.812   1.389  13.772  1.3068  0.1223 -0.3429
   75TCq2    C8 1150   3.664   1.503  13.618 -0.6417 -0.2923 -0.4647
   75TCq2    O4 1151   3.757   1.518  13.543  0.5673  0.2495  0.7226
   75TCq2    C9 1152   3.477   1.275  14.001  0.8938 -0.1240 -0.2827
   75TCq2    O5 1153   3.359   1.293  13.954 -0.3711 -0.1053 -0.3488
   75TCq2    O6 1154   3.515   1.186  14.085  0.2995 -0.5009 -0.0779
   75TCq2    H2 1155   3.719   1.296  14.080  0.7955 -2.1115 -0.6169
   75TCq2    H3 1156   3.460   1.365  13.751  1.6075 -2.0736 -1.3741
   75TCq2    H4 1157   3.903   1.411  13.718  1.0297 -1.1087 -1.3139
   76MPD2     C 1158   2.998   2.067  12.017 -0.6330 -0.0304 -0.1078
   76MPD2    C1 1159   3.071   2.130  11.928  0.0030  0.1002 -0.2865
   76MPD2    C2 1160   3.205   2.101  11.902  0.8471  0.7733 -0.1302
   76MPD2    C3 1161   3.270   2.003  11.982 -0.1362 -0.2963  0.0959
   76MPD2    C4 1162   3.195   1.951  12.087 -0.0438 -0.1464 -0.4555
   76MPD2    C5 1163   3.065   1.985  12.103 -0.4893 -0.8979  0.1840
   76MPD2     H 1164   3.255   2.144  11.816 -0.3628  2.3244 -0.0664
   76MPD2    H1 1165   3.232   1.877  12.157 -0.4073  1.9024  1.9216
   76MPD2    H2 1166   2.891   2.069  12.035 -0.5109 -3.6037  1.2529
   76MPD2    H3 1167   2.995   1.934  12.168 -1.2827 -1.2169 -0.9138
   76MPD2     N 1168   3.402   1.954  11.956 -0.1933  0.1948  0.2737
   76MPD2    H5 1169   3.429   1.884  12.025  0.7774  0.1118 -0.1967
   76MPD2    N1 1170   3.012   2.237  11.862 -0.4223 -0.5767 -0.3501
   76MPD2    H7 1171   3.068   2.277  11.788  0.7506  0.8886  1.3364
   77TCq2    C1 1172   3.485   1.982  11.849  0.8868  0.2460  0.8137
   77TCq2    O2 1173   3.469   2.039  11.742 -0.0888 -0.4395  0.3315
   77TCq2    C2 1174   3.628   1.947  11.868 -1.3055  0.7985 -0.5584
   77TCq2    C3 1175   3.715   1.953  11.762  0.0536 -0.0664  0.5191
   77TCq2    C4 1176   3.847   1.959  11.791  0.2366  0.3088 -1.0536
   77TCq2    C5 1177   3.897   1.952  11.914  0.3696  0.5182 -0.4459
   77TCq2    C6 1178   3.816   1.940  12.017 -0.5984 -0.0483 -0.1710
   77TCq2    C7 1179   3.679   1.943  11.999 -0.6084 -0.0733 -0.2421
   77TCq2    C8 1180   3.885   1.930  12.153 -0.4186 -0.0884  0.7300
   77TCq2    O4 1181   4.005   1.914  12.156  0.9378  0.0751  0.0493
   77TCq2    C9 1182   3.945   1.965  11.680 -0.1314  0.3907 -0.2678
   77TCq2    O5 1183   3.915   1.998  11.566  0.1891  0.4835  0.5258
   77TCq2    O6 1184   4.064   1.928  11.709  0.1616 -0.1602 -0.2734
   77TCq2    H2 1185   3.680   1.954  11.660 -0.9728 -0.0784  0.8707
   77TCq2    H3 1186   4.004   1.964  11.927  0.6200  0.5356 -2.6262
   77TCq2    H4 1187   3.614   1.961  12.084  0.6972  1.0808  0.5316
   78MPD1     C 1188   2.717   1.835  17.592  0.3949 -0.7940  0.5348
   78MPD1    C1 1189   2.784   1.950  17.610  0.3321 -0.6467  0.2208
   78MPD1    C2 1190   2.790   2.009   0.051  0.3047 -0.0403 -0.3201
   78MPD1    C3 1191   2.732   1.946   0.164 -0.3559  0.1010  1.2383
   78MPD1    C4 1192   2.661   1.831   0.138  0.7870 -0.8852  0.1194
   78MPD1    C5 1193   2.660   1.777   0.010 -0.0238  0.0321  0.1280
   78MPD1     H 1194   2.837   2.107   0.049 -0.6814  0.4470  0.9647
   78MPD1    H1 1195   2.616   1.782   0.223  2.3241  1.1194  2.1096
   78MPD1    H2 1196   2.707   1.792  17.493 -0.2185 -0.5735  0.4981
   78MPD1    H3 1197   2.596   1.690  17.685 -2.6335  2.1765 -1.7872
   78MPD1     N 1198   2.750   1.996   0.293 -0.0347  0.7146  0.7164
   78MPD1    H5 1199   2.696   1.958   0.370 -0.1581  0.6254  0.5869
   78MPD1    N1 1200   2.825   2.027  17.499 -0.0937 -0.1417 -0.0479
   78MPD1    H6 1201   2.825   1.980  17.409 -0.4059 -0.7107  0.2530
   78MPD1    H7 1202   2.909   2.084  17.506 -1.1331  1.3410  0.5628
   79TCq2    C1 1203   2.843   2.090   0.327 -0.1448  0.1905 -0.7931
   79TCq2    O2 1204   2.930   2.140   0.254 -0.6549  0.4560 -0.8066
   79TCq2    C2 1205   2.828   2.122   0.472 -0.1064  0.4008  0.1016
   79TCq2    C3 1206   2.717   2.098   0.539 -0.0821 -0.2082  0.4384
   79TCq2    C4 1207   2.722   2.097   0.676 -0.1837 -0.0499  0.3798
   79TCq2    C5 1208   2.838   2.129   0.751  0.8852 -0.2701 -0.1174
   79TCq2    C6 1209   2.948   2.160   0.675 -0.9660  0.3656 -0.3761
   79TCq2    C7 1210   2.945   2.154   0.538 -0.6743 -0.8030  0.5056
   79TCq2    C8 1211   3.070   2.207   0.735 -0.0361  0.2914  0.2589
   79TCq2    O4 1212   3.159   2.226   0.655  0.5231  0.5964  0.2123
   79TCq2    C9 1213   2.595   2.085   0.756  0.0862  0.3327 -0.9730
   79TCq2    O5 1214   2.604   2.072   0.880  0.6847  0.2221  0.1090
   79TCq2    O6 1215   2.492   2.054   0.689  0.0020 -0.6861  0.4739
   79TCq2    H2 1216   2.617   2.093   0.497  0.4179  2.1053 -1.0589
   79TCq2    H3 1217   2.826   2.140   0.858  0.2699  0.3036 -0.2449
   79TCq2    H4 1218   3.034   2.159   0.478 -0.6347 -1.1969  0.5271
   80MPD2     C 1219   1.765   1.941  12.476  0.2068  0.2713  0.5350
   80MPD2    C1 1220   1.744   1.950  12.344 -0.3208  0.5838  0.3238
   80MPD2    C2 1221   1.618   1.948  12.297  0.5863  0.0472  0.8425
   80MPD2    C3 1222   1.520   1.891  12.377  0.0070  0.1100 -0.3168
   80MPD2    C4 1223   1.538   1.876  12.509 -0.3706  0.5496 -0.6814
   80MPD2    C5 1224   1.664   1.895  12.554 -0.5222  0.2467  0.5030
   80MPD2     H 1225   1.604   1.961  12.191 -0.4147  2.6040  1.2966
   80MPD2    H1 1226   1.466   1.836  12.579  1.1585 -2.7819 -0.9881
   80MPD2    H2 1227   1.859   1.954  12.529 -0.0929 -1.5092  1.4978
   80MPD2    H3 1228   1.695   1.876  12.656 -1.0481 -2.5136  0.1456
   80MPD2     N 1229   1.405   1.830  12.320 -0.3132 -0.1343 -0.7349
   80MPD2    H5 1230   1.363   1.753  12.370 -0.0446 -0.1227 -0.4931
   80MPD2    N1 1231   1.849   1.978  12.248  0.0472 -0.1900  0.4546
   80MPD2    H7 1232   1.815   1.990  12.153  0.9238  1.2371  0.3269
   81TCq2    C1 1233   1.982   1.979  12.275  0.3415 -0.0350 -0.3672
   81TCq2    O2 1234   2.035   1.985  12.386 -0.3922 -0.3713 -0.0457
   81TCq2    C2 1235   2.070   1.974  12.157  0.2440 -0.0445  0.4623
   81TCq2    C3 1236   2.201   1.974  12.180 -0.1188  0.7229  0.9204
   81TCq2    C4 1237   2.284   1.931  12.080  0.0366 -0.3037  0.4853
   81TCq2    C5 1238   2.237   1.892  11.954 -0.0521 -0.0441  0.2203
   81TCq2    C6 1239   2.108   1.900  11.932  0.1019 -0.0888  0.3585
   81TCq2    C7 1240   2.025   1.943  12.029 -0.4485  0.3916 -0.0180
   81TCq2    C8 1241   2.052   1.820  11.832 -0.2719  0.1916  0.5882
   81TCq2    O4 1242   1.952   1.862  11.775  0.3722 -0.5522 -0.0856
   81TCq2    C9 1243   2.424   1.919  12.112  0.2428  0.8678  0.6259
   81TCq2    O5 1244   2.463   1.969  12.223  0.0191  0.2926  0.5024
   81TCq2    O6 1245   2.498   1.903  12.010  0.3214 -0.5496  0.1455
   81TCq2    H2 1246   2.246   2.007  12.273  1.6312 -2.4665  1.1896
   81TCq2    H3 1247   2.305   1.865  11.874 -0.5870 -2.4044  0.5542
   81TCq2    H4 1248   1.919   1.932  12.013 -0.6995  0.2949  1.6764
   82MPD2     C 1249   0.115   1.647  10.133 -0.2064 -0.0301  0.5553
   82MPD2    C1 1250   0.074   1.516  10.133  0.0634  0.1144 -0.0924
   82MPD2    C2 1251   0.075   1.447  10.252  0.3914 -0.0181  0.2651
   82MPD2    C3 1252   0.121   1.498  10.370  0.2534 -0.0825 -0.3160
   82MPD2    C4 1253   0.164   1.629  10.369  0.0291 -0.2547  0.3686
   82MPD2    C5 1254   0.158   1.705  10.250  0.3412  0.0012  0.1363
   82MPD2     H 1255   0.024   1.351  10.247  0.8987 -0.2420 -0.5965
   82MPD2    H1 1256   0.197   1.676  10.461 -0.4060  0.6324  0.0726
   82MPD2    H2 1257   0.105   1.705  10.042  0.1864  1.5419  1.5224
   82MPD2    H3 1258   0.183   1.810  10.257  1.0441 -0.2078  0.7180
   82MPD2     N 1259   0.133   1.428  10.492 -0.5171 -0.5320 -0.4227
   82MPD2    H5 1260   0.149   1.481  10.578  0.5887 -2.6041  0.6653
   82MPD2    N1 1261   0.042   1.461  10.012 -0.6304 -0.3181  0.7907
   82MPD2    H7 1262   0.044   1.513   9.925  0.7539  1.0351  1.6256
   83TCq2    C1 1263   0.105   1.295  10.507 -0.1584  0.2302 -0.3922
   83TCq2    O2 1264   0.076   1.210  10.427 -0.1919  0.4649  0.2996
   83TCq2    C2 1265   0.137   1.254  10.645 -0.3139  0.1199 -0.7827
   83TCq2    C3 1266   0.231   1.323  10.706  1.1733  0.4251  0.3296
   83TCq2    C4 1267   0.261   1.305  10.837 -0.3062  0.3692  1.0391
   83TCq2    C5 1268   0.208   1.197  10.900  0.1965  0.5382  0.4580
   83TCq2    C6 1269   0.117   1.110  10.828  0.1273 -0.2059  0.0684
   83TCq2    C7 1270   0.077   1.146  10.703  0.0348  0.4028  0.5239
   83TCq2    C8 1271   0.066   1.004  10.908 -0.1936 -0.0022  0.5838
   83TCq2    O4 1272   0.057   1.008  11.027  0.3702 -0.2641 -0.2433
   83TCq2    C9 1273   0.363   1.378  10.909  0.1406 -0.1199 -0.1293
   83TCq2    O5 1274   0.409   1.481  10.852 -0.0520  0.1470  0.3004
   83TCq2    O6 1275   0.389   1.345  11.031  0.1498 -0.1522  0.9102
   83TCq2    H2 1276   0.295   1.401  10.667 -0.5498  0.0581 -3.3268
   83TCq2    H3 1277   0.249   1.156  10.992 -0.5454  0.9111  0.9612
   83TCq2    H4 1278   4.718   1.098  10.648  0.4588  1.0922 -0.7111
   84TCq2    C1 1279   2.026   0.050  10.523  0.4661 -0.4664  0.2649
   84TCq2    O2 1280   1.916   0.010  10.490  0.1776  0.5396  0.3709
   84TCq2    C2 1281   2.057   0.068  10.667 -0.0323  0.7146 -0.3602
   84TCq2    C3 1282   2.186   0.078  10.694 -0.0711  0.0676  0.3619
   84TCq2    C4 1283   2.226   0.095  10.827 -0.4050 -0.5192 -0.1614
   84TCq2    C5 1284   2.136   0.115  10.924  0.0022  0.6816 -0.7522
   84TCq2    C6 1285   2.006   0.086  10.897  0.0157  0.1286  0.0163
   84TCq2    C7 1286   1.958   0.065  10.765  0.6200 -0.5636  0.7535
   84TCq2    C8 1287   1.904   0.108  10.995 -0.9617 -0.0549  0.6385
   84TCq2    O4 1288   1.794   0.065  10.965  0.8842  0.5762  0.1307
   84TCq2    C9 1289   2.363   0.122  10.854  0.2526 -0.1657 -0.2650
   84TCq2    O5 1290   2.435   0.146  10.752  0.5675  0.1187 -0.2855
   84TCq2    O6 1291   2.379   0.187  10.963 -0.0092  0.0713 -0.0065
   84TCq2    H2 1292   2.265   0.073  10.621  0.6298  1.8685  1.0146
   84TCq2    H3 1293   2.176   0.115  11.025 -0.4424 -1.5617 -0.5742
   84TCq2    H4 1294   1.854   0.065  10.734  0.7494 -0.2289  0.3269
   85MPD2     C 1295   1.686   2.826  16.433 -0.6904 -0.1590  0.2310
   85MPD2    C1 1296   1.636   2.800  16.307 -0.1689  0.0882  0.4567
   85MPD2    C2 1297   1.650   2.896  16.209 -0.0454  0.1270  0.7403
   85MPD2    C3 1298   1.719   3.014  16.235 -0.0923 -0.0682  0.3603
   85MPD2    C4 1299   1.762   3.037  16.360 -0.0808  0.5295 -1.3402
   85MPD2    C5 1300   1.735   2.948  16.456  0.6985 -0.0754  0.5006
   85MPD2     H 1301   1.600   2.879  16.114  0.1998 -0.2898  0.6866
   85MPD2    H1 1302   1.831   3.119  16.378 -0.5785 -0.0239  2.9763
   85MPD2    H2 1303   1.660   2.763  16.518 -1.3234 -0.4201 -0.1567
   85MPD2    H3 1304   1.765   2.966  16.558 -1.2348 -0.8354  1.2167
   85MPD2     N 1305   1.749   3.119  16.139 -0.3133 -0.3971 -0.0781
   85MPD2    H5 1306   1.810   3.195  16.167 -0.5075  0.3820 -1.7807
   85MPD2    N1 1307   1.567   2.683  16.271  0.0235 -0.1029  0.5183
   85MPD2    H7 1308   1.513   2.690  16.185  0.3948 -1.0068  0.2094
   86TCq2    C1 1309   1.676   3.126  16.019  0.7273  0.2610 -0.6523
   86TCq2    O2 1310   1.600   3.048  15.967  0.1246  0.3255 -0.0825
   86TCq2    C2 1311   1.699   3.253  15.948  0.7279 -0.4636  0.8700
   86TCq2    C3 1312   1.603   3.299  15.871 -0.1392 -0.3197  0.1206
   86TCq2    C4 1313   1.628   3.415  15.795  0.5134  0.4863 -0.3618
   86TCq2    C5 1314   1.748   3.486  15.795 -0.2147 -0.4492  0.2603
   86TCq2    C6 1315   1.839   3.437  15.888 -0.0804 -0.1720  1.1390
   86TCq2    C7 1316   1.810   3.331  15.965 -0.1871 -0.0435  1.1514
   86TCq2    C8 1317   1.978   3.466  15.873  0.4503 -0.0812  0.1016
   86TCq2    O4 1318   2.061   3.406  15.936  0.5935  0.0190  0.2414
   86TCq2    C9 1319   1.522   3.470  15.711  0.0590  0.1843  0.2615
   86TCq2    O5 1320   1.406   3.420  15.729 -0.6524 -0.4377  0.5070
   86TCq2    O6 1321   1.551   3.571  15.647  0.0059  0.5412 -1.0320
   86TCq2    H2 1322   1.502   3.259  15.865 -1.1550  2.0599  0.9706
   86TCq2    H3 1323   1.759   3.570  15.727 -3.6210 -1.5197 -1.6528
   86TCq2    H4 1324   1.888   3.297  16.032 -0.1465 -1.6640  0.2792
   87MPD2     C 1325   2.744   1.752   0.760 -0.1067  0.0431  0.2712
   87MPD2    C1 1326   2.875   1.777   0.726  0.3013  0.4383 -0.0805
   87MPD2    C2 1327   2.913   1.762   0.592 -0.5090  0.2594  0.7447
   87MPD2    C3 1328   2.831   1.704   0.498  0.6056  0.0044  0.1981
   87MPD2    C4 1329   2.700   1.683   0.538  0.0908  0.1100 -0.0036
   87MPD2    C5 1330   2.657   1.715   0.664  0.5136 -0.2919  0.4598
   87MPD2     H 1331   3.012   1.801   0.569 -0.7059  0.9242  1.0232
   87MPD2    H1 1332   2.626   1.637   0.474  1.1585 -1.3294 -0.2065
   87MPD2    H2 1333   2.706   1.762   0.861  0.9002  0.9313  0.5682
   87MPD2    H3 1334   2.555   1.685   0.684  0.0447  1.4400  0.7098
   87MPD2     N 1335   2.867   1.676   0.363  0.3438  0.5874  0.1459
   87MPD2    H5 1336   2.797   1.635   0.303  1.5027 -1.1749 -0.0106
   87MPD2    N1 1337   2.963   1.833   0.830  0.0277 -0.0896  0.4549
   87MPD2    H7 1338   2.917   1.853   0.918 -1.8765 -2.6692  0.0420
   88TCq2    C1 1339   3.097   1.842   0.821 -0.2644  0.3057  0.5666
   88TCq2    O2 1340   3.170   1.832   0.727  0.3902  0.1169 -0.2286
   88TCq2    C2 1341   3.157   1.888   0.945  0.5779  0.4825 -0.0850
   88TCq2    C3 1342   3.092   1.874   1.069  0.2545  0.5236  0.3728
   88TCq2    C4 1343   3.173   1.884   1.183  0.3753 -0.3210  0.0103
   88TCq2    C5 1344   3.307   1.901   1.170 -0.2283  0.2150  0.3257
   88TCq2    C6 1345   3.364   1.911   1.042  0.4874  0.4358 -0.2289
   88TCq2    C7 1346   3.292   1.904   0.929  0.5767  0.6753 -0.0658
   88TCq2    C8 1347   3.506   1.882   1.018 -0.1637 -0.1078 -0.5709
   88TCq2    O4 1348   3.535   1.853   0.904 -0.8986 -0.0637  0.2323
   88TCq2    C9 1349   3.117   1.863   1.318 -0.3906  0.1415 -0.2075
   88TCq2    O5 1350   3.196   1.857   1.414  0.7055  0.7337  0.4058
   88TCq2    O6 1351   2.995   1.840   1.332  0.1754  0.6454  0.4780
   88TCq2    H2 1352   2.986   1.859   1.087 -0.4851  2.2725 -2.4592
   88TCq2    H3 1353   3.370   1.918   1.257 -0.8782 -2.0073  1.2293
   88TCq2    H4 1354   3.333   1.906   0.829  0.6034 -1.6861 -0.1073
   89MPD2     C 1355   4.719   4.258   1.274 -0.3016 -0.1751  0.2898
   89MPD2    C1 1356   4.658   4.342   1.362 -0.3517  0.8647  0.5078
   89MPD2    C2 1357   4.717   4.466   1.386  0.7093 -0.4756  0.1653
   89MPD2    C3 1358   0.100   4.509   1.314  0.3782  0.5335  0.4558
   89MPD2    C4 1359   0.160   4.430   1.217 -0.5696  0.2544 -0.3425
   89MPD2    C5 1360   0.112   4.303   1.201 -0.0913  0.5138  0.7526
   89MPD2     H 1361   4.663   4.533   1.452  0.5625  1.5218 -1.9815
   89MPD2    H1 1362   0.249   4.463   1.166 -0.4199 -0.4653 -0.5580
   89MPD2    H2 1363   4.681   4.158   1.257  0.9154 -0.2672 -1.8920
   89MPD2    H3 1364   0.169   4.234   1.140 -0.7870  2.1586 -1.7757
   89MPD2     N 1365   0.128   4.648   1.334  0.4883  0.4284  0.2030
   89MPD2    H5 1366   0.077   4.701   1.404 -1.9300 -3.1479  1.1561
   89MPD2    N1 1367   4.543   4.313   1.438  0.6701 -0.2152 -0.2024
   89MPD2    H7 1368   4.505   4.377   1.506 -1.0632 -0.4840 -0.9066
   90TCq2    C1 1369   0.229   4.714   1.263 -0.2201  0.5655 -0.0170
   90TCq2    O2 1370   0.283   4.688   1.152 -0.0451  0.1146 -0.3140
   90TCq2    C2 1371   0.242   0.133   1.311  0.5509  0.7429  0.4988
   90TCq2    C3 1372   0.212   0.167   1.443  0.7212  0.3197 -1.0054
   90TCq2    C4 1373   0.182   0.294   1.475  0.1433  0.1859  0.3763
   90TCq2    C5 1374   0.200   0.393   1.379 -0.0741 -0.4341 -1.0726
   90TCq2    C6 1375   0.245   0.361   1.252 -0.0484  0.2992 -0.3477
   90TCq2    C7 1376   0.268   0.229   1.213  0.0901 -0.8370  0.4848
   90TCq2    C8 1377   0.275   0.475   1.160 -0.8645  0.5528  0.4306
   90TCq2    O4 1378   0.228   0.587   1.174  0.2320  0.0428  0.3794
   90TCq2    C9 1379   0.146   0.334   1.611  0.0587 -0.1427  0.6209
   90TCq2    O5 1380   0.112   0.238   1.689 -0.0346  0.7776  0.1966
   90TCq2    O6 1381   0.138   0.457   1.631  0.3551  0.3067 -0.4960
   90TCq2    H2 1382   0.198   0.091   1.519 -2.0794  1.1882 -0.6680
   90TCq2    H3 1383   0.184   0.499   1.399  1.2956 -0.3453 -0.4807
   90TCq2    H4 1384   0.284   0.212   1.107  0.0130  3.7374 -0.2527
   91TMC2    C1 1385   2.139   4.136  16.191  0.3004  0.1427  0.2536
   91TMC2    C2 1386   2.129   4.197  16.070 -0.1184 -0.4758 -0.2292
   91TMC2    C3 1387   2.006   4.237  16.037  0.9381 -0.0805  0.3940
   91TMC2    C4 1388   2.033   4.098  16.263  0.0350  0.1183 -0.3174
   91TMC2    C5 1389   1.908   4.133  16.217 -0.1742  0.0407  0.7868
   91TMC2    C6 1390   1.887   4.206  16.101  0.8116 -0.7460 -0.6577
   91TMC2     C 1391   2.268   4.080  16.228 -0.0426  0.1702  0.4508
   91TMC2     O 1392   2.265   3.983  16.305 -0.0261  0.2289  0.1771
   91TMC2     H 1393   2.208   4.198  15.995  1.3098 -0.1468  1.2819
   91TMC2    H1 1394   2.045   4.051  16.359  1.8737  1.1787 -0.0265
   91TMC2    H2 1395   1.795   4.252  16.066  0.7253  0.8562  1.6939
   91TMC2    C7 1396   1.785   4.107  16.289  0.8605 -0.4829  0.1557
   91TMC2    C8 1397   2.013   4.351  15.943 -0.3206 -0.7081 -0.4635
   91TMC2    O1 1398   1.798   4.068  16.402 -0.5328 -0.1574 -0.1342
   91TMC2    O2 1399   2.090   4.440  15.968 -0.1153  0.8168 -0.0591
   91TMC2    O5 1400   1.894   4.368  15.886 -0.0382 -0.4431 -0.7332
   91TMC2    H5 1401   1.855   4.279  15.868 -1.0870  0.3585 -2.5015
   92MPD2     C 1402   2.553   4.010  16.269  0.6201 -0.0211 -0.4643
   92MPD2    C1 1403   2.506   4.119  16.194 -0.1220 -0.8917 -0.5257
   92MPD2    C2 1404   2.597   4.196  16.121 -0.7747 -0.3040 -0.1235
   92MPD2    C3 1405   2.723   4.163  16.121  0.0452  0.0916  0.3216
   92MPD2    C4 1406   2.768   4.055  16.192  0.4516 -0.0165 -0.9420
   92MPD2    C5 1407   2.686   3.969  16.258  0.3446 -0.3416 -0.1126
   92MPD2     H 1408   2.555   4.283  16.071 -0.9544 -0.8325 -0.9007
   92MPD2    H1 1409   2.869   4.016  16.195  0.6270  0.5030 -0.1247
   92MPD2    H2 1410   2.495   3.953  16.341  2.9948 -1.8949 -0.0564
   92MPD2    H3 1411   2.729   3.892  16.322 -1.1246 -0.4464  0.7427
   92MPD2     N 1412   2.807   4.257  16.046  0.4408 -0.2147  0.1922
   92MPD2    H5 1413   2.756   4.333  16.002  2.5164  1.0633 -0.0033
   92MPD2    N1 1414   2.373   4.158  16.183 -0.0365 -0.0737  0.0712
   92MPD2    H7 1415   2.350   4.233  16.118  0.1938 -2.2091 -2.4672
   93MPD2     C 1416   3.252   3.600  13.770  0.0725 -0.0699 -0.3728
   93MPD2    C1 1417   3.235   3.734  13.797 -0.2346  0.9422 -0.4504
   93MPD2    C2 1418   3.118   3.798  13.778 -0.3933 -0.0371  0.0297
   93MPD2    C3 1419   3.023   3.730  13.713  0.3178  0.5574  0.8329
   93MPD2    C4 1420   3.042   3.602  13.676 -0.3023  0.5620  0.2568
   93MPD2    C5 1421   3.159   3.537  13.697 -0.5488  0.3037 -0.5255
   93MPD2     H 1422   3.108   3.904  13.799 -0.7241  0.0814 -0.7375
   93MPD2    H1 1423   2.961   3.552  13.624 -0.0283  4.3040 -3.6598
   93MPD2    H2 1424   3.340   3.542  13.794  1.1883  2.3067  1.3462
   93MPD2    H3 1425   3.158   3.430  13.677 -2.0980 -0.5057  3.7312
   93MPD2     N 1426   2.902   3.787  13.665  0.1327 -0.2206  0.2084
   93MPD2    H5 1427   2.853   3.717  13.610  0.0840  1.0772 -1.3726
   93MPD2    N1 1428   3.334   3.810  13.863 -0.1199 -0.4290 -0.3499
   93MPD2    H7 1429   3.300   3.901  13.892  1.1664 -0.3985  1.0711
   94TCq2    C1 1430   3.454   3.766  13.919 -0.4454  0.1341  0.7880
   94TCq2    O2 1431   3.517   3.662  13.889 -0.1826 -0.8091  0.0827
   94TCq2    C2 1432   3.515   3.872  13.998  0.2808 -0.2011 -0.6561
   94TCq2    C3 1433   3.436   3.960  14.059 -0.1514 -0.0435 -0.3666
   94TCq2    C4 1434   3.499   4.058  14.131  0.2926  0.7827 -0.3531
   94TCq2    C5 1435   3.642   4.061  14.143 -0.1667 -0.4197 -0.1235
   94TCq2    C6 1436   3.710   3.974  14.064  1.0427  0.0426 -0.0768
   94TCq2    C7 1437   3.650   3.879  13.990 -0.2905 -0.4015  0.1477
   94TCq2    C8 1438   3.856   3.985  14.041  0.5987 -0.9904 -0.0383
   94TCq2    O4 1439   3.908   3.888  13.989  0.6192  0.4349 -0.8466
   94TCq2    C9 1440   3.414   4.152  14.204  0.7103 -0.2438 -0.3526
   94TCq2    O5 1441   3.291   4.123  14.201  0.5881  0.1560 -0.3490
   94TCq2    O6 1442   3.473   4.236  14.279  0.4636 -0.2076 -1.0048
   94TCq2    H2 1443   3.329   3.943  14.062  0.1646 -2.0453 -0.5546
   94TCq2    H3 1444   3.689   4.138  14.202  2.6706  0.5484 -3.6460
   94TCq2    H4 1445   3.718   3.818  13.931  1.3146  1.7433 -0.2402
   95TMC2    C1 1446   3.515   1.342  16.068 -0.1118 -0.1299 -0.3323
   95TMC2    C2 1447   3.451   1.254  16.151  1.1037 -0.3078  0.2172
   95TMC2    C3 1448   3.397   1.320  16.263 -0.0503 -0.7097 -0.7230
   95TMC2    C4 1449   3.530   1.471  16.093  0.2256  0.0369  0.5579
   95TMC2    C5 1450   3.493   1.522  16.210 -0.0790  0.4596 -0.3030
   95TMC2    C6 1451   3.409   1.450  16.297  0.3722  0.8357 -0.2479
   95TMC2     C 1452   3.574   1.289  15.952  0.8222 -0.5162 -0.3775
   95TMC2     O 1453   3.648   1.365  15.888 -0.5185 -0.3145 -0.0371
   95TMC2     H 1454   3.423   1.151  16.134  0.8847 -0.1703 -0.2571
   95TMC2    H1 1455   3.581   1.536  16.022  2.6013 -3.2429 -0.7196
   95TMC2    H2 1456   3.344   1.488  16.375  0.4581  0.6937 -0.1051
   95TMC2    C7 1457   3.519   1.662  16.236 -0.8695  0.2602 -0.3322
   95TMC2    C8 1458   3.363   1.233  16.371 -0.0511 -0.1248 -0.0426
   95TMC2    O1 1459   3.541   1.732  16.138 -0.1346 -0.5570 -0.5258
   95TMC2    O2 1460   3.341   1.112  16.354 -0.1062  0.4206 -0.0166
   95TMC2    O5 1461   3.399   1.286  16.487  0.1867 -0.7930  0.0701
   95TMC2    H5 1462   3.452   1.366  16.466  0.7065 -1.3775 -0.8565
   96MPD2     C 1463   3.736   0.916  15.648  0.1229 -0.2574 -0.2006
   96MPD2    C1 1464   3.766   1.047  15.659 -0.0531 -0.5055 -1.0245
   96MPD2    C2 1465   3.713   1.132  15.748 -0.5817  0.5057 -0.0202
   96MPD2    C3 1466   3.621   1.077  15.834  0.1756 -0.1533 -0.4458
   96MPD2    C4 1467   3.592   0.946  15.826  0.1353 -0.5115 -0.0843
   96MPD2    C5 1468   3.651   0.861  15.737 -0.3460  0.0637  0.0505
   96MPD2     H 1469   3.737   1.238  15.739 -4.2049  1.2949 -0.5972
   96MPD2    H1 1470   3.519   0.906  15.896  0.8739  2.4269  2.3839
   96MPD2    H2 1471   3.785   0.849  15.579 -0.7100 -0.6062 -0.4395
   96MPD2    H3 1472   3.620   0.757  15.736  0.1772 -0.1078  2.0587
   96MPD2     N 1473   3.552   1.158  15.931 -0.9864  0.1581  0.1931
   96MPD2    H5 1474   3.503   1.099  15.999 -0.3931  0.1462  0.6040
   96MPD2    N1 1475   3.850   1.114  15.563 -0.1313 -0.1063 -0.2455
   96MPD2    H7 1476   3.869   1.213  15.576 -2.6916  0.3182  0.3338
   97MPD2     C 1477   0.557   3.704   0.376  0.3173  0.1088 -0.3024
   97MPD2    C1 1478   0.460   3.609   0.363 -0.2811 -0.7552  0.1883
   97MPD2    C2 1479   0.499   3.494   0.298  0.2628 -0.0137  0.0852
   97MPD2    C3 1480   0.630   3.477   0.260 -0.1733  0.4989  0.2912
   97MPD2    C4 1481   0.726   3.574   0.275  1.0627  0.0343 -0.6625
   97MPD2    C5 1482   0.689   3.696   0.330 -0.7447  0.4394 -0.0059
   97MPD2     H 1483   0.420   3.421   0.279 -0.1242  0.3137  0.4181
   97MPD2    H1 1484   0.828   3.551   0.247  1.9170  2.1025  0.7803
   97MPD2    H2 1485   0.534   3.797   0.426 -1.6466  0.9009 -2.6679
   97MPD2    H3 1486   0.752   3.783   0.344 -0.9299  0.7690 -1.2219
   97MPD2     N 1487   0.666   3.359   0.192 -0.5350  0.1305  0.1971
   97MPD2    H5 1488   0.760   3.361   0.154 -0.9293 -0.3263 -0.7961
   97MPD2    N1 1489   0.342   3.636   0.425  0.1069  0.0729 -0.8779
   97MPD2    H7 1490   0.341   3.726   0.471  1.8000 -0.9094  1.0624
   98TCq2    C1 1491   0.605   3.243   0.167  0.0056  0.4748  0.4416
   98TCq2    O2 1492   0.492   3.208   0.194  0.4728 -0.4114  0.0694
   98TCq2    C2 1493   0.682   3.154   0.080 -0.4669 -0.8576  0.3062
   98TCq2    C3 1494   0.607   3.059   0.018 -0.0459 -0.1946 -0.0570
   98TCq2    C4 1495   0.659   3.003  17.592  0.2518 -1.0801 -0.1382
   98TCq2    C5 1496   0.785   3.036  17.546 -0.2319 -0.0929  0.0249
   98TCq2    C6 1497   0.856   3.140  17.608 -0.1112  0.1078  0.2487
   98TCq2    C7 1498   0.793   3.201   0.026  0.1561  0.5921 -0.3776
   98TCq2    C8 1499   0.996   3.169  17.590  0.0869 -0.5989 -0.2844
   98TCq2    O4 1500   1.058   3.217  17.683 -0.0019 -0.4152  0.2889
   98TCq2    C9 1501   0.589   2.892  17.527 -0.0798  0.6323  0.4129
   98TCq2    O5 1502   0.468   2.875  17.562 -0.5781 -0.2304 -0.0840
   98TCq2    O6 1503   0.643   2.842  17.425 -0.2006 -0.5827  0.1129
   98TCq2    H2 1504   0.515   3.022   0.063  0.9120 -1.1004  1.1710
   98TCq2    H3 1505   0.814   3.000  17.448  0.6533 -2.9138  1.3383
   98TCq2    H4 1506   0.848   3.269   0.091  1.4153  0.0702 -0.9035
   99MPD2     C 1507   4.154   0.745   1.415  0.0278 -0.4339  0.1832
   99MPD2    C1 1508   4.086   0.821   1.324  0.2244  0.3234 -0.1860
   99MPD2    C2 1509   4.101   0.793   1.193 -0.0031  0.1902  0.0805
   99MPD2    C3 1510   4.190   0.704   1.141  0.6665 -0.4212  0.0912
   99MPD2    C4 1511   4.262   0.633   1.231  0.5502  0.3633 -0.5535
   99MPD2    C5 1512   4.246   0.653   1.369 -0.5640 -0.2780 -1.0538
   99MPD2     H 1513   4.037   0.854   1.130  0.2597 -1.2538 -1.5706
   99MPD2    H1 1514   4.337   0.560   1.201  0.7299 -0.4956  1.9932
   99MPD2    H2 1515   4.131   0.754   1.521 -0.2141 -0.9204  0.1717
   99MPD2    H3 1516   4.301   0.591   1.439 -0.5983 -1.3015 -1.9377
   99MPD2     N 1517   4.197   0.695   0.996 -0.0195  0.0590  0.4859
   99MPD2    H5 1518   4.142   0.763   0.945 -1.7278 -1.9200 -0.3354
   99MPD2    N1 1519   3.995   0.922   1.361  0.3865 -0.6877 -0.7171
   99MPD2    H7 1520   3.939   0.965   1.288 -0.3943 -0.2455  0.1496
  100TCq2    C1 1521   3.991   0.976   1.491  0.0048 -0.8662  0.6180
  100TCq2    O2 1522   4.069   0.961   1.580  0.3177  0.1848  0.2753
  100TCq2    C2 1523   3.871   1.062   1.512 -0.3334 -0.5317 -0.4146
  100TCq2    C3 1524   3.875   1.144   1.614  0.2119  0.5594  0.6486
  100TCq2    C4 1525   3.772   1.229   1.645 -0.0105  0.3293 -0.7597
  100TCq2    C5 1526   3.664   1.232   1.556  0.9255  0.4285 -0.2827
  100TCq2    C6 1527   3.658   1.133   1.463 -0.1162  0.2458  0.2482
  100TCq2    C7 1528   3.763   1.054   1.436 -0.1375 -0.7681  0.1627
  100TCq2    C8 1529   3.529   1.122   1.397  1.1338 -0.1340 -0.4747
  100TCq2    O4 1530   3.448   1.217   1.389 -0.1162 -0.2383  0.0488
  100TCq2    C9 1531   3.782   1.324   1.752  0.0377  0.5033  0.2510
  100TCq2    O5 1532   3.890   1.327   1.818 -0.4794 -0.0241  0.6346
  100TCq2    O6 1533   3.688   1.406   1.776  0.4244 -0.5429 -0.6777
  100TCq2    H2 1534   3.957   1.137   1.684 -0.3709  0.8675  1.3689
  100TCq2    H3 1535   3.579   1.299   1.561  0.7281  0.3077 -1.9481
  100TCq2    H4 1536   3.755   0.982   1.356  0.1352  0.9328 -1.3916
  101MPD2     C 1537   0.662   1.833  12.833 -0.0469 -0.9757 -0.2642
  101MPD2    C1 1538   0.620   1.887  12.954 -0.8189  0.0262  0.7918
  101MPD2    C2 1539   0.541   1.810  13.047 -0.8497  0.4248 -0.8648
  101MPD2    C3 1540   0.501   1.683  13.009  0.4607 -0.1672  0.1863
  101MPD2    C4 1541   0.545   1.634  12.890 -0.4679  0.1243 -0.2805
  101MPD2    C5 1542   0.622   1.704  12.803  0.5339  0.7488 -0.0986
  101MPD2     H 1543   0.502   1.853  13.139  0.4557  1.5368 -0.8427
  101MPD2    H1 1544   0.510   1.544  12.841  0.1182  0.7253 -1.7998
  101MPD2    H2 1545   0.714   1.896  12.762  0.7988  0.3314  1.5111
  101MPD2    H3 1546   0.661   1.650  12.718 -0.1935  0.8152 -0.4680
  101MPD2     N 1547   0.411   1.608  13.088 -0.6021 -0.1670 -0.6125
  101MPD2    H5 1548   0.361   1.648  13.167  0.7796 -3.2472  1.8012
  101MPD2    N1 1549   0.663   2.026  12.984 -0.4373  0.0134  0.2750
  101MPD2    H7 1550   0.717   2.073  12.913 -0.9138 -0.9990 -0.7656
  102TCq2    C1 1551   0.931   2.364  12.840 -0.0379  0.2934  0.5001
  102TCq2    O2 1552   0.977   2.261  12.790  0.2209 -0.1949  0.1122
  102TCq2    C2 1553   0.806   2.354  12.908 -0.2170  0.2857  0.2354
  102TCq2    C3 1554   0.733   2.463  12.939 -0.5160  0.6693  0.4784
  102TCq2    C4 1555   0.645   2.460  13.047 -0.2487  0.2285 -0.0221
  102TCq2    C5 1556   0.624   2.348  13.117 -0.8732  0.5645  0.3169
  102TCq2    C6 1557   0.698   2.233  13.083 -0.2630 -0.4742 -0.4683
  102TCq2    C7 1558   0.786   2.232  12.976  0.1105 -0.1547  0.3505
  102TCq2    C8 1559   0.628   2.102  13.092 -0.0958 -0.0157  0.0494
  102TCq2    O4 1560   0.552   2.090  13.190 -0.6293  0.4419  0.0575
  102TCq2    C9 1561   0.565   2.575  13.069  0.0422 -0.0002 -0.1046
  102TCq2    O5 1562   0.479   2.566  13.157  0.0994 -0.6930 -0.1261
  102TCq2    O6 1563   0.599   2.677  13.011  0.5126  0.6312 -0.2763
  102TCq2    H2 1564   0.732   2.557  12.885 -1.7034  0.9264  0.9579
  102TCq2    H3 1565   0.547   2.357  13.193  0.0959 -2.8470  1.7073
  102TCq2    H4 1566   0.862   2.156  12.960  1.0144  1.0863 -1.2524
  103TMC2    C1 1567   3.557   2.164  12.825 -0.1612 -0.0104 -0.4579
  103TMC2    C2 1568   3.645   2.262  12.867  0.7353  0.6604 -0.6517
  103TMC2    C3 1569   3.621   2.323  12.983  0.6843  0.0064  0.5481
  103TMC2    C4 1570   3.451   2.127  12.901  0.0759  0.3301  0.0612
  103TMC2    C5 1571   3.443   2.175  13.025  0.3133  0.4269 -0.5616
  103TMC2    C6 1572   3.524   2.284  13.064  0.0795  0.0398  0.0887
  103TMC2     C 1573   3.601   2.095  12.713  0.1720 -0.3719  0.4036
  103TMC2     O 1574   3.516   2.040  12.641 -0.4460  0.0177  0.5746
  103TMC2     H 1575   3.729   2.293  12.806  1.7571  1.2836  1.0793
  103TMC2    H1 1576   3.403   2.034  12.872 -2.3347  2.3719 -2.4938
  103TMC2    H2 1577   3.517   2.321  13.166  1.6261  2.4713 -0.6911
  103TMC2    C7 1578   3.344   2.129  13.119  0.3757  0.3309 -0.6382
  103TMC2    C8 1579   3.699   2.432  13.015 -0.2320  0.0217  0.0837
  103TMC2    O1 1580   3.358   2.167  13.233  0.1014 -0.2142  0.4805
  103TMC2    O2 1581   3.709   2.474  13.129  0.5175  0.4615  0.5262
  103TMC2    O5 1582   3.691   2.518  12.912  1.0624  0.2445 -0.2439
  103TMC2    H5 1583   3.672   2.475  12.825  2.2797 -1.3991  0.2853
  104MPD2     C 1584   3.923   1.938  12.650  0.2424  0.3285 -0.1772
  104MPD2    C1 1585   3.803   1.995  12.615 -0.0895  0.2724 -0.0928
  104MPD2    C2 1586   3.766   1.982  12.484 -0.0672  0.2278  0.0241
  104MPD2    C3 1587   3.846   1.924  12.387 -0.4309 -0.2002  0.4969
  104MPD2    C4 1588   3.966   1.871  12.427 -0.5609 -0.0276  0.1337
  104MPD2    C5 1589   4.005   1.883  12.556 -0.2892  0.4060  0.7401
  104MPD2     H 1590   3.668   2.024  12.462  0.0772  0.3746 -0.3401
  104MPD2    H1 1591   4.046   1.840  12.361 -0.6660 -1.5873  0.7382
  104MPD2    H2 1592   3.955   1.950  12.753  0.1570  0.0268 -0.1155
  104MPD2    H3 1593   4.108   1.859  12.580 -0.6059 -1.2092  0.5046
  104MPD2     N 1594   3.794   1.942  12.257  0.5653 -0.0590 -1.0205
  104MPD2    H5 1595   3.696   1.960  12.237  0.6649 -0.2717 -1.6993
  104MPD2    N1 1596   3.733   2.065  12.715 -0.3086 -0.2798  0.0372
  104MPD2    H7 1597   3.782   2.069  12.803 -0.0043  2.2133 -0.2370
  105MPD2     C 1598   4.540   1.051   0.220 -1.4374  0.3921 -0.1552
  105MPD2    C1 1599   4.395   1.029   0.206 -0.5359 -0.1735  0.1993
  105MPD2    C2 1600   4.311   1.050   0.312  0.0887 -0.9158 -0.3065
  105MPD2    C3 1601   4.356   1.103   0.435  0.8320 -0.1219 -0.1634
  105MPD2    C4 1602   4.488   1.126   0.452  0.4325 -0.8730  0.2355
  105MPD2    C5 1603   4.573   1.098   0.343 -0.6401  0.1306  0.9129
  105MPD2     H 1604   4.208   1.023   0.293 -0.5802  1.7471 -0.4877
  105MPD2    H1 1605   4.532   1.152   0.548  2.1996  0.7607 -1.0092
  105MPD2    H2 1606   4.621   1.025   0.153 -1.2107  1.6383 -0.3731
  105MPD2    H3 1607   4.678   1.089   0.369 -0.2068  1.3736 -0.3997
  105MPD2     N 1608   4.257   1.142   0.531  0.0731  0.2022  0.1182
  105MPD2    H5 1609   4.158   1.128   0.511 -0.4086  1.6785  1.4747
  105MPD2    N1 1610   4.351   0.978   0.084  0.6653  0.0774 -0.0237
  105MPD2    H7 1611   4.256   0.943   0.074  0.9049 -1.0828  1.7344
  106TCq2    C1 1612   4.272   1.206   0.648  0.0054  0.0481  0.2097
  106TCq2    O2 1613   4.370   1.275   0.686 -0.1381  0.1563 -0.2062
  106TCq2    C2 1614   4.141   1.260   0.678 -0.0536  0.3697 -0.3391
  106TCq2    C3 1615   4.028   1.187   0.659  0.6631 -0.4227  0.8792
  106TCq2    C4 1616   3.908   1.247   0.694 -0.2560  0.1893  0.0245
  106TCq2    C5 1617   3.905   1.360   0.761 -1.2726  0.9683 -0.6517
  106TCq2    C6 1618   4.024   1.423   0.790  0.1462 -0.1357 -0.0386
  106TCq2    C7 1619   4.145   1.374   0.747  0.1922  0.2112  0.2720
  106TCq2    C8 1620   4.025   1.516   0.900 -0.3073 -0.1319 -0.8231
  106TCq2    O4 1621   4.133   1.537   0.956 -0.7559 -0.1261  0.2650
  106TCq2    C9 1622   3.785   1.172   0.660  0.1349 -0.5164 -0.5191
  106TCq2    O5 1623   3.673   1.236   0.676 -0.0927 -0.2734 -0.1248
  106TCq2    O6 1624   3.803   1.063   0.602 -0.2675 -0.2665  0.4037
  106TCq2    H2 1625   4.032   1.088   0.614 -1.7657  0.0146 -0.2900
  106TCq2    H3 1626   3.809   1.392   0.800 -0.6717  0.8478  0.9607
  106TCq2    H4 1627   4.233   1.437   0.758 -0.5313  1.3567 -0.6109
  107TMC2    C1 1628   1.205   0.091  11.655 -0.2005 -0.3808 -0.2863
  107TMC2    C2 1629   1.156   0.004  11.554 -0.4241  1.2848 -0.1154
  107TMC2    C3 1630   1.234   4.697  11.451  0.1629 -0.4272 -0.5814
  107TMC2    C4 1631   1.339   0.125  11.659 -0.5097 -0.0082 -0.7993
  107TMC2    C5 1632   1.410   0.096  11.545  0.9005  0.1185  0.2450
  107TMC2    C6 1633   1.362   0.023  11.439  0.1823 -0.2807 -0.0568
  107TMC2     C 1634   1.118   0.126  11.766  0.1107 -0.5263  0.1799
  107TMC2     O 1635   1.006   0.070  11.761  0.3557  0.1716 -0.1950
  107TMC2     H 1636   1.058   4.678  11.563  0.3380  0.1422  2.1969
  107TMC2    H1 1637   1.379   0.182  11.742  0.5765 -1.0184 -0.6248
  107TMC2    H2 1638   1.430   4.701  11.366 -1.5468  2.0679 -3.0158
  107TMC2    C7 1639   1.539   0.160  11.540  0.6463 -0.3880  0.4469
  107TMC2    C8 1640   1.184   4.607  11.350 -0.2612 -0.9863 -0.3045
  107TMC2    O1 1641   1.591   0.185  11.645 -0.3141  0.0736  0.1046
  107TMC2    O2 1642   1.093   4.532  11.388  0.4115  1.0485 -0.9675
  107TMC2    O5 1643   1.186   4.685  11.240 -0.2963  0.4257 -0.6674
  107TMC2    H5 1644   1.247   0.041  11.239  1.3014 -0.8401  0.7916
  108MPD2     C 1645   1.182   0.327  12.070  0.0941 -0.2620  0.4097
  108MPD2    C1 1646   1.117   0.231  11.996  0.7926  0.6095 -0.0624
  108MPD2    C2 1647   1.005   0.171  12.045 -0.1084  0.0538  0.2660
  108MPD2    C3 1648   0.959   0.215  12.168  0.0584 -0.5092 -0.3254
  108MPD2    C4 1649   1.028   0.311  12.239  0.1513 -1.0047 -0.1368
  108MPD2    C5 1650   1.143   0.361  12.188  0.2086 -0.3795 -0.1903
  108MPD2     H 1651   0.947   0.102  11.985 -1.5079  2.4011 -1.1058
  108MPD2    H1 1652   0.986   0.359  12.326  2.4020  0.1798  0.2944
  108MPD2    H2 1653   1.273   0.374  12.034  0.0977 -0.9139 -0.4410
  108MPD2    H3 1654   1.196   0.438  12.243  2.0147 -3.6153  2.5882
  108MPD2     N 1655   0.829   0.181  12.216 -0.8408 -0.6272 -0.0323
  108MPD2    H5 1656   0.799   0.219  12.306 -1.6484  0.3413 -0.7148
  108MPD2    N1 1657   1.172   0.205  11.865 -0.7224 -0.2198 -0.3251
  108MPD2    H7 1658   1.265   0.246  11.852 -1.0456  0.5773 -0.1152
  109MPD2     C 1659   3.826   2.589   1.372  0.3008  0.4236  0.3551
  109MPD2    C1 1660   3.916   2.597   1.278 -0.0853 -0.5876 -0.3803
  109MPD2    C2 1661   4.014   2.695   1.290 -0.4679 -0.4851  0.0826
  109MPD2    C3 1662   4.018   2.782   1.403  0.5514 -0.4140  1.0239
  109MPD2    C4 1663   3.928   2.758   1.507  0.0879 -0.7229 -0.1190
  109MPD2    C5 1664   3.830   2.664   1.481  0.4968 -0.0416  0.0089
  109MPD2     H 1665   4.073   2.713   1.201 -0.9345  0.2962 -0.0719
  109MPD2    H1 1666   3.931   2.806   1.604 -1.4286  0.8612 -0.8556
  109MPD2    H2 1667   3.736   2.531   1.354  1.2368 -1.6700  2.4485
  109MPD2    H3 1668   3.757   2.652   1.560 -0.5329  3.1124 -0.4431
  109MPD2     N 1669   4.106   2.902   1.399 -0.7505  0.8007 -0.2008
  109MPD2    H5 1670   4.174   2.907   1.324 -0.8682 -1.2039 -0.4405
  109MPD2    N1 1671   3.907   2.505   1.172  0.5508 -0.3556 -0.2474
  109MPD2    H7 1672   3.838   2.432   1.184  1.1634 -1.0082 -0.6879
  110TCq2    C1 1673   4.111   2.986   1.504  0.5311  0.4192 -0.1905
  110TCq2    O2 1674   4.054   2.986   1.609  0.3752  0.1176 -0.5994
  110TCq2    C2 1675   4.191   3.106   1.481 -0.0988  0.0840 -0.1776
  110TCq2    C3 1676   4.211   3.191   1.587 -0.0010  0.1734 -0.1302
  110TCq2    C4 1677   4.279   3.307   1.572 -0.3944  0.3222 -0.8717
  110TCq2    C5 1678   4.356   3.328   1.460 -0.0062 -0.0299  0.7247
  110TCq2    C6 1679   4.340   3.241   1.356 -0.6753  0.1692  0.1963
  110TCq2    C7 1680   4.252   3.138   1.363  0.4387 -0.2506  0.5209
  110TCq2    C8 1681   4.427   3.256   1.244  0.5910  0.3449  0.5099
  110TCq2    O4 1682   4.477   3.365   1.220 -0.2892 -0.1199 -0.6268
  110TCq2    C9 1683   4.300   3.393   1.684  0.2840  0.1115 -0.4173
  110TCq2    O5 1684   4.363   3.505   1.674  0.1163  0.1017 -0.5708
  110TCq2    O6 1685   4.264   3.357   1.797  0.3307  0.0288  0.2939
  110TCq2    H2 1686   4.163   3.170   1.682 -0.8473  0.0351 -0.5872
  110TCq2    H3 1687   4.412   3.420   1.452 -0.9087  0.3971 -0.7630
  110TCq2    H4 1688   4.223   3.081   1.275 -1.5103  2.8897 -0.8560
  111TMC2    C1 1689   1.182   2.625  11.229  0.2043 -0.2911  0.2934
  111TMC2    C2 1690   1.275   2.727  11.220 -0.8542  0.6577  0.5238
  111TMC2    C3 1691   1.368   2.729  11.319 -0.1636 -0.2853 -0.0769
  111TMC2    C4 1692   1.192   2.527  11.325 -0.9855 -0.5742 -0.8104
  111TMC2    C5 1693   1.299   2.527  11.412 -0.1783  0.5406 -0.7836
  111TMC2    C6 1694   1.387   2.631  11.412  0.1225  0.2311  0.2623
  111TMC2     C 1695   1.071   2.642  11.143  0.1146 -0.2557  0.7014
  111TMC2     O 1696   1.088   2.685  11.029  0.8293 -1.0957  0.6573
  111TMC2     H 1697   1.273   2.811  11.151  1.9150  0.0371 -0.2817
  111TMC2    H1 1698   1.116   2.449  11.330 -0.9528 -0.3889  2.5453
  111TMC2    H2 1699   1.483   2.635  11.462  0.5672  0.7869 -0.6200
  111TMC2    C7 1700   1.310   2.434  11.524  0.1029  0.1337 -0.3811
  111TMC2    C8 1701   1.462   2.840  11.336  0.0527  0.0968  0.2037
  111TMC2    O1 1702   1.421   2.402  11.563  0.1785 -0.4116  0.3083
  111TMC2    O2 1703   1.582   2.823  11.310 -1.1890  0.1918  0.5877
  111TMC2    O5 1704   1.386   2.950  11.325 -0.3081  0.0160  1.0031
  111TMC2    H5 1705   1.302   2.962  11.373 -1.1264 -2.4369  0.1860
  112MPD2     C 1706   0.579   2.692  11.090 -0.4111  0.2605  0.1650
  112MPD2    C1 1707   0.679   2.688  10.995  0.1346 -0.5496  0.3783
  112MPD2    C2 1708   0.807   2.647  11.040  0.5823  0.4987  1.1146
  112MPD2    C3 1709   0.835   2.633  11.178 -0.5585 -0.7368 -0.3551
  112MPD2    C4 1710   0.736   2.647  11.267  0.7960  0.1879  0.7130
  112MPD2    C5 1711   0.610   2.674  11.225  0.3805 -0.3307 -0.8820
  112MPD2     H 1712   0.886   2.652  10.967  0.1382  0.0553  0.6022
  112MPD2    H1 1713   0.760   2.633  11.371  0.9362  1.1136  0.8050
  112MPD2    H2 1714   0.476   2.700  11.057 -0.9330 -0.3575  1.6242
  112MPD2    H3 1715   0.539   2.699  11.304  1.7895 -0.2272  0.3540
  112MPD2     N 1716   0.962   2.625  11.221  0.5681 -0.1535  0.2240
  112MPD2    H5 1717   0.971   2.599  11.319 -0.9920  0.6393  0.5770
  112MPD2    N1 1718   0.651   2.735  10.865 -0.5182 -1.1307 -0.1339
  112MPD2    H7 1719   0.724   2.728  10.795 -0.9194 -0.4774 -0.6086
  113MPD2     C 1720   3.450   0.406   0.694 -0.6342  0.4388  0.0489
  113MPD2    C1 1721   3.339   0.473   0.736 -0.6583 -0.0918  0.1140
  113MPD2    C2 1722   3.223   0.405   0.711 -0.4203 -1.1507  0.2984
  113MPD2    C3 1723   3.213   0.273   0.663  0.5746 -0.2705  0.1929
  113MPD2    C4 1724   3.328   0.209   0.624 -0.3238 -0.0850  0.1331
  113MPD2    C5 1725   3.445   0.284   0.627  0.1950 -0.4805 -1.4389
  113MPD2     H 1726   3.129   0.451   0.739  0.7862  1.4753  0.0362
  113MPD2    H1 1727   3.322   0.110   0.580 -0.0975 -0.3501  0.6929
  113MPD2    H2 1728   3.546   0.457   0.695  0.1732 -1.0625 -0.0820
  113MPD2    H3 1729   3.542   0.250   0.593  1.7186  1.3281  1.1471
  113MPD2     N 1730   3.089   0.208   0.649 -0.6683  0.1563 -0.6963
  113MPD2    H5 1731   3.102   0.110   0.623  0.7970  0.2397 -0.2498
  113MPD2    N1 1732   3.337   0.601   0.789  0.2921 -0.3426 -0.4226
  113MPD2    H7 1733   3.250   0.647   0.813 -0.7125 -2.7767  0.5983
  114TCq2    C1 1734   2.961   0.261   0.660  0.0913 -0.2285 -0.0192
  114TCq2    O2 1735   2.937   0.378   0.657 -0.2342 -0.5668 -0.4562
  114TCq2    C2 1736   2.846   0.162   0.637  0.6578 -0.4702 -0.2753
  114TCq2    C3 1737   2.724   0.213   0.670  0.3747  0.7240 -0.4472
  114TCq2    C4 1738   2.614   0.138   0.646 -0.0751  0.2807  0.3677
  114TCq2    C5 1739   2.622   0.014   0.593  0.1538 -0.1512 -0.0119
  114TCq2    C6 1740   2.745   4.688   0.563 -0.5314 -0.2280  0.1910
  114TCq2    C7 1741   2.858   0.041   0.583  0.3350 -0.0464  0.1719
  114TCq2    C8 1742   2.768   4.546   0.568  0.5943  0.1093  0.8100
  114TCq2    O4 1743   2.879   4.508   0.531  0.0491 -0.2009 -0.3468
  114TCq2    C9 1744   2.481   0.194   0.672  0.4182 -0.0326 -0.1276
  114TCq2    O5 1745   2.469   0.319   0.650 -0.4228  0.1154  0.2354
  114TCq2    O6 1746   2.384   0.119   0.649  0.1250 -0.1711 -0.8011
  114TCq2    H2 1747   2.709   0.310   0.716 -1.6896  1.0120 -1.7315
  114TCq2    H3 1748   2.530   4.681   0.578 -0.6640  0.5575  2.4260
  114TCq2    H4 1749   2.955   0.003   0.556  0.4846  0.4007  0.0734
  115TMC2    C1 1750   4.360   2.733   0.279  0.9716 -0.4557 -0.3129
  115TMC2    C2 1751   4.492   2.720   0.259 -0.4157  0.0335 -0.4842
  115TMC2    C3 1752   4.556   2.833   0.222 -0.3073  0.5596  0.4360
  115TMC2    C4 1753   4.287   2.847   0.252 -0.6614  0.6975  0.8935
  115TMC2    C5 1754   4.348   2.957   0.209  0.0779  0.0505  0.1281
  115TMC2    C6 1755   4.484   2.945   0.186 -0.3093 -0.0036  0.1672
  115TMC2     C 1756   4.278   2.613   0.262 -0.0224 -0.1570 -0.4647
  115TMC2     O 1757   4.160   2.622   0.224  0.0609 -0.0798 -0.6546
  115TMC2     H 1758   4.542   2.625   0.248  1.3322  0.7670  1.2402
  115TMC2    H1 1759   4.182   2.858   0.274 -0.8799  1.5887 -0.5422
  115TMC2    H2 1760   4.533   3.027   0.134 -0.6466  0.5868  0.7833
  115TMC2    C7 1761   4.259   3.070   0.182 -0.2489 -0.2315  0.3743
  115TMC2    C8 1762   4.690   2.817   0.165 -0.0396  0.0180 -0.1515
  115TMC2    O1 1763   4.138   3.048   0.185 -0.2011  0.3327 -0.0278
  115TMC2    O2 1764   4.705   2.869   0.054  0.0083  0.8090 -0.1059
  115TMC2    O5 1765   0.042   2.728   0.227 -0.5904 -0.3429 -0.0776
  115TMC2    H5 1766   0.019   2.730   0.322  0.1317  2.1406  0.0339
  116MPD2     C 1767   4.269   2.144   0.032 -0.0201 -0.2649  0.2626
  116MPD2    C1 1768   4.166   2.238   0.041 -0.3218  0.7654  0.9410
  116MPD2    C2 1769   4.190   2.353   0.115 -0.0193  0.2579 -0.4644
  116MPD2    C3 1770   4.309   2.380   0.179  0.3141 -0.6193  1.2442
  116MPD2    C4 1771   4.413   2.287   0.162  0.2590 -1.0447 -0.3897
  116MPD2    C5 1772   4.386   2.170   0.087  0.1476 -0.0448 -0.0573
  116MPD2     H 1773   4.112   2.428   0.121  0.6069  1.0268 -1.9995
  116MPD2    H1 1774   4.513   2.293   0.203 -0.3299 -0.8506  0.9881
  116MPD2    H2 1775   4.251   2.050  17.668  2.9007  0.5937 -2.3064
  116MPD2    H3 1776   4.476   2.110   0.079  0.3352  0.3081 -0.5809
  116MPD2     N 1777   4.350   2.499   0.239  0.6527 -0.0665  0.0552
  116MPD2    H5 1778   4.445   2.493   0.273  0.8310 -0.4434 -0.5164
  116MPD2    N1 1779   4.055   2.213  17.648  0.5038  0.2280 -0.3164
  116MPD2    H7 1780   4.053   2.118  17.614 -0.9476 -0.4917  1.7668
  117TMC2    C1 1781   3.065   4.169  13.645 -0.6273 -0.4250  0.5433
  117TMC2    C2 1782   3.181   4.104  13.602  0.4256  0.0927 -0.6769
  117TMC2    C3 1783   3.291   4.132  13.678  1.0662 -0.1624 -0.2057
  117TMC2    C4 1784   3.058   4.248  13.756 -0.2079 -0.0159 -1.1535
  117TMC2    C5 1785   3.172   4.272  13.820 -0.1139  0.4403  0.5175
  117TMC2    C6 1786   3.286   4.213  13.790 -0.1152 -0.3800  0.4152
  117TMC2     C 1787   2.956   4.178  13.546 -0.1699 -0.5952 -0.1774
  117TMC2     O 1788   2.967   4.104  13.451 -0.0443 -0.0694  0.3810
  117TMC2     H 1789   3.178   4.060  13.503  0.8260 -0.1675 -0.5711
  117TMC2    H1 1790   2.961   4.290  13.782  0.8232  1.7829 -0.2283
  117TMC2    H2 1791   3.377   4.240  13.843  1.5692  0.3224 -2.7656
  117TMC2    C7 1792   3.184   4.396  13.893 -0.2418 -0.2117 -0.5688
  117TMC2    C8 1793   3.409   4.061  13.655 -0.1143  0.3084  0.5786
  117TMC2    O1 1794   3.287   4.447  13.933 -0.0311  0.3745  0.5251
  117TMC2    O2 1795   3.495   4.062  13.742 -0.3645  0.0301 -0.1912
  117TMC2    O5 1796   3.385   3.960  13.571 -0.2724 -0.5109  1.1504
  117TMC2    H5 1797   3.335   3.981  13.489  1.8780 -3.1480 -0.8340
  118MPD2     C 1798   2.914   4.639  13.932 -0.8257  0.4569 -0.5435
  118MPD2    C1 1799   3.044   4.601  13.925  1.0126 -0.5357 -0.5829
  118MPD2    C2 1800   3.149   4.696  13.942  0.3653  0.6359  0.3798
  118MPD2    C3 1801   3.110   0.108  13.955 -0.0928  0.1372 -0.2710
  118MPD2    C4 1802   2.975   0.140  13.961 -0.4318  0.4573  0.0088
  118MPD2    C5 1803   2.877   0.048  13.947  0.2602  0.7846 -0.0161
  118MPD2     H 1804   3.254   4.676  13.927  0.4965  0.8225  1.0224
  118MPD2    H1 1805   2.940   0.242  13.957  1.1891  0.9390 -2.3618
  118MPD2    H2 1806   2.830   4.574  13.912 -1.0387  0.8003 -0.7535
  118MPD2    H3 1807   2.775   0.071  13.918 -1.3249 -1.1409  3.9794
  118MPD2     N 1808   3.197   0.221  13.974 -0.1916  0.7619 -0.5235
  118MPD2    H5 1809   3.155   0.311  13.993  1.0770  1.0294  1.0317
  118MPD2    N1 1810   3.065   4.462  13.897 -0.1461 -0.0902 -0.5100
  118MPD2    H7 1811   2.982   4.409  13.871 -0.4557  0.8750 -1.4511
  119MPD2     C 1812   1.514   1.603  13.291  0.0825  0.1431 -0.3974
  119MPD2    C1 1813   1.406   1.601  13.379 -0.1431 -0.2660 -0.2761
  119MPD2    C2 1814   1.278   1.578  13.325  0.6224  0.4068 -0.7621
  119MPD2    C3 1815   1.262   1.534  13.189  0.1888 -0.3819  0.4141
  119MPD2    C4 1816   1.369   1.527  13.109 -0.0327  0.2094 -0.0371
  119MPD2    C5 1817   1.495   1.568  13.162  0.1994 -0.1170  0.1789
  119MPD2     H 1818   1.190   1.601  13.383  0.0754  1.0793 -1.8485
  119MPD2    H1 1819   1.356   1.512  13.003 -0.0814  2.9480 -0.4291
  119MPD2    H2 1820   1.619   1.602  13.319 -0.1227  0.2248  0.3625
  119MPD2    H3 1821   1.578   1.556  13.093 -0.5364  0.0099 -0.7218
  119MPD2     N 1822   1.138   1.492  13.141 -0.3675 -1.1018  0.3328
  119MPD2    H5 1823   1.136   1.438  13.055  1.3586  0.4664 -0.6939
  119MPD2    N1 1824   1.420   1.642  13.509 -0.6003  0.1168 -0.7568
  119MPD2    H7 1825   1.499   1.702  13.531  0.2834 -0.5357 -2.1684
  120TCq2    C1 1826   1.018   1.510  13.209 -0.3668 -0.8972  0.4663
  120TCq2    O2 1827   0.987   1.559  13.314 -0.5571 -0.0523 -0.2569
  120TCq2    C2 1828   0.909   1.449  13.137 -0.0222 -0.0564 -0.1839
  120TCq2    C3 1829   0.905   1.440  12.998  0.0275  0.2587 -0.6759
  120TCq2    C4 1830   0.794   1.378  12.942  1.1774 -0.5402 -0.4372
  120TCq2    C5 1831   0.702   1.317  13.023  0.0698 -0.4813  0.4868
  120TCq2    C6 1832   0.713   1.319  13.157 -0.5629  0.2050 -0.7222
  120TCq2    C7 1833   0.817   1.392  13.216  0.5706 -0.1651 -0.1783
  120TCq2    C8 1834   0.611   1.247  13.233 -0.3278  0.9882 -0.0275
  120TCq2    O4 1835   0.528   1.191  13.161  0.1385 -0.0662 -0.2326
  120TCq2    C9 1836   0.757   1.389  12.805 -0.3635  0.1424  0.5069
  120TCq2    O5 1837   0.664   1.318  12.759  0.8172  0.0776  0.5181
  120TCq2    O6 1838   0.838   1.449  12.731 -0.6890 -0.0203 -0.3444
  120TCq2    H2 1839   0.977   1.492  12.936 -1.3528  3.6649  0.5971
  120TCq2    H3 1840   0.613   1.285  12.970 -0.0592 -0.9900  1.0069
  120TCq2    H4 1841   0.812   1.411  13.323  0.4046  1.9676 -0.5808
  121TMC2    C1 1842   2.486   3.484  13.696  0.4324  0.0898 -0.1412
  121TMC2    C2 1843   2.477   3.353  13.729 -0.0719  0.5799  0.7368
  121TMC2    C3 1844   2.358   3.300  13.772  0.1075 -0.1128  0.3937
  121TMC2    C4 1845   2.378   3.565  13.722  0.2597  0.4893  0.0197
  121TMC2    C5 1846   2.254   3.509  13.742  0.2099  0.4676 -0.2112
  121TMC2    C6 1847   2.250   3.375  13.777 -0.4677  1.0010  0.0769
  121TMC2     C 1848   2.581   3.531  13.600 -0.5534 -0.3244  0.4742
  121TMC2     O 1849   2.567   3.644  13.560  1.0061 -0.0171 -0.0242
  121TMC2     H 1850   2.560   3.286  13.712 -0.2182  0.3888  0.7748
  121TMC2    H1 1851   2.386   3.663  13.677 -0.7902  0.9660  0.8519
  121TMC2    H2 1852   2.159   3.321  13.801 -0.8896  1.4173 -0.5674
  121TMC2    C7 1853   2.134   3.587  13.705  0.2453  0.5136  0.2099
  121TMC2    C8 1854   2.340   3.161  13.821 -0.1301 -0.0146 -0.3398
  121TMC2    O1 1855   2.160   3.687  13.642  0.1502 -0.2947  0.0395
  121TMC2    O2 1856   2.253   3.080  13.783 -0.3929 -0.5110  0.1494
  121TMC2    O5 1857   2.456   3.127  13.870 -0.0568  0.2284  0.0281
  121TMC2    H5 1858   2.500   3.199  13.921  0.5471  1.2761 -1.9394
  122MPD2     C 1859   2.757   3.564  13.370 -0.1990 -0.0071 -0.3294
  122MPD2    C1 1860   2.767   3.464  13.462 -0.0698 -0.3246  1.1332
  122MPD2    C2 1861   2.863   3.374  13.445  0.2572  0.1459  0.4095
  122MPD2    C3 1862   2.957   3.372  13.348 -0.4140  0.6319 -0.3356
  122MPD2    C4 1863   2.949   3.479  13.256 -0.5522 -0.0812 -0.5807
  122MPD2    C5 1864   2.847   3.572  13.270 -0.6615 -0.1650 -0.5873
  122MPD2     H 1865   2.854   3.296  13.520  1.5623 -1.2099 -0.8661
  122MPD2    H1 1866   3.030   3.492  13.185  0.4134 -0.8022  0.3993
  122MPD2    H2 1867   2.676   3.637  13.368 -0.4704 -0.2620  1.4071
  122MPD2    H3 1868   2.836   3.660  13.207 -0.8425  1.8050  2.1656
  122MPD2     N 1869   3.058   3.272  13.333  0.4723  0.0179 -0.2096
  122MPD2    H5 1870   3.113   3.279  13.248  1.5085 -0.5413  0.4166
  122MPD2    N1 1871   2.682   3.443  13.577  0.2345 -0.2876 -0.2127
  122MPD2    H7 1872   2.694   3.357  13.628  1.3424  0.6450  1.1191
  123MPD2     C 1873   1.130   1.179  10.347  0.0121 -0.6991 -0.1442
  123MPD2    C1 1874   1.153   1.159  10.214  0.6997  0.6899  0.0141
  123MPD2    C2 1875   1.256   1.230  10.152 -0.3982  0.0638  0.6840
  123MPD2    C3 1876   1.323   1.329  10.226 -0.1859  0.7543 -0.3724
  123MPD2    C4 1877   1.291   1.350  10.363  0.5025  0.6861  0.4396
  123MPD2    C5 1878   1.192   1.271  10.420 -0.4233  0.3574  0.7129
  123MPD2     H 1879   1.285   1.212  10.049 -0.4690 -0.2520  0.7200
  123MPD2    H1 1880   1.330   1.436  10.416 -2.6929  0.5536  3.0141
  123MPD2    H2 1881   1.040   1.142  10.397 -0.2627 -0.0490 -0.1565
  123MPD2    H3 1882   1.158   1.290  10.521  0.8969  0.9893  1.0310
  123MPD2     N 1883   1.421   1.398  10.148  0.0330  0.2577  0.0984
  123MPD2    H5 1884   1.420   1.385  10.047 -0.7520  0.4078  0.0900
  123MPD2    N1 1885   1.091   1.047  10.154  0.0582  0.2712  0.2925
  123MPD2    H7 1886   1.028   0.994  10.212  1.3688 -1.7105 -0.0964
  124TCq2    C1 1887   1.511   1.486  10.206  0.1947  0.2397 -0.1812
  124TCq2    O2 1888   1.525   1.518  10.323 -0.4329 -0.7058  0.1907
  124TCq2    C2 1889   1.594   1.567  10.110 -0.6834 -0.1820 -0.1982
  124TCq2    C3 1890   1.664   1.674  10.156 -0.1850 -0.8034  0.4258
  124TCq2    C4 1891   1.741   1.741  10.069 -0.3398 -0.7818  0.1144
  124TCq2    C5 1892   1.748   1.716   9.933  0.7318 -0.5247  0.3142
  124TCq2    C6 1893   1.684   1.603   9.890  0.3463 -0.8028 -0.1526
  124TCq2    C7 1894   1.609   1.527   9.977  0.1510 -0.2561 -0.1222
  124TCq2    C8 1895   1.704   1.569   9.750 -0.7969 -0.8639  0.3664
  124TCq2    O4 1896   1.745   1.654   9.674 -0.2495 -0.2486  0.1754
  124TCq2    C9 1897   1.803   1.862  10.121 -0.4458  0.7958 -0.6192
  124TCq2    O5 1898   1.751   1.912  10.224 -0.0102  0.7082  0.2380
  124TCq2    O6 1899   1.867   1.933  10.041 -0.0174  0.3613 -0.2486
  124TCq2    H2 1900   1.651   1.700  10.261 -2.2652 -0.9741  0.2185
  124TCq2    H3 1901   1.817   1.765   9.865  0.4738 -1.0343 -0.3148
  124TCq2    H4 1902   1.566   1.432   9.945 -0.0300 -0.2710  0.1721
  125TMC2    C1 1903   1.936   3.032   8.841  0.3902  0.4749  0.4386
  125TMC2    C2 1904   1.832   3.117   8.796  0.5356 -0.2171 -0.6610
  125TMC2    C3 1905   1.855   3.248   8.802  0.2362 -0.2525 -0.0274
  125TMC2    C4 1906   2.060   3.080   8.885  0.0837  0.0177 -0.3397
  125TMC2    C5 1907   2.074   3.214   8.899 -0.2648  0.3860 -0.0085
  125TMC2    C6 1908   1.964   3.295   8.862  0.1562 -0.4460  0.1977
  125TMC2     C 1909   1.936   2.892   8.804 -0.0543 -0.0759 -0.5009
  125TMC2     O 1910   2.039   2.846   8.759 -0.2280 -0.0542  0.1611
  125TMC2     H 1911   1.734   3.079   8.769 -0.8214  2.8758 -0.0471
  125TMC2    H1 1912   2.124   3.004   8.930  0.1104  0.9671  1.2492
  125TMC2    H2 1913   1.966   3.398   8.894 -1.0053 -1.0207  2.1109
  125TMC2    C7 1914   2.169   3.261   8.999 -0.4165 -0.5261  0.2151
  125TMC2    C8 1915   1.785   3.349   8.719  0.6027 -0.0382 -0.0123
  125TMC2    O1 1916   2.131   3.349   9.068  0.0111 -0.2445  0.5699
  125TMC2    O2 1917   1.776   3.471   8.742 -0.2833 -0.3174  0.4442
  125TMC2    O5 1918   1.774   3.290   8.596 -0.1342 -0.6779 -0.6438
  125TMC2    H5 1919   1.836   3.215   8.580  0.6573 -0.4699  1.4277
  126MPD1     C 1920   1.689   2.439   8.794  0.3542 -0.2584 -0.1027
  126MPD1    C1 1921   1.613   2.533   8.860 -0.6148 -0.3551 -0.1107
  126MPD1    C2 1922   1.659   2.660   8.864  0.5406  0.0872 -0.3080
  126MPD1    C3 1923   1.786   2.694   8.822 -0.1459  0.0831  0.4086
  126MPD1    C4 1924   1.868   2.600   8.788  0.1115 -0.3411  0.1535
  126MPD1    C5 1925   1.824   2.473   8.770 -0.1912  0.8495  0.1083
  126MPD1     H 1926   1.588   2.732   8.903 -0.2452 -0.9291  0.1359
  126MPD1    H1 1927   1.973   2.623   8.772 -0.7225  0.7681 -3.6153
  126MPD1    H2 1928   1.654   2.336   8.786  1.1507 -0.5930  0.6729
  126MPD1    H3 1929   1.893   2.400   8.729 -0.6045  1.2293 -1.2768
  126MPD1     N 1930   1.811   2.836   8.822  1.0683 -0.4707 -0.4036
  126MPD1    H5 1931   1.739   2.906   8.839  1.7679 -0.3274  1.9089
  126MPD1    N1 1932   1.481   2.510   8.889 -0.0033  0.2916 -0.6003
  126MPD1    H6 1933   1.455   2.570   8.968  2.6792 -0.5579  0.9323
  126MPD1    H7 1934   1.450   2.415   8.908 -2.7403  1.5809  1.3896
  127MPD2     C 1935   3.464   1.840   9.251 -0.0988  0.3150 -0.6557
  127MPD2    C1 1936   3.518   1.804   9.373  0.4655  0.4894  0.5796
  127MPD2    C2 1937   3.584   1.895   9.449  0.3138  0.9389 -0.4487
  127MPD2    C3 1938   3.602   2.022   9.404  0.3513 -0.2625 -0.4333
  127MPD2    C4 1939   3.572   2.048   9.271  0.1569 -0.4502  0.1281
  127MPD2    C5 1940   3.494   1.963   9.201  0.3753 -0.3730  0.1995
  127MPD2     H 1941   3.609   1.877   9.552 -0.6964 -1.7665 -0.6797
  127MPD2    H1 1942   3.596   2.144   9.226  0.0310 -0.6579 -0.3781
  127MPD2    H2 1943   3.397   1.774   9.197  1.1746 -1.6064  0.1161
  127MPD2    H3 1944   3.460   1.985   9.101 -2.3722  0.5542  1.3261
  127MPD2     N 1945   3.666   2.126   9.481 -0.3258  0.0686  0.1698
  127MPD2    H5 1946   3.683   2.214   9.432 -0.8798 -0.0198 -0.1801
  127MPD2    N1 1947   3.489   1.677   9.414 -0.3864 -0.0045 -0.2625
  127MPD2    H7 1948   3.434   1.619   9.351  1.2327 -0.0591 -1.6296
  128TCq2    C1 1949   3.521   1.626   9.537 -0.0008 -0.8238 -0.8870
  128TCq2    O2 1950   3.599   1.669   9.622  0.5378 -0.3010 -0.4237
  128TCq2    C2 1951   3.458   1.500   9.561  0.1597  0.7613  0.1899
  128TCq2    C3 1952   3.495   1.427   9.675  0.4556  0.3568 -0.1740
  128TCq2    C4 1953   3.399   1.349   9.739  0.0024  0.3457  0.4161
  128TCq2    C5 1954   3.270   1.331   9.687  0.2291  0.5629 -0.3587
  128TCq2    C6 1955   3.243   1.402   9.572 -0.1814 -0.1794 -0.0141
  128TCq2    C7 1956   3.331   1.492   9.513  0.1717  0.0163  1.0029
  128TCq2    C8 1957   3.103   1.400   9.519  0.3535 -0.2505 -0.1532
  128TCq2    O4 1958   3.080   1.487   9.436  0.4543  0.3688  0.0863
  128TCq2    C9 1959   3.420   1.292   9.867 -0.1558  0.1761  0.0380
  128TCq2    O5 1960   3.531   1.310   9.926  0.0121 -0.0405 -0.4268
  128TCq2    O6 1961   3.335   1.214   9.916 -0.1279  0.2685  0.0465
  128TCq2    H2 1962   3.591   1.451   9.719  0.1892  1.0254  0.0392
  128TCq2    H3 1963   3.194   1.271   9.735 -0.6843 -0.5229 -3.1833
  128TCq2    H4 1964   3.288   1.544   9.428 -0.8300 -2.4747 -0.0114
  129MPD2     C 1965   0.724   2.546   0.441 -0.4642 -0.4133 -0.0480
  129MPD2    C1 1966   0.693   2.590   0.567 -0.6061  0.4143 -0.0353
  129MPD2    C2 1967   0.808   2.606   0.648  0.0707 -0.0851  0.0310
  129MPD2    C3 1968   0.937   2.574   0.610 -0.2468 -0.9126  0.0711
  129MPD2    C4 1969   0.954   2.542   0.476 -0.0724 -0.0801 -0.5973
  129MPD2    C5 1970   0.848   2.538   0.392  0.6181  0.0548 -0.6589
  129MPD2     H 1971   0.799   2.642   0.750 -0.9209  1.0917 -0.4769
  129MPD2    H1 1972   1.054   2.517   0.442  0.2660  0.4634 -0.0104
  129MPD2    H2 1973   0.644   2.519   0.373 -1.1406 -1.4362  1.1493
  129MPD2    H3 1974   0.857   2.529   0.284 -3.1440  1.6809 -1.1121
  129MPD2     N 1975   1.043   2.585   0.706 -0.3374  0.3069  0.2468
  129MPD2    H5 1976   1.011   2.606   0.800  0.9126 -1.0690  0.9899
  129MPD2    N1 1977   0.567   2.594   0.629 -0.3058  0.1547  0.4092
  129MPD2    H7 1978   0.569   2.595   0.731 -2.5213 -0.3896  0.4689
  130TCq2    C1 1979   0.450   2.602   0.560  0.5089 -0.7487  0.2448
  130TCq2    O2 1980   0.435   2.633   0.445 -0.1266 -0.7380 -0.2601
  130TCq2    C2 1981   0.332   2.621   0.642 -0.2915  0.0145 -0.7583
  130TCq2    C3 1982   0.219   2.657   0.576  0.3379  0.0890 -0.3906
  130TCq2    C4 1983   0.100   2.653   0.654 -0.1101 -0.2647  0.1630
  130TCq2    C5 1984   0.093   2.598   0.782 -0.4815  0.3270  0.0617
  130TCq2    C6 1985   0.211   2.553   0.832 -0.1238  0.4286  0.8330
  130TCq2    C7 1986   0.337   2.554   0.763  0.8073 -0.0461  0.0369
  130TCq2    C8 1987   0.209   2.479   0.964  0.0399 -0.0120  0.4629
  130TCq2    O4 1988   0.102   2.473   1.019 -0.1292 -0.3877  0.3276
  130TCq2    C9 1989   4.696   2.688   0.592  0.4679  0.2776  0.0507
  130TCq2    O5 1990   4.704   2.752   0.483  0.0099  0.1541  0.4102
  130TCq2    O6 1991   4.591   2.670   0.657 -0.3505  0.4648 -0.3613
  130TCq2    H2 1992   0.214   2.692   0.474  0.9755  2.2492  0.3081
  130TCq2    H3 1993   4.719   2.590   0.833 -0.5496  0.7955  0.0075
  130TCq2    H4 1994   0.423   2.512   0.812  1.3190 -0.2506 -1.0586
  131MPD2     C 1995   0.747   1.139   9.253 -0.3768 -1.0054  0.4324
  131MPD2    C1 1996   0.881   1.141   9.296 -0.4532  0.5827 -0.5213
  131MPD2    C2 1997   0.914   1.064   9.412 -0.5318 -0.3626  0.1673
  131MPD2    C3 1998   0.825   0.992   9.491 -0.3124  0.4150  0.1052
  131MPD2    C4 1999   0.689   0.990   9.443  0.0871 -0.0054 -0.1356
  131MPD2    C5 2000   0.660   1.060   9.327 -0.6572 -0.1957  0.2562
  131MPD2     H 2001   1.017   1.068   9.444  0.1536  1.6071 -2.2556
  131MPD2    H1 2002   0.621   0.909   9.467 -0.6712  0.4580 -0.7070
  131MPD2    H2 2003   0.713   1.186   9.161 -0.5784 -0.7522  0.6387
  131MPD2    H3 2004   0.557   1.066   9.292 -0.4978 -3.6756 -0.8462
  131MPD2     N 2005   0.873   0.934   9.609 -0.0819  0.3549  0.2623
  131MPD2    H5 2006   0.971   0.952   9.630 -0.6869  2.3426  1.4684
  131MPD2    N1 2007   0.965   1.214   9.216  0.2345  0.2637 -0.7933
  131MPD2    H7 2008   0.917   1.270   9.145 -0.7426  1.0711  0.5122
  132TCq2    C1 2009   1.461   1.494   9.057  0.1586  0.6989  0.1315
  132TCq2    O2 2010   1.536   1.407   9.095  0.2586 -0.0125  0.2448
  132TCq2    C2 2011   1.319   1.454   9.050  0.6208  0.4981  0.1511
  132TCq2    C3 2012   1.225   1.521   8.973  0.2424  1.2127 -0.0192
  132TCq2    C4 2013   1.089   1.507   8.997 -0.2948 -0.4012 -0.1092
  132TCq2    C5 2014   1.051   1.419   9.090  0.9270  0.6020  0.1593
  132TCq2    C6 2015   1.143   1.343   9.160 -0.0552  0.1077 -0.0526
  132TCq2    C7 2016   1.281   1.361   9.144 -1.0576 -0.7005 -0.5876
  132TCq2    C8 2017   1.092   1.242   9.250 -0.2165 -0.0041  0.7817
  132TCq2    O4 2018   1.170   1.175   9.316 -0.2299 -0.4924  0.6158
  132TCq2    C9 2019   0.993   1.597   8.923 -0.3972 -0.4366 -0.1189
  132TCq2    O5 2020   0.877   1.585   8.957 -0.3197  0.3566 -0.1286
  132TCq2    O6 2021   1.039   1.682   8.845 -0.0068 -0.4925  1.0241
  132TCq2    H2 2022   1.248   1.589   8.892  2.0140  0.3929 -0.2202
  132TCq2    H3 2023   0.944   1.426   9.108  0.7456 -2.1135  0.1039
  132TCq2    H4 2024   1.354   1.295   9.189  0.7772  0.8151 -1.3469
  133MPD2     C 2025   4.640   1.734   7.799 -0.7348 -0.4783 -0.2403
  133MPD2    C1 2026   4.531   1.754   7.877 -0.5237 -0.0290  0.4692
  133MPD2    C2 2027   4.543   1.819   7.999 -0.9235  0.2895  0.5423
  133MPD2    C3 2028   4.674   1.849   8.046  0.0818  0.1424 -0.4962
  133MPD2    C4 2029   0.061   1.835   7.962  0.2398 -0.8470  1.2662
  133MPD2    C5 2030   0.044   1.770   7.842 -0.0693  0.7362 -0.3545
  133MPD2     H 2031   4.455   1.829   8.062 -0.5762 -0.4655  1.1499
  133MPD2    H1 2032   0.160   1.863   7.996 -0.3885  0.9900  1.5798
  133MPD2    H2 2033   4.633   1.680   7.705  0.2114  0.5145 -0.8924
  133MPD2    H3 2034   0.129   1.734   7.787 -0.1309  0.8632 -0.5318
  133MPD2     N 2035   4.700   1.897   8.180 -0.3444  0.1001 -0.5288
  133MPD2    H5 2036   0.076   1.922   8.195  0.1395 -0.5560 -2.5385
  133MPD2    N1 2037   4.417   1.679   7.840 -0.1601 -0.1688 -0.5738
  133MPD2    H7 2038   4.420   1.635   7.748 -1.1642 -2.1380  0.3351
  134TCq2    C1 2039   4.300   1.667   7.916  0.3379 -0.4946 -0.8876
  134TCq2    O2 2040   4.264   1.716   8.024 -0.0397  0.4883 -0.1223
  134TCq2    C2 2041   4.198   1.577   7.854 -0.3435  0.0068  0.3590
  134TCq2    C3 2042   4.068   1.617   7.869  0.1144 -0.1637 -0.2032
  134TCq2    C4 2043   3.973   1.568   7.780  0.1767  0.7865 -0.6657
  134TCq2    C5 2044   4.013   1.482   7.675 -0.5770  0.4311 -0.1848
  134TCq2    C6 2045   4.150   1.449   7.662  0.1105  0.8226 -0.3947
  134TCq2    C7 2046   4.239   1.498   7.751  0.9937 -0.5142 -0.6134
  134TCq2    C8 2047   4.181   1.345   7.564  0.4776 -0.0008 -0.5241
  134TCq2    O4 2048   4.299   1.328   7.538  0.0226  0.2649 -0.4679
  134TCq2    C9 2049   3.845   1.628   7.766 -0.3828 -0.0962  0.7111
  134TCq2    O5 2050   3.832   1.734   7.824 -0.5987 -0.0451 -0.2196
  134TCq2    O6 2051   3.760   1.563   7.696 -0.2370  0.5506  0.1887
  134TCq2    H2 2052   4.044   1.690   7.945 -2.3473  1.3724 -2.4695
  134TCq2    H3 2053   3.950   1.476   7.587 -1.9134 -0.0198  0.8069
  134TCq2    H4 2054   4.337   1.451   7.751  1.2087 -0.0541  0.6324
  135MPD2     C 2055   2.475   3.525   9.653 -0.2605  1.1971 -0.5946
  135MPD2    C1 2056   2.577   3.434   9.633 -0.5218  0.2201 -1.0225
  135MPD2    C2 2057   2.649   3.442   9.520  0.1897 -0.0118  0.3183
  135MPD2    C3 2058   2.616   3.524   9.418  0.0388  1.0656  0.4588
  135MPD2    C4 2059   2.507   3.610   9.427 -0.0999 -0.5189  0.2374
  135MPD2    C5 2060   2.445   3.609   9.554 -0.2814 -0.4414  0.1738
  135MPD2     H 2061   2.723   3.365   9.505  0.6021  0.5961 -0.7476
  135MPD2    H1 2062   2.487   3.684   9.350  0.7991 -0.6852 -0.1526
  135MPD2    H2 2063   2.406   3.528   9.737 -2.8885  0.8103 -2.7482
  135MPD2    H3 2064   2.368   3.685   9.560  1.5397  1.4327 -0.2809
  135MPD2     N 2065   2.684   3.514   9.290 -0.2138 -0.7692  1.0874
  135MPD2    H5 2066   2.649   3.575   9.217  0.4579 -2.9018 -1.0123
  135MPD2    N1 2067   2.602   3.333   9.722  0.0740 -0.2711 -0.8142
  135MPD2    H7 2068   2.673   3.263   9.702  0.2780 -0.6310  1.1155
  136TCq2    C1 2069   2.535   3.324   9.840 -0.1427 -0.8088 -0.1829
  136TCq2    O2 2070   2.507   3.417   9.916  0.1871 -0.4323  0.6617
  136TCq2    C2 2071   2.538   3.194   9.912 -0.3750 -0.9073  0.1940
  136TCq2    C3 2072   2.524   3.192  10.050 -0.3841 -0.0851  0.0615
  136TCq2    C4 2073   2.529   3.067  10.110  0.1495  0.6556 -0.4925
  136TCq2    C5 2074   2.582   2.955  10.041 -0.9080  0.3102 -0.4378
  136TCq2    C6 2075   2.610   2.964   9.910  0.7826  0.0694  0.6732
  136TCq2    C7 2076   2.570   3.077   9.839 -0.0075  0.4341 -0.1202
  136TCq2    C8 2077   2.647   2.846   9.833  0.7483  0.3681  0.1941
  136TCq2    O4 2078   2.688   2.871   9.721 -0.0364  0.0029 -0.2650
  136TCq2    C9 2079   2.502   3.055  10.252 -0.1755 -0.6155 -0.5156
  136TCq2    O5 2080   2.538   2.939  10.302  0.3794  0.3082  0.5062
  136TCq2    O6 2081   2.448   3.150  10.310 -0.0134 -0.6223 -0.3382
  136TCq2    H2 2082   2.508   3.285  10.103  1.8976 -1.1450  2.6660
  136TCq2    H3 2083   2.592   2.863  10.098  0.2711 -0.3404 -1.7066
  136TCq2    H4 2084   2.581   3.077   9.731 -0.4118  0.4643 -0.1595
  137MPD2     C 2085   2.334   2.007   9.450  0.9475  0.8046 -0.0577
  137MPD2    C1 2086   2.467   2.019   9.461  0.7986 -0.0801  0.0168
  137MPD2    C2 2087   2.534   1.920   9.536 -0.1594  0.0917  0.9062
  137MPD2    C3 2088   2.468   1.803   9.587  0.0537  0.4968 -0.2710
  137MPD2    C4 2089   2.331   1.798   9.565 -0.8281 -0.2589  0.2105
  137MPD2    C5 2090   2.267   1.904   9.505 -0.0655  0.6215  0.4559
  137MPD2     H 2091   2.640   1.935   9.556 -0.2861 -1.7349  2.9784
  137MPD2    H1 2092   2.266   1.718   9.598  0.4905 -2.1070 -1.7035
  137MPD2    H2 2093   2.278   2.084   9.398 -1.3394 -0.8742 -0.0938
  137MPD2    H3 2094   2.160   1.892   9.517  0.0019 -0.0205  0.4166
  137MPD2     N 2095   2.539   1.706   9.656  0.3227  0.1385  0.1372
  137MPD2    H5 2096   2.630   1.724   9.697  0.9656  0.6842 -1.5110
  137MPD2    N1 2097   2.534   2.107   9.377 -0.9715 -0.5072 -0.0921
  137MPD2    H7 2098   2.481   2.152   9.303  1.3731 -0.0329 -1.4923
  138TCq2    C1 2099   2.669   2.129   9.379  0.0606  0.4724 -0.3746
  138TCq2    O2 2100   2.760   2.092   9.452 -0.3558  0.3128 -0.4824
  138TCq2    C2 2101   2.708   2.236   9.288  0.1966 -0.2503  0.4950
  138TCq2    C3 2102   2.842   2.252   9.266  0.0447 -0.2191 -0.3325
  138TCq2    C4 2103   2.886   2.357   9.189 -0.5464 -0.3212  0.2793
  138TCq2    C5 2104   2.807   2.441   9.125  0.7155 -0.2746 -0.3446
  138TCq2    C6 2105   2.672   2.425   9.141  0.5641  0.3551 -0.1834
  138TCq2    C7 2106   2.624   2.332   9.232 -0.2886  0.5421 -0.5090
  138TCq2    C8 2107   2.578   2.534   9.101 -0.8841 -0.4910  0.9336
  138TCq2    O4 2108   2.635   2.640   9.077 -0.2392  0.1874 -0.6525
  138TCq2    C9 2109   3.031   2.382   9.183  0.1150  0.0001 -0.0813
  138TCq2    O5 2110   3.106   2.305   9.246 -0.1183  0.2796  0.5188
  138TCq2    O6 2111   3.073   2.479   9.120 -0.6159  0.7357 -0.1644
  138TCq2    H2 2112   2.917   2.184   9.302  0.9947 -0.9081 -3.5765
  138TCq2    H3 2113   2.844   2.521   9.062  3.0483 -2.1409 -1.3133
  138TCq2    H4 2114   2.517   2.321   9.244 -0.1772 -0.4104 -0.4072
  139TMC2    C1 2115   2.881   0.460  13.226 -0.2681 -0.5389 -0.4532
  139TMC2    C2 2116   2.899   0.516  13.106  0.2224 -0.3757  0.2902
  139TMC2    C3 2117   2.860   0.645  13.084 -0.2231 -0.7432  0.1830
  139TMC2    C4 2118   2.852   0.540  13.329 -0.0441 -0.3114 -0.1073
  139TMC2    C5 2119   2.814   0.672  13.303  0.1916 -0.0439  0.1986
  139TMC2    C6 2120   2.807   0.727  13.182 -0.0823  0.6346 -0.1466
  139TMC2     C 2121   2.937   0.327  13.251 -0.2664 -0.3024  0.1836
  139TMC2     O 2122   2.970   0.272  13.144 -0.6107 -0.3603 -0.7898
  139TMC2     H 2123   2.922   0.445  13.027 -0.1142  1.0589 -1.0867
  139TMC2    H1 2124   2.830   0.502  13.428 -2.7489  0.2803 -0.4663
  139TMC2    H2 2125   2.760   0.820  13.153 -1.5735  0.4168  1.6293
  139TMC2    C7 2126   2.765   0.761  13.405  0.9892  0.0497  0.3394
  139TMC2    C8 2127   2.896   0.697  12.950  0.3156 -0.3110  0.1943
  139TMC2    O1 2128   2.674   0.839  13.374 -0.6420 -0.2502 -0.1306
  139TMC2    O2 2129   2.909   0.631  12.846  0.2033  0.3764  0.4292
  139TMC2    O5 2130   2.973   0.806  12.979  0.6221 -0.3609 -0.4692
  139TMC2    H5 2131   3.010   0.810  13.070 -0.9815 -2.1317  0.2701
  140MPD2     C 2132   3.031   0.139  13.545  0.7238  0.0009  0.5359
  140MPD2    C1 2133   3.031   0.172  13.413 -0.1316  0.0744 -0.4200
  140MPD2    C2 2134   3.078   0.077  13.319 -0.5928  0.3084 -0.3215
  140MPD2    C3 2135   3.131   4.683  13.366 -0.6276 -0.4357 -0.1441
  140MPD2    C4 2136   3.145   4.654  13.498  0.6642  0.3983 -0.1864
  140MPD2    C5 2137   3.076   0.015  13.592  0.3051  0.6676 -0.1187
  140MPD2     H 2138   3.074   0.101  13.213 -1.3207  3.2070  0.3854
  140MPD2    H1 2139   3.194   4.571  13.548  0.0726  0.4825  0.5402
  140MPD2    H2 2140   2.978   0.196  13.620  1.3429 -2.4539  2.8332
  140MPD2    H3 2141   3.067   4.717  13.698  3.1514 -0.8099 -0.1511
  140MPD2     N 2142   3.183   4.607  13.268 -0.0231 -0.5041 -0.1342
  140MPD2    H5 2143   3.161   4.631  13.172  1.6753 -1.5935 -0.8118
  140MPD2    N1 2144   2.969   0.293  13.382 -0.1570  0.0916  0.3149
  140MPD2    H7 2145   2.964   0.356  13.462  1.4059  3.0321 -1.8809
  141TCq2    C1 2146   3.070   1.836  14.596  0.8962  0.2335  0.1495
  141TCq2    O2 2147   2.964   1.860  14.535 -0.2171 -0.2532 -0.3219
  141TCq2    C2 2148   3.070   1.837  14.736 -0.0553 -0.4634  0.0915
  141TCq2    C3 2149   3.151   1.750  14.808 -0.4100  0.8119 -0.0872
  141TCq2    C4 2150   3.145   1.759  14.942  0.2886 -0.1144  0.0839
  141TCq2    C5 2151   3.077   1.857  15.004 -0.2266 -0.9745  0.0882
  141TCq2    C6 2152   3.008   1.946  14.931  0.3860  0.4073  0.1303
  141TCq2    C7 2153   2.993   1.928  14.800 -0.5866 -0.6539  0.0930
  141TCq2    C8 2154   2.971   2.072  14.996  0.3477  0.4095 -0.0266
  141TCq2    O4 2155   2.963   2.082  15.115  0.3607  0.0067  0.5476
  141TCq2    C9 2156   3.224   1.666  15.027 -0.0604 -0.5801 -0.8008
  141TCq2    O5 2157   3.214   1.690  15.152 -0.4547  0.8383  0.3829
  141TCq2    O6 2158   3.282   1.564  14.981  0.0591 -0.4441  0.1583
  141TCq2    H2 2159   3.212   1.671  14.766 -1.8304 -0.3670  0.0763
  141TCq2    H3 2160   3.100   1.873  15.109  0.3514 -0.8042 -0.0631
  141TCq2    H4 2161   2.920   1.990  14.747  1.4402 -1.0137 -3.1325
  142MPD2     C 2162   1.637   0.182  10.065  0.0762  0.4303  0.2196
  142MPD2    C1 2163   1.527   0.171   9.985 -1.1141 -0.3153  0.9050
  142MPD2    C2 2164   1.511   0.265   9.882 -0.3523  0.1101 -0.0686
  142MPD2    C3 2165   1.608   0.363   9.866  0.2071  0.1258 -0.8951
  142MPD2    C4 2166   1.728   0.357   9.940  0.2953  0.3056  0.2107
  142MPD2    C5 2167   1.739   0.263  10.043 -0.0102 -0.1933 -0.8113
  142MPD2     H 2168   1.436   0.262   9.804 -1.5154  2.3610  0.9770
  142MPD2    H1 2169   1.812   0.425   9.932 -1.1000  2.0873  0.5120
  142MPD2    H2 2170   1.650   0.117  10.151  1.5116  0.5257  0.0740
  142MPD2    H3 2171   1.822   0.259  10.113 -2.0425  2.9643  1.7707
  142MPD2     N 2172   1.600   0.458   9.762 -0.4294 -0.4193  0.2134
  142MPD2    H5 2173   1.688   0.504   9.739 -1.7326  0.4475 -2.9856
  142MPD2    N1 2174   1.439   0.066  10.018 -0.0718  0.5997  0.1400
  142MPD2    H7 2175   1.480   4.719  10.082 -2.1341  1.2262  2.1001
  143TCq2    C1 2176   1.494   0.491   9.695 -0.1891 -0.3054 -0.0488
  143TCq2    O2 2177   1.381   0.451   9.712  0.2348  0.1969 -0.0638
  143TCq2    C2 2178   1.518   0.587   9.586 -0.3479  0.6213  0.4155
  143TCq2    C3 2179   1.454   0.568   9.462  0.1476 -0.4342  0.5783
  143TCq2    C4 2180   1.460   0.673   9.375 -0.2367  0.7319  0.1227
  143TCq2    C5 2181   1.519   0.790   9.394 -0.0398  0.3264  0.8782
  143TCq2    C6 2182   1.565   0.810   9.523 -0.0446  0.5885 -0.6262
  143TCq2    C7 2183   1.570   0.709   9.615 -0.1254 -0.1766 -0.0011
  143TCq2    C8 2184   1.601   0.943   9.570 -0.2955 -0.2022  0.2747
  143TCq2    O4 2185   1.604   0.961   9.690 -0.1946 -0.3858 -0.4360
  143TCq2    C9 2186   1.406   0.650   9.243 -0.9845  0.0297  0.4144
  143TCq2    O5 2187   1.391   0.533   9.202  0.3700  0.0663 -0.2597
  143TCq2    O6 2188   1.384   0.751   9.172  0.4523 -0.5918  0.0226
  143TCq2    H2 2189   1.431   0.468   9.427  2.2068 -0.2783 -1.2397
  143TCq2    H3 2190   1.525   0.865   9.316 -1.0695  0.7750  1.2352
  143TCq2    H4 2191   1.608   0.735   9.713  0.1815  1.7384 -0.6272
  144MPD2     C 2192   3.342   4.591   0.002 -0.4120 -0.2790  0.3857
  144MPD2    C1 2193   3.309   4.466   0.052 -0.3603 -0.3568 -0.2734
  144MPD2    C2 2194   3.409   4.391   0.109 -0.6420  0.1149  0.3562
  144MPD2    C3 2195   3.538   4.442   0.115 -0.7733  0.1084  0.0881
  144MPD2    C4 2196   3.567   4.570   0.070 -0.3409 -0.4628  0.1131
  144MPD2    C5 2197   3.467   4.644   0.015  0.0312  0.6017  0.0009
  144MPD2     H 2198   3.386   4.295   0.154 -0.2931  1.1773  2.7415
  144MPD2    H1 2199   3.664   4.615   0.089 -0.2968 -0.7341  0.5257
  144MPD2    H2 2200   3.263   4.650  17.644  0.6583  0.9629  0.1352
  144MPD2    H3 2201   3.492   0.021  17.663  1.3113  0.7690  1.2923
  144MPD2     N 2202   3.637   4.373   0.190  0.2998  0.2459  0.0736
  144MPD2    H5 2203   3.730   4.410   0.209 -0.1036  1.4782 -0.3794
  144MPD2    N1 2204   3.178   4.405   0.036  1.1212  0.1906 -0.2139
  144MPD2    H7 2205   3.169   4.309   0.069  0.9111 -0.3357 -1.8316
  145TCq2    C1 2206   3.626   4.249   0.253 -0.2266  0.4411 -0.3017
  145TCq2    O2 2207   3.539   4.162   0.240 -0.0281 -0.6461  0.2447
  145TCq2    C2 2208   3.739   4.234   0.341 -0.0290  0.2278 -0.0781
  145TCq2    C3 2209   3.784   4.111   0.371 -0.6343  0.7921 -0.1903
  145TCq2    C4 2210   3.884   4.094   0.457  0.3385  0.0270  0.2388
  145TCq2    C5 2211   3.928   4.203   0.531 -0.3574 -0.2332 -0.3961
  145TCq2    C6 2212   3.874   4.331   0.507  1.1379  0.5076  0.3016
  145TCq2    C7 2213   3.779   4.348   0.408 -0.7292  0.3612 -0.7327
  145TCq2    C8 2214   3.911   4.445   0.587 -0.0507  0.6213 -0.6784
  145TCq2    O4 2215   4.018   4.432   0.649  0.5027 -0.1726 -0.0182
  145TCq2    C9 2216   3.919   3.957   0.493  0.2902  0.3241 -0.4114
  145TCq2    O5 2217   3.839   3.866   0.469  0.1997  0.0578 -0.3725
  145TCq2    O6 2218   4.021   3.951   0.571 -0.1437 -0.0094 -0.6352
  145TCq2    H2 2219   3.729   4.022   0.341 -1.4183  1.3634 -0.4506
  145TCq2    H3 2220   4.005   4.176   0.603 -2.8075 -2.3733  1.4291
  145TCq2    H4 2221   3.736   4.447   0.394  0.0971  1.0037  1.2058
  146TMC2    C1 2222   0.081   3.280  12.295 -0.4995 -0.3734  0.1615
  146TMC2    C2 2223   0.113   3.304  12.164  0.0817  0.1427 -0.3017
  146TMC2    C3 2224   0.155   3.197  12.090 -0.8109 -0.5796 -0.4160
  146TMC2    C4 2225   0.092   3.154  12.345  0.3508 -0.2663 -0.2887
  146TMC2    C5 2226   0.136   3.050  12.267  0.3054  0.1809 -0.9940
  146TMC2    C6 2227   0.170   3.069  12.135 -0.1727  0.0317  0.3539
  146TMC2     C 2228   0.093   3.397  12.376  0.0963 -0.8017  0.5991
  146TMC2     O 2229   0.074   3.504  12.324 -0.8075  0.1223  0.1232
  146TMC2     H 2230   0.128   3.402  12.123  3.1732  0.2543  1.0973
  146TMC2    H1 2231   0.061   3.139  12.447  0.6440 -2.3735 -0.5032
  146TMC2    H2 2232   0.214   2.999  12.065  0.9307  0.4060  0.6792
  146TMC2    C7 2233   0.206   2.939  12.320  0.5273 -0.8196 -0.0285
  146TMC2    C8 2234   0.192   3.219  11.945 -0.6897  0.1742  0.0203
  146TMC2    O1 2235   0.258   2.865  12.242  0.2837 -0.8144 -0.3053
  146TMC2    O2 2236   0.246   3.317  11.898  0.1855  0.6242 -0.3126
  146TMC2    O5 2237   0.111   3.143  11.879 -0.2239  0.6801  0.0066
  146TMC2    H5 2238   0.090   3.063  11.932  0.3105 -0.1311 -1.0038
  147MPD2     C 2239   0.431   2.702  12.720  0.3964 -0.0874 -0.1968
  147MPD2    C1 2240   0.389   2.825  12.757  0.8849 -0.4781 -0.3654
  147MPD2    C2 2241   0.316   2.906  12.672  0.3876  0.2246 -0.1289
  147MPD2    C3 2242   0.304   2.869  12.540 -0.5904 -0.1755  0.2778
  147MPD2    C4 2243   0.348   2.743  12.503  0.0179  0.0063 -0.1394
  147MPD2    C5 2244   0.403   2.659  12.596 -0.2007 -0.3270  0.6870
  147MPD2     H 2245   0.303   3.011  12.694  0.5505  0.1417  0.3621
  147MPD2    H1 2246   0.331   2.706  12.402 -0.9377  1.8827 -0.6776
  147MPD2    H2 2247   0.477   2.630  12.787 -1.5830  0.2544  1.4864
  147MPD2    H3 2248   0.424   2.557  12.566 -2.0096 -1.0002  1.7263
  147MPD2     N 2249   0.234   2.957  12.454 -0.2303  0.2107 -0.1232
  147MPD2    H5 2250   0.190   3.040  12.491 -2.0126 -0.2682 -1.1476
  147MPD2    N1 2251   0.423   2.870  12.886  0.0571 -0.0388 -0.4053
  147MPD2    H7 2252   0.475   2.802  12.939 -1.7194  1.5034  3.3803
  148MPD2     C 2253   0.887   1.297  10.621  0.2891 -0.0706  0.2484
  148MPD2    C1 2254   0.849   1.412  10.557 -0.7830  0.0439 -0.0025
  148MPD2    C2 2255   0.723   1.423  10.499 -0.2279  0.4434  0.6731
  148MPD2    C3 2256   0.644   1.310  10.482 -0.4462  0.1174 -0.0316
  148MPD2    C4 2257   0.682   1.196  10.544  0.9812  0.3474  0.0978
  148MPD2    C5 2258   0.795   1.190  10.620 -0.1816  0.7293  0.6141
  148MPD2     H 2259   0.697   1.518  10.452 -0.9445 -0.0455  0.0722
  148MPD2    H1 2260   0.626   1.106  10.525 -2.3518  1.8301  2.8063
  148MPD2    H2 2261   0.987   1.279  10.661 -0.1418  1.6807  2.1393
  148MPD2    H3 2262   0.829   1.089  10.639  2.0493  0.8887 -2.4635
  148MPD2     N 2263   0.536   1.308  10.396 -0.6414 -0.0209 -0.0914
  148MPD2    H5 2264   0.478   1.225  10.403 -0.0939 -0.5141 -1.3066
  148MPD2    N1 2265   0.926   1.531  10.530  0.0862  0.4446  0.1811
  148MPD2    H7 2266   0.890   1.602  10.468 -0.3326  0.7473  0.7731
  149TCq2    C1 2267   1.055   1.548  10.578  0.0502 -0.4068 -0.1439
  149TCq2    O2 2268   1.118   1.485  10.659  0.1761  0.9249 -0.1372
  149TCq2    C2 2269   1.127   1.654  10.500  0.1970  1.0734  0.6397
  149TCq2    C3 2270   1.221   1.726  10.564  0.4545 -0.8596  0.6882
  149TCq2    C4 2271   1.274   1.835  10.499  0.6217 -0.0780  0.4862
  149TCq2    C5 2272   1.235   1.866  10.371  0.2317 -0.0808 -0.3198
  149TCq2    C6 2273   1.137   1.789  10.312 -0.0598  0.3659  0.5767
  149TCq2    C7 2274   1.076   1.687  10.374 -1.0121 -0.0196 -0.4655
  149TCq2    C8 2275   1.127   1.774  10.166  1.0815  0.0004 -0.4419
  149TCq2    O4 2276   1.025   1.734  10.116  0.2902 -0.4283  0.2624
  149TCq2    C9 2277   1.402   1.886  10.541  0.3117 -0.7665 -0.0949
  149TCq2    O5 2278   1.456   1.839  10.645  0.5345 -0.1288  0.5368
  149TCq2    O6 2279   1.448   1.978  10.470  0.2396  0.1093 -0.1249
  149TCq2    H2 2280   1.232   1.703  10.669 -0.0522  0.2795  0.9872
  149TCq2    H3 2281   1.279   1.950  10.318  2.2418  0.6816  2.5947
  149TCq2    H4 2282   0.993   1.642  10.321  0.2334 -0.5001 -2.0174
  150MPD2     C 2283   2.669   0.501  12.020  0.3126  0.8013 -0.6795
  150MPD2    C1 2284   2.654   0.603  11.935  0.5582 -0.2340 -0.9758
  150MPD2    C2 2285   2.745   0.708  11.940  0.5815  0.2327  0.4026
  150MPD2    C3 2286   2.846   0.714  12.039  0.0684  0.4804  0.4266
  150MPD2    C4 2287   2.857   0.612  12.130  0.2756  0.4540 -0.5214
  150MPD2    C5 2288   2.760   0.511  12.118 -0.1727 -0.3578  0.8177
  150MPD2     H 2289   2.733   0.796  11.878  2.5278 -0.5459 -1.0400
  150MPD2    H1 2290   2.946   0.603  12.191  0.2816 -1.2600 -0.7705
  150MPD2    H2 2291   2.613   0.408  12.018  0.7661  0.5199 -0.2107
  150MPD2    H3 2292   2.777   0.431  12.190 -0.0113  0.6179  1.8696
  150MPD2     N 2293   2.927   0.827  12.049  0.4787  0.5680  0.3453
  150MPD2    H5 2294   2.919   0.888  11.968 -1.1659 -0.2460 -0.0949
  150MPD2    N1 2295   2.548   0.587  11.849  0.0198 -0.3877  0.0353
  150MPD2    H7 2296   2.491   0.504  11.860  0.5208 -0.8691 -0.9761
  151TCq2    C1 2297   2.997   0.868  12.158  0.1358 -0.2206  0.3174
  151TCq2    O2 2298   3.008   0.816  12.274  0.5790 -0.7728 -0.2754
  151TCq2    C2 2299   3.064   0.994  12.142  0.4347 -0.2242  0.0596
  151TCq2    C3 2300   3.011   1.086  12.060  0.0982 -0.5822 -0.5223
  151TCq2    C4 2301   3.039   1.216  12.085 -0.0904  0.0268 -0.8592
  151TCq2    C5 2302   3.120   1.252  12.194 -0.7732 -0.3261  0.2865
  151TCq2    C6 2303   3.178   1.156  12.268  0.3249  0.2843  0.2732
  151TCq2    C7 2304   3.146   1.023  12.248 -0.3581  0.2541 -0.0375
  151TCq2    C8 2305   3.249   1.202  12.386 -0.9028  0.0827 -0.3483
  151TCq2    O4 2306   3.270   1.326  12.397 -0.2279 -0.4198 -1.1012
  151TCq2    C9 2307   2.966   1.319  12.014  0.2585 -0.5609 -0.0612
  151TCq2    O5 2308   2.850   1.288  11.971  0.1910 -0.1510  0.1088
  151TCq2    O6 2309   3.013   1.438  12.033  0.1103  0.0339 -0.0132
  151TCq2    H2 2310   2.946   1.062  11.977 -1.2554 -0.9606  0.6372
  151TCq2    H3 2311   3.132   1.359  12.211  0.1493 -0.0904 -1.8285
  151TCq2    H4 2312   3.192   0.941  12.301 -0.4250  0.2251 -0.0245
  152MPD2     C 2313   2.550   0.768  12.399 -0.0046 -0.3795  0.2326
  152MPD2    C1 2314   2.577   0.867  12.310 -0.6605  0.0626 -0.2173
  152MPD2    C2 2315   2.487   0.883  12.199  0.7132 -0.3725  0.1764
  152MPD2    C3 2316   2.381   0.797  12.180  0.0900  0.0564  0.4588
  152MPD2    C4 2317   2.363   0.694  12.273 -0.8078  0.3430  0.2029
  152MPD2    C5 2318   2.443   0.687  12.391 -0.1789 -0.4865 -0.0552
  152MPD2     H 2319   2.505   0.957  12.123  2.3745  0.0149  0.9348
  152MPD2    H1 2320   2.287   0.617  12.268 -1.7214  1.4227 -2.0783
  152MPD2    H2 2321   2.612   0.758  12.488 -1.4053 -1.9842  1.0362
  152MPD2    H3 2322   2.425   0.616  12.470 -2.8441 -1.3482 -1.4145
  152MPD2     N 2323   2.304   0.812  12.064  0.2199  0.3289 -0.2124
  152MPD2    H5 2324   2.329   0.888  12.002  0.9618  0.3154  0.0723
  152MPD2    N1 2325   2.688   0.950  12.337 -0.0250  0.3989  0.6696
  152MPD2    H7 2326   2.736   0.951  12.426  0.0076  0.2558  0.6531
  153TCq2    C1 2327   2.724   1.065  12.269  0.6994 -0.1467 -0.5525
  153TCq2    O2 2328   2.669   1.121  12.175 -0.5777  0.4471  0.7600
  153TCq2    C2 2329   2.823   1.139  12.347  0.0739  0.2059  0.2663
  153TCq2    C3 2330   2.896   1.076  12.452 -0.0638  0.2631  0.2145
  153TCq2    C4 2331   2.959   1.147  12.545 -0.1010  0.2718  0.8300
  153TCq2    C5 2332   2.965   1.283  12.541 -0.3187 -0.5399 -0.1864
  153TCq2    C6 2333   2.896   1.347  12.440  0.0056 -0.8209  0.0123
  153TCq2    C7 2334   2.819   1.280  12.346 -0.1048  0.6816  1.4248
  153TCq2    C8 2335   2.921   1.486  12.425  0.1578  0.1347  0.5450
  153TCq2    O4 2336   2.836   1.557  12.378 -0.3621  0.2659  0.4795
  153TCq2    C9 2337   3.018   1.082  12.654 -0.1961 -0.0786  0.1121
  153TCq2    O5 2338   3.004   0.959  12.669 -0.5667 -0.3834  1.0775
  153TCq2    O6 2339   3.075   1.159  12.740 -0.1602 -0.9795  0.1202
  153TCq2    H2 2340   2.910   0.969  12.458  0.3823  0.3694  0.9960
  153TCq2    H3 2341   3.024   1.338  12.614  0.3626 -1.6437  0.0963
  153TCq2    H4 2342   2.766   1.330  12.265 -0.2443 -2.2377 -0.3021
  154MPD2     C 2343   2.868   4.686   0.195 -0.1839  0.3394  0.6200
  154MPD2    C1 2344   2.953   0.071   0.218 -0.2100  0.1376  0.3582
  154MPD2    C2 2345   2.901   0.201   0.228 -0.4411  0.3348  0.2283
  154MPD2    C3 2346   2.763   0.219   0.231  0.1729 -0.1988 -0.0548
  154MPD2    C4 2347   2.675   0.108   0.217  0.2018 -0.2459 -0.3666
  154MPD2    C5 2348   2.733   4.709   0.189  0.5974 -0.0285 -0.6198
  154MPD2     H 2349   2.963   0.287   0.249 -2.6504  1.7995  0.7559
  154MPD2    H1 2350   2.567   0.106   0.209  0.0223 -0.1467  2.1205
  154MPD2    H2 2351   2.910   4.587   0.181 -0.5690  0.3153 -0.3686
  154MPD2    H3 2352   2.668   4.628   0.158  0.5392 -0.6492  1.1805
  154MPD2     N 2353   2.705   0.346   0.254  0.1634  0.2388 -0.3284
  154MPD2    H5 2354   2.765   0.410   0.306  0.2681  0.0993 -0.2783
  154MPD2    N1 2355   3.095   0.045   0.230 -0.2789 -1.0981  0.2228
  154MPD2    H7 2356   3.133   4.672   0.242 -0.1320 -0.9799  0.6888
  155TCq2    C1 2357   3.188   0.154   0.254  0.0554  0.1537  0.4191
  155TCq2    O2 2358   3.193   0.269   0.205  0.8933  0.1697 -0.5596
  155TCq2    C2 2359   3.313   0.096   0.298  0.1731 -0.4858 -0.1537
  155TCq2    C3 2360   3.320   4.701   0.369  0.2244 -0.1918  0.0257
  155TCq2    C4 2361   3.440   4.654   0.410  0.0049 -0.0554 -0.4952
  155TCq2    C5 2362   3.548   0.016   0.391  0.6001  0.5173  0.2043
  155TCq2    C6 2363   3.548   0.132   0.308 -0.2427 -0.5739 -0.1425
  155TCq2    C7 2364   3.423   0.174   0.265  0.1505 -0.3231  0.0178
  155TCq2    C8 2365   3.653   0.239   0.322 -0.3815  0.1169 -0.3981
  155TCq2    O4 2366   3.626   0.351   0.280 -0.3630 -0.5146  0.6734
  155TCq2    C9 2367   3.447   4.534   0.493  0.6124 -0.1962  0.8675
  155TCq2    O5 2368   3.333   4.487   0.532 -0.5287 -0.1555 -0.3261
  155TCq2    O6 2369   3.558   4.478   0.520  0.2372  0.2225 -0.1432
  155TCq2    H2 2370   3.231   4.640   0.384  1.1073 -1.5578 -0.2823
  155TCq2    H3 2371   3.641   4.707   0.438  0.3677  1.2901  1.1434
  155TCq2    H4 2372   3.421   0.266   0.208 -0.6271  0.7905  1.8852
  156MPD2     C 2373   2.845   2.823  12.328 -0.8089  0.4608  0.2114
  156MPD2    C1 2374   2.841   2.948  12.270  0.1627 -0.2083 -0.7587
  156MPD2    C2 2375   2.727   3.023  12.289 -0.3526 -0.2531  0.4194
  156MPD2    C3 2376   2.621   2.975  12.357 -0.3754 -0.2503  0.0555
  156MPD2    C4 2377   2.628   2.851  12.418 -0.5619 -0.4902 -0.6810
  156MPD2    C5 2378   2.738   2.774  12.400 -0.0901  0.1513 -0.0466
  156MPD2     H 2379   2.722   3.121  12.242  0.7013 -1.4573 -2.2286
  156MPD2    H1 2380   2.539   2.803  12.457  0.5374 -1.0472  1.1469
  156MPD2    H2 2381   2.927   2.754  12.309 -1.1425  0.3906 -0.9785
  156MPD2    H3 2382   2.757   2.672  12.432 -0.5632 -0.4235 -1.6339
  156MPD2     N 2383   2.516   3.060  12.378 -0.2191 -0.2357 -0.3701
  156MPD2    H5 2384   2.521   3.154  12.340  1.5867  0.0427  0.5682
  156MPD2    N1 2385   2.955   2.988  12.197  0.4355 -0.1834 -0.6764
  156MPD2    H7 2386   3.033   2.923  12.195  2.4580  2.2615 -1.1368
  157TCq2    C1 2387   2.954   3.089  12.102  0.4315  0.3546 -0.4402
  157TCq2    O2 2388   2.859   3.167  12.078  0.1753  0.3159  0.1654
  157TCq2    C2 2389   3.069   3.087  12.011  0.6521  0.2961  0.1849
  157TCq2    C3 2390   3.173   2.997  12.032  0.0531 -0.1962  0.5651
  157TCq2    C4 2391   3.266   2.993  11.931 -0.2819  0.0820 -0.3150
  157TCq2    C5 2392   3.253   3.059  11.819  0.8119 -0.1366  0.0433
  157TCq2    C6 2393   3.142   3.141  11.804 -0.0732 -0.2778 -0.1807
  157TCq2    C7 2394   3.051   3.166  11.897  0.6140  0.1348  0.2270
  157TCq2    C8 2395   3.124   3.198  11.675 -0.4391 -0.7757 -0.2345
  157TCq2    O4 2396   3.075   3.315  11.676 -0.6582 -0.2905  0.1333
  157TCq2    C9 2397   3.392   2.920  11.945 -1.2362  0.5853  0.0587
  157TCq2    O5 2398   3.456   2.900  11.840  0.2200 -0.4752  0.4916
  157TCq2    O6 2399   3.426   2.890  12.060 -0.3131  0.5435  0.4263
  157TCq2    H2 2400   3.180   2.932  12.118 -1.1055  0.0222  0.8246
  157TCq2    H3 2401   3.327   3.039  11.742  0.7062 -2.1263  0.4726
  157TCq2    H4 2402   2.970   3.238  11.894 -0.2433 -0.8190  0.3332
  158TMC2    C1 2403   2.510   1.518  12.997  0.3772  0.3071 -0.7194
  158TMC2    C2 2404   2.511   1.522  12.857 -0.8670 -0.3606  0.4993
  158TMC2    C3 2405   2.396   1.486  12.793  0.1045 -0.0027  0.6583
  158TMC2    C4 2406   2.403   1.478  13.067 -0.2164 -0.2149 -0.2365
  158TMC2    C5 2407   2.288   1.449  12.997 -0.5230 -0.7263 -0.3747
  158TMC2    C6 2408   2.285   1.455  12.860 -0.1974  0.1020 -0.0353
  158TMC2     C 2409   2.635   1.553  13.059  0.5949  0.3707 -0.0570
  158TMC2     O 2410   2.719   1.602  12.984  0.4135  0.1235  0.1266
  158TMC2     H 2411   2.602   1.535  12.798 -0.5109  1.1925  1.3876
  158TMC2    H1 2412   2.404   1.471  13.175  0.3517  1.0516 -0.1504
  158TMC2    H2 2413   2.193   1.430  12.808  1.1573 -1.8896 -1.4502
  158TMC2    C7 2414   2.160   1.402  13.055 -0.5163 -0.6358 -0.4264
  158TMC2    C8 2415   2.382   1.503  12.652  0.3893 -0.0170 -0.6056
  158TMC2    O1 2416   2.060   1.401  12.985  0.2538 -0.0157 -0.3631
  158TMC2    O2 2417   2.295   1.445  12.587  0.2002 -0.0444 -0.2469
  158TMC2    O5 2418   2.421   1.632  12.623 -0.1689  0.1651  0.4637
  158TMC2    H5 2419   2.451   1.684  12.700 -0.6867 -0.4690  1.0944
  159MPD2     C 2420   2.955   1.654  13.447 -0.0506  0.6361 -0.0638
  159MPD2    C1 2421   2.857   1.579  13.500  0.5666 -0.5645  0.6231
  159MPD2    C2 2422   2.755   1.534  13.404 -0.5970  0.1673  0.2258
  159MPD2    C3 2423   2.761   1.555  13.271  0.7931 -0.2102  0.0910
  159MPD2    C4 2424   2.876   1.616  13.225 -0.6188 -0.0288 -0.0926
  159MPD2    C5 2425   2.965   1.672  13.311  0.0670  0.9097 -0.2861
  159MPD2     H 2426   2.667   1.490  13.449 -1.3681  1.6612  0.1797
  159MPD2    H1 2427   2.888   1.639  13.120  0.0905 -2.4235 -0.5224
  159MPD2    H2 2428   3.034   1.697  13.508  0.1847  0.3463 -0.1641
  159MPD2    H3 2429   3.043   1.737  13.273  0.8891  1.5892  2.5872
  159MPD2     N 2430   2.644   1.529  13.192 -0.1594 -0.0657 -0.0641
  159MPD2    H5 2431   2.559   1.506  13.241  0.2053  2.1704  1.6778
  159MPD2    N1 2432   2.847   1.562  13.637  0.1566 -0.0318 -0.0099
  159MPD2    H7 2433   2.913   1.609  13.698  1.8065  1.4634 -2.9672
  160TMC2    C1 2434   1.510   4.321   1.032  0.1257  0.0675  0.1820
  160TMC2    C2 2435   1.515   4.181   1.014 -0.3557  0.1540 -0.5763
  160TMC2    C3 2436   1.569   4.142   0.895  0.0321  0.3778  1.0280
  160TMC2    C4 2437   1.569   4.417   0.944  0.3617 -0.6886 -0.1706
  160TMC2    C5 2438   1.622   4.360   0.828 -0.2517  0.2125 -0.2631
  160TMC2    C6 2439   1.619   4.225   0.800  0.4264 -0.1599  0.0947
  160TMC2     C 2440   1.413   4.370   1.128 -0.3701  0.5032 -0.2684
  160TMC2     O 2441   1.338   4.286   1.178  0.4850 -0.5182  0.5637
  160TMC2     H 2442   1.457   4.116   1.079  1.0173 -2.1759 -1.7067
  160TMC2    H1 2443   1.550   4.523   0.952 -0.7720 -0.8477 -0.7266
  160TMC2    H2 2444   1.652   4.189   0.704  1.3859 -0.3834  0.5076
  160TMC2    C7 2445   1.677   4.442   0.721  0.7950 -0.4806 -0.4895
  160TMC2    C8 2446   1.585   4.002   0.875 -0.1164 -0.2504 -0.1077
  160TMC2    O1 2447   1.704   4.389   0.613 -0.3357 -0.6643  0.4333
  160TMC2    O2 2448   1.649   3.959   0.783  0.0864 -0.1368 -0.3495
  160TMC2    O5 2449   1.583   3.940   1.000  0.8853 -0.5528 -0.2339
  160TMC2    H5 2450   1.491   3.916   1.024  0.8416 -0.6551 -0.4913
  161MPD2     C 2451   1.211   4.523   1.291 -0.0328  0.4543 -0.0938
  161MPD2    C1 2452   1.311   4.579   1.215 -0.0088 -0.0558 -0.2154
  161MPD2    C2 2453   1.300   4.717   1.195 -0.1657  0.3664  0.4072
  161MPD2    C3 2454   1.200   0.077   1.253 -0.9184  0.5130 -0.6629
  161MPD2    C4 2455   1.104   0.014   1.324 -0.0825 -0.0030  0.6568
  161MPD2    C5 2456   1.106   4.598   1.336  0.4051  0.0434 -0.2544
  161MPD2     H 2457   1.374   0.041   1.130 -0.1573 -0.5094 -0.1837
  161MPD2    H1 2458   1.019   0.066   1.367 -0.3443  1.3553 -1.5175
  161MPD2    H2 2459   1.211   4.416   1.310 -0.2740  0.4528 -0.0989
  161MPD2    H3 2460   1.030   4.544   1.391  1.5668 -0.4983  0.7870
  161MPD2     N 2461   1.184   0.221   1.239  0.1375  0.4288  0.6984
  161MPD2    H5 2462   1.105   0.274   1.272 -0.4159  0.1951 -0.2506
  161MPD2    N1 2463   1.409   4.510   1.143 -0.5923  0.5428  0.4799
  161MPD2    H7 2464   1.481   4.567   1.101 -0.7729 -0.5682 -1.3327
  162TMC2    C1 2465   4.045   1.894   0.738  0.5654  0.1906  0.2599
  162TMC2    C2 2466   3.928   1.884   0.672  0.9390  0.3706  0.0628
  162TMC2    C3 2467   3.827   1.955   0.731  0.2934 -0.0783  0.3325
  162TMC2    C4 2468   4.056   1.937   0.864 -0.4711 -0.4736  0.1914
  162TMC2    C5 2469   3.946   1.977   0.932  0.8521 -0.2623 -0.1379
  162TMC2    C6 2470   3.832   1.998   0.862  0.0621  0.2883  0.5398
  162TMC2     C 2471   4.165   1.844   0.680  0.0642 -0.3757 -1.4131
  162TMC2     O 2472   4.274   1.887   0.725 -0.3437 -0.1273 -0.0753
  162TMC2     H 2473   3.925   1.861   0.566  0.2994 -0.5168  0.2736
  162TMC2    H1 2474   4.151   1.921   0.914 -0.2091 -0.2068 -0.2206
  162TMC2    H2 2475   3.746   2.050   0.904  1.6291  2.6743  0.7580
  162TMC2    C7 2476   3.967   2.051   1.049 -0.1583  0.6165  0.0262
  162TMC2    C8 2477   3.722   1.990   0.638 -0.1923  0.2257  0.1247
  162TMC2    O1 2478   3.874   2.125   1.084  0.3854  0.3547  0.6363
  162TMC2    O2 2479   3.739   2.019   0.518 -0.3420 -0.8315 -0.3174
  162TMC2    O5 2480   3.603   1.976   0.694 -0.3318  0.2630  0.4140
  162TMC2    H5 2481   3.600   1.926   0.779  0.8345 -0.4836  0.0054
  163MPD2     C 2482   4.441   1.516   0.397  0.7802  0.3419  0.1419
  163MPD2    C1 2483   4.480   1.632   0.457 -0.3517 -0.2921 -0.7557
  163MPD2    C2 2484   4.385   1.700   0.532 -0.5751  0.4117  0.7838
  163MPD2    C3 2485   4.253   1.654   0.540 -0.2309  0.7609 -0.3897
  163MPD2    C4 2486   4.224   1.528   0.488  0.5580  0.0848  0.1871
  163MPD2    C5 2487   4.321   1.465   0.418 -0.7149  0.2963 -0.1993
  163MPD2     H 2488   4.407   1.797   0.576 -1.1438  1.5126 -1.3428
  163MPD2    H1 2489   4.125   1.483   0.488  0.5172  0.1653 -2.5581
  163MPD2    H2 2490   4.503   1.452   0.336 -1.3655 -2.4117  0.8606
  163MPD2    H3 2491   4.308   1.364   0.382  0.6467  0.0927 -0.1303
  163MPD2     N 2492   4.146   1.730   0.599  0.2182  0.2164  0.2372
  163MPD2    H5 2493   4.054   1.687   0.593  0.1308  0.7439 -2.0667
  163MPD2    N1 2494   4.619   1.674   0.431 -0.7586  0.3139  0.1206
  163MPD2    H7 2495   4.670   1.625   0.358 -2.3081  0.4648 -1.0760
  164TCq2    C1 2496   1.378   1.878  11.026  0.2613  0.5005  0.8781
  164TCq2    O2 2497   1.339   1.871  11.138 -0.3540  0.5375 -0.1654
  164TCq2    C2 2498   1.340   2.001  10.956 -0.5344 -0.1068 -1.0762
  164TCq2    C3 2499   1.422   2.052  10.859  0.7673  0.1849 -0.0265
  164TCq2    C4 2500   1.377   2.164  10.793 -0.4720 -0.1901 -0.3480
  164TCq2    C5 2501   1.249   2.221  10.812  0.6993  0.3089  0.8443
  164TCq2    C6 2502   1.174   2.155  10.903 -0.8367  0.3133 -0.1375
  164TCq2    C7 2503   1.217   2.046  10.976  0.3436  0.2857 -0.9016
  164TCq2    C8 2504   1.041   2.214  10.913 -0.1486 -0.8299 -0.2388
  164TCq2    O4 2505   0.992   2.239  10.805 -0.4510  0.1880  0.1255
  164TCq2    C9 2506   1.466   2.240  10.711  0.0747 -0.3153 -0.5561
  164TCq2    O5 2507   1.422   2.351  10.660 -0.6521 -0.8591  0.2043
  164TCq2    O6 2508   1.582   2.190  10.692  0.2753 -0.3680  0.3245
  164TCq2    H2 2509   1.525   2.019  10.847  0.2070 -1.7075  0.3402
  164TCq2    H3 2510   1.219   2.317  10.771  0.9860  0.9669  2.1545
  164TCq2    H4 2511   1.150   1.997  11.045 -1.2785  2.4825 -0.8922
  165MPD2     C 2512   2.264   3.021   1.763 -0.7919 -0.4345 -0.2996
  165MPD2    C1 2513   2.135   2.981   1.733  0.3309  0.8361  0.2022
  165MPD2    C2 2514   2.031   3.073   1.761 -0.4984 -0.3035  0.7266
  165MPD2    C3 2515   2.059   3.197   1.809 -0.0583 -0.3815 -0.6177
  165MPD2    C4 2516   2.191   3.236   1.821 -0.7602  0.1230  0.1696
  165MPD2    C5 2517   2.289   3.141   1.808 -0.0336 -0.4671  0.9893
  165MPD2     H 2518   1.931   3.038   1.736 -0.4805 -0.9717  1.5709
  165MPD2    H1 2519   2.218   3.335   1.855  0.6674  0.7731 -2.8615
  165MPD2    H2 2520   2.347   2.957   1.735  1.0041  1.1654  1.4813
  165MPD2    H3 2521   2.395   3.158   1.822 -0.2028  0.5874  0.9657
  165MPD2     N 2522   1.970   3.305   1.830  0.0672  0.5594 -0.0582
  165MPD2    H5 2523   2.004   3.389   1.876 -1.2567  1.3300 -0.4875
  165MPD2    N1 2524   2.124   2.846   1.699 -0.2296  0.0029 -0.0338
  165MPD2    H7 2525   2.212   2.804   1.673  0.0255  0.6735 -0.2542
  166TCq2    C1 2526   1.836   3.301   1.796 -0.4527  0.2177  0.2495
  166TCq2    O2 2527   1.769   3.206   1.751 -0.3182  0.4325  0.9132
  166TCq2    C2 2528   1.758   3.420   1.811  0.4415 -0.2105  0.0689
  166TCq2    C3 2529   1.624   3.419   1.841 -0.8979 -0.0034  0.0177
  166TCq2    C4 2530   1.554   3.538   1.850 -0.0376 -0.6545 -0.7186
  166TCq2    C5 2531   1.616   3.652   1.815 -0.5520  0.6056 -0.5319
  166TCq2    C6 2532   1.750   3.646   1.775 -0.7098 -0.1042 -0.1662
  166TCq2    C7 2533   1.826   3.536   1.788 -0.7634  0.0620  0.2463
  166TCq2    C8 2534   1.814   3.755   1.705 -0.2013 -0.0729 -0.5172
  166TCq2    O4 2535   1.927   3.734   1.677  0.1082 -0.4321  0.2061
  166TCq2    C9 2536   1.413   3.546   1.877  0.2743  0.1871 -0.3288
  166TCq2    O5 2537   1.360   3.660   1.872  0.0411  0.2085 -0.3335
  166TCq2    O6 2538   1.351   3.436   1.864  0.2449 -0.1843 -0.3249
  166TCq2    H2 2539   1.584   3.325   1.877  1.4166 -0.9482  0.0866
  166TCq2    H3 2540   1.559   3.744   1.807  0.3971  0.8821 -4.1314
  166TCq2    H4 2541   1.931   3.529   1.759 -0.7727 -1.1934  0.5218
  167TMC2    C1 2542   0.815   2.404  11.990 -0.0473  0.7984  0.3011
  167TMC2    C2 2543   0.925   2.485  11.998 -0.5361 -0.0977  0.0383
  167TMC2    C3 2544   1.032   2.440  12.068 -0.7046 -0.2487  0.3424
  167TMC2    C4 2545   0.808   2.287  12.067  0.5727  0.2276  0.1865
  167TMC2    C5 2546   0.908   2.256  12.148  0.1554 -0.3998 -0.4317
  167TMC2    C6 2547   1.016   2.347  12.165  0.3039  0.3367  0.1518
  167TMC2     C 2548   0.702   2.463  11.920 -0.5474 -0.2735 -0.5535
  167TMC2     O 2549   0.712   2.569  11.859  0.0810  0.1756  0.2562
  167TMC2     H 2550   0.922   2.573  11.934 -0.8493 -0.1052  0.0425
  167TMC2    H1 2551   0.722   2.223  12.056  0.9166  0.0926 -1.7985
  167TMC2    H2 2552   1.091   2.320  12.239 -0.3781 -1.2517  0.2559
  167TMC2    C7 2553   0.928   2.128  12.192  0.4340  0.8625 -0.3569
  167TMC2    C8 2554   1.153   2.510  12.089 -0.5352 -0.5705  0.0779
  167TMC2    O1 2555   1.023   2.123  12.273  0.0465  0.5730  0.4197
  167TMC2    O2 2556   1.233   2.469  12.166  0.5403 -0.0790 -0.1877
  167TMC2    O5 2557   1.142   2.635  12.035 -0.2299 -0.1998 -0.2258
  167TMC2    H5 2558   1.067   2.665  11.979 -1.5790  1.7176  2.6355
  168MPD2     C 2559   0.431   2.500  11.784  0.0627 -0.6678 -0.0243
  168MPD2    C1 2560   0.482   2.379  11.829 -0.5373  0.2764 -0.4323
  168MPD2    C2 2561   0.407   2.260  11.806  0.7860 -0.3311 -0.5872
  168MPD2    C3 2562   0.281   2.274  11.741  0.2028  0.6020 -0.2094
  168MPD2    C4 2563   0.232   2.400  11.714  0.2445  0.0887 -0.7195
  168MPD2    C5 2564   0.310   2.513  11.735 -0.0586 -0.1710  0.6543
  168MPD2     H 2565   0.440   2.164  11.844  0.0852  0.5012  2.1298
  168MPD2    H1 2566   0.133   2.426  11.679  0.4313  0.6302 -0.8432
  168MPD2    H2 2567   0.490   2.591  11.788 -2.3997  0.8373  1.9595
  168MPD2    H3 2568   0.267   2.609  11.708 -1.4122 -0.5610  1.4592
  168MPD2     N 2569   0.209   2.165  11.697 -0.1694 -0.1885  0.8615
  168MPD2    H5 2570   0.118   2.182  11.655 -0.2281 -2.4953  0.0397
  168MPD2    N1 2571   0.603   2.369  11.904 -0.0425 -0.4585  0.2128
  168MPD2    H7 2572   0.617   2.287  11.963 -1.1203 -2.3585 -2.1482
  169MPD1     C 2573   1.880   0.571   8.978  0.2335  0.3943 -0.1227
  169MPD1    C1 2574   1.885   0.578   9.114 -0.1972  0.4000  0.8655
  169MPD1    C2 2575   2.002   0.625   9.176  0.6005  0.6354  0.4616
  169MPD1    C3 2576   2.102   0.686   9.104 -0.4035  0.2262  0.2481
  169MPD1    C4 2577   2.086   0.696   8.966  0.3328  0.2975 -0.0500
  169MPD1    C5 2578   1.976   0.636   8.906 -0.2538  0.4229  0.0987
  169MPD1     H 2579   2.010   0.624   9.284 -0.9893 -1.6286  0.5557
  169MPD1    H1 2580   2.142   0.759   8.898 -0.3548 -2.9109 -3.5608
  169MPD1    H2 2581   1.802   0.524   8.920  0.0176  1.1791 -0.4660
  169MPD1    H3 2582   1.966   0.629   8.798  1.4062 -1.6342  0.0773
  169MPD1     N 2583   2.211   0.733   9.172  0.2661  0.6681  0.1905
  169MPD1    H5 2584   2.219   0.707   9.270 -0.0896  1.5218  0.4505
  169MPD1    N1 2585   1.792   0.504   9.179 -0.0084  0.0978  0.3005
  169MPD1    H6 2586   1.705   0.496   9.127  0.1430  1.6986 -0.1848
  169MPD1    H7 2587   1.776   0.565   9.260 -2.6156  0.9928 -0.9075
  170MPD1     C 2588   1.022   3.772  12.542  0.1737 -0.2012  0.4456
  170MPD1    C1 2589   1.109   3.879  12.552 -0.5619  0.0628 -0.1027
  170MPD1    C2 2590   1.124   3.936  12.679 -0.4579  0.5623 -0.7768
  170MPD1    C3 2591   1.092   3.865  12.791  0.1347 -0.7795 -0.2363
  170MPD1    C4 2592   1.035   3.741  12.781  0.3199 -0.7843  0.0565
  170MPD1    C5 2593   1.000   3.700  12.659 -0.1115  0.3885 -0.2552
  170MPD1     H 2594   1.186   4.024  12.687 -0.8042  0.7625 -0.3018
  170MPD1    H1 2595   1.017   3.673  12.864  0.0556 -1.5036 -0.5954
  170MPD1    H2 2596   0.981   3.733  12.449 -0.8851 -0.8925  1.2063
  170MPD1    H3 2597   0.948   3.606  12.649 -0.5768  0.5248  0.8594
  170MPD1     N 2598   1.121   3.931  12.916  0.0847  0.1474 -0.2153
  170MPD1    H5 2599   1.167   4.021  12.912 -1.0411  0.7515  0.5046
  170MPD1    N1 2600   1.158   3.937  12.439  0.5835  0.0482 -0.5092
  170MPD1    H6 2601   1.161   3.873  12.359 -1.9098 -1.3945  0.5642
  170MPD1    H7 2602   1.254   3.973  12.442  0.8478 -0.9426  2.8618
  171MPD1     C 2603   0.301   0.547  15.513  0.6080 -0.9845  0.1366
  171MPD1    C1 2604   0.247   0.438  15.440 -0.4614 -0.1608 -1.0711
  171MPD1    C2 2605   0.263   0.311  15.487  0.8335  0.3383  0.1772
  171MPD1    C3 2606   0.343   0.288  15.601 -0.0539  0.1009  0.2447
  171MPD1    C4 2607   0.401   0.398  15.668 -0.2765  0.3880 -0.7065
  171MPD1    C5 2608   0.375   0.530  15.623  0.0122  0.5596 -0.0370
  171MPD1     H 2609   0.213   0.231  15.433 -0.8917  0.2707  1.8938
  171MPD1    H1 2610   0.444   0.371  15.764  1.9558 -0.7721 -2.0272
  171MPD1    H2 2611   0.264   0.645  15.485 -0.6237 -1.8260 -1.2190
  171MPD1    H3 2612   0.412   0.616  15.678  1.2707  0.8568 -1.3562
  171MPD1     N 2613   0.369   0.165  15.662 -0.1585  1.1020 -0.1868
  171MPD1    H5 2614   0.419   0.180  15.749  0.1691  1.3026 -0.4111
  171MPD1    N1 2615   0.150   0.466  15.340  0.4878 -0.0029 -0.4952
  171MPD1    H6 2616   0.128   0.394  15.271 -0.7156 -0.6819  0.5863
  171MPD1    H7 2617   0.151   0.559  15.298  0.3037  0.5667  0.7703
  172MPD1     C 2618   3.058   3.977   0.633  0.5084 -0.2366 -0.4064
  172MPD1    C1 2619   3.070   4.093   0.560 -0.6835  0.0640 -0.8721
  172MPD1    C2 2620   3.131   4.081   0.434  0.3439  0.7511 -0.3906
  172MPD1    C3 2621   3.175   3.962   0.385 -0.1265 -0.0500  0.0713
  172MPD1    C4 2622   3.162   3.847   0.464 -0.2999 -0.2492 -0.0899
  172MPD1    C5 2623   3.100   3.860   0.584  0.2468  0.5506  0.3737
  172MPD1     H 2624   3.158   4.170   0.377  1.8957  0.3072 -0.3585
  172MPD1    H1 2625   3.194   3.747   0.438  1.8299  0.3947  0.0899
  172MPD1    H2 2626   3.015   3.975   0.732 -0.3627  2.6051 -0.7358
  172MPD1    H3 2627   3.090   3.775   0.650 -1.8009  0.5279  0.0300
  172MPD1     N 2628   3.240   3.944   0.261  0.1493  1.1229 -0.3431
  172MPD1    H5 2629   3.278   3.851   0.247  0.0445  0.2472  5.1022
  172MPD1    N1 2630   3.051   4.219   0.621 -0.3427  0.0897  0.3534
  172MPD1    H6 2631   3.046   4.300   0.559  0.7745  0.6872  1.0472
  172MPD1    H7 2632   2.964   4.230   0.671 -0.9969 -0.6083 -0.6396
  173MPD1     C 2633   0.311   4.485  14.580 -0.7631 -0.3753 -0.2538
  173MPD1    C1 2634   0.252   4.414  14.477  0.0887 -0.5996 -0.7358
  173MPD1    C2 2635   0.160   4.310  14.507  0.2575 -0.7941  0.1936
  173MPD1    C3 2636   0.129   4.277  14.640  0.9730 -0.0038 -0.5997
  173MPD1    C4 2637   0.183   4.356  14.741  0.1816 -0.9568  0.5851
  173MPD1    C5 2638   0.267   4.462  14.706  0.0794  0.0214 -0.3355
  173MPD1     H 2639   0.120   4.245  14.430  1.3244 -0.1198 -0.9528
  173MPD1    H1 2640   0.163   4.339  14.846  0.1662 -0.1028  0.7246
  173MPD1    H2 2641   0.381   4.567  14.566 -0.2324 -0.5858  1.1352
  173MPD1    H3 2642   0.325   4.509  14.784  0.1884 -0.0780 -0.3569
  173MPD1     N 2643   0.050   4.161  14.656  0.0398  0.2181  0.4654
  173MPD1    H5 2644   0.010   4.122  14.571  0.9001  0.1315  0.1007
  173MPD1    N1 2645   0.305   4.427  14.343  0.0625  0.4968 -0.1850
  173MPD1    H6 2646   0.318   4.520  14.304  1.0936  0.6008  0.4278
  173MPD1    H7 2647   0.244   4.385  14.272  0.1753 -0.3250  0.2024
  174MPD1     C 2648   4.660   3.525  14.086 -0.1632 -0.0292  0.6928
  174MPD1    C1 2649   4.541   3.527  14.159 -0.2995 -0.0751  0.0272
  174MPD1    C2 2650   4.529   3.605  14.277  0.0173  0.3311  0.0426
  174MPD1    C3 2651   4.635   3.683  14.319 -0.2394  0.0134  0.3478
  174MPD1    C4 2652   0.030   3.689  14.237 -0.2149  0.1506 -0.1943
  174MPD1    C5 2653   0.036   3.607  14.128 -0.2589 -0.2294 -0.8342
  174MPD1     H 2654   4.434   3.604  14.328 -0.1654  1.8117 -0.2477
  174MPD1    H1 2655   0.116   3.749  14.266  0.2891  0.5331 -2.4309
  174MPD1    H2 2656   4.677   3.463  13.999 -1.7251  1.5554 -0.7525
  174MPD1    H3 2657   0.131   3.607  14.077  0.2196  0.2898  0.0668
  174MPD1     N 2658   4.637   3.756  14.442 -0.0722 -0.2608 -0.1688
  174MPD1    H5 2659   4.715   3.814  14.470  0.6470 -0.0093 -2.6960
  174MPD1    N1 2660   4.447   3.438  14.114  0.3277  0.1105 -0.1868
  174MPD1    H6 2661   4.438   3.442  14.013 -0.0020 -1.4603 -0.2298
  174MPD1    H7 2662   4.363   3.467  14.164  0.5842  0.0265  0.2850
  175MPD1     C 2663   3.793   0.120  14.690 -0.3796 -0.1262  0.3100
  175MPD1    C1 2664   3.700   0.221  14.709 -0.0010  0.6039 -0.3645
  175MPD1    C2 2665   3.693   0.274  14.837 -0.1022  0.0619  0.3722
  175MPD1    C3 2666   3.763   0.210  14.938  0.7078  0.7481 -0.6745
  175MPD1    C4 2667   3.848   0.105  14.913 -0.1557 -0.1313 -0.8127
  175MPD1    C5 2668   3.863   0.058  14.788 -0.6117 -0.3297  0.0278
  175MPD1     H 2669   3.626   0.356  14.861  0.6947  0.7965  0.0818
  175MPD1    H1 2670   3.897   0.055  14.996  1.0415 -0.0326 -1.4646
  175MPD1    H2 2671   3.811   0.077  14.592 -0.5908  1.1526 -0.2858
  175MPD1    H3 2672   3.938   4.706  14.758 -0.6690 -0.4930  0.2922
  175MPD1     N 2673   3.761   0.255  15.069  0.6657  0.0479  0.2890
  175MPD1    H5 2674   3.796   0.192  15.141  0.8249  1.3602  1.3620
  175MPD1    N1 2675   3.634   0.285  14.609 -0.3221 -0.1467 -0.0886
  175MPD1    H6 2676   3.616   0.229  14.526  1.3894 -2.4642  1.0859
  175MPD1    H7 2677   3.543   0.323  14.635 -0.1098  1.2450 -1.4116
  176MPD1     C 2678   1.151   2.059  15.716  0.4132 -0.7017  0.0415
  176MPD1    C1 2679   1.045   1.989  15.773 -0.1601  0.1038  0.3463
  176MPD1    C2 2680   0.983   2.044  15.887 -0.4281  0.2458  0.3105
  176MPD1    C3 2681   1.030   2.158  15.957  0.0857  0.6954  0.0424
  176MPD1    C4 2682   1.146   2.214  15.899 -0.2300  0.3461 -0.1981
  176MPD1    C5 2683   1.197   2.171  15.778 -0.2307 -0.4836 -0.4271
  176MPD1     H 2684   0.898   1.985  15.920  0.3783 -1.3275 -0.3819
  176MPD1    H1 2685   1.199   2.299  15.940  0.3052 -0.2903  0.4410
  176MPD1    H2 2686   1.197   2.020  15.626  2.7440  0.5615  0.6897
  176MPD1    H3 2687   1.275   2.230  15.732 -1.1623 -1.2497 -2.9753
  176MPD1     N 2688   0.960   2.187  16.077  0.0973  0.3446  0.3143
  176MPD1    H5 2689   0.891   2.123  16.115  0.7682  0.8508  2.4274
  176MPD1    N1 2690   0.999   1.876  15.708 -0.1243 -0.0212  0.2816
  176MPD1    H6 2691   0.973   1.805  15.777 -3.1263 -0.8006 -1.6476
  176MPD1    H7 2692   1.081   1.833  15.665  0.4234  0.8954  0.4219
  177MPD1     C 2693   4.370   2.038  10.183 -0.8978 -0.2129  0.3115
  177MPD1    C1 2694   4.376   1.987  10.059  0.2106  0.8433  0.4421
  177MPD1    C2 2695   4.308   2.044   9.957 -0.0429 -0.8092 -0.0216
  177MPD1    C3 2696   4.234   2.158   9.967 -0.1577 -0.4422  0.5851
  177MPD1    C4 2697   4.234   2.208  10.095 -0.1270 -0.4176 -0.1028
  177MPD1    C5 2698   4.301   2.154  10.202 -0.0468  0.4702  0.0860
  177MPD1     H 2699   4.304   1.990   9.863 -0.5853 -2.0015  0.6926
  177MPD1    H1 2700   4.176   2.298  10.113 -0.6392 -1.0133  1.2867
  177MPD1    H2 2701   4.411   1.986  10.268  0.0938 -1.2305 -0.7851
  177MPD1    H3 2702   4.294   2.195  10.302  0.1596  1.1964 -0.2017
  177MPD1     N 2703   4.151   2.201   9.860 -0.5353  0.2228 -0.0299
  177MPD1    H5 2704   4.141   2.134   9.784  0.3885  0.5360 -0.4356
  177MPD1    N1 2705   4.462   1.874  10.041  1.0934  0.6207  0.0006
  177MPD1    H6 2706   4.462   1.824  10.130  1.3932  0.3210 -0.1704
  177MPD1    H7 2707   4.442   1.817   9.960  0.1091  1.3169 -0.2442
  178MPD1     C 2708   0.773   3.048   0.501 -0.7425  0.9153 -0.0513
  178MPD1    C1 2709   0.724   2.939   0.437 -0.1260  0.6029  0.6844
  178MPD1    C2 2710   0.785   2.893   0.323  0.4102 -0.5896 -1.0317
  178MPD1    C3 2711   0.898   2.954   0.272 -0.2295  0.9581 -0.0917
  178MPD1    C4 2712   0.954   3.057   0.343  0.2403  0.0778 -0.8065
  178MPD1    C5 2713   0.886   3.107   0.452  0.0293  0.6863  0.4255
  178MPD1     H 2714   0.737   2.817   0.264  0.1516 -2.1338  1.1454
  178MPD1    H1 2715   1.038   3.118   0.313 -1.0238  0.8659 -2.7153
  178MPD1    H2 2716   0.733   3.076   0.598 -2.1568 -0.4840 -0.2219
  178MPD1    H3 2717   0.936   3.185   0.507  2.3969 -0.7050  0.2326
  178MPD1     N 2718   0.965   2.909   0.154  0.1708 -0.0405  0.0229
  178MPD1    H5 2719   1.060   2.944   0.147  0.1131  0.1633  0.2797
  178MPD1    N1 2720   0.589   2.896   0.461  0.2817 -0.0404 -0.7977
  178MPD1    H6 2721   0.552   2.905   0.556  0.5894  0.0383 -0.6849
  178MPD1    H7 2722   0.579   2.795   0.456 -2.6699  0.0841  1.8064
  179MPD1     C 2723   0.702   1.684  16.215 -0.3529 -0.0328 -0.2467
  179MPD1    C1 2724   0.654   1.679  16.090 -0.2019 -0.7219  0.4390
  179MPD1    C2 2725   0.630   1.554  16.048 -0.0632  0.3115  0.3963
  179MPD1    C3 2726   0.687   1.445  16.103 -0.3009 -0.6213 -0.2694
  179MPD1    C4 2727   0.747   1.455  16.227  0.0050  0.2441 -0.5051
  179MPD1    C5 2728   0.748   1.575  16.287 -0.6658  0.3007 -0.5378
  179MPD1     H 2729   0.576   1.550  15.954  0.4578 -3.0392  0.2571
  179MPD1    H1 2730   0.778   1.363  16.275 -1.0881  0.0095 -0.2398
  179MPD1    H2 2731   0.704   1.783  16.260  0.5603 -1.3110  2.5610
  179MPD1    H3 2732   0.792   1.590  16.385 -0.9493  0.1776 -0.3925
  179MPD1     N 2733   0.698   1.319  16.042 -0.1051  0.0174 -0.8343
  179MPD1    H5 2734   0.731   1.237  16.093 -2.7393 -0.2536  0.4339
  179MPD1    N1 2735   0.591   1.793  16.044 -0.6440 -0.4069 -0.4728
  179MPD1    H6 2736   0.640   1.874  16.081 -1.3815  0.5013 -1.4794
  179MPD1    H7 2737   0.594   1.805  15.943  2.4431 -0.4448 -0.4017
  180MPD1     C 2738   0.979   2.891  15.499  0.5932 -0.0840  0.4970
  180MPD1    C1 2739   1.020   2.960  15.384  0.0905 -0.4159 -0.1191
  180MPD1    C2 2740   0.953   2.931  15.263 -0.5292  0.9003  0.3404
  180MPD1    C3 2741   0.839   2.846  15.259  1.0189 -0.5197 -0.0243
  180MPD1    C4 2742   0.798   2.790  15.379 -0.1982 -0.3472  0.5315
  180MPD1    C5 2743   0.870   2.808  15.495  0.1704  0.2715  0.1754
  180MPD1     H 2744   0.974   2.986  15.172 -2.8052  4.8074  2.2101
  180MPD1    H1 2745   0.721   2.714  15.387 -1.2144  0.4359 -2.1687
  180MPD1    H2 2746   1.018   2.918  15.596  0.9450 -0.8430  0.5643
  180MPD1    H3 2747   0.847   2.755  15.587  1.9806 -1.4686 -0.3598
  180MPD1     N 2748   0.772   2.829  15.136 -0.4578 -0.2701 -0.2017
  180MPD1    H5 2749   0.807   2.872  15.051 -0.5661 -0.4433 -0.3348
  180MPD1    N1 2750   1.126   3.043  15.387 -0.3969 -0.0353 -0.5893
  180MPD1    H6 2751   1.121   3.106  15.307  0.3036  0.0011 -0.6078
  180MPD1    H7 2752   1.118   3.102  15.469  1.0278 -1.5347  0.6245
  181MPD1     C 2753   2.074   3.989  10.302  0.0722 -0.1135 -0.5236
  181MPD1    C1 2754   2.091   4.121  10.252 -0.2415 -0.5355  0.3902
  181MPD1    C2 2755   2.206   4.161  10.185 -0.7708 -0.1138  0.2773
  181MPD1    C3 2756   2.315   4.076  10.165  0.1388 -0.2344  0.4509
  181MPD1    C4 2757   2.305   3.952  10.229  0.5543  0.3211 -0.6606
  181MPD1    C5 2758   2.192   3.911  10.292  0.1870  0.8862 -0.2323
  181MPD1     H 2759   2.201   4.263  10.148 -0.4160 -1.0199 -2.2351
  181MPD1    H1 2760   2.391   3.888  10.245 -0.6043 -1.1947 -0.4601
  181MPD1    H2 2761   1.981   3.951  10.343 -0.0465 -2.7513 -3.2287
  181MPD1    H3 2762   2.196   3.811  10.332  1.2043  0.9644 -0.1518
  181MPD1     N 2763   2.433   4.114  10.104 -0.1407 -0.4055  0.5036
  181MPD1    H5 2764   2.505   4.042  10.110  0.0829 -0.4262 -2.3973
  181MPD1    N1 2765   1.970   4.195  10.254 -0.5240  0.6927 -0.6441
  181MPD1    H6 2766   1.993   4.294  10.259  4.0651 -0.3368 -2.1432
  181MPD1    H7 2767   1.908   4.188  10.335 -0.7996  0.6423 -0.8613
  182MPD1     C 2768   3.414   3.749   1.731  0.3424  0.5161  0.6065
  182MPD1    C1 2769   3.457   3.620   1.681 -0.0544  0.0411  0.6985
  182MPD1    C2 2770   3.358   3.545   1.615 -1.2334  0.3720  0.0375
  182MPD1    C3 2771   3.226   3.593   1.604 -0.0933  0.2780 -0.3325
  182MPD1    C4 2772   3.198   3.718   1.655  0.3026 -0.4228  0.4516
  182MPD1    C5 2773   3.291   3.801   1.710 -0.4531 -0.1749  0.0340
  182MPD1     H 2774   3.379   3.447   1.573  0.1825  0.1138  1.3714
  182MPD1    H1 2775   3.100   3.765   1.651  1.9312  3.0110  0.3721
  182MPD1    H2 2776   3.479   3.826   1.773  0.0036  1.2381 -0.2072
  182MPD1    H3 2777   3.259   3.899   1.743 -2.4941 -1.0411  0.6513
  182MPD1     N 2778   3.119   3.536   1.533  0.2024  0.3205 -0.2370
  182MPD1    H5 2779   3.035   3.593   1.534 -0.0175  0.0303 -1.5835
  182MPD1    N1 2780   3.591   3.577   1.708 -0.0006 -0.2330  0.1042
  182MPD1    H6 2781   3.614   3.499   1.647 -1.2083 -2.5193  2.5389
  182MPD1    H7 2782   3.664   3.647   1.707  1.9682 -2.2594  1.0427
  183MPD1     C 2783   4.664   4.402   9.319 -0.0572  0.3798 -0.2080
  183MPD1    C1 2784   4.640   4.324   9.434 -0.5174  0.2097 -0.1429
  183MPD1    C2 2785   4.514   4.321   9.489  0.4802  0.0119  0.1488
  183MPD1    C3 2786   4.422   4.413   9.444 -0.0318 -0.6557 -0.0276
  183MPD1    C4 2787   4.452   4.496   9.335 -0.3309  0.5189  0.2574
  183MPD1    C5 2788   4.572   4.488   9.273  0.7361 -1.0012  0.3819
  183MPD1     H 2789   4.488   4.252   9.569 -1.4347 -0.3507 -0.7821
  183MPD1    H1 2790   4.380   4.566   9.294 -0.7708  0.4681  0.9553
  183MPD1    H2 2791   0.036   4.407   9.264 -0.0883 -0.0026 -0.2954
  183MPD1    H3 2792   4.602   4.544   9.185  0.9606 -0.3982  0.8460
  183MPD1     N 2793   4.288   4.401   9.501 -0.0636 -0.0167 -0.5638
  183MPD1    H5 2794   4.287   4.326   9.569 -0.1790  1.1777  0.7448
  183MPD1    N1 2795   0.013   4.231   9.481 -0.4770  0.3745  0.5854
  183MPD1    H6 2796   0.000   4.209   9.579  2.0766 -0.7770  0.6644
  183MPD1    H7 2797   0.111   4.258   9.471 -0.3083  0.6255  3.0638
  184MPD1     C 2798   3.213   1.418  10.217  0.0999  0.4884  0.3404
  184MPD1    C1 2799   3.334   1.478  10.189 -0.2712  0.7751 -0.6910
  184MPD1    C2 2800   3.333   1.564  10.079 -0.5147 -0.2503  0.3238
  184MPD1    C3 2801   3.218   1.608  10.012  0.1647  0.5326  0.2878
  184MPD1    C4 2802   3.098   1.556  10.047  0.3632 -0.1123  0.1797
  184MPD1    C5 2803   3.101   1.464  10.144  0.0843  0.1898 -0.6738
  184MPD1     H 2804   3.431   1.603  10.054 -0.2495  0.2451  2.1453
  184MPD1    H1 2805   3.006   1.585   9.998 -0.2014 -2.0742  0.0620
  184MPD1    H2 2806   3.193   1.347  10.297 -2.9767  0.8401 -0.1127
  184MPD1    H3 2807   3.006   1.417  10.165  0.2620 -0.7358 -1.9373
  184MPD1     N 2808   3.239   1.697   9.905  0.0753  0.3114 -0.1663
  184MPD1    H5 2809   3.337   1.719   9.889  0.0867 -1.2771 -2.2850
  184MPD1    N1 2810   3.450   1.420  10.241  0.3570 -0.0441 -0.3594
  184MPD1    H6 2811   3.425   1.379  10.331  0.0246  2.0872  0.5144
  184MPD1    H7 2812   3.510   1.501  10.256  0.2063  0.5489 -3.0165
  185MPD1     C 2813   2.617   1.734   9.136  0.1242 -0.5036  0.2731
  185MPD1    C1 2814   2.606   1.702   9.268 -0.4724 -0.1588 -0.2397
  185MPD1    C2 2815   2.709   1.729   9.357  0.0132  0.0620  0.2636
  185MPD1    C3 2816   2.824   1.789   9.307  0.2850 -0.5300 -0.3695
  185MPD1    C4 2817   2.830   1.824   9.174 -0.7177  0.4119  0.4422
  185MPD1    C5 2818   2.730   1.794   9.089 -0.1218  0.0037 -0.3094
  185MPD1     H 2819   2.706   1.722   9.465  1.3075  2.6432  0.4803
  185MPD1    H1 2820   2.917   1.879   9.140 -1.8544  2.7967  1.3742
  185MPD1    H2 2821   2.542   1.723   9.058 -0.3167 -1.3452  0.8200
  185MPD1    H3 2822   2.730   1.827   8.986  0.1001 -1.7548 -0.8618
  185MPD1     N 2823   2.924   1.823   9.401  0.6343  0.0606  0.4296
  185MPD1    H5 2824   2.900   1.798   9.497  1.5720 -1.3654  0.2978
  185MPD1    N1 2825   2.492   1.629   9.307 -0.3281 -0.3803 -0.4111
  185MPD1    H6 2826   2.418   1.628   9.237  1.8288 -0.7635 -2.7167
  185MPD1    H7 2827   2.462   1.646   9.402  0.5112 -0.7539 -0.0767
  186MPD1     C 2828   1.524   1.230  15.544  0.3809 -0.6164  0.2932
  186MPD1    C1 2829   1.401   1.193  15.591 -0.3671  0.0484 -0.5126
  186MPD1    C2 2830   1.349   1.268  15.690 -0.0983  0.3153 -0.1661
  186MPD1    C3 2831   1.386   1.397  15.720 -0.0171 -0.2932  0.0902
  186MPD1    C4 2832   1.510   1.440  15.669  0.0905 -0.5181  0.5259
  186MPD1    C5 2833   1.582   1.354  15.586  0.0464 -0.3493 -0.6137
  186MPD1     H 2834   1.256   1.235  15.734 -1.2659  0.1616 -2.7652
  186MPD1    H1 2835   1.541   1.543  15.681  1.8536 -0.8344 -1.2570
  186MPD1    H2 2836   1.589   1.169  15.483 -1.0009 -1.8063  0.0339
  186MPD1    H3 2837   1.684   1.374  15.557  0.6501 -0.1295  1.7039
  186MPD1     N 2838   1.328   1.484  15.814 -0.1595  0.3383 -0.2859
  186MPD1    H5 2839   1.377   1.572  15.821 -1.6527  1.1156  0.2869
  186MPD1    N1 2840   1.362   1.058  15.573  0.4682  0.0783 -0.4207
  186MPD1    H6 2841   1.383   1.021  15.480 -0.9400 -0.5759 -0.4818
  186MPD1    H7 2842   1.263   1.050  15.592  0.0589  1.1515 -2.0841
  187MPD1     C 2843   0.036   3.959   0.270  0.2239 -0.4454 -0.0212
  187MPD1    C1 2844   4.693   3.842   0.254  0.1412 -0.0144 -0.0231
  187MPD1    C2 2845   0.048   3.734   0.198  0.0565 -0.0761 -0.5244
  187MPD1    C3 2846   0.178   3.747   0.161  0.1832 -0.0878  0.5473
  187MPD1    C4 2847   0.230   3.869   0.185 -0.5168 -0.5164 -0.1474
  187MPD1    C5 2848   0.165   3.974   0.238  0.0187 -0.8874  0.0810
  187MPD1     H 2849   4.713   3.642   0.185 -0.4803  0.2105 -0.2703
  187MPD1    H1 2850   0.335   3.883   0.163 -0.3924 -1.0644  0.1094
  187MPD1    H2 2851   4.706   4.048   0.306 -1.5306 -1.1907 -0.6699
  187MPD1    H3 2852   0.222   4.066   0.243 -1.4579  0.1073 -1.5081
  187MPD1     N 2853   0.259   3.648   0.097 -0.2162 -0.2177 -0.2403
  187MPD1    H5 2854   0.353   3.664   0.064  0.7231 -2.2334  1.5392
  187MPD1    N1 2855   4.555   3.826   0.267 -0.0642 -0.1423  0.0461
  187MPD1    H6 2856   4.515   3.846   0.359 -2.8330  1.0864 -1.4285
  187MPD1    H7 2857   4.533   3.729   0.244  1.4551 -1.1611  2.8342
  188MPD1     C 2858   4.542   3.659   9.960  0.0288 -0.5455 -0.6035
  188MPD1    C1 2859   4.457   3.615   9.862 -0.6502  0.1032  0.3817
  188MPD1    C2 2860   4.493   3.525   9.769 -0.0376  0.0134  0.2214
  188MPD1    C3 2861   4.621   3.470   9.774 -0.2468  0.1203 -0.4137
  188MPD1    C4 2862   4.708   3.524   9.862 -0.3271  0.4740 -1.4078
  188MPD1    C5 2863   4.667   3.609   9.961  0.8217 -0.5183  1.2539
  188MPD1     H 2864   4.419   3.489   9.698  2.9307 -2.6847 -1.5452
  188MPD1    H1 2865   0.089   3.486   9.860 -0.9517 -1.4455  3.6367
  188MPD1    H2 2866   4.527   3.737  10.033 -1.0676 -1.4761  0.1671
  188MPD1    H3 2867   0.015   3.648  10.036  1.3909 -0.9545  0.9554
  188MPD1     N 2868   4.669   3.358   9.700 -0.0996  0.0705  0.5109
  188MPD1    H5 2869   0.039   3.320   9.723  0.5349  0.9459 -0.5378
  188MPD1    N1 2870   4.336   3.690   9.858 -0.5327  0.5967  0.0991
  188MPD1    H6 2871   4.245   3.655   9.828  0.2456 -0.9391 -0.5104
  188MPD1    H7 2872   4.316   3.745   9.941  2.6612  0.9109  0.6530
  189MPD1     C 2873   2.043   3.165   0.626 -0.2617 -0.2567  0.2372
  189MPD1    C1 2874   1.906   3.160   0.627 -0.3415  0.1263  0.0860
  189MPD1    C2 2875   1.835   3.231   0.526 -0.4259  0.1159  0.8597
  189MPD1    C3 2876   1.903   3.318   0.441  0.7343  0.2446 -0.3936
  189MPD1    C4 2877   2.040   3.317   0.440  0.6404  0.1833  0.8843
  189MPD1    C5 2878   2.110   3.253   0.536 -0.1163 -0.4695  0.1575
  189MPD1     H 2879   1.728   3.238   0.541 -0.2031  2.0993  1.4559
  189MPD1    H1 2880   2.098   3.379   0.372  2.9499 -1.7416  1.1232
  189MPD1    H2 2881   2.100   3.106   0.696  0.2801  0.0283  0.0374
  189MPD1    H3 2882   2.218   3.260   0.534 -0.3522  3.1628  1.4641
  189MPD1     N 2883   1.823   3.382   0.341 -0.8706 -0.4361 -0.1462
  189MPD1    H5 2884   1.725   3.358   0.336 -1.2323  0.8198  0.9709
  189MPD1    N1 2885   1.847   3.073   0.714 -0.6912 -0.2454  0.7962
  189MPD1    H6 2886   1.752   3.105   0.731 -1.0658 -2.2109  2.3891
  189MPD1    H7 2887   1.903   3.068   0.799 -0.2124 -0.6930  0.4487
  190MPD1     C 2888   0.523   2.331  15.452  0.0121  0.5578  0.2988
  190MPD1    C1 2889   0.645   2.274  15.410  0.2924 -0.6153 -0.1777
  190MPD1    C2 2890   0.769   2.326  15.456  0.3862 -0.8330 -0.0097
  190MPD1    C3 2891   0.768   2.425  15.555  0.4578  0.3414 -0.7740
  190MPD1    C4 2892   0.650   2.490  15.588  0.1658  1.0746  0.0300
  190MPD1    C5 2893   0.528   2.443  15.535 -0.1761 -0.2016  0.1409
  190MPD1     H 2894   0.861   2.286  15.414 -0.3366 -1.0081 -1.4154
  190MPD1    H1 2895   0.640   2.559  15.671  1.4141 -1.4935  2.3019
  190MPD1    H2 2896   0.428   2.296  15.415 -0.1378  0.5179  0.7203
  190MPD1    H3 2897   0.441   2.490  15.580 -0.6696 -0.2821 -0.7217
  190MPD1     N 2898   0.896   2.458  15.615 -0.0610  0.4255  0.1532
  190MPD1    H5 2899   0.981   2.422  15.573 -0.4083  0.1885 -0.3442
  190MPD1    N1 2900   0.641   2.191  15.298 -0.3857  0.1571  0.1632
  190MPD1    H6 2901   0.721   2.129  15.306 -2.6380 -2.9265 -1.2442
  190MPD1    H7 2902   0.556   2.136  15.284  0.6981 -0.9016 -2.2333
  191MPD1     C 2903   0.279   4.552  12.384  0.0770  0.0390  0.3449
  191MPD1    C1 2904   0.240   4.600  12.260 -0.5924  0.1764 -0.5362
  191MPD1    C2 2905   0.299   4.546  12.151  0.3240 -0.5100 -0.4407
  191MPD1    C3 2906   0.421   4.482  12.154 -0.2937  0.2344  0.5774
  191MPD1    C4 2907   0.470   4.453  12.281 -0.3822  0.0230 -0.0221
  191MPD1    C5 2908   0.392   4.476  12.393  0.0603  0.1214 -0.1107
  191MPD1     H 2909   0.257   4.578  12.056  0.1874 -0.5360 -0.3895
  191MPD1    H1 2910   0.561   4.397  12.298  0.7607  1.2483 -2.0721
  191MPD1    H2 2911   0.215   4.583  12.466  0.0118 -0.9189  0.6515
  191MPD1    H3 2912   0.428   4.435  12.487 -0.9762 -1.5792 -0.4491
  191MPD1     N 2913   0.488   4.432  12.036 -0.2579  0.8649  0.0636
  191MPD1    H5 2914   0.428   4.425  11.954 -0.5829  0.3431  0.3500
  191MPD1    N1 2915   0.111   4.661  12.241  0.0169 -0.0509 -0.0042
  191MPD1    H6 2916   0.083   0.003  12.316  0.4801  0.1631 -0.0155
  191MPD1    H7 2917   0.095   4.714  12.155  1.5519 -1.2740 -1.0430
  192MPD1     C 2918   0.667   0.136  11.204  0.3649  0.3109  0.2189
  192MPD1    C1 2919   0.597   0.142  11.320  0.6532  0.1581 -0.5520
  192MPD1    C2 2920   0.598   0.032  11.409 -0.6759  0.4425 -0.4738
  192MPD1    C3 2921   0.672   4.637  11.377 -0.1460  0.2477  0.1227
  192MPD1    C4 2922   0.746   4.642  11.264 -0.8177 -0.2915 -0.3030
  192MPD1    C5 2923   0.740   0.025  11.178 -0.1293 -0.0146 -0.2723
  192MPD1     H 2924   0.531   0.039  11.494  1.5036 -0.5280  1.3072
  192MPD1    H1 2925   0.804   4.552  11.248 -1.4024 -0.8035  0.5044
  192MPD1    H2 2926   0.657   0.215  11.130  0.4716  1.8375  1.8232
  192MPD1    H3 2927   0.791   0.006  11.084 -0.1610 -1.1440 -0.0611
  192MPD1     N 2928   0.670   4.520  11.456  0.5906 -0.0907  0.0651
  192MPD1    H5 2929   0.719   4.436  11.427 -1.2132 -1.0881 -0.1080
  192MPD1    N1 2930   0.515   0.258  11.340  0.9285  0.1336  0.3498
  192MPD1    H6 2931   0.565   0.343  11.314  1.7972 -0.5212 -0.1165
  192MPD1    H7 2932   0.490   0.272  11.437 -0.6425  1.5850 -0.2690
  193MPD1     C 2933   0.191   4.161  15.858  0.2694  0.0308  0.9744
  193MPD1    C1 2934   0.122   4.244  15.941  0.4403 -0.2366  0.4804
  193MPD1    C2 2935   0.186   4.279  16.059  0.6779 -0.3551 -0.9523
  193MPD1    C3 2936   0.314   4.236  16.089 -0.6219 -0.1529  0.1102
  193MPD1    C4 2937   0.374   4.142  16.007  0.5398  0.3771 -0.3012
  193MPD1    C5 2938   0.313   4.108  15.889 -0.1769  0.4412  0.8672
  193MPD1     H 2939   0.132   4.348  16.123 -1.4111 -2.2753 -0.6414
  193MPD1    H1 2940   0.475   4.105  16.019  0.3481 -0.4359 -1.1714
  193MPD1    H2 2941   0.138   4.130  15.768 -1.1459 -1.2068  2.2403
  193MPD1    H3 2942   0.360   4.039  15.820  1.0784  1.0174  1.1472
  193MPD1     N 2943   0.379   4.270  16.211 -0.1288  0.5022  0.3763
  193MPD1    H5 2944   0.469   4.227  16.228 -0.4650 -0.4648 -0.2563
  193MPD1    N1 2945   4.705   4.282  15.924 -0.2631  0.3705 -0.4277
  193MPD1    H6 2946   4.677   4.368  15.969 -1.0224 -0.4149  0.5714
  193MPD1    H7 2947   4.679   4.279  15.825  1.4837 -0.5745 -0.8730
  194MPD1     C 2948   3.133   1.641  17.117  0.3676 -0.3330  0.2325
  194MPD1    C1 2949   3.087   1.526  17.178  0.5803  0.2777  0.4678
  194MPD1    C2 2950   3.000   1.447  17.108  0.2241 -0.8127  0.1782
  194MPD1    C3 2951   2.923   1.511  17.010  0.6193  0.6067  0.3432
  194MPD1    C4 2952   2.954   1.640  16.957  0.4125 -0.1890  0.5282
  194MPD1    C5 2953   3.068   1.700  17.009  0.3428  0.1760 -0.1753
  194MPD1     H 2954   2.958   1.358  17.153 -1.1693  0.0626  0.6220
  194MPD1    H1 2955   2.890   1.686  16.883  0.4308  0.1485  0.7238
  194MPD1    H2 2956   3.201   1.706  17.170 -1.1282  0.9207  0.6539
  194MPD1    H3 2957   3.103   1.794  16.968  2.0474 -1.1321 -1.7183
  194MPD1     N 2958   2.806   1.453  16.951  0.7877  0.1415 -0.7141
  194MPD1    H5 2959   2.773   1.494  16.864 -0.3761  0.4442 -0.1396
  194MPD1    N1 2960   3.144   1.474  17.293  0.2131 -0.1474  0.2533
  194MPD1    H6 2961   3.079   1.409  17.337  0.2787 -1.5985 -1.7993
  194MPD1    H7 2962   3.164   1.554  17.354 -0.5367  0.1574  0.0920
  195MPD1     C 2963   4.356   2.530  16.908  0.1141  0.1622  0.1695
  195MPD1    C1 2964   4.492   2.536  16.946  0.5206  0.7647 -0.3800
  195MPD1    C2 2965   4.547   2.416  16.986 -0.4365  0.2439 -0.2109
  195MPD1    C3 2966   4.479   2.296  16.977  0.1799  0.6182 -0.5168
  195MPD1    C4 2967   4.347   2.294  16.936 -0.1343 -0.4563 -0.3053
  195MPD1    C5 2968   4.289   2.413  16.904  0.3153  0.0638  0.5286
  195MPD1     H 2969   4.652   2.413  17.011 -0.6108 -1.1574  0.3408
  195MPD1    H1 2970   4.294   2.202  16.915  1.5427 -1.9083  1.7667
  195MPD1    H2 2971   4.295   2.618  16.892 -1.4032 -0.7414  0.9766
  195MPD1    H3 2972   4.193   2.409  16.855  1.1326 -1.6171 -0.9656
  195MPD1     N 2973   4.537   2.173  17.001 -0.0303  0.4960 -0.3839
  195MPD1    H5 2974   4.481   2.088  17.011 -0.6138  1.0348  0.8748
  195MPD1    N1 2975   4.565   2.655  16.961  0.5943  0.0984  0.4815
  195MPD1    H6 2976   4.538   2.725  16.893 -0.4748 -2.4703 -1.7509
  195MPD1    H7 2977   4.664   2.630  16.951  1.3122  3.5426 -1.0837
  196MPD1     C 2978   3.678   2.543   0.546 -0.8679  0.1834 -0.1631
  196MPD1    C1 2979   3.808   2.592   0.568  0.4949 -0.0783  0.3031
  196MPD1    C2 2980   3.833   2.664   0.684 -0.5217 -0.6464 -0.2940
  196MPD1    C3 2981   3.737   2.687   0.780 -0.1596 -0.0154  0.1271
  196MPD1    C4 2982   3.609   2.640   0.762 -0.1716 -1.6447 -0.4570
  196MPD1    C5 2983   3.584   2.570   0.645 -0.1917  0.2156  0.2047
  196MPD1     H 2984   3.928   2.712   0.702 -0.8309  0.2951 -1.1518
  196MPD1    H1 2985   3.529   2.646   0.835  1.1054 -0.5228  0.8423
  196MPD1    H2 2986   3.650   2.477   0.464 -1.5184 -1.4908  1.4090
  196MPD1    H3 2987   3.486   2.530   0.620 -2.0034  3.2053  2.5727
  196MPD1     N 2988   3.752   2.767   0.899  0.2652  0.1871  0.3028
  196MPD1    H5 2989   3.666   2.772   0.953 -0.7165 -2.7340 -0.9653
  196MPD1    N1 2990   3.899   2.594   0.458  0.3118 -0.0770  0.5984
  196MPD1    H6 2991   3.996   2.600   0.490  0.7709 -1.6518 -0.4689
  196MPD1    H7 2992   3.891   2.514   0.395  2.1132  1.3184 -1.4156
  197MPD1     C 2993   3.258   0.011  17.340  0.4852 -0.3717 -0.3983
  197MPD1    C1 2994   3.135   0.016  17.273  0.8244 -0.7567  0.0036
  197MPD1    C2 2995   3.116   0.081  17.157 -0.1189 -0.3187  0.3946
  197MPD1    C3 2996   3.228   0.127  17.088 -0.5714  0.1533 -0.4542
  197MPD1    C4 2997   3.354   0.094  17.139  0.0270 -0.1008  0.6625
  197MPD1    C5 2998   3.371   0.047  17.262  0.2943  0.1114 -0.2542
  197MPD1     H 2999   3.014   0.088  17.121 -0.1005 -0.9020  0.2349
  197MPD1    H1 3000   3.440   0.110  17.075 -0.0581 -0.3141  0.4956
  197MPD1    H2 3001   3.270   4.688  17.438  0.4951 -0.5715 -0.4888
  197MPD1    H3 3002   3.472   0.021  17.292  1.0272  1.3159 -1.6852
  197MPD1     N 3003   3.223   0.197  16.968 -0.7920  0.7899 -0.8118
  197MPD1    H5 3004   3.308   0.201  16.913 -0.5786  0.5224 -0.5043
  197MPD1    N1 3005   3.015   4.703  17.345 -0.0308  0.0596 -0.2342
  197MPD1    H6 3006   2.934   4.675  17.289 -1.5487 -1.6352  2.7661
  197MPD1    H7 3007   3.048   4.620  17.395  1.1861 -0.3952 -1.7890
  198MPD1     C 3008   0.786   3.037  15.810 -0.0305  0.2757  0.5982
  198MPD1    C1 3009   0.914   3.063  15.818 -0.3390  0.4445 -0.1430
  198MPD1    C2 3010   0.953   3.194  15.845 -0.1146 -0.0544  0.4810
  198MPD1    C3 3011   0.860   3.298  15.824  0.0858 -0.1795  0.5518
  198MPD1    C4 3012   0.726   3.265  15.807  0.9883 -0.6125  0.3545
  198MPD1    C5 3013   0.691   3.134  15.811 -0.3000  0.1498  0.1535
  198MPD1     H 3014   1.055   3.221  15.867 -1.0061  1.2084  3.1098
  198MPD1    H1 3015   0.641   3.332  15.814  0.0524 -1.6863 -0.7022
  198MPD1    H2 3016   0.749   2.935  15.813  1.2594 -0.1003  2.9492
  198MPD1    H3 3017   0.585   3.111  15.817 -0.2289  0.7036  3.1703
  198MPD1     N 3018   0.906   3.432  15.836 -0.0243  0.5030 -0.1292
  198MPD1    H5 3019   1.006   3.445  15.852  0.2538  1.8293 -2.9567
  198MPD1    N1 3020   0.996   2.960  15.856  0.1376 -0.3518 -0.0337
  198MPD1    H6 3021   0.962   2.870  15.822 -0.3799 -0.4113  0.6382
  198MPD1    H7 3022   1.095   2.976  15.836  0.2541 -0.6025  0.3373
  199MPD1     C 3023   2.492   3.843   9.762  0.2006 -0.3692 -0.1542
  199MPD1    C1 3024   2.532   3.912   9.650  0.5367 -0.3024  0.7578
  199MPD1    C2 3025   2.470   4.034   9.625  0.2094  0.1791 -0.1541
  199MPD1    C3 3026   2.371   4.084   9.706 -0.3772 -0.1333  0.2018
  199MPD1    C4 3027   2.325   4.007   9.811 -0.2723 -0.0766 -0.2018
  199MPD1    C5 3028   2.389   3.887   9.842  0.2045  0.2891 -0.1632
  199MPD1     H 3029   2.503   4.097   9.544 -2.9644  0.7644 -0.9852
  199MPD1    H1 3030   2.252   4.042   9.884  0.3009 -3.0048  1.7667
  199MPD1    H2 3031   2.543   3.753   9.794  0.6086 -0.0209  0.1807
  199MPD1    H3 3032   2.370   3.834   9.934  0.5802 -0.4099 -0.4855
  199MPD1     N 3033   2.315   4.215   9.688  0.3544  0.3011 -0.1880
  199MPD1    H5 3034   2.230   4.241   9.737  1.2279  0.6554  1.1173
  199MPD1    N1 3035   2.643   3.866   9.579 -0.0653 -0.0807  0.6187
  199MPD1    H6 3036   2.642   3.892   9.480  2.2528  1.7641  1.0983
  199MPD1    H7 3037   2.659   3.766   9.590 -0.9532 -0.4280 -1.0865
  200MPD1     C 3038   1.471   0.381  14.891 -0.2475 -0.6393  0.3132
  200MPD1    C1 3039   1.456   0.355  14.754  0.2039  0.2830  0.7719
  200MPD1    C2 3040   1.573   0.302  14.689  0.1281 -0.3532 -0.3807
  200MPD1    C3 3041   1.693   0.296  14.752 -0.1935 -0.3353  0.4939
  200MPD1    C4 3042   1.699   0.321  14.890 -0.3083  0.5475 -0.9057
  200MPD1    C5 3043   1.590   0.372  14.958  0.3451  0.4046 -0.1584
  200MPD1     H 3044   1.560   0.268  14.586 -1.0835  2.1290 -1.0440
  200MPD1    H1 3045   1.791   0.287  14.938 -0.7811 -0.0177 -0.4043
  200MPD1    H2 3046   1.385   0.410  14.950 -2.5621 -0.7966 -2.9815
  200MPD1    H3 3047   1.586   0.368  15.066 -1.7158 -1.8177 -0.2892
  200MPD1     N 3048   1.799   0.237  14.678  0.6239  0.6039 -0.4616
  200MPD1    H5 3049   1.771   0.209  14.585  0.6678  0.5135 -0.4471
  200MPD1    N1 3050   1.328   0.377  14.693  0.3002 -0.0766 -0.2484
  200MPD1    H6 3051   1.348   0.408  14.598 -0.4879  2.2572  0.3485
  200MPD1    H7 3052   1.269   0.448  14.735  1.1995 -0.3243  1.4117
  201MPD1     C 3053   4.351   4.364  12.627 -0.3564 -0.0677 -0.2384
  201MPD1    C1 3054   4.371   4.275  12.519 -0.4358  0.1228 -0.4439
  201MPD1    C2 3055   4.420   4.154  12.553 -0.2577  0.1095  0.0053
  201MPD1    C3 3056   4.415   4.106  12.683 -1.0098  0.6149  0.1154
  201MPD1    C4 3057   4.393   4.191  12.788  0.7456 -0.2879 -0.7464
  201MPD1    C5 3058   4.360   4.322  12.758 -0.2177  0.6082  0.3026
  201MPD1     H 3059   4.435   4.082  12.474 -1.3136  0.5650 -0.6183
  201MPD1    H1 3060   4.408   4.166  12.892  0.3092  1.7104 -0.2036
  201MPD1    H2 3061   4.312   4.463  12.606 -2.0743 -0.5330  0.7666
  201MPD1    H3 3062   4.336   4.375  12.849 -1.3691  0.4489  0.0905
  201MPD1     N 3063   4.444   3.971  12.707  0.4226 -0.0618 -0.2447
  201MPD1    H5 3064   4.476   3.913  12.629  0.8480  0.2561 -0.3074
  201MPD1    N1 3065   4.391   4.321  12.387  0.4778  0.6476  0.7461
  201MPD1    H6 3066   4.327   4.392  12.353 -1.5023 -2.1293 -1.2720
  201MPD1    H7 3067   4.372   4.242  12.325  3.5735 -0.7970  1.6017
  202MPD1     C 3068   3.917   3.143   8.825  0.5990 -0.0217  0.0652
  202MPD1    C1 3069   3.820   3.190   8.918 -0.0750 -0.4830  0.0662
  202MPD1    C2 3070   3.887   3.241   9.035 -0.0143 -0.5490  0.4418
  202MPD1    C3 3071   4.009   3.191   9.083  0.6819 -0.2665 -0.3797
  202MPD1    C4 3072   4.088   3.133   8.987 -0.2198  0.0308 -0.7659
  202MPD1    C5 3073   4.037   3.099   8.866  0.5679  0.3650  0.1951
  202MPD1     H 3074   3.819   3.291   9.104  1.0553 -0.0129  1.1098
  202MPD1    H1 3075   4.194   3.115   9.003 -0.4195 -0.7820 -0.3483
  202MPD1    H2 3076   3.907   3.138   8.717  1.7507 -1.4956  0.0300
  202MPD1    H3 3077   4.114   3.053   8.805  2.1538  0.7061  1.9292
  202MPD1     N 3078   4.061   3.220   9.212 -0.0485  0.1763 -0.1325
  202MPD1    H5 3079   4.158   3.192   9.222 -1.0607 -2.7056  1.6278
  202MPD1    N1 3080   3.707   3.255   8.871 -0.2987  0.4316 -0.4675
  202MPD1    H6 3081   3.663   3.200   8.797  0.6083 -0.4003 -0.3950
  202MPD1    H7 3082   3.638   3.280   8.942 -0.9557  0.1414 -1.0110
  203MPD1     C 3083   3.435   4.475  12.531 -0.1436  0.2023  0.4283
  203MPD1    C1 3084   3.359   4.372  12.473  1.5603 -0.9904  0.3458
  203MPD1    C2 3085   3.403   4.246  12.496  0.2138 -0.5829 -0.2430
  203MPD1    C3 3086   3.516   4.228  12.565  0.4940 -0.4394  0.5290
  203MPD1    C4 3087   3.593   4.330  12.613  0.4376 -1.3487 -0.9366
  203MPD1    C5 3088   3.551   4.458  12.602 -0.1921  0.3983  0.2223
  203MPD1     H 3089   3.358   4.155  12.459 -2.1230  0.8234 -0.8735
  203MPD1    H1 3090   3.688   4.309  12.662 -0.2775 -0.3744  0.9093
  203MPD1    H2 3091   3.408   4.579  12.520 -1.4013 -0.2574 -0.9166
  203MPD1    H3 3092   3.602   4.548  12.633  0.2179 -0.3480  1.7478
  203MPD1     N 3093   3.558   4.092  12.572 -0.7673 -0.3281 -0.4930
  203MPD1    H5 3094   3.500   4.028  12.519 -2.9777  1.5264 -0.3222
  203MPD1    N1 3095   3.245   4.394  12.396 -0.2129 -0.0514 -0.5139
  203MPD1    H6 3096   3.238   4.334  12.313 -0.8645  1.9050 -1.8806
  203MPD1    H7 3097   3.251   4.492  12.369  1.3655 -0.0980 -0.2880
  204MPD1     C 3098   2.071   0.289   0.204  0.4227 -0.0853  0.3891
  204MPD1    C1 3099   2.168   0.336   0.120 -0.0929 -0.1260  0.2521
  204MPD1    C2 3100   2.244   0.253   0.038 -0.1149 -0.0194 -0.0816
  204MPD1    C3 3101   2.210   0.124   0.031 -0.0517 -0.1995  0.3719
  204MPD1    C4 3102   2.108   0.073   0.111 -0.4324  0.2926 -0.4767
  204MPD1    C5 3103   2.045   0.156   0.204  0.7968  0.1890  1.0299
  204MPD1     H 3104   2.312   0.308  17.661 -0.6200  0.3789 -0.2736
  204MPD1    H1 3105   2.080   4.689   0.109 -0.6086  0.3159  0.5496
  204MPD1    H2 3106   2.023   0.357   0.274 -0.7608 -1.8994  1.3470
  204MPD1    H3 3107   1.974   0.112   0.274  0.6714 -1.4375 -0.1338
  204MPD1     N 3108   2.259   0.050  17.616  0.0726 -0.6691  0.3344
  204MPD1    H5 3109   2.316   0.099  17.548 -0.6570  0.2856  0.4161
  204MPD1    N1 3110   2.218   0.472   0.135  0.3371  0.8320  0.6249
  204MPD1    H6 3111   2.276   0.503   0.057 -2.5790  0.2626 -1.7709
  204MPD1    H7 3112   2.148   0.543   0.152 -1.5243 -1.0634  0.8512
  205MPD1     C 3113   3.065   4.032  16.475 -0.1533 -0.5379 -0.6001
  205MPD1    C1 3114   3.168   3.959  16.539  0.4353  0.3220  0.7107
  205MPD1    C2 3115   3.130   3.900  16.656  0.1928  0.0332 -0.3525
  205MPD1    C3 3116   3.009   3.934  16.722 -0.1371  0.1418 -0.3811
  205MPD1    C4 3117   2.912   4.011  16.655 -0.6406  0.0470 -0.9795
  205MPD1    C5 3118   2.949   4.061  16.534  0.4358 -0.3168  0.3347
  205MPD1     H 3119   3.196   3.829  16.704 -0.4321  0.9994  1.9355
  205MPD1    H1 3120   2.815   4.034  16.696 -0.5260 -2.3177  0.6083
  205MPD1    H2 3121   3.088   4.086  16.383 -2.3884 -1.7795 -1.8913
  205MPD1    H3 3122   2.887   4.127  16.476  0.7867 -0.2649  0.0185
  205MPD1     N 3123   2.963   3.871  16.840  0.8494  0.0021  0.3931
  205MPD1    H5 3124   2.876   3.903  16.882  0.2389 -2.4575  1.0172
  205MPD1    N1 3125   3.294   3.939  16.481 -0.6220  0.0219  0.3144
  205MPD1    H6 3126   3.327   4.018  16.427  1.3749  0.6270  2.4579
  205MPD1    H7 3127   3.352   3.893  16.551  0.3568  0.6499 -0.0932
  206MPD1     C 3128   3.116   2.251  16.589  0.4470 -0.0671  0.1968
  206MPD1    C1 3129   2.994   2.196  16.623  0.1834  0.1841  0.0733
  206MPD1    C2 3130   2.902   2.180  16.525 -0.0786  0.2587  0.4284
  206MPD1    C3 3131   2.913   2.225  16.392  0.0112 -0.4018  0.2872
  206MPD1    C4 3132   3.038   2.289  16.358 -0.0824 -0.1508  0.2860
  206MPD1    C5 3133   3.143   2.290  16.453 -0.6981 -0.4969 -0.0441
  206MPD1     H 3134   2.810   2.133  16.556 -0.4876  0.1160 -0.9965
  206MPD1    H1 3135   3.049   2.324  16.256 -0.1784  0.5928  0.5297
  206MPD1    H2 3136   3.192   2.264  16.665  1.5154 -2.2647 -0.4967
  206MPD1    H3 3137   3.241   2.329  16.431 -2.7474  5.4506  1.2848
  206MPD1     N 3138   2.796   2.217  16.305 -0.6547 -0.7849  0.0364
  206MPD1    H5 3139   2.813   2.256  16.212  0.0323 -1.7944 -0.2683
  206MPD1    N1 3140   2.983   2.137  16.746  0.3361 -0.2547  0.2316
  206MPD1    H6 3141   2.890   2.110  16.777  0.5941  0.2661  1.4752
  206MPD1    H7 3142   3.030   2.181  16.825 -0.1187 -0.5311  0.6578
  207MPD1     C 3143   0.701   4.467   9.437  0.2325 -0.3848  0.0558
  207MPD1    C1 3144   0.738   4.355   9.509  0.8727 -0.2072  0.7509
  207MPD1    C2 3145   0.833   4.359   9.609  0.2271  0.1496  0.0899
  207MPD1    C3 3146   0.874   4.489   9.650 -0.0186 -0.0343  0.3991
  207MPD1    C4 3147   0.812   4.600   9.592 -0.5904 -0.5663  0.3750
  207MPD1    C5 3148   0.731   4.593   9.482  0.4797 -0.2574 -0.2157
  207MPD1     H 3149   0.863   4.265   9.656  0.3305  0.4273  0.5787
  207MPD1    H1 3150   0.845   4.698   9.625  3.0945 -0.9612 -2.1836
  207MPD1    H2 3151   0.635   4.457   9.352  0.0302  1.2078  0.0372
  207MPD1    H3 3152   0.703   4.677   9.419  0.4443 -0.6088 -0.6728
  207MPD1     N 3153   0.974   4.508   9.746  0.1339  0.0923 -0.1088
  207MPD1    H5 3154   1.005   4.603   9.763  1.9701 -0.7055  0.9565
  207MPD1    N1 3155   0.706   4.230   9.455  0.2912 -0.0790 -0.4287
  207MPD1    H6 3156   0.619   4.219   9.404 -0.9328  0.0380  1.6153
  207MPD1    H7 3157   0.697   4.162   9.531  2.0201 -1.5759 -1.5889
  208MPD1     C 3158   3.673   3.467   0.006 -0.1851 -0.7782  0.1269
  208MPD1    C1 3159   3.544   3.503  17.655 -0.9521 -0.7586  0.3803
  208MPD1    C2 3160   3.439   3.435   0.035  0.2104  0.4875  0.0931
  208MPD1    C3 3161   3.476   3.339   0.130 -0.4109  0.6846 -0.1080
  208MPD1    C4 3162   3.607   3.310   0.168  0.0134  0.4551  0.3652
  208MPD1    C5 3163   3.711   3.378   0.100 -0.2360 -0.2399  0.5949
  208MPD1     H 3164   3.336   3.450   0.006  0.4403  0.2974 -0.8126
  208MPD1    H1 3165   3.636   3.228   0.232 -0.8231  0.5409  0.8442
  208MPD1    H2 3166   3.755   3.521  17.645 -0.2851 -0.8251 -0.0997
  208MPD1    H3 3167   3.815   3.352   0.113 -0.7030 -1.4514  1.8496
  208MPD1     N 3168   3.368   3.260   0.182 -0.2515 -0.3788  0.1219
  208MPD1    H5 3169   3.277   3.270   0.138 -1.0739 -0.4464  1.7984
  208MPD1    N1 3170   3.537   3.593  17.551 -0.1776  0.3700  0.0629
  208MPD1    H6 3171   3.618   3.651  17.527  0.6870 -0.3060  1.3114
  208MPD1    H7 3172   3.457   3.655  17.563 -0.2257 -0.0031  1.6928
  209MPD1     C 3173   0.948   3.746  11.488  0.5324  0.2702  0.1531
  209MPD1    C1 3174   0.919   3.876  11.519  0.0524 -0.0688  0.0814
  209MPD1    C2 3175   0.978   3.972  11.441 -0.5035  0.6410 -0.4357
  209MPD1    C3 3176   1.045   3.939  11.324 -0.5996 -0.0844  0.0206
  209MPD1    C4 3177   1.063   3.804  11.291 -0.7269 -0.2836 -0.0835
  209MPD1    C5 3178   1.015   3.706  11.377 -0.6380  0.1976  0.5998
  209MPD1     H 3179   0.977   4.079  11.460  3.1143  0.6948 -0.6348
  209MPD1    H1 3180   1.126   3.767  11.211 -0.6803  0.7648 -0.5300
  209MPD1    H2 3181   0.917   3.667  11.555 -0.8615  1.8748  1.4186
  209MPD1    H3 3182   1.034   3.602  11.353 -2.3344 -0.6498  2.9562
  209MPD1     N 3183   1.099   4.035  11.243 -0.0771 -0.0739  0.1403
  209MPD1    H5 3184   1.109   4.125  11.290  0.1405 -0.9438  1.7592
  209MPD1    N1 3185   0.870   3.905  11.644 -0.7082 -0.1817 -0.1058
  209MPD1    H6 3186   0.805   3.835  11.678 -0.0499 -1.8395 -2.2624
  209MPD1    H7 3187   0.828   3.997  11.639 -0.1897  0.0351 -0.5037
  210MPD1     C 3188   1.691   4.515  11.579 -0.0329 -0.0722  0.0308
  210MPD1    C1 3189   1.711   4.555  11.446  0.4136  0.3587  0.4418
  210MPD1    C2 3190   1.640   4.484  11.352  0.5534  0.3641 -0.3593
  210MPD1    C3 3191   1.532   4.398  11.385 -0.9047  0.8543 -0.2374
  210MPD1    C4 3192   1.499   4.380  11.518 -0.6665  0.8748  0.1124
  210MPD1    C5 3193   1.592   4.434  11.612  0.2003  1.1338 -0.3328
  210MPD1     H 3194   1.660   4.497  11.246  0.7342  0.8044 -0.2737
  210MPD1    H1 3195   1.405   4.337  11.550 -0.4629  0.6666  0.4265
  210MPD1    H2 3196   1.748   4.551  11.663 -0.4167  2.6802 -0.8819
  210MPD1    H3 3197   1.564   4.418  11.716  0.3512  1.3460 -0.2597
  210MPD1     N 3198   1.448   4.340  11.290 -0.0628 -1.3691  0.0865
  210MPD1    H5 3199   1.368   4.291  11.327 -1.3396 -0.0219 -0.8881
  210MPD1    N1 3200   1.817   4.638  11.419  0.0716  1.0670  0.5200
  210MPD1    H6 3201   1.786   4.705  11.349 -0.6786 -1.5300 -1.6289
  210MPD1    H7 3202   1.834   4.704  11.495  2.1818  0.2743  0.7200
  211MPD1     C 3203   3.733   4.198  15.659 -1.1128  0.2334  0.0311
  211MPD1    C1 3204   3.680   4.153  15.775  0.7896  0.3703  0.3096
  211MPD1    C2 3205   3.542   4.170  15.793  0.7331 -0.8455  0.1272
  211MPD1    C3 3206   3.473   4.246  15.698  0.1413 -0.2605 -0.0615
  211MPD1    C4 3207   3.532   4.296  15.585  0.1905  0.6504 -0.4631
  211MPD1    C5 3208   3.667   4.273  15.565 -0.3175  0.0026  0.5817
  211MPD1     H 3209   3.486   4.126  15.874  0.9350 -2.7056 -0.7466
  211MPD1    H1 3210   3.474   4.335  15.503  0.2364  0.5701 -0.5338
  211MPD1    H2 3211   3.838   4.179  15.638 -0.5975  2.7692  0.2908
  211MPD1    H3 3212   3.710   4.314  15.474 -1.3126 -0.8525 -0.2751
  211MPD1     N 3213   3.335   4.272  15.729  0.6111 -0.5767  0.3447
  211MPD1    H5 3214   3.307   4.231  15.817  1.4570 -0.8983  0.4633
  211MPD1    N1 3215   3.753   4.069  15.866  0.3995 -0.9969 -0.3118
  211MPD1    H6 3216   3.852   4.086  15.848  0.3539 -2.0851 -1.5541
  211MPD1    H7 3217   3.713   4.075  15.959 -0.8973 -0.2721 -0.9045
  212MPD1     C 3218   2.092   2.381  16.546 -0.2771 -0.0849 -0.8054
  212MPD1    C1 3219   1.964   2.428  16.560 -0.8953 -0.8265 -0.0812
  212MPD1    C2 3220   1.874   2.347  16.631  0.5656  0.3595 -0.4141
  212MPD1    C3 3221   1.905   2.216  16.672  0.5442 -0.2091 -0.0829
  212MPD1    C4 3222   2.031   2.173  16.649 -0.5558 -0.3012 -0.4514
  212MPD1    C5 3223   2.122   2.256  16.591  0.6394 -0.3693  0.0752
  212MPD1     H 3224   1.770   2.374  16.644 -0.1864 -2.9478  0.4672
  212MPD1    H1 3225   2.057   2.070  16.671 -1.0309 -0.1596  0.7757
  212MPD1    H2 3226   2.163   2.449  16.501  2.5950 -2.9006 -0.5134
  212MPD1    H3 3227   2.218   2.208  16.577  0.2423 -0.5975 -1.9670
  212MPD1     N 3228   1.815   2.118  16.728 -0.3579 -0.2107 -0.3034
  212MPD1    H5 3229   1.847   2.028  16.763  0.4107 -0.4288 -1.5500
  212MPD1    N1 3230   1.925   2.560  16.530 -0.1498  0.7183  0.0087
  212MPD1    H6 3231   1.978   2.609  16.458 -2.1871 -0.0515 -2.0021
  212MPD1    H7 3232   1.826   2.571  16.510  0.0348  1.9633 -0.2618
  213MPD1     C 3233   0.504   2.852  15.635  0.7358 -0.7361 -0.1271
  213MPD1    C1 3234   0.384   2.842  15.698  0.5241 -0.0837  0.2079
  213MPD1    C2 3235   0.276   2.910  15.643 -0.7894 -0.0758 -0.6650
  213MPD1    C3 3236   0.296   3.007  15.543  0.2399  0.8242  0.4944
  213MPD1    C4 3237   0.423   3.037  15.504 -0.2706 -0.5555 -0.1778
  213MPD1    C5 3238   0.525   2.954  15.545 -0.4077  0.7062 -0.7197
  213MPD1     H 3239   0.182   2.896  15.695  0.1029 -2.3245  0.3432
  213MPD1    H1 3240   0.448   3.093  15.415  0.7851 -0.0833  0.4246
  213MPD1    H2 3241   0.591   2.804  15.681  3.4877  1.2872 -3.2638
  213MPD1    H3 3242   0.628   2.969  15.512 -0.4554  0.7713 -0.8378
  213MPD1     N 3243   0.185   3.071  15.486 -0.1550 -0.2153 -0.3327
  213MPD1    H5 3244   0.093   3.034  15.509  0.4082 -0.7767  1.0068
  213MPD1    N1 3245   0.366   2.722  15.768 -0.4296  0.0724  0.4596
  213MPD1    H6 3246   0.450   2.701  15.822 -0.7571 -0.6856  0.6652
  213MPD1    H7 3247   0.287   2.723  15.831  1.5462  0.5486  2.9598
  214MPD1     C 3248   4.035   2.756  15.278  0.3440  0.3320 -0.3589
  214MPD1    C1 3249   4.095   2.813  15.389 -0.2320 -0.3422 -0.4204
  214MPD1    C2 3250   4.206   2.904  15.376  0.4006  0.4226 -0.3715
  214MPD1    C3 3251   4.261   2.927  15.253  0.0606 -0.3742 -0.3569
  214MPD1    C4 3252   4.205   2.869  15.140 -0.0258  0.8755 -0.2569
  214MPD1    C5 3253   4.097   2.778  15.154 -0.2204  0.2337  0.8542
  214MPD1     H 3254   4.240   2.959  15.463  0.3787 -1.5596  0.8827
  214MPD1    H1 3255   4.248   2.879  15.041 -3.4312 -0.5709 -1.8666
  214MPD1    H2 3256   3.951   2.690  15.295 -0.4060  1.5866  0.7261
  214MPD1    H3 3257   4.067   2.718  15.069  4.0217 -3.8524  2.2674
  214MPD1     N 3258   4.376   3.013  15.240  0.0981 -0.2447 -0.5526
  214MPD1    H5 3259   4.421   3.018  15.149  0.1883 -2.6393 -0.6267
  214MPD1    N1 3260   4.040   2.791  15.515 -0.1565  0.2442  0.3860
  214MPD1    H6 3261   4.111   2.781  15.587 -1.4777  0.6470  1.7437
  214MPD1    H7 3262   3.983   2.707  15.528 -2.1510  1.9962  2.9802
  215MPD1     C 3263   0.838   3.502  10.154  0.0578  0.2600  0.2058
  215MPD1    C1 3264   0.888   3.527  10.277  0.9180  0.0894  0.1401
  215MPD1    C2 3265   0.898   3.661  10.321 -0.6166  0.5996 -0.4385
  215MPD1    C3 3266   0.875   3.764  10.234  0.2462  0.4061 -0.6651
  215MPD1    C4 3267   0.832   3.731  10.105  0.5041  0.0810  0.2364
  215MPD1    C5 3268   0.823   3.602  10.061  1.2914 -0.4757 -0.1043
  215MPD1     H 3269   0.932   3.682  10.422 -1.4035  0.4900 -0.1553
  215MPD1    H1 3270   0.802   3.811  10.038  1.5994  0.0585 -0.2828
  215MPD1    H2 3271   0.818   3.401  10.122  0.0822  0.5836 -0.8360
  215MPD1    H3 3272   0.774   3.577   9.968 -0.8405 -1.3828  1.2725
  215MPD1     N 3273   0.876   3.896  10.283  0.5782 -0.7971  0.1774
  215MPD1    H5 3274   0.921   3.906  10.373 -0.2103  1.4082  0.3414
  215MPD1    N1 3275   0.897   3.420  10.370  0.1768 -0.0848 -0.2924
  215MPD1    H6 3276   0.953   3.438  10.453  0.2355 -0.9816 -0.1347
  215MPD1    H7 3277   0.931   3.333  10.330 -1.8649 -1.2116  0.4107
  216MPD1     C 3278   1.859   2.267  17.066 -0.3651  0.1788  0.4165
  216MPD1    C1 3279   1.747   2.305  17.144  0.4205 -1.1858 -0.0455
  216MPD1    C2 3280   1.690   2.204  17.220 -0.9181 -0.0406  0.1983
  216MPD1    C3 3281   1.723   2.072  17.202  0.4011  0.7240  0.1927
  216MPD1    C4 3282   1.820   2.034  17.119  0.1814  0.9075 -0.5955
  216MPD1    C5 3283   1.889   2.132  17.052  0.2949 -0.1311 -0.1327
  216MPD1     H 3284   1.604   2.238  17.276 -1.4599 -0.7834 -0.1857
  216MPD1    H1 3285   1.861   1.936  17.098  3.0010  1.9882 -0.2723
  216MPD1    H2 3286   1.921   2.341  17.018 -0.7371 -0.1067 -0.5067
  216MPD1    H3 3287   1.973   2.108  16.987 -0.3336 -0.3553 -0.8528
  216MPD1     N 3288   1.642   1.980  17.273  0.1956  0.0086  0.0414
  216MPD1    H5 3289   1.586   2.024  17.345 -0.9954  0.6402 -1.2815
  216MPD1    N1 3290   1.701   2.437  17.131  0.6708  0.2817 -0.0690
  216MPD1    H6 3291   1.771   2.498  17.089  1.2373 -0.8591 -0.7802
  216MPD1    H7 3292   1.677   2.480  17.220 -1.4025 -2.0089  0.4932
  217MPD1     C 3293   2.191   3.520   8.603 -0.6315  0.1933  0.8947
  217MPD1    C1 3294   2.256   3.401   8.582  0.8299 -0.3466 -0.4742
  217MPD1    C2 3295   2.359   3.365   8.663 -0.1566  0.0818  0.1585
  217MPD1    C3 3296   2.402   3.439   8.770  0.1789 -0.6010  0.4343
  217MPD1    C4 3297   2.332   3.558   8.789 -0.1879 -0.3289 -0.3220
  217MPD1    C5 3298   2.224   3.594   8.717  0.2044  0.3978  0.6359
  217MPD1     H 3299   2.417   3.276   8.643 -0.0631  0.5168 -1.4896
  217MPD1    H1 3300   2.363   3.619   8.873  0.1024 -0.5369 -0.2771
  217MPD1    H2 3301   2.112   3.565   8.544  1.1844  1.1877 -0.8227
  217MPD1    H3 3302   2.157   3.677   8.738 -0.8421 -0.1804 -0.3666
  217MPD1     N 3303   2.515   3.411   8.852  0.5339  0.3299 -0.3440
  217MPD1    H5 3304   2.537   3.482   8.922  0.5089  2.6500 -2.6598
  217MPD1    N1 3305   2.213   3.321   8.473 -0.1625 -0.7859  0.0176
  217MPD1    H6 3306   2.239   3.223   8.473  0.3114 -0.6593  0.7593
  217MPD1    H7 3307   2.117   3.338   8.444 -0.3222 -0.5192  0.6925
  218MPD1     C 3308   4.076   3.903  12.244 -0.0481 -0.3829  0.1608
  218MPD1    C1 3309   4.188   3.840  12.291 -0.3986  0.7291  0.6525
  218MPD1    C2 3310   4.316   3.892  12.278 -0.1637 -0.4919  0.0813
  218MPD1    C3 3311   4.327   4.009  12.193 -0.4086  0.3186 -0.4199
  218MPD1    C4 3312   4.216   4.068  12.141 -0.6881 -1.0510  0.3035
  218MPD1    C5 3313   4.094   4.018  12.172  0.1700  0.4080 -0.6580
  218MPD1     H 3314   4.407   3.849  12.315  1.1489  1.9225 -0.3262
  218MPD1    H1 3315   4.226   4.155  12.077  1.4030 -3.3383 -2.4470
  218MPD1    H2 3316   3.977   3.862  12.258 -0.3859 -0.2550 -1.9327
  218MPD1    H3 3317   4.006   4.060  12.125  1.1386  1.2920 -1.6812
  218MPD1     N 3318   4.454   4.058  12.171  0.0140  0.1051  0.2023
  218MPD1    H5 3319   4.525   4.003  12.217  3.2615  2.8073 -1.5883
  218MPD1    N1 3320   4.172   3.730  12.378 -0.5325  0.4776  0.2183
  218MPD1    H6 3321   4.259   3.678  12.389 -1.7315 -1.4061  0.7233
  218MPD1    H7 3322   4.102   3.672  12.333  0.3889  0.4165 -1.1463
  219MPD1     C 3323   0.131   4.421  11.373  0.5535 -0.0812  0.2660
  219MPD1    C1 3324   0.214   4.468  11.473 -0.6379 -0.2060  0.3910
  219MPD1    C2 3325   0.215   4.413  11.602  0.1923 -0.3950 -0.0680
  219MPD1    C3 3326   0.136   4.296  11.619 -0.2536  0.3351 -0.1705
  219MPD1    C4 3327   0.068   4.249  11.511 -0.0930  0.0452 -0.0079
  219MPD1    C5 3328   0.058   4.316  11.396 -0.4156 -0.0170  0.2679
  219MPD1     H 3329   0.279   4.447  11.683 -0.6586  1.9074 -0.3684
  219MPD1    H1 3330   0.011   4.156  11.505 -0.4179  0.1597  1.2632
  219MPD1    H2 3331   0.133   4.472  11.278  0.7482 -1.7349 -0.6184
  219MPD1    H3 3332   4.717   4.283  11.313  0.1295 -0.4015  0.0145
  219MPD1     N 3333   0.122   4.231  11.746  0.1224 -0.0227 -0.5494
  219MPD1    H5 3334   0.061   4.151  11.753 -0.2029  0.3304  0.7430
  219MPD1    N1 3335   0.268   4.596  11.452 -0.1858 -0.2812 -0.1607
  219MPD1    H6 3336   0.311   4.611  11.361 -2.2953 -1.0878 -1.2761
  219MPD1    H7 3337   0.353   4.590  11.507 -2.1196 -0.6528  2.7934
  220MPD1     C 3338   0.144   0.353   8.942 -0.5982  0.6095 -0.0092
  220MPD1    C1 3339   0.057   0.371   9.045 -0.6167  0.2832  0.4922
  220MPD1    C2 3340   0.050   0.280   9.152  0.1873 -0.4864 -0.0514
  220MPD1    C3 3341   0.149   0.189   9.161 -0.9150 -0.3568 -0.6179
  220MPD1    C4 3342   0.231   0.164   9.051 -0.4338 -0.5641  0.1734
  220MPD1    C5 3343   0.235   0.245   8.941 -0.5616 -0.2136 -0.4661
  220MPD1     H 3344   4.695   0.293   9.228 -2.2177 -1.7832 -2.2606
  220MPD1    H1 3345   0.299   0.080   9.052 -0.3219 -0.4448  3.0099
  220MPD1    H2 3346   0.147   0.418   8.855  1.2388 -2.9879 -2.6040
  220MPD1    H3 3347   0.304   0.228   8.859 -0.1094  1.2897 -0.4070
  220MPD1     N 3348   0.140   0.106   9.273  0.2601  0.0392  0.1081
  220MPD1    H5 3349   0.080   0.130   9.351  1.4702  0.9014  0.7602
  220MPD1    N1 3350   4.697   0.493   9.043  0.2467  0.0231  0.4680
  220MPD1    H6 3351   4.704   0.548   8.958  2.5379 -2.0647 -0.7151
  220MPD1    H7 3352   4.597   0.483   9.057  0.0725  1.3413  0.1658
  221MPD1     C 3353   3.145   2.561  17.453 -0.9024  0.2587 -0.6261
  221MPD1    C1 3354   3.250   2.601  17.365  0.1110  0.8156  0.3277
  221MPD1    C2 3355   3.216   2.650  17.240 -0.0649  0.3018 -0.4415
  221MPD1    C3 3356   3.082   2.674  17.210 -0.4756  0.0593  0.1652
  221MPD1    C4 3357   2.986   2.643  17.298  0.7347  0.3561 -0.0224
  221MPD1    C5 3358   3.019   2.598  17.426  0.0950 -0.4732 -0.0539
  221MPD1     H 3359   3.296   2.676  17.171  2.5271 -2.5146  1.5302
  221MPD1    H1 3360   2.880   2.653  17.273  0.5668 -0.4615  0.3520
  221MPD1    H2 3361   3.162   2.503  17.543  0.0225 -0.1108 -1.0362
  221MPD1    H3 3362   2.937   2.570  17.491 -0.0036  2.1142  0.9302
  221MPD1     N 3363   3.045   2.726  17.086 -0.4580  0.3681 -0.1003
  221MPD1    H5 3364   3.119   2.744  17.020 -1.2208  3.8365 -0.0365
  221MPD1    N1 3365   3.388   2.579  17.397  0.1817 -0.5572  0.1737
  221MPD1    H6 3366   3.436   2.665  17.373 -0.2577  0.1227  1.7294
  221MPD1    H7 3367   3.394   2.571  17.499 -0.7020  1.5209  0.3728
  222MPD1     C 3368   1.117   1.749  17.560 -0.2558  0.5874 -0.2380
  222MPD1    C1 3369   1.196   1.791  17.463 -0.3875 -0.1011  0.0447
  222MPD1    C2 3370   1.264   1.910  17.483 -0.3949  0.1286  0.7315
  222MPD1    C3 3371   1.251   1.982  17.603  0.8903 -0.4337  0.3412
  222MPD1    C4 3372   1.168   1.938   0.012  0.0004 -0.0392 -0.1956
  222MPD1    C5 3373   1.102   1.821  17.674  0.0632  0.6921 -0.2133
  222MPD1     H 3374   1.334   1.940  17.405 -0.4088 -0.4777  0.4874
  222MPD1    H1 3375   1.141   1.993   0.101  0.7375 -2.6001  1.6267
  222MPD1    H2 3376   1.066   1.653  17.554  0.0932  0.4589 -1.2103
  222MPD1    H3 3377   1.026   1.788   0.059 -1.5019  1.6971 -1.4021
  222MPD1     N 3378   1.328   2.095  17.632 -0.0845 -1.2296  0.2308
  222MPD1    H5 3379   1.309   2.138   0.036 -3.2133 -0.1100 -0.9816
  222MPD1    N1 3380   1.196   1.722  17.343  0.7048  0.0461  0.1079
  222MPD1    H6 3381   1.233   1.627  17.350  0.3689 -0.0327  0.8405
  222MPD1    H7 3382   1.259   1.765  17.276  1.1493  1.7578  1.6491
  223MPD1     C 3383   1.279   2.904   0.504 -0.0053 -0.1704 -0.2782
  223MPD1    C1 3384   1.413   2.898   0.470  0.7004  0.0455 -0.5810
  223MPD1    C2 3385   1.448   2.814   0.365  0.1888  0.6831 -0.5097
  223MPD1    C3 3386   1.353   2.733   0.311 -0.4335  0.3307 -1.2422
  223MPD1    C4 3387   1.221   2.733   0.349  1.0894  0.0655 -0.0890
  223MPD1    C5 3388   1.187   2.820   0.451  0.1449  0.9848 -0.1250
  223MPD1     H 3389   1.551   2.803   0.333  0.0374 -1.2901 -0.3627
  223MPD1    H1 3390   1.144   2.676   0.300 -0.5294  0.4035  2.0462
  223MPD1    H2 3391   1.240   2.973   0.579  0.8218  1.2820 -1.1817
  223MPD1    H3 3392   1.084   2.831   0.482 -0.1651  0.4686 -0.9564
  223MPD1     N 3393   1.394   2.652   0.199  0.0598 -0.0075  0.2394
  223MPD1    H5 3394   1.487   2.675   0.166 -0.7573  2.8943 -0.0463
  223MPD1    N1 3395   1.509   2.995   0.512 -0.4697 -0.0915  0.4816
  223MPD1    H6 3396   1.494   3.028   0.607 -3.6516 -0.4470  0.1197
  223MPD1    H7 3397   1.602   2.953   0.512  0.4589  1.9889  1.8453
  224MPD1     C 3398   3.646   4.316   9.230 -0.7071  0.3871  0.5774
  224MPD1    C1 3399   3.581   4.336   9.348 -0.4969  0.6712 -0.5989
  224MPD1    C2 3400   3.595   4.244   9.453 -0.7039 -0.1874 -0.1825
  224MPD1    C3 3401   3.674   4.131   9.433 -0.1867 -0.5986 -0.4214
  224MPD1    C4 3402   3.754   4.122   9.324 -0.3204 -0.4950  0.5081
  224MPD1    C5 3403   3.744   4.218   9.226  0.7578  0.4365  0.0637
  224MPD1     H 3404   3.533   4.264   9.540  0.5131 -1.1182  0.9136
  224MPD1    H1 3405   3.825   4.041   9.309  0.9971  0.5926  0.7967
  224MPD1    H2 3406   3.619   4.378   9.146 -1.8105 -1.0478 -0.1267
  224MPD1    H3 3407   3.811   4.217   9.141  0.0703  0.0233 -0.4740
  224MPD1     N 3408   3.677   4.023   9.533 -0.2202  0.2269 -0.8419
  224MPD1    H5 3409   3.728   3.939   9.510 -0.9733 -0.5018  0.1310
  224MPD1    N1 3410   3.488   4.436   9.365  0.5076 -0.2939  0.2285
  224MPD1    H6 3411   3.493   4.468   9.462  0.1065 -0.4444  0.2983
  224MPD1    H7 3412   3.509   4.510   9.298  1.1383 -1.8573 -1.2990
  225MPD1     C 3413   0.117   0.415  12.871 -0.2405 -0.9432  0.1485
  225MPD1    C1 3414   0.187   0.338  12.779  0.5411 -0.0458  0.1243
  225MPD1    C2 3415   0.148   0.351  12.643 -0.0346 -0.2571  0.2006
  225MPD1    C3 3416   0.031   0.421  12.616 -0.3064 -0.0160  0.4016
  225MPD1    C4 3417   4.682   0.488  12.712  0.8822 -0.2743  0.7411
  225MPD1    C5 3418   0.003   0.486  12.841  0.1944  0.0895  0.1839
  225MPD1     H 3419   0.196   0.301  12.559  1.7378  0.1558  0.9661
  225MPD1    H1 3420   4.585   0.534  12.694  1.1117 -0.5293 -1.0672
  225MPD1    H2 3421   0.147   0.417  12.975 -2.2203 -1.7420  0.7201
  225MPD1    H3 3422   4.674   0.545  12.916 -0.0439 -0.2490  0.2925
  225MPD1     N 3423   4.691   0.416  12.489  0.7862 -0.2263 -0.5448
  225MPD1    H5 3424   4.615   0.477  12.460  0.5469 -1.0165 -1.5854
  225MPD1    N1 3425   0.315   0.281  12.810 -0.0646  0.2925  0.2967
  225MPD1    H6 3426   0.350   0.215  12.741 -1.3083 -0.0276 -0.0271
  225MPD1    H7 3427   0.321   0.235  12.900 -1.7435 -1.4232 -0.4865
  226MPD1     C 3428   3.034   4.121   9.505 -0.0009 -0.2083  0.4289
  226MPD1    C1 3429   3.147   4.200   9.520  0.0684 -0.5658  0.6691
  226MPD1    C2 3430   3.130   4.335   9.515  0.3100  0.5011  0.5025
  226MPD1    C3 3431   3.013   4.396   9.509 -0.4081  0.7094 -0.6175
  226MPD1    C4 3432   2.896   4.316   9.526 -0.4490 -0.3866 -0.3771
  226MPD1    C5 3433   2.909   4.182   9.513  0.7370  0.0066  0.4901
  226MPD1     H 3434   3.212   4.406   9.511 -0.9142  1.8886 -0.2732
  226MPD1    H1 3435   2.797   4.360   9.521 -1.1432 -1.9591 -0.6119
  226MPD1    H2 3436   3.023   4.014   9.492 -1.3738  0.2626 -2.0785
  226MPD1    H3 3437   2.820   4.122   9.501  1.5096 -1.4834  2.3140
  226MPD1     N 3438   3.002   4.535   9.498  0.2606  0.5719 -0.5947
  226MPD1    H5 3439   3.086   4.592   9.492 -0.3100  1.5746  1.1831
  226MPD1    N1 3440   3.274   4.143   9.497 -0.2336  0.7910 -0.2052
  226MPD1    H6 3441   3.275   4.053   9.545  1.9716 -0.3583 -2.4153
  226MPD1    H7 3442   3.341   4.198   9.551 -1.7240  1.3476  1.0875
  227MPD1     C 3443   2.411   0.487   9.033  0.6367  0.0309 -0.4744
  227MPD1    C1 3444   2.363   0.394   9.127  0.0419 -0.4542 -0.1156
  227MPD1    C2 3445   2.451   0.329   9.200 -0.3339 -0.5575  0.1000
  227MPD1    C3 3446   2.584   0.357   9.193 -0.3002 -0.0975 -0.0026
  227MPD1    C4 3447   2.628   0.451   9.104  0.0691 -0.1199  0.0310
  227MPD1    C5 3448   2.540   0.518   9.022  0.2855 -0.2765 -0.1552
  227MPD1     H 3449   2.415   0.253   9.267  0.8456 -0.9502  0.2885
  227MPD1    H1 3450   2.731   0.482   9.098 -0.6568  2.3704  0.2565
  227MPD1    H2 3451   2.338   0.541   8.974 -0.0878  0.0796  0.4725
  227MPD1    H3 3452   2.581   0.599   8.963  0.1707  1.6190  2.3789
  227MPD1     N 3453   2.677   0.281   9.270  0.0978  0.1668 -0.0098
  227MPD1    H5 3454   2.633   0.213   9.332 -0.8349  0.9275  0.1685
  227MPD1    N1 3455   2.221   0.374   9.131  0.2358 -0.0599  0.0781
  227MPD1    H6 3456   2.188   0.344   9.222 -0.0112  1.2959  0.4403
  227MPD1    H7 3457   2.167   0.443   9.078 -0.2766 -1.5435 -1.3330
  228MPD1     C 3458   0.902   3.502  13.600  0.5740  0.3420 -0.3202
  228MPD1    C1 3459   0.856   3.391  13.667  0.2995  0.0545  0.6666
  228MPD1    C2 3460   0.791   3.292  13.591 -0.3335 -0.8234 -0.2242
  228MPD1    C3 3461   0.768   3.299  13.455  1.3985 -0.3310 -0.1117
  228MPD1    C4 3462   0.822   3.411  13.393  0.4803  0.7929 -0.1921
  228MPD1    C5 3463   0.884   3.510  13.466  0.4441 -0.5523 -0.4803
  228MPD1     H 3464   0.763   3.202  13.646 -2.4758  1.2483  2.0873
  228MPD1    H1 3465   0.804   3.422  13.287  0.3763  1.5836 -0.0897
  228MPD1    H2 3466   0.951   3.582  13.654 -0.0695 -0.1422  0.9757
  228MPD1    H3 3467   0.910   3.602  13.414 -0.6415 -0.7233 -1.3238
  228MPD1     N 3468   0.701   3.197  13.390 -0.3525 -0.4790  0.1595
  228MPD1    H5 3469   0.643   3.139  13.450 -1.1976 -0.9896 -1.1612
  228MPD1    N1 3470   0.850   3.389  13.810 -0.6125  0.4141 -0.5860
  228MPD1    H6 3471   0.859   3.298  13.856  1.0055  1.3599  0.9551
  228MPD1    H7 3472   0.924   3.451  13.841 -1.8229  0.3966  2.2725
  229MPD1     C 3473   0.867   2.113  14.670 -0.9896  0.1443  0.7491
  229MPD1    C1 3474   0.854   2.033  14.560 -0.1505  0.2923 -0.5272
  229MPD1    C2 3475   0.901   1.899  14.569 -0.8164  0.2537  0.0214
  229MPD1    C3 3476   0.975   1.852  14.677 -0.0387 -0.0135 -0.6531
  229MPD1    C4 3477   0.996   1.944  14.778 -0.3479  0.9730  0.2832
  229MPD1    C5 3478   0.943   2.066  14.773  0.0742 -0.2531  0.5999
  229MPD1     H 3479   0.890   1.833  14.484 -2.8887  0.9882 -0.2882
  229MPD1    H1 3480   1.061   1.915  14.860 -1.9046 -3.1276  0.0592
  229MPD1    H2 3481   0.845   2.219  14.671  0.0078  0.3468  1.5166
  229MPD1    H3 3482   0.958   2.133  14.857 -0.9610 -1.1118  1.4715
  229MPD1     N 3483   1.013   1.718  14.694  0.2730  0.6558 -0.2686
  229MPD1    H5 3484   1.049   1.687  14.784  2.3032  0.1579 -1.2472
  229MPD1    N1 3485   0.763   2.069  14.458 -0.3353 -0.1528  0.0854
  229MPD1    H6 3486   0.759   2.014  14.373 -0.6169 -0.2810  0.1816
  229MPD1    H7 3487   0.760   2.170  14.441  1.9914  0.2246  1.8248
  230MPD1     C 3488   1.152   0.981  15.302 -0.8676 -0.0293  0.3917
  230MPD1    C1 3489   1.275   0.990  15.233 -0.0580  0.2980 -0.2689
  230MPD1    C2 3490   1.283   1.083  15.127  0.1337  0.7375  0.6778
  230MPD1    C3 3491   1.174   1.159  15.093 -0.8406  0.0566  0.9254
  230MPD1    C4 3492   1.057   1.144  15.168 -0.1290 -0.7082  0.5146
  230MPD1    C5 3493   1.051   1.066  15.274 -0.3259 -0.2591 -0.2567
  230MPD1     H 3494   1.372   1.078  15.065 -0.8367 -1.8581 -0.5000
  230MPD1    H1 3495   0.960   1.183  15.139  1.1974  2.9324  0.9477
  230MPD1    H2 3496   1.134   0.923  15.391 -1.5730  0.1932  0.3882
  230MPD1    H3 3497   0.962   1.063  15.335 -0.3997  3.4898 -0.1876
  230MPD1     N 3498   1.182   1.236  14.981  0.2993  0.2579  0.3335
  230MPD1    H5 3499   1.262   1.228  14.919 -1.2737 -1.3554 -1.4713
  230MPD1    N1 3500   1.385   0.927  15.289 -0.4194 -0.0904  0.0639
  230MPD1    H6 3501   1.466   0.920  15.228  0.5814  2.7146  1.0711
  230MPD1    H7 3502   1.356   0.834  15.317 -2.8171  0.7449  0.3670
  231MPD1     C 3503   3.237   2.845  15.597  0.0428  0.4035 -1.0299
  231MPD1    C1 3504   3.251   2.852  15.459 -0.2762 -0.1823 -0.0581
  231MPD1    C2 3505   3.365   2.892  15.396  0.0616 -0.2725  0.1426
  231MPD1    C3 3506   3.465   2.945  15.468  0.1648  0.1633 -0.5283
  231MPD1    C4 3507   3.459   2.941  15.605  0.2372  0.7170 -0.2980
  231MPD1    C5 3508   3.343   2.889  15.671  0.4786  0.6345  0.6674
  231MPD1     H 3509   3.378   2.891  15.288  0.5801  0.1831  0.1952
  231MPD1    H1 3510   3.540   2.984  15.663 -0.6038  3.7096 -1.3326
  231MPD1    H2 3511   3.158   2.784  15.641  2.5036 -1.8428  0.2620
  231MPD1    H3 3512   3.334   2.877  15.778 -1.7392 -0.3358  0.3669
  231MPD1     N 3513   3.582   2.990  15.407 -0.0829  0.6715  0.4561
  231MPD1    H5 3514   3.570   3.013  15.309 -1.8271 -0.1002  0.4907
  231MPD1    N1 3515   3.146   2.795  15.387  0.6936 -0.0223 -0.3737
  231MPD1    H6 3516   3.056   2.819  15.428 -0.6265  0.6553 -3.6853
  231MPD1    H7 3517   3.136   2.813  15.287  1.0751 -2.6371 -0.8769
  232MPD1     C 3518   2.010   1.498  17.310  0.1856  0.2100  0.0374
  232MPD1    C1 3519   1.969   1.538  17.433 -1.2229 -0.5116  0.0702
  232MPD1    C2 3520   1.913   1.447  17.524 -0.2254  0.4060 -0.2872
  232MPD1    C3 3521   1.882   1.319  17.483 -0.4619 -0.2104 -0.1552
  232MPD1    C4 3522   1.930   1.282  17.358  0.9368  0.1170  0.1892
  232MPD1    C5 3523   2.005   1.368  17.276  0.4709 -0.1487 -0.8059
  232MPD1     H 3524   1.874   1.474  17.622  1.4445  0.1392  0.4575
  232MPD1    H1 3525   1.923   1.178  17.328 -2.9173 -0.2954  2.5208
  232MPD1    H2 3526   2.064   1.564  17.244 -1.6874  1.6361 -0.0345
  232MPD1    H3 3527   2.033   1.341  17.175  1.2994 -0.6246 -0.4464
  232MPD1     N 3528   1.800   1.232  17.568  0.1115  0.3343 -0.3696
  232MPD1    H5 3529   1.751   1.277  17.643  0.3685 -1.1366  0.6927
  232MPD1    N1 3530   2.016   1.659  17.491 -0.1764 -0.1247 -0.3199
  232MPD1    H6 3531   1.950   1.699  17.557  0.6452  0.9143 -0.1228
  232MPD1    H7 3532   2.045   1.734  17.429 -0.0961 -1.0754 -1.4285
  233MPD1     C 3533   1.430   3.986   1.486  0.3980  0.0596 -0.4539
  233MPD1    C1 3534   1.424   3.872   1.561  0.3685  0.1888  0.0878
  233MPD1    C2 3535   1.504   3.771   1.519  0.5055 -0.3744  0.5370
  233MPD1    C3 3536   1.602   3.786   1.417  0.0604 -0.3347  0.0459
  233MPD1    C4 3537   1.617   3.910   1.358 -0.2605 -0.1983  0.3146
  233MPD1    C5 3538   1.527   4.007   1.391  0.1794 -0.6321  0.5241
  233MPD1     H 3539   1.490   3.675   1.566 -2.8005  0.8206  1.9755
  233MPD1    H1 3540   1.688   3.934   1.280 -1.7037  0.7174 -0.7404
  233MPD1    H2 3541   1.359   4.067   1.503  0.1017 -0.3609  0.3107
  233MPD1    H3 3542   1.543   4.109   1.358 -0.4943 -0.4496  0.7532
  233MPD1     N 3543   1.692   3.680   1.377  0.3619  0.4371  0.2833
  233MPD1    H5 3544   1.765   3.699   1.308  0.4698 -1.3948 -0.0838
  233MPD1    N1 3545   1.317   3.833   1.640 -0.1242  0.3893  0.1647
  233MPD1    H6 3546   1.254   3.904   1.677 -0.3883  0.7835 -1.0461
  233MPD1    H7 3547   1.341   3.774   1.720  1.9107 -0.9004 -1.3977
  234MPD1     C 3548   4.046   2.181   9.373 -0.2192 -0.3495 -0.5185
  234MPD1    C1 3549   4.107   2.297   9.418  0.2362 -0.2793  0.3518
  234MPD1    C2 3550   4.077   2.416   9.356  0.2706 -0.6683  0.0536
  234MPD1    C3 3551   3.965   2.418   9.278  0.3955  0.0224  0.0902
  234MPD1    C4 3552   3.897   2.305   9.253  0.1419  0.1397 -0.5437
  234MPD1    C5 3553   3.936   2.181   9.299 -0.4913  0.4858  0.1443
  234MPD1     H 3554   4.139   2.502   9.377 -1.4949  0.4968  0.5351
  234MPD1    H1 3555   3.819   2.302   9.177 -2.3781  0.2293  2.0175
  234MPD1    H2 3556   4.090   2.092   9.415  2.3417  1.5774  0.8928
  234MPD1    H3 3557   3.886   2.091   9.267  0.7029 -0.5128  1.0887
  234MPD1     N 3558   3.933   2.543   9.232 -0.0866 -0.5336 -0.1769
  234MPD1    H5 3559   3.991   2.622   9.257  2.4534 -1.9428 -1.5709
  234MPD1    N1 3560   4.221   2.275   9.497  0.1930  0.4889 -0.2906
  234MPD1    H6 3561   4.259   2.355   9.547 -0.0017  0.1770  0.3650
  234MPD1    H7 3562   4.222   2.197   9.563 -2.1770  0.0319 -0.7742
  235MPD1     C 3563   0.686   0.547  10.622  0.8517  0.4624 -0.0624
  235MPD1    C1 3564   0.688   0.685  10.617 -0.9640  0.4102 -1.5383
  235MPD1    C2 3565   0.729   0.739  10.496 -0.1648  0.0753 -0.2684
  235MPD1    C3 3566   0.760   0.654  10.388  0.3918  0.3023 -0.1600
  235MPD1    C4 3567   0.753   0.522  10.400  1.1928 -0.1538 -0.0337
  235MPD1    C5 3568   0.716   0.462  10.520 -0.0567  0.0939 -0.7141
  235MPD1     H 3569   0.722   0.846  10.484 -0.5842 -0.1246 -1.9294
  235MPD1    H1 3570   0.764   0.456  10.315  1.4833 -0.6555  0.3942
  235MPD1    H2 3571   0.654   0.489  10.707  0.3453  0.7794 -0.0363
  235MPD1    H3 3572   0.705   0.354  10.520  1.3414 -0.0449 -0.1742
  235MPD1     N 3573   0.793   0.725  10.274 -0.1795  0.6591  0.5093
  235MPD1    H5 3574   0.832   0.818  10.285  0.4139  0.4040  0.5469
  235MPD1    N1 3575   0.663   0.757  10.726 -0.3354 -0.2014  0.0928
  235MPD1    H6 3576   0.617   0.718  10.807 -1.1621  0.1116 -0.2263
  235MPD1    H7 3577   0.624   0.849  10.705  1.0028  0.4252  0.3356
  236MPD1     C 3578   0.225   1.497   9.352 -0.0035 -0.3936 -0.1541
  236MPD1    C1 3579   0.248   1.587   9.449 -0.5118 -0.0772 -0.1906
  236MPD1    C2 3580   0.308   1.555   9.567  0.5594  0.2640  0.3334
  236MPD1    C3 3581   0.335   1.426   9.599 -0.7705 -0.4783  0.8313
  236MPD1    C4 3582   0.314   1.327   9.512 -0.8528  0.2490 -0.5305
  236MPD1    C5 3583   0.251   1.362   9.392 -0.2549 -0.2229 -0.1089
  236MPD1     H 3584   0.311   1.637   9.638 -0.7586 -1.2105  2.1118
  236MPD1    H1 3585   0.311   1.222   9.539 -2.1172  0.0346 -1.4572
  236MPD1    H2 3586   0.182   1.507   9.253 -0.1763  3.2637  0.2892
  236MPD1    H3 3587   0.221   1.278   9.330 -2.6373 -0.0933  0.8705
  236MPD1     N 3588   0.372   1.378   9.727 -0.4258 -0.5691  0.3229
  236MPD1    H5 3589   0.399   1.280   9.730  2.8002  0.3684  1.5221
  236MPD1    N1 3590   0.216   1.722   9.417  0.1342 -0.1075 -0.2630
  236MPD1    H6 3591   0.203   1.778   9.501 -0.9964 -0.9081  0.0877
  236MPD1    H7 3592   0.124   1.712   9.375 -0.8263 -0.0584  1.8004
  237MPD1     C 3593   4.235   4.029  15.636  0.4110 -0.3377  0.3264
  237MPD1    C1 3594   4.105   3.995  15.650 -0.6389 -0.4740 -0.2915
  237MPD1    C2 3595   4.017   4.003  15.543  0.1373  0.0789  0.4578
  237MPD1    C3 3596   4.054   4.047  15.415  0.6032  0.0823  0.3708
  237MPD1    C4 3597   4.185   4.094  15.404 -0.0610  0.4071  0.3328
  237MPD1    C5 3598   4.270   4.076  15.510  0.0101 -0.3072  0.2201
  237MPD1     H 3599   3.914   3.976  15.559  0.3151 -0.8735 -0.0335
  237MPD1    H1 3600   4.223   4.139  15.313 -0.0739 -2.6963 -1.2165
  237MPD1    H2 3601   4.303   4.023  15.720  1.7072 -1.9828 -0.8360
  237MPD1    H3 3602   4.377   4.092  15.497 -0.1444  0.5316  0.0146
  237MPD1     N 3603   3.970   4.075  15.303  0.1661  0.1574 -0.0260
  237MPD1    H5 3604   4.017   4.120  15.224  1.2133 -0.9367 -0.0301
  237MPD1    N1 3605   4.049   3.959  15.776 -0.1158  0.2742  0.2543
  237MPD1    H6 3606   4.108   3.896  15.830 -2.6973 -1.4343  1.0378
  237MPD1    H7 3607   3.964   3.906  15.759 -0.2018 -0.2835  2.3902
  238MPD1     C 3608   1.598   3.230  15.038 -0.2371  0.3701  0.6222
  238MPD1    C1 3609   1.516   3.195  15.148 -0.1741  0.0484 -0.4465
  238MPD1    C2 3610   1.386   3.236  15.145  0.0448 -0.1125  0.8799
  238MPD1    C3 3611   1.338   3.305  15.037  0.0953 -0.3898  0.1821
  238MPD1    C4 3612   1.423   3.331  14.930 -0.1805 -0.4125 -0.1991
  238MPD1    C5 3613   1.551   3.284  14.925 -0.8731 -0.6870 -0.3128
  238MPD1     H 3614   1.329   3.207  15.233 -0.4255  1.0899  0.9668
  238MPD1    H1 3615   1.392   3.400  14.853 -0.1579 -0.5790 -0.3585
  238MPD1    H2 3616   1.704   3.206  15.042 -0.3663 -0.2059  0.4739
  238MPD1    H3 3617   1.622   3.316  14.849 -2.8141 -0.9527 -2.2368
  238MPD1     N 3618   1.201   3.331  15.026 -0.1724  0.3415  0.1531
  238MPD1    H5 3619   1.177   3.383  14.943 -1.1866  0.0904  0.2902
  238MPD1    N1 3620   1.568   3.136  15.264  0.6210 -0.1381  0.0002
  238MPD1    H6 3621   1.502   3.072  15.307 -0.6436  0.6644 -0.7472
  238MPD1    H7 3622   1.648   3.077  15.242  0.6048 -0.4070  0.6645
  239MPD1     C 3623   1.569   4.079  14.717 -0.7327  0.1987 -0.1371
  239MPD1    C1 3624   1.625   4.010  14.613 -0.3323  0.3560  0.5223
  239MPD1    C2 3625   1.580   4.037  14.487  0.1988 -0.3326 -0.5670
  239MPD1    C3 3626   1.481   4.132  14.467 -0.0903 -0.3589  0.5071
  239MPD1    C4 3627   1.421   4.199  14.571 -0.3721  0.0403  0.1756
  239MPD1    C5 3628   1.465   4.174  14.697 -0.8474  0.1472  0.0981
  239MPD1     H 3629   1.620   3.978  14.405 -2.8223 -2.7129 -0.3235
  239MPD1    H1 3630   1.329   4.257  14.572 -0.2510  0.2436 -1.8002
  239MPD1    H2 3631   1.609   4.067  14.817 -2.1782 -1.7850  0.2061
  239MPD1    H3 3632   1.423   4.215  14.787 -0.2845 -0.9651  0.8735
  239MPD1     N 3633   1.422   4.155  14.338  0.3467  0.4421  0.3825
  239MPD1    H5 3634   1.344   4.219  14.331 -0.1035 -0.3515 -1.6443
  239MPD1    N1 3635   1.728   3.917  14.637 -0.0485 -0.2760  0.2170
  239MPD1    H6 3636   1.741   3.857  14.555 -1.3325 -0.1759 -0.0606
  239MPD1    H7 3637   1.701   3.861  14.718  1.1037 -0.5644  0.3914
  240MPD1     C 3638   0.267   4.209  13.973 -0.1993 -0.5110  0.4152
  240MPD1    C1 3639   0.185   4.179  14.081  0.3496 -0.1860  0.4307
  240MPD1    C2 3640   0.216   4.079  14.165 -0.3193  0.4680  0.0067
  240MPD1    C3 3641   0.335   4.010  14.153 -0.3830  0.0386  0.1751
  240MPD1    C4 3642   0.412   4.030  14.041  0.1054  0.6722  0.2819
  240MPD1    C5 3643   0.374   4.124  13.947  0.3951 -0.6634 -0.6409
  240MPD1     H 3644   0.146   4.059  14.246  2.2047 -1.2379  1.7763
  240MPD1    H1 3645   0.492   3.964  14.010  1.2346  1.3093  1.7913
  240MPD1    H2 3646   0.247   4.299  13.916  2.2485 -1.0014 -1.2027
  240MPD1    H3 3647   0.428   4.142  13.855 -0.4778  1.6200 -0.7265
  240MPD1     N 3648   0.368   3.921  14.260 -0.7024 -0.1558  0.0900
  240MPD1    H5 3649   0.302   3.902  14.336  0.9985  1.3128  1.9363
  240MPD1    N1 3650   0.066   4.249  14.096 -0.1113  0.1934 -0.0485
  240MPD1    H6 3651   0.055   4.336  14.045  0.3821  0.6201  0.5579
  240MPD1    H7 3652   4.716   4.188  14.058  0.1089  1.5657 -2.6341
  241MPD1     C 3653   0.894   3.669  15.137  0.3013 -0.1938  0.7048
  241MPD1    C1 3654   0.936   3.743  15.023 -0.0145  0.2032  0.3127
  241MPD1    C2 3655   0.867   3.757  14.909  0.4530 -0.2710  0.5193
  241MPD1    C3 3656   0.749   3.692  14.902 -0.1936 -0.5017 -0.5354
  241MPD1    C4 3657   0.695   3.637  15.014 -0.4796 -0.3690 -0.5969
  241MPD1    C5 3658   0.766   3.623  15.129 -0.2651 -0.3848 -0.3053
  241MPD1     H 3659   0.920   3.797  14.824 -0.1030  2.7548  1.5720
  241MPD1    H1 3660   0.600   3.585  15.007 -1.9591  1.9356  2.1522
  241MPD1    H2 3661   0.961   3.658  15.221 -0.5099 -2.0963  1.1103
  241MPD1    H3 3662   0.731   3.562  15.212 -1.1603 -0.1934 -0.5459
  241MPD1     N 3663   0.675   3.673  14.784  0.3671  0.0900  0.3353
  241MPD1    H5 3664   0.590   3.619  14.793  0.4422  0.3670  2.7034
  241MPD1    N1 3665   1.062   3.794  15.018  0.3847 -0.4728 -0.2824
  241MPD1    H6 3666   1.095   3.813  15.113 -0.0680  0.0553 -0.2339
  241MPD1    H7 3667   1.073   3.871  14.953  0.4956 -0.2751 -0.0293
  242MPD1     C 3668   0.564   2.271  15.839 -0.7522  0.6982  0.1648
  242MPD1    C1 3669   0.440   2.252  15.786  0.6298 -0.1595 -0.0882
  242MPD1    C2 3670   0.413   2.132  15.715 -0.2057  0.2246 -0.0375
  242MPD1    C3 3671   0.519   2.059  15.671  0.4395  0.2660 -0.0648
  242MPD1    C4 3672   0.641   2.084  15.723  0.5597  0.3298  0.1188
  242MPD1    C5 3673   0.669   2.191  15.801 -0.1505  0.1812 -0.1636
  242MPD1     H 3674   0.311   2.110  15.684 -0.3715  1.1114 -0.1222
  242MPD1    H1 3675   0.726   2.021  15.701  0.6222  0.4456  0.0258
  242MPD1    H2 3676   0.593   2.348  15.909 -0.5296 -0.7784  1.6918
  242MPD1    H3 3677   0.764   2.215  15.848  0.5585  0.2993 -1.6690
  242MPD1     N 3678   0.509   1.968  15.565 -0.2077  0.2936 -0.5692
  242MPD1    H5 3679   0.589   1.907  15.561  1.4143  2.3264  0.9074
  242MPD1    N1 3680   0.328   2.329  15.840 -0.4088 -0.1916 -0.3138
  242MPD1    H6 3681   0.244   2.329  15.782 -0.6253 -0.2734  0.0031
  242MPD1    H7 3682   0.355   2.427  15.848 -0.2003 -0.2989  0.2266
  243MPD1     C 3683   1.919   0.215  17.288  0.2939 -0.4007 -0.4274
  243MPD1    C1 3684   1.982   0.234  17.408 -0.4563 -0.5897 -0.3916
  243MPD1    C2 3685   2.082   0.329  17.414  0.1426  0.7135 -1.0041
  243MPD1    C3 3686   2.127   0.398  17.302  0.1028 -0.7899 -0.4884
  243MPD1    C4 3687   2.063   0.363  17.182  0.2340  0.6265  0.2374
  243MPD1    C5 3688   1.966   0.275  17.175  0.5642 -1.4310 -0.3517
  243MPD1     H 3689   2.122   0.334  17.515  0.0983  0.2720 -0.9611
  243MPD1    H1 3690   2.097   0.406  17.088 -1.5312 -0.3625 -0.8530
  243MPD1    H2 3691   1.835   0.150  17.268 -0.1300 -0.2091  0.6832
  243MPD1    H3 3692   1.923   0.248  17.079  0.7810 -1.8523 -0.3312
  243MPD1     N 3693   2.240   0.486  17.316 -0.0552 -0.4567  0.6444
  243MPD1    H5 3694   2.283   0.497  17.408  1.9899 -0.0670 -0.3543
  243MPD1    N1 3695   1.930   0.185  17.531  0.0905 -0.9551 -0.1102
  243MPD1    H6 3696   1.881   0.096  17.529  1.1889 -1.6325  2.7234
  243MPD1    H7 3697   1.999   0.168  17.603 -0.0351  2.7281  0.8841
  244MPD1     C 3698   3.047   0.737   0.139 -0.3905  0.2569 -0.1206
  244MPD1    C1 3699   3.039   0.844   0.066  0.1435 -0.0960  0.6327
  244MPD1    C2 3700   2.938   0.837  17.658  0.0815 -0.4312 -0.9186
  244MPD1    C3 3701   2.866   0.728  17.627  0.7768 -0.3900 -0.4331
  244MPD1    C4 3702   2.892   0.614   0.015 -0.1446 -0.7625  0.6122
  244MPD1    C5 3703   2.980   0.624   0.120  0.0189  0.0222  0.2435
  244MPD1     H 3704   2.912   0.932  17.611  0.0847  0.5605  1.1002
  244MPD1    H1 3705   2.841   0.519  17.686 -1.1532  0.1866 -1.7751
  244MPD1    H2 3706   3.104   0.728   0.230  1.0752 -2.2947 -1.3068
  244MPD1    H3 3707   2.996   0.539   0.186  2.7431  0.6747  0.4376
  244MPD1     N 3708   2.766   0.740  17.520  0.5661  0.1603  0.2556
  244MPD1    H5 3709   2.757   0.826  17.466 -0.2593 -0.2743 -0.3049
  244MPD1    N1 3710   3.093   0.956   0.130  0.8350  0.2718 -0.1193
  244MPD1    H6 3711   3.176   0.925   0.181  1.3717 -1.3699 -1.9843
  244MPD1    H7 3712   3.111   1.026   0.059 -2.7369  1.3088  0.0015
  245MPD1     C 3713   0.111   1.421  12.717  0.2830  0.4005 -0.8882
  245MPD1    C1 3714   0.173   1.538  12.754 -0.1456 -0.9788  0.2714
  245MPD1    C2 3715   0.114   1.610  12.858  0.1349 -0.3619 -0.4156
  245MPD1    C3 3716   0.014   1.564  12.940  0.7800  0.4983 -0.4424
  245MPD1    C4 3717   4.681   1.443  12.914  0.1081 -0.5066  0.0902
  245MPD1    C5 3718   0.011   1.377  12.802  0.2503  0.1284 -0.0213
  245MPD1     H 3719   0.156   1.705  12.888 -1.2716  0.2503 -0.3575
  245MPD1    H1 3720   4.603   1.405  12.978 -2.5827  0.0308 -2.8872
  245MPD1    H2 3721   0.147   1.361  12.634  0.2280 -3.0460  1.5465
  245MPD1    H3 3722   4.681   1.284  12.777  2.1265 -1.1870  1.0552
  245MPD1     N 3723   4.700   1.636  13.056 -0.2264  0.3096 -0.3218
  245MPD1    H5 3724   0.025   1.725  13.074 -0.6503  0.5380 -0.3699
  245MPD1    N1 3725   0.278   1.587  12.677 -0.0624 -0.1814  0.2966
  245MPD1    H6 3726   0.331   1.649  12.738 -0.2206 -0.3918  0.6437
  245MPD1    H7 3727   0.331   1.513  12.630  1.7777  3.0802 -2.7752
  246MPD1     C 3728   4.044   1.070   7.153  0.2065 -0.1563 -0.5992
  246MPD1    C1 3729   3.936   1.099   7.225 -0.1371  0.2940 -0.8242
  246MPD1    C2 3730   3.949   1.177   7.337 -0.3941 -0.7107 -0.3369
  246MPD1    C3 3731   4.070   1.212   7.385 -0.3257  0.9401 -0.4812
  246MPD1    C4 3732   4.189   1.170   7.321 -0.4906  0.4985  0.4417
  246MPD1    C5 3733   4.173   1.095   7.205 -0.4549 -0.1277  0.0412
  246MPD1     H 3734   3.857   1.202   7.389 -0.6925 -1.9563 -0.2567
  246MPD1    H1 3735   4.282   1.187   7.374 -0.1170 -1.0326  0.2620
  246MPD1    H2 3736   4.052   1.021   7.056 -1.7246 -1.8009  0.0704
  246MPD1    H3 3737   4.260   1.066   7.147 -1.9585 -1.4159 -1.5726
  246MPD1     N 3738   4.071   1.302   7.493  0.0970  0.5736  0.0037
  246MPD1    H5 3739   3.983   1.335   7.532  0.0823  1.6447 -0.9554
  246MPD1    N1 3740   3.806   1.072   7.173  0.2476 -0.0953  0.0046
  246MPD1    H6 3741   3.797   0.978   7.134 -0.4165  0.0720 -0.2410
  246MPD1    H7 3742   3.734   1.080   7.244  0.6831 -0.6456  0.5052
  247MPD1     C 3743   3.512   2.087  16.503 -0.0296 -0.0082 -0.3263
  247MPD1    C1 3744   3.477   2.068  16.373  0.5525  0.3949  0.1367
  247MPD1    C2 3745   3.473   1.940  16.325  0.2239  0.6623 -0.3064
  247MPD1    C3 3746   3.480   1.836  16.413 -0.2617 -0.1961 -0.1088
  247MPD1    C4 3747   3.489   1.856  16.552 -0.0655  0.2142  0.3647
  247MPD1    C5 3748   3.501   1.987  16.596  0.5164 -0.8706  0.0831
  247MPD1     H 3749   3.436   1.923  16.224 -2.8220  1.8060  0.6167
  247MPD1    H1 3750   3.477   1.775  16.623 -2.6025 -0.6606 -1.0309
  247MPD1    H2 3751   3.531   2.191  16.525 -0.5728 -0.5339  2.6526
  247MPD1    H3 3752   3.513   1.995  16.703  0.1938  1.1124 -0.0307
  247MPD1     N 3753   3.485   1.704  16.367  0.0232 -0.0202 -0.5735
  247MPD1    H5 3754   3.492   1.630  16.436  1.0939  0.1531 -0.4884
  247MPD1    N1 3755   3.478   2.176  16.282 -0.3337  0.1818  0.0497
  247MPD1    H6 3756   3.468   2.152  16.184  0.1963 -1.0432  0.2929
  247MPD1    H7 3757   3.424   2.259  16.308 -0.0020  0.5415 -0.4202
  248MPD1     C 3758   4.125   0.412   0.448  0.0429  0.9260 -0.4402
  248MPD1    C1 3759   4.109   0.277   0.486 -0.4061  0.1711  0.5654
  248MPD1    C2 3760   3.995   0.209   0.458  0.4108  0.5558 -0.0514
  248MPD1    C3 3761   3.889   0.269   0.406 -1.1310 -0.6302 -0.1379
  248MPD1    C4 3762   3.894   0.406   0.391 -0.3133  0.0936  0.2413
  248MPD1    C5 3763   4.008   0.481   0.410  0.1289  0.0580  0.2576
  248MPD1     H 3764   3.974   0.105   0.481  1.8456 -0.2253 -2.2266
  248MPD1    H1 3765   3.803   0.463   0.374 -0.0778 -0.0445 -1.4438
  248MPD1    H2 3766   4.216   0.470   0.460 -0.0043  0.2846  3.0528
  248MPD1    H3 3767   4.005   0.589   0.402 -0.4396  0.0186 -0.0427
  248MPD1     N 3768   3.775   0.193   0.372  0.2541 -0.0376  0.2296
  248MPD1    H5 3769   3.788   0.092   0.371 -2.4481 -0.4133  1.4621
  248MPD1    N1 3770   4.202   0.217   0.574 -0.5913  0.3217  0.4626
  248MPD1    H6 3771   4.212   0.118   0.556  0.1848  0.2503  1.2784
  248MPD1    H7 3772   4.295   0.257   0.569 -0.7338  0.6063  0.0731
  249MPD1     C 3773   1.559   3.986  10.041  0.2513 -0.3501 -0.3624
  249MPD1    C1 3774   1.664   4.062  10.074  0.7779  0.3163 -1.0745
  249MPD1    C2 3775   1.683   4.187  10.013  0.1754  0.3567 -0.4045
  249MPD1    C3 3776   1.587   4.240   9.935  0.5628 -0.3626 -0.1375
  249MPD1    C4 3777   1.471   4.165   9.904 -0.2276  0.2609 -0.0732
  249MPD1    C5 3778   1.468   4.033   9.948 -0.2570 -0.4274  0.5227
  249MPD1     H 3779   1.767   4.252  10.034  1.5996 -1.4264 -0.5680
  249MPD1    H1 3780   1.389   4.192   9.837 -1.2151 -1.0466  0.6165
  249MPD1    H2 3781   1.550   3.885  10.077 -0.8352  0.0704  0.5448
  249MPD1    H3 3782   1.383   3.970   9.925 -1.0164  0.6103  0.4831
  249MPD1     N 3783   1.614   4.369   9.886  0.3615  0.4660 -0.1668
  249MPD1    H5 3784   1.701   4.409   9.920 -0.6092  2.1035  0.3961
  249MPD1    N1 3785   1.755   4.008  10.175 -0.2112 -0.6964  0.0803
  249MPD1    H6 3786   1.820   4.080  10.206 -1.7202  1.5261 -1.8564
  249MPD1    H7 3787   1.711   3.954  10.249 -0.8270  0.7970  0.8149
  250MPD2     C 3788   2.702   4.342  12.843 -0.5081 -0.4749  0.3162
  250MPD2    C1 3789   2.605   4.418  12.898 -0.2611  0.3207 -0.1391
  250MPD2    C2 3790   2.500   4.355  12.971  0.8512 -0.2402 -0.3517
  250MPD2    C3 3791   2.503   4.222  12.986 -0.1735  0.1355  0.2951
  250MPD2    C4 3792   2.596   4.153  12.924  0.7477 -0.1089 -0.3078
  250MPD2    C5 3793   2.702   4.205  12.859 -0.4412  0.0258  0.0704
  250MPD2     H 3794   2.411   4.409  13.003 -0.1623 -0.5725 -2.6444
  250MPD2    H1 3795   2.579   4.046  12.920 -2.9217  0.4961 -1.2851
  250MPD2    H2 3796   2.772   4.393  12.778 -0.0225  0.5393  1.6335
  250MPD2    H3 3797   2.775   4.146  12.805 -1.1103  0.6800 -1.5675
  250MPD2     N 3798   2.392   4.152  13.043  0.0720 -0.0069 -0.0397
  250MPD2    H5 3799   2.389   4.051  13.033  0.2854 -0.1627  1.4294
  250MPD2    N1 3800   2.600   4.552  12.865 -0.3674  0.0323 -0.4879
  250MPD2    H7 3801   2.679   4.583  12.809  1.5630 -1.6522  1.2833
  251TMC3    C1 3802   2.515   0.045  12.829  0.0936  0.1861  0.3420
  251TMC3    C2 3803   2.504   0.139  12.928 -0.2049  0.1181 -0.3125
  251TMC3    C3 3804   2.605   0.231  12.927  0.0205 -0.2847  0.0971
  251TMC3    C4 3805   2.610   0.054  12.732  0.2496  0.3208  0.4900
  251TMC3    C5 3806   2.711   0.138  12.736  0.5499 -0.2184  0.0397
  251TMC3    C6 3807   2.707   0.235  12.833  1.0379  0.0147 -0.1863
  251TMC3     C 3808   2.493   4.635  12.890  0.4796 -0.0141 -0.0519
  251TMC3     O 3809   2.397   4.628  12.966 -0.4942 -0.4857  0.2574
  251TMC3     H 3810   2.452   0.114  13.019  1.1002 -1.1803  0.0854
  251TMC3    H1 3811   2.610   4.695  12.658  1.9086  0.4338  0.3561
  251TMC3    H2 3812   2.786   0.309  12.843  0.1987  1.0211 -1.0286
  251TMC3    C7 3813   2.845   0.092  12.709  0.1712  0.3847 -0.0245
  251TMC3    C8 3814   2.573   0.357  12.991  0.3937 -0.7914  0.4488
  251TMC3    O1 3815   2.866   4.693  12.693  0.2859  0.4622  0.3750
  251TMC3    O2 3816   2.495   0.346  13.086  0.2807 -0.1742 -0.2658
  252TMC3    C1 3817   2.426   0.825   9.209 -0.2517  0.2759  0.3615
  252TMC3    C2 3818   2.498   0.940   9.193 -0.1012 -0.3846 -0.2989
  252TMC3    C3 3819   2.622   0.938   9.251  0.0764 -0.7424 -0.6173
  252TMC3    C4 3820   2.460   0.723   9.289  0.2987 -0.9784  0.0858
  252TMC3    C5 3821   2.585   0.731   9.345  0.4390 -0.4480 -0.0239
  252TMC3    C6 3822   2.669   0.834   9.323  0.4077  0.3976  0.5602
  252TMC3     C 3823   2.316   0.811   9.118  0.2203  0.2909 -0.2650
  252TMC3     O 3824   2.330   0.866   9.011 -0.3005 -0.2701  0.3063
  252TMC3     H 3825   2.462   1.021   9.131 -0.2607  1.3749  2.0996
  252TMC3    H1 3826   2.397   0.637   9.309 -1.9024 -0.0878 -2.8688
  252TMC3    H2 3827   2.769   0.831   9.365  2.0725 -0.9852 -3.5442
  252TMC3    C7 3828   2.638   0.625   9.429 -0.7851  0.7111  0.3462
  252TMC3    C8 3829   2.715   1.031   9.194 -0.2926  0.2863 -0.1204
  252TMC3    O1 3830   2.753   0.632   9.469  0.7165 -0.2391  0.9380
  252TMC3    O2 3831   2.690   1.064   9.081  0.1934 -0.6864 -0.1831
  253MPD2     C 3832   3.720   4.534  15.019  0.8820 -0.0149  0.1792
  253MPD2    C1 3833   3.599   4.591  15.057  0.3721 -0.1750 -0.0301
  253MPD2    C2 3834   3.564   4.606  15.192  0.2777 -0.4678 -0.0498
  253MPD2    C3 3835   3.650   4.577  15.292  0.2990  0.2195  0.1530
  253MPD2    C4 3836   3.775   4.528  15.250  0.7175 -0.5358 -0.3035
  253MPD2    C5 3837   3.804   4.506  15.123 -0.3578 -0.2887 -0.1941
  253MPD2     H 3838   3.466   4.644  15.218 -0.1326 -1.7213  0.1961
  253MPD2    H1 3839   3.853   4.506  15.322 -0.0894 -0.6584  0.5273
  253MPD2    H2 3840   3.735   4.528  14.912  0.3757  0.5676  0.0755
  253MPD2    H3 3841   3.906   4.486  15.094  0.2778 -1.1147  2.6102
  253MPD2     N 3842   3.624   4.596  15.426 -0.2495 -0.6648  0.4564
  253MPD2    H5 3843   3.708   4.575  15.478 -0.8198  0.8456  2.0147
  253MPD2    N1 3844   3.495   4.623  14.961  0.2623  0.5722  0.1999
  253MPD2    H7 3845   3.414   4.677  14.988 -1.8451 -1.6820 -1.6463
  254TMC3    C1 3846   3.506   4.658  15.618  0.2107  0.3000 -0.1029
  254TMC3    C2 3847   3.399   0.005  15.674 -0.7178  0.2368  0.0781
  254TMC3    C3 3848   3.369   4.708  15.803  0.3419  0.5976 -0.6943
  254TMC3    C4 3849   3.598   4.592  15.697 -0.4815  0.3431 -0.6759
  254TMC3    C5 3850   3.559   4.583  15.829  0.2113  0.3792  0.1471
  254TMC3    C6 3851   3.442   4.626  15.886 -0.5407 -0.7715 -0.5323
  254TMC3     C 3852   3.511   4.660  15.478  0.0627  0.1777 -0.5163
  254TMC3     O 3853   3.416   4.711  15.423 -0.1278 -0.3489  0.1793
  254TMC3     H 3854   3.331   0.063  15.612 -1.1506  1.2569  1.5233
  254TMC3    H1 3855   3.683   4.538  15.657 -0.7035  0.5982 -1.4795
  254TMC3    H2 3856   3.416   4.617  15.992  0.2461  0.6468 -0.2287
  254TMC3    C7 3857   3.636   4.492  15.909 -0.1350 -0.2826 -0.4560
  254TMC3    C8 3858   3.239   0.032  15.861  0.7723  0.2730  0.0702
  254TMC3    O1 3859   3.573   4.427  15.994  0.1098 -0.3698 -0.0707
  254TMC3    O2 3860   3.191   4.667  15.933  0.7512 -0.0789  0.5022
  255MPD2     C 3861   2.047   1.461   9.708  0.5164 -0.3430  0.4546
  255MPD2    C1 3862   2.136   1.511   9.800 -0.1790  0.5729 -0.6940
  255MPD2    C2 3863   2.222   1.421   9.856 -0.0924 -0.5195 -0.1372
  255MPD2    C3 3864   2.221   1.286   9.834 -0.4668  0.0254  0.2823
  255MPD2    C4 3865   2.126   1.237   9.749 -0.2839 -0.2939 -0.7073
  255MPD2    C5 3866   2.048   1.324   9.687  0.6540 -0.1027 -0.5532
  255MPD2     H 3867   2.298   1.454   9.926 -0.6989  0.3621  0.1063
  255MPD2    H1 3868   2.114   1.130   9.744 -2.5806 -0.1821  2.2245
  255MPD2    H2 3869   1.973   1.525   9.661 -0.0656 -0.9888  0.4935
  255MPD2    H3 3870   1.974   1.275   9.626 -1.3001 -1.6553  3.0754
  255MPD2     N 3871   2.313   1.197   9.897  0.1919  0.5571  0.0194
  255MPD2    H5 3872   2.282   1.101   9.892 -0.3068  0.7031  0.2740
  255MPD2    N1 3873   2.133   1.653   9.828 -0.2025 -0.3676  0.1049
  255MPD2    H7 3874   2.068   1.711   9.777  0.5132 -0.7459 -1.2280
  256TMC3    C1 3875   2.223   1.861   9.896  0.1183 -0.2766 -0.3782
  256TMC3    C2 3876   2.339   1.925   9.913  0.1701 -0.0851  0.0445
  256TMC3    C3 3877   2.349   2.056   9.867 -0.1108  0.3254  0.5015
  256TMC3    C4 3878   2.110   1.928   9.853 -0.6565  0.0313  0.2967
  256TMC3    C5 3879   2.122   2.057   9.814 -0.0198 -0.6427 -0.3346
  256TMC3    C6 3880   2.238   2.133   9.830  0.6252  0.0373  0.1778
  256TMC3     C 3881   2.215   1.721   9.917 -0.3224 -0.0156  0.1098
  256TMC3     O 3882   2.299   1.684   9.998 -0.3220 -0.2244  0.0744
  256TMC3     H 3883   2.427   1.873   9.951 -0.6967 -1.7119 -0.1926
  256TMC3    H1 3884   2.021   1.869   9.838 -0.1497 -1.1638  1.9900
  256TMC3    H2 3885   2.242   2.236   9.798  5.9752 -0.3235 -0.2894
  256TMC3    C7 3886   2.008   2.115   9.749  0.5362  1.0490 -0.6345
  256TMC3    C8 3887   2.479   2.126   9.854  0.1541  0.3937 -0.2703
  256TMC3    O1 3888   2.037   2.203   9.670 -0.7783 -0.6719  0.2493
  256TMC3    O2 3889   2.574   2.058   9.829 -0.3023 -0.2080 -1.0834
  257MPD2     C 3890   1.222   0.040  13.071  0.7130  0.5016  0.4387
  257MPD2    C1 3891   1.250   4.672  12.970 -0.8325 -0.3448 -0.1606
  257MPD2    C2 3892   1.247   4.540  12.999  0.2812 -0.1406  0.5088
  257MPD2    C3 3893   1.193   4.495  13.116  0.6871 -0.2300 -1.2380
  257MPD2    C4 3894   1.148   4.587  13.210  1.0318 -0.5188  0.8093
  257MPD2    C5 3895   1.186   4.720  13.194  0.1332  0.3180  0.2510
  257MPD2     H 3896   1.286   4.455  12.945 -2.3567 -1.6383  0.9830
  257MPD2    H1 3897   1.097   4.557  13.301 -1.1166 -0.1120 -0.2725
  257MPD2    H2 3898   1.228   0.147  13.053 -0.1197  0.7968  1.8974
  257MPD2    H3 3899   1.157   0.078  13.263  0.8937  1.3348 -0.6045
  257MPD2     N 3900   1.169   4.360  13.133 -0.3657 -0.2201  0.0879
  257MPD2    H5 3901   1.203   4.308  13.053 -0.6616 -1.9808  1.0951
  257MPD2    N1 3902   1.273   4.713  12.841  0.1046  0.6904 -0.4432
  257MPD2    H7 3903   1.271   0.094  12.835  0.7367  0.6839 -0.7918
  258TMC3    C1 3904   1.147   4.158  13.251  1.0137 -0.1046  0.8714
  258TMC3    C2 3905   1.124   4.088  13.133  0.6888  0.4518 -0.1319
  258TMC3    C3 3906   1.139   3.953  13.144  0.5111 -0.1656  0.4467
  258TMC3    C4 3907   1.188   4.100  13.366 -0.1192 -0.0372 -1.0201
  258TMC3    C5 3908   1.210   3.963  13.368 -0.3228  0.6309 -0.0361
  258TMC3    C6 3909   1.186   3.891  13.256 -1.0556 -0.1640 -0.2120
  258TMC3     C 3910   1.137   4.299  13.250  0.4907  0.9608  0.6233
  258TMC3     O 3911   1.114   4.343  13.360 -0.3734 -0.6459  0.1917
  258TMC3     H 3912   1.087   4.137  13.044  1.2227  0.4719 -0.3421
  258TMC3    H1 3913   1.220   4.149  13.458  0.3137 -0.7061 -0.8143
  258TMC3    H2 3914   1.205   3.785  13.266  1.9804  0.2529 -1.5034
  258TMC3    C7 3915   1.269   3.912  13.487 -0.2912  0.1769 -0.5813
  258TMC3    C8 3916   1.107   3.867  13.038  0.0720 -0.5587 -0.5907
  258TMC3    O1 3917   1.368   3.845  13.457 -0.2562 -0.5742 -0.5430
  258TMC3    O2 3918   1.065   3.754  13.059  0.1524 -0.1349 -0.0916
  259MPD2     C 3919   0.007   1.415   0.811  0.2227 -0.1059  0.6903
  259MPD2    C1 3920   0.020   1.280   0.772 -0.0922 -0.2356  0.2244
  259MPD2    C2 3921   0.106   1.236   0.672 -0.3910 -0.1432  0.1056
  259MPD2    C3 3922   0.192   1.336   0.620 -0.1595  0.6726  0.3529
  259MPD2    C4 3923   0.185   1.468   0.667  0.3654 -1.3906 -0.0144
  259MPD2    C5 3924   0.089   1.509   0.757 -0.5459  0.6404  0.5670
  259MPD2     H 3925   0.099   1.133   0.639 -2.0574  0.0679 -0.2318
  259MPD2    H1 3926   0.240   1.553   0.629 -0.3426 -0.3108  1.3903
  259MPD2    H2 3927   4.645   1.450   0.872 -1.8621 -2.8831 -0.5227
  259MPD2    H3 3928   0.076   1.615   0.777 -4.1138  0.0049  1.6610
  259MPD2     N 3929   0.290   1.291   0.519 -0.3118  0.2408  0.0196
  259MPD2    H5 3930   0.296   1.192   0.501  1.4580  0.7592 -2.2584
  259MPD2    N1 3931   4.658   1.198   0.847 -0.6705 -0.0484 -0.2988
  259MPD2    H7 3932   4.595   1.242   0.914  0.6712  0.7095  0.4571
  260TMC3    C1 3933   0.485   1.313   0.381  0.4494  0.9655 -0.4434
  260TMC3    C2 3934   0.602   1.376   0.369 -0.1043  0.3329  0.1772
  260TMC3    C3 3935   0.694   1.321   0.284 -0.6570  0.5023  0.0184
  260TMC3    C4 3936   0.448   1.221   0.289  0.3469  0.3083 -0.7501
  260TMC3    C5 3937   0.541   1.162   0.211 -0.1765 -0.0755  0.2759
  260TMC3    C6 3938   0.669   1.209   0.209 -0.0576  0.2293 -0.3691
  260TMC3     C 3939   0.379   1.378   0.458  0.4264  0.0767  0.1318
  260TMC3     O 3940   0.408   1.494   0.493  0.4616 -0.5172 -0.3730
  260TMC3     H 3941   0.629   1.451   0.441 -1.5589 -0.7301  1.8318
  260TMC3    H1 3942   0.349   1.178   0.286  0.5486 -0.3271  1.8531
  260TMC3    H2 3943   0.741   1.163   0.142 -0.8779 -1.6368  0.0474
  260TMC3    C7 3944   0.501   1.057   0.120  0.1182 -0.1926  0.1874
  260TMC3    C8 3945   0.822   1.387   0.278 -0.2169  0.9857 -0.5517
  260TMC3    O1 3946   0.592   0.981   0.095  0.3738 -0.6782  0.2444
  260TMC3    O2 3947   0.827   1.495   0.335  0.1240  0.0232  0.2320
  261MPD2     C 3948   1.751   4.234  12.771 -0.4331 -0.7853 -0.1573
  261MPD2    C1 3949   1.887   4.206  12.796  0.2567  0.4274 -0.2716
  261MPD2    C2 3950   1.978   4.236  12.704  0.0063  0.0833  0.6976
  261MPD2    C3 3951   1.938   4.275  12.580 -0.2185  0.7767 -0.0838
  261MPD2    C4 3952   1.802   4.303  12.556  1.0464  0.6840 -0.2053
  261MPD2    C5 3953   1.707   4.281  12.652  0.1694  0.2527  0.6148
  261MPD2     H 3954   2.083   4.210  12.713 -0.0634 -0.0071  1.2520
  261MPD2    H1 3955   1.766   4.329  12.458 -0.8253  1.6872  0.7443
  261MPD2    H2 3956   1.677   4.215  12.848 -0.5785  2.4580  0.5200
  261MPD2    H3 3957   1.600   4.290  12.634 -0.1179 -3.3732  0.5103
  261MPD2     N 3958   2.052   4.289  12.493  0.4078 -0.3985  0.0414
  261MPD2    H5 3959   2.136   4.246  12.530  0.8865 -0.8745 -1.6090
  261MPD2    N1 3960   1.949   4.152  12.912 -0.9498 -1.1483 -0.1169
  261MPD2    H7 3961   2.050   4.147  12.922 -0.7275  1.3138 -1.3205
  262TMC3    C1 3962   2.183   4.395  12.333  0.4289 -0.2240 -0.5715
  262TMC3    C2 3963   2.186   4.511  12.249  0.2293  0.2945 -0.4422
  262TMC3    C3 3964   2.267   4.507  12.136  0.5588  0.0309  0.4231
  262TMC3    C4 3965   2.259   4.288  12.298  0.3737 -0.0092  0.3734
  262TMC3    C5 3966   2.331   4.286  12.182  0.1141  0.1147  0.0997
  262TMC3    C6 3967   2.344   4.395  12.102  0.1351 -0.0809 -0.8807
  262TMC3     C 3968   2.046   4.367  12.375  0.1557 -0.2270 -0.1686
  262TMC3     O 3969   1.958   4.438  12.328 -0.3732 -0.0266  0.1461
  262TMC3     H 3970   2.115   4.588  12.277 -0.9956 -0.3366 -1.8080
  262TMC3    H1 3971   2.251   4.196  12.356 -0.8513  0.5112  1.0310
  262TMC3    H2 3972   2.406   4.406  12.015  0.2395 -1.1311 -0.9344
  262TMC3    C7 3973   2.373   4.156  12.136 -0.6406  0.0605 -0.4679
  262TMC3    C8 3974   2.238   4.616  12.042  0.2901  0.3555 -0.2136
  262TMC3    O1 3975   2.383   4.068  12.222  0.2766  0.4698  0.0780
  262TMC3    O2 3976   2.325   4.643  11.966  0.8614  0.2153  0.1246
  263MPD2     C 3977   3.346   3.469  11.220 -0.0577 -0.5950  0.2044
  263MPD2    C1 3978   3.373   3.604  11.247 -0.4414  0.1202 -0.3715
  263MPD2    C2 3979   3.333   3.702  11.160 -0.1169  0.2784  0.3517
  263MPD2    C3 3980   3.278   3.673  11.035 -0.5463 -0.3844 -0.5155
  263MPD2    C4 3981   3.268   3.540  10.996  0.9564 -0.0128  0.0363
  263MPD2    C5 3982   3.287   3.445  11.097  0.1765 -0.0861 -0.4146
  263MPD2     H 3983   3.341   3.808  11.183 -0.3583  0.1650  0.9702
  263MPD2    H1 3984   3.229   3.506  10.901 -0.6653  1.0762  0.3029
  263MPD2    H2 3985   3.363   3.380  11.279 -2.1590 -1.5216 -0.6126
  263MPD2    H3 3986   3.262   3.343  11.071  0.4058 -0.4809  0.9363
  263MPD2     N 3987   3.246   3.782  10.951 -0.1426 -0.0295 -0.0201
  263MPD2    H5 3988   3.271   3.870  10.994  2.5885 -1.0206  0.4577
  263MPD2    N1 3989   3.444   3.614  11.365 -0.0358 -0.0373 -0.8599
  263MPD2    H7 3990   3.461   3.530  11.420 -2.7466  0.0746  0.1536
  264TMC3    C1 3991   3.244   3.917  10.756  0.4402  0.3334  0.1051
  264TMC3    C2 3992   3.201   4.024  10.826 -0.0983 -0.0310  0.1661
  264TMC3    C3 3993   3.183   4.141  10.763  0.3033  0.6066  0.7310
  264TMC3    C4 3994   3.283   3.929  10.626 -0.6215 -0.4359  0.0342
  264TMC3    C5 3995   3.274   4.047  10.561 -0.1971 -0.0361  0.2967
  264TMC3    C6 3996   3.217   4.154  10.626  0.5260 -0.1871 -0.4931
  264TMC3     C 3997   3.232   3.781  10.813 -0.4076 -0.6805 -0.0141
  264TMC3     O 3998   3.233   3.684  10.736  0.5193 -0.4316 -0.0959
  264TMC3     H 3999   3.170   4.005  10.929 -1.9982 -0.1112 -0.4194
  264TMC3    H1 4000   3.332   3.842  10.583 -0.4066  1.8588 -4.4309
  264TMC3    H2 4001   3.196   4.253  10.586 -1.6223  0.1473  1.4198
  264TMC3    C7 4002   3.407   4.078  10.499  0.6478  0.2564  0.5993
  264TMC3    C8 4003   3.185   4.267  10.837 -0.3218 -0.3521  0.0578
  264TMC3    O1 4004   3.477   3.989  10.464  0.1007  0.5236  0.8664
  264TMC3    O2 4005   3.207   4.367  10.767  0.3626  0.1497 -0.3674
  265MPD2     C 4006   0.653   4.117  15.450  0.1912 -0.0622  0.0595
  265MPD2    C1 4007   0.592   4.230  15.403  0.6636  0.3801 -0.1249
  265MPD2    C2 4008   0.575   4.228  15.262 -0.0388 -0.4211 -0.0961
  265MPD2    C3 4009   0.596   4.110  15.186 -0.6534 -0.2309 -0.4335
  265MPD2    C4 4010   0.659   4.007  15.241  0.5800 -0.1734  0.5689
  265MPD2    C5 4011   0.685   4.010  15.370 -0.3068 -0.3935 -0.1614
  265MPD2     H 4012   0.522   4.312  15.218 -0.8425  0.3290  2.2964
  265MPD2    H1 4013   0.676   3.917  15.181  4.7925  0.3687  0.9531
  265MPD2    H2 4014   0.691   4.115  15.551  0.8063 -1.2505 -0.1971
  265MPD2    H3 4015   0.724   3.918  15.412 -1.0556 -0.0884  1.2115
  265MPD2     N 4016   0.559   4.100  15.046  0.5551 -0.3586 -0.7117
  265MPD2    H5 4017   0.583   4.014  14.996  0.3391  0.3908 -2.0971
  265MPD2    N1 4018   0.531   4.328  15.487 -0.9959 -0.7118 -0.5233
  265MPD2    H7 4019   0.495   4.405  15.431 -2.7618  0.0196  1.5809
  266TMC3    C1 4020   0.432   4.417  15.684 -0.5363 -0.3478 -0.5609
  266TMC3    C2 4021   0.445   4.421  15.816 -0.2762  0.4429  0.3505
  266TMC3    C3 4022   0.400   4.534  15.881  0.0158 -0.1796 -0.3468
  266TMC3    C4 4023   0.386   4.527  15.612  0.0329 -0.5930  0.5429
  266TMC3    C5 4024   0.355   4.647  15.681  0.2884  0.0957 -0.3138
  266TMC3    C6 4025   0.363   4.649  15.814  0.3979 -0.8512 -0.2494
  266TMC3     C 4026   0.515   4.317  15.623  0.0538 -0.2954  0.2138
  266TMC3     O 4027   0.557   4.229  15.693 -0.0020 -0.7782 -0.3245
  266TMC3     H 4028   0.487   4.337  15.870  0.8424  1.0472  0.4446
  266TMC3    H1 4029   0.371   4.523  15.505 -1.1593 -1.2020  0.7413
  266TMC3    H2 4030   0.321   0.012  15.867  2.4697  1.0256 -1.6123
  266TMC3    C7 4031   0.328   0.047  15.603 -0.4738 -0.0524  0.3407
  266TMC3    C8 4032   0.478   4.560  16.000 -0.0670  0.1329 -0.3778
  266TMC3    O1 4033   0.275   0.024  15.492 -0.1018  0.3883  0.2400
  266TMC3    O2 4034   0.562   4.477  16.031 -0.4585 -0.7259 -0.3969
  267MPD2     C 4035   2.097   1.703   0.242  0.3759  0.2869 -1.1340
  267MPD2    C1 4036   2.019   1.598   0.215  0.4192  0.6337 -0.3068
  267MPD2    C2 4037   1.890   1.627   0.162  0.1610  0.8620  0.4473
  267MPD2    C3 4038   1.863   1.758   0.116 -0.5968 -0.2507  0.3084
  267MPD2    C4 4039   1.957   1.855   0.136  0.6280  0.1581  0.1617
  267MPD2    C5 4040   2.077   1.831   0.204  0.6777  0.1318  0.4204
  267MPD2     H 4041   1.824   1.548   0.129 -0.8532  1.6977  0.4856
  267MPD2    H1 4042   1.933   1.955   0.101  0.4789  1.0019  2.7228
  267MPD2    H2 4043   2.195   1.686   0.287 -0.2799  0.5573  0.4217
  267MPD2    H3 4044   2.145   1.914   0.219 -1.0131  1.4083  1.0460
  267MPD2     N 4045   1.756   1.783   0.024  0.0175  0.1430 -0.0315
  267MPD2    H5 4046   1.760   1.863  17.649 -0.8358  0.2665  0.0813
  267MPD2    N1 4047   2.089   1.475   0.216  0.7424  0.4348  0.4960
  267MPD2    H7 4048   2.187   1.478   0.239  1.2881  3.3021 -2.1361
  268TMC3    C1 4049   2.122   1.243   0.180  0.0719 -0.3381 -0.5019
  268TMC3    C2 4050   2.099   1.163   0.081 -0.2071 -0.8813 -0.1248
  268TMC3    C3 4051   2.157   1.043   0.081 -0.1861 -0.1976  0.6651
  268TMC3    C4 4052   2.206   1.211   0.283  0.3257 -0.3446  0.1068
  268TMC3    C5 4053   2.258   1.087   0.285  1.3171 -0.4267  0.2063
  268TMC3    C6 4054   2.237   0.997   0.185  0.4156  0.9140 -0.7597
  268TMC3     C 4055   2.029   1.356   0.184 -0.5146  0.6129 -0.6443
  268TMC3     O 4056   1.911   1.332   0.172 -0.0500  0.2957  0.5086
  268TMC3     H 4057   2.021   1.191   0.010  0.5694  1.3227 -0.1109
  268TMC3    H1 4058   2.231   1.285   0.358  0.9033 -0.7442  0.3091
  268TMC3    H2 4059   2.278   0.897   0.187 -0.1386  0.7117  0.3529
  268TMC3    C7 4060   2.307   1.030   0.414 -0.5772 -0.7876 -0.3103
  268TMC3    C8 4061   2.136   0.963  17.651  0.8125 -0.1883 -0.8915
  268TMC3    O1 4062   2.330   0.908   0.425 -0.3869 -0.3313  0.1820
  268TMC3    O2 4063   2.099   0.846  17.659 -0.5211  0.3399  0.4283
  269MPD2     C 4064   2.605   0.097  15.330  0.6003  0.5683 -0.5963
  269MPD2    C1 4065   2.487   0.144  15.376 -0.2305 -0.9689 -1.3271
  269MPD2    C2 4066   2.472   0.282  15.372 -0.1376  0.4052  0.0524
  269MPD2    C3 4067   2.554   0.362  15.292 -0.6378  0.1976  0.1127
  269MPD2    C4 4068   2.664   0.304  15.234  0.1890  0.5499  0.0373
  269MPD2    C5 4069   2.684   0.172  15.253 -0.0106 -0.1884  0.2403
  269MPD2     H 4070   2.392   0.318  15.436 -0.6161  0.5390 -0.6208
  269MPD2    H1 4071   2.739   0.352  15.171  0.0898 -3.0770 -2.8175
  269MPD2    H2 4072   2.629   4.715  15.351  2.0156  1.2490  1.1007
  269MPD2    H3 4073   2.780   0.134  15.223  1.2020  0.2587  3.5566
  269MPD2     N 4074   2.521   0.495  15.284  0.5927  0.2524  0.2890
  269MPD2    H5 4075   2.431   0.520  15.325  0.7750  2.2818 -0.5509
  269MPD2    N1 4076   2.408   0.059  15.461 -0.1821 -0.0387  0.1522
  269MPD2    H7 4077   2.427   4.682  15.479 -1.7050  0.1808  2.7670
  270TMC3    C1 4078   2.211   4.704  15.582  1.0620  0.1619 -0.3374
  270TMC3    C2 4079   2.075   4.698  15.550 -0.1500  0.4945  0.3228
  270TMC3    C3 4080   2.014   4.576  15.567  0.7278 -0.0630 -1.0021
  270TMC3    C4 4081   2.283   4.600  15.628  0.0426 -0.2266 -0.2192
  270TMC3    C5 4082   2.218   4.483  15.650 -0.6875 -0.1571  0.3654
  270TMC3    C6 4083   2.086   4.464  15.618 -0.4625 -0.2344 -0.5026
  270TMC3     C 4084   2.290   0.097  15.514  0.0931 -0.5791  0.3099
  270TMC3     O 4085   2.227   0.201  15.505 -0.3106  0.5692 -0.4206
  270TMC3     H 4086   2.019   0.064  15.518  0.2232  0.7307  0.2986
  270TMC3    H1 4087   2.387   4.616  15.656  0.6594 -3.2364 -0.6882
  270TMC3    H2 4088   2.056   4.361  15.603 -0.2384 -0.2161 -1.0780
  270TMC3    C7 4089   2.297   4.373  15.706  0.3228  0.3990  0.2294
  270TMC3    C8 4090   1.927   4.543  15.463  0.2691  0.8741  0.5715
  270TMC3    O1 4091   2.404   4.412  15.752  0.0163 -0.2436 -0.3587
  270TMC3    O2 4092   1.813   4.596  15.470 -0.1576 -0.0699  0.0299
  271MPD2     C 4093   1.805   4.495  13.788  1.3669  0.5000 -0.0305
  271MPD2    C1 4094   1.694   4.476  13.868 -0.5040  0.3072 -0.1833
  271MPD2    C2 4095   1.570   4.528  13.824  0.2692 -0.0343 -0.2834
  271MPD2    C3 4096   1.562   4.585  13.698 -0.0636  0.4174  0.2015
  271MPD2    C4 4097   1.674   4.613  13.625 -0.2690 -0.4751 -0.5108
  271MPD2    C5 4098   1.795   4.571  13.674  0.7630  0.2917 -0.8867
  271MPD2     H 4099   1.484   4.515  13.888 -1.1930  1.6919 -1.9315
  271MPD2    H1 4100   1.658   4.677  13.539  1.1499 -0.7056 -0.9468
  271MPD2    H2 4101   1.893   4.442  13.823  0.5625 -0.0451  1.1758
  271MPD2    H3 4102   1.886   4.584  13.615  0.6115 -0.8384 -1.3728
  271MPD2     N 4103   1.445   4.634  13.633  0.0660 -0.4411 -0.2043
  271MPD2    H5 4104   1.455   4.672  13.540  2.5768 -2.3302 -0.7059
  271MPD2    N1 4105   1.701   4.405  13.990  0.4545 -0.3685  0.3930
  271MPD2    H7 4106   1.616   4.400  14.046 -0.0397  2.6771 -0.0854
  272TMC3    C1 4107   1.783   4.274  14.174  0.4228 -0.4130 -0.3784
  272TMC3    C2 4108   1.864   4.166  14.212 -0.2475 -0.7834  0.2929
  272TMC3    C3 4109   1.906   4.158  14.344 -0.7307  0.0362  0.0114
  272TMC3    C4 4110   1.740   4.364  14.270 -0.5207  0.4166  0.3644
  272TMC3    C5 4111   1.779   4.347  14.398  0.1430  0.1427  0.3545
  272TMC3    C6 4112   1.869   4.248  14.441  0.0519 -0.0092 -0.0145
  272TMC3     C 4113   1.810   4.329  14.046  0.3505 -0.1705  0.2839
  272TMC3     O 4114   1.922   4.321  13.999 -0.1775 -0.5584  0.7830
  272TMC3     H 4115   1.922   4.109  14.140  1.7095 -0.3001  1.4982
  272TMC3    H1 4116   1.690   4.457  14.246 -1.8486 -0.5738 -0.7396
  272TMC3    H2 4117   1.882   4.226  14.546 -1.3623  1.6937  0.5070
  272TMC3    C7 4118   1.731   4.444  14.490 -0.4409 -0.6314 -0.2498
  272TMC3    C8 4119   2.040   4.108  14.345 -0.1876  0.4660  0.1305
  272TMC3    O1 4120   1.615   4.482  14.472  0.5338 -0.4994  0.3096
  272TMC3    O2 4121   2.107   4.152  14.251  0.1236 -0.0556 -0.7137
  273MPD2     C 4122   4.287   2.570  11.555 -0.2184 -0.0098  0.0597
  273MPD2    C1 4123   4.319   2.702  11.519 -0.9782 -0.0294  0.8563
  273MPD2    C2 4124   4.269   2.772  11.413 -0.8484  0.6121  0.4514
  273MPD2    C3 4125   4.172   2.700  11.339 -0.6108 -0.2345  0.0604
  273MPD2    C4 4126   4.143   2.567  11.372  0.0775 -0.6765  0.2701
  273MPD2    C5 4127   4.204   2.495  11.469 -0.2748 -0.7163 -0.7988
  273MPD2     H 4128   4.292   2.877  11.399 -0.8833  0.4430 -0.9053
  273MPD2    H1 4129   4.070   2.510  11.316  0.7744  0.1626 -1.4883
  273MPD2    H2 4130   4.339   2.514  11.632  1.3908  1.2672 -0.1077
  273MPD2    H3 4131   4.192   2.389  11.483 -0.6209 -0.5318  0.2858
  273MPD2     N 4132   4.099   2.758  11.233 -0.4987 -0.0074 -0.2028
  273MPD2    H5 4133   4.067   2.696  11.160 -1.2308 -1.8430  1.6903
  273MPD2    N1 4134   4.397   2.774  11.615  0.3133  0.4213  0.0768
  273MPD2    H7 4135   4.404   2.739  11.710 -1.1795 -0.2756 -0.0718
  274TMC3    C1 4136   4.008   2.937  11.101  0.9677  0.2406  0.6326
  274TMC3    C2 4137   3.921   2.850  11.038  0.2656  0.0252 -0.2111
  274TMC3    C3 4138   3.856   2.898  10.929  0.2975  0.1846  0.3166
  274TMC3    C4 4139   4.012   3.070  11.070  0.4035 -0.7825  0.3192
  274TMC3    C5 4140   3.935   3.111  10.968 -0.1672 -0.1642  0.2006
  274TMC3    C6 4141   3.863   3.029  10.886  0.6624 -0.2119 -0.9162
  274TMC3     C 4142   4.088   2.896  11.215 -0.2701  0.9227  0.1207
  274TMC3     O 4143   4.129   2.988  11.284 -0.3827  0.3112  0.0235
  274TMC3     H 4144   3.907   2.750  11.078 -1.8106  0.9721  1.4429
  274TMC3    H1 4145   4.089   3.140  11.102 -0.5475 -0.1547  1.2263
  274TMC3    H2 4146   3.800   3.069  10.807 -1.2466  0.6031  1.0524
  274TMC3    C7 4147   3.947   3.251  10.928 -0.7013 -0.0880  0.1119
  274TMC3    C8 4148   3.740   2.827  10.888 -1.2411 -0.1619  0.5856
  274TMC3    O1 4149   3.915   3.287  10.811 -0.2510 -0.4666 -0.4670
  274TMC3    O2 4150   3.703   2.739  10.964  0.3143 -0.1047 -0.9007
  275MPD2     C 4151   3.424   0.335  14.316 -0.3717  0.6088  1.4400
  275MPD2    C1 4152   3.346   0.448  14.311 -0.0112 -0.5959  0.4273
  275MPD2    C2 4153   3.210   0.444  14.308  0.3187 -0.2427 -0.0151
  275MPD2    C3 4154   3.156   0.320  14.300  0.1265  0.0182  0.5847
  275MPD2    C4 4155   3.230   0.210  14.309 -0.1413 -0.0440  0.6692
  275MPD2    C5 4156   3.365   0.216  14.326 -0.4768  0.1583  0.6112
  275MPD2     H 4157   3.157   0.536  14.289  0.5239 -0.3334 -1.0667
  275MPD2    H1 4158   3.189   0.110  14.310 -2.9691  1.0822 -0.7473
  275MPD2    H2 4159   3.532   0.340  14.326 -0.0895 -2.2623 -0.1891
  275MPD2    H3 4160   3.429   0.128  14.326  0.1543  0.6321 -4.0616
  275MPD2     N 4161   3.015   0.303  14.289  0.1173  0.3205 -0.2971
  275MPD2    H5 4162   2.977   0.210  14.303 -1.6761  1.1854  0.5881
  275MPD2    N1 4163   3.399   0.580  14.322 -0.0556 -0.2301 -0.8219
  275MPD2    H7 4164   3.323   0.648  14.323 -0.5037 -0.7556  0.7789
  276TMC3    C1 4165   3.539   0.755  14.360  0.6690  0.7882  0.1644
  276TMC3    C2 4166   3.420   0.821  14.367  0.1837  0.8011  1.0842
  276TMC3    C3 4167   3.399   0.919  14.470 -0.4196 -0.0137  0.4013
  276TMC3    C4 4168   3.640   0.784  14.447  0.6268  0.3889 -1.0137
  276TMC3    C5 4169   3.617   0.882  14.545 -0.2226 -0.0047 -0.3349
  276TMC3    C6 4170   3.494   0.944  14.563  0.8495 -0.3683  0.6610
  276TMC3     C 4171   3.528   0.619  14.330 -0.5643 -0.5536 -0.0058
  276TMC3     O 4172   3.624   0.547  14.333 -0.2939  0.2764  0.4621
  276TMC3     H 4173   3.331   0.807  14.308  0.3764  1.3345  0.6669
  276TMC3    H1 4174   3.736   0.733  14.446 -0.5878 -1.9489  1.1487
  276TMC3    H2 4175   3.480   1.007  14.650 -1.3694 -2.6753  1.9781
  276TMC3    C7 4176   3.714   0.925  14.634  0.8120  0.1664 -0.2483
  276TMC3    C8 4177   3.271   0.885  14.533 -0.2765 -0.1884  0.0300
  276TMC3    O1 4178   3.677   0.975  14.741  0.0542  0.1471  0.2889
  276TMC3    O2 4179   3.180   0.965  14.523  0.2946  0.1427  0.0049
  277MPD2     C 4180   0.434   4.174  13.458  0.2412 -0.9467 -0.5259
  277MPD2    C1 4181   0.315   4.240  13.474 -0.0140 -0.4801  0.1460
  277MPD2    C2 4182   0.234   4.179  13.570  0.6679 -0.3513 -0.5939
  277MPD2    C3 4183   0.254   4.056  13.626 -0.0406 -0.1862  0.1994
  277MPD2    C4 4184   0.379   3.996  13.609 -0.4248  0.2634  0.3149
  277MPD2    C5 4185   0.467   4.060  13.526 -0.6591 -0.1822  0.5897
  277MPD2     H 4186   0.138   4.223  13.596  0.1224 -1.5426 -0.5628
  277MPD2    H1 4187   0.418   3.909  13.660 -2.5134 -0.0133  1.4179
  277MPD2    H2 4188   0.508   4.209  13.387  0.5374 -3.0905 -1.2749
  277MPD2    H3 4189   0.565   4.020  13.501 -1.0092  0.0719 -1.1514
  277MPD2     N 4190   0.151   3.998  13.704  0.5809  0.1700  0.5864
  277MPD2    H5 4191   0.069   4.055  13.722  0.1389 -0.2197 -0.1456
  277MPD2    N1 4192   0.275   4.357  13.398  0.5338  0.0029  0.3503
  277MPD2    H7 4193   0.351   4.409  13.357 -1.1216  0.0553 -2.6727
  278TMC3    C1 4194   0.038   3.825  13.823  0.0545 -0.6963  0.2040
  278TMC3    C2 4195   4.705   3.707  13.774 -0.5027 -0.3815  0.0581
  278TMC3    C3 4196   4.581   3.685  13.826 -0.3808 -0.0674 -0.4194
  278TMC3    C4 4197   4.701   3.904  13.918 -0.1477  0.5245  0.2360
  278TMC3    C5 4198   4.577   3.866  13.963  0.0523 -0.6228 -0.0144
  278TMC3    C6 4199   4.508   3.755  13.924 -0.1418 -0.3374 -1.1433
  278TMC3     C 4200   0.158   3.867  13.750  0.3778 -0.2315 -0.0063
  278TMC3     O 4201   0.216   3.773  13.703  0.1749 -0.6164 -0.4578
  278TMC3     H 4202   0.044   3.651  13.703  0.1930 -0.0116  0.3487
  278TMC3    H1 4203   0.038   3.990  13.946 -0.8000  0.2998  2.2657
  278TMC3    H2 4204   4.409   3.726  13.958 -0.5576  1.7727 -0.5508
  278TMC3    C7 4205   4.504   3.966  14.038 -0.1632 -0.3616 -1.0538
  278TMC3    C8 4206   4.501   3.592  13.753 -0.2692  0.0991  0.4710
  278TMC3    O1 4207   4.577   4.053  14.085 -0.2361  0.4185 -0.0914
  278TMC3    O2 4208   4.430   3.511  13.809 -0.2773 -0.3690  0.6207
  279MPD2     C 4209   3.940   3.807   0.145  0.6931 -0.2119  0.1578
  279MPD2    C1 4210   3.889   3.908   0.064 -0.0977 -0.1176 -0.5350
  279MPD2    C2 4211   3.982   3.998   0.014  0.0068 -0.0222  0.4461
  279MPD2    C3 4212   4.118   3.981   0.039  0.8645 -0.2230  0.2805
  279MPD2    C4 4213   4.158   3.897   0.144 -0.1199 -0.0489 -0.2736
  279MPD2    C5 4214   4.068   3.806   0.193  0.5695 -0.4771  1.3679
  279MPD2     H 4215   3.962   4.069  17.622  1.2700 -0.3784 -0.1978
  279MPD2    H1 4216   4.259   3.883   0.178  0.3179 -0.9393 -1.9012
  279MPD2    H2 4217   3.871   3.731   0.180 -0.5143  1.0298  0.4954
  279MPD2    H3 4218   4.095   3.729   0.264 -1.4437 -2.7054 -0.3299
  279MPD2     N 4219   4.213   4.069  17.664 -0.2253 -0.2569 -0.1546
  279MPD2    H5 4220   4.295   4.084   0.035 -1.4188  2.9060  0.7207
  279MPD2    N1 4221   3.750   3.918   0.031 -0.3483  0.6226 -0.0967
  279MPD2    H7 4222   3.725   3.986  17.647 -0.2538  0.7683  0.0118
  280TMC3    C1 4223   3.531   3.873   0.002  1.0433 -0.7239 -0.6750
  280TMC3    C2 4224   3.425   3.892   0.085  0.7989  0.2733 -0.0719
  280TMC3    C3 4225   3.336   3.992   0.052 -0.4812 -0.1636  0.5076
  280TMC3    C4 4226   3.544   3.944  17.569  0.0779 -0.0898  0.1427
  280TMC3    C5 4227   3.454   4.043  17.541  0.3383  0.2192  0.0284
  280TMC3    C6 4228   3.349   4.071  17.627 -0.5519 -0.6241  0.8344
  280TMC3     C 4229   3.652   3.840   0.075  0.0485  0.6905  0.4518
  280TMC3     O 4230   3.648   3.770   0.175  0.0038  0.0113 -0.5445
  280TMC3     H 4231   3.423   3.839   0.179  0.9794 -1.5853 -1.1157
  280TMC3    H1 4232   3.630   3.928  17.505  1.2789  3.0154  0.9929
  280TMC3    H2 4233   3.278   4.151  17.611 -0.6223 -0.6327  1.0901
  280TMC3    C7 4234   3.523   4.164  17.497 -0.1246  0.0939 -0.4992
  280TMC3    C8 4235   3.244   4.033   0.157  0.2629  0.1435  1.1785
  280TMC3    O1 4236   3.641   4.168  17.528  0.1522  0.1906 -0.2786
  280TMC3    O2 4237   3.177   4.133   0.128 -0.1734 -0.1228  0.1084
  281TMC3    C1 4238   3.316   4.440  13.161 -0.3643 -0.5945 -1.1695
  281TMC3    C2 4239   3.337   4.529  13.063 -0.3726  0.5845  0.2607
  281TMC3    C3 4240   3.378   4.484  12.938 -0.1559 -0.2385 -0.5388
  281TMC3    C4 4241   3.325   4.311  13.145 -0.5192 -0.1327  0.2327
  281TMC3    C5 4242   3.361   4.267  13.022 -0.1009 -0.5935  0.5946
  281TMC3    C6 4243   3.398   4.351  12.917 -0.2059  0.4522 -0.3307
  281TMC3     C 4244   3.253   4.490  13.283  0.0905 -0.4129 -0.2877
  281TMC3     O 4245   3.275   4.430  13.389  0.3126  0.2255 -0.0491
  281TMC3     H 4246   3.323   4.636  13.080  0.8920  0.7119  0.4952
  281TMC3    H1 4247   3.307   4.233  13.218 -0.4717 -0.0732  0.3064
  281TMC3    H2 4248   3.429   4.313  12.821 -0.9787 -1.8865  0.3438
  281TMC3    C7 4249   3.282   4.155  12.967 -0.2338 -0.4573  0.3132
  281TMC3    C8 4250   3.304   4.563  12.840  0.3759 -0.0674  0.8022
  281TMC3    O1 4251   3.262   4.158  12.848  0.4983 -0.2948 -0.5410
  281TMC3    O2 4252   3.192   4.518  12.817  0.1208  0.4302  0.4400
  282MPD2     C 4253   0.324   1.380  15.148  0.2492 -0.9708 -0.6319
  282MPD2    C1 4254   0.189   1.367  15.184  0.1741 -0.0474  0.1934
  282MPD2    C2 4255   0.088   1.363  15.082 -0.5305  0.4419  1.2855
  282MPD2    C3 4256   0.129   1.364  14.947  0.3212  0.2532 -0.8153
  282MPD2    C4 4257   0.258   1.384  14.918  0.1958 -0.1505  0.7970
  282MPD2    C5 4258   0.356   1.390  15.019  0.1374  0.1811  0.8291
  282MPD2     H 4259   4.705   1.336  15.097 -0.5485  1.4409  2.9194
  282MPD2    H1 4260   0.296   1.399  14.818 -0.8404 -3.0022 -0.0367
  282MPD2    H2 4261   0.407   1.390  15.217 -1.3405 -0.7998  1.2510
  282MPD2    H3 4262   0.462   1.403  14.999 -0.2565  1.8001 -0.1401
  282MPD2     N 4263   0.028   1.363  14.843 -0.8802 -0.3754 -0.2973
  282MPD2    H5 4264   4.653   1.351  14.871 -1.1036 -0.4229 -1.0952
  282MPD2    N1 4265   0.146   1.350  15.320 -0.3057 -0.4190 -0.2410
  282MPD2    H7 4266   0.050   1.335  15.349 -0.5474  1.3708 -0.0942
  283TMC3    C1 4267   0.146   1.367  15.536 -1.0182 -0.6028  0.1658
  283TMC3    C2 4268   0.147   1.493  15.600  0.4163  0.1028  0.7163
  283TMC3    C3 4269   0.035   1.526  15.676 -0.0171 -0.4700  0.0061
  283TMC3    C4 4270   0.049   1.274  15.558 -0.2873 -0.2645 -0.5535
  283TMC3    C5 4271   4.676   1.311  15.647 -0.5378 -0.8384  0.3663
  283TMC3    C6 4272   4.668   1.426  15.716  0.1310  0.0573 -0.1373
  283TMC3     C 4273   0.230   1.362  15.421 -0.6726 -0.4163  0.4536
  283TMC3     O 4274   0.346   1.394  15.440  0.5750 -0.0542 -0.4720
  283TMC3     H 4275   0.220   1.567  15.571 -2.5010  2.1931 -1.2819
  283TMC3    H1 4276   0.050   1.176  15.511  4.1982 -0.6125  0.3044
  283TMC3    H2 4277   4.582   1.450  15.778  0.0106 -0.5019 -0.0823
  283TMC3    C7 4278   4.575   1.202  15.677  0.4752  0.1344  0.1776
  283TMC3    C8 4279   0.032   1.647  15.758 -0.5066  0.0176 -0.7820
  283TMC3    O1 4280   4.559   1.171  15.792 -0.0550  0.3884  0.4134
  283TMC3    O2 4281   0.006   1.625  15.874 -0.0885 -0.1861  0.6682
  284MPD2     C 4282   3.326   0.781  12.051 -0.0406 -0.5338  0.1876
  284MPD2    C1 4283   3.251   0.723  11.953 -0.3178  0.5024  0.3107
  284MPD2    C2 4284   3.194   0.602  11.975 -0.0889  0.5375 -0.1098
  284MPD2    C3 4285   3.208   0.537  12.098  0.0681  0.0040  0.7084
  284MPD2    C4 4286   3.284   0.596  12.199 -0.2363  0.0914  0.0129
  284MPD2    C5 4287   3.343   0.720  12.171 -0.5824 -0.4056  0.1877
  284MPD2     H 4288   3.135   0.547  11.903 -0.7723 -1.2079  1.7869
  284MPD2    H1 4289   3.297   0.556  12.299 -2.5683  1.1781  0.7645
  284MPD2    H2 4290   3.377   0.875  12.034  0.4923 -0.1618  3.7708
  284MPD2    H3 4291   3.399   0.768  12.250 -0.1396 -0.8406  0.1423
  284MPD2     N 4292   3.143   0.412  12.125 -0.7460 -0.0324 -0.5157
  284MPD2    H5 4293   3.097   0.367  12.047  0.4133 -0.6264 -0.8542
  284MPD2    N1 4294   3.228   0.776  11.829 -0.1476  0.1230 -0.3022
  284MPD2    H7 4295   3.191   0.704  11.768 -0.1289  0.8382 -1.1543
  285TMC3    C1 4296   3.252   0.925  11.643 -0.0384 -0.0978  0.5483
  285TMC3    C2 4297   3.275   0.818  11.563  0.0220 -0.5124  0.0234
  285TMC3    C3 4298   3.313   0.852  11.437  0.3642  0.1640 -0.0147
  285TMC3    C4 4299   3.282   1.057  11.613  0.2313 -0.1379 -0.4147
  285TMC3    C5 4300   3.301   1.084  11.486 -0.1374 -0.0708 -0.6876
  285TMC3    C6 4301   3.333   0.984  11.399  0.8959 -0.0962  0.6202
  285TMC3     C 4302   3.251   0.907  11.786  0.1996 -0.4708  0.0904
  285TMC3     O 4303   3.286   1.002  11.855  0.2395 -0.2253 -0.0544
  285TMC3     H 4304   3.291   0.719  11.604 -0.1493 -0.5603 -0.0232
  285TMC3    H1 4305   3.241   1.134  11.677 -1.7669 -1.3706 -0.2196
  285TMC3    H2 4306   3.354   1.013  11.297 -1.2540 -0.5779  0.0592
  285TMC3    C7 4307   3.355   1.212  11.458 -0.7404 -0.1364  0.0029
  285TMC3    C8 4308   3.398   0.758  11.367  0.2049  0.0683 -0.2492
  285TMC3    O1 4309   3.383   1.231  11.337 -0.5216 -0.1407  0.3017
  285TMC3    O2 4310   3.355   0.650  11.324 -0.5279  0.1454 -0.5653
  286MPD2     C 4311   2.814   4.110   1.470 -0.0799 -0.4513  0.1716
  286MPD2    C1 4312   2.789   4.013   1.376  0.6246  0.5636  0.2762
  286MPD2    C2 4313   2.899   3.939   1.324  0.3157  0.7799  0.0979
  286MPD2    C3 4314   3.027   3.950   1.372  0.1273 -0.2739 -0.4449
  286MPD2    C4 4315   3.051   4.055   1.460  0.1148 -0.1981  0.6485
  286MPD2    C5 4316   2.950   4.125   1.517  0.0302  0.0133 -0.9944
  286MPD2     H 4317   2.878   3.872   1.242  1.0666 -0.4428  0.9125
  286MPD2    H1 4318   3.149   4.094   1.485  0.0967  0.1675  0.1393
  286MPD2    H2 4319   2.738   4.178   1.507  0.1136 -0.5652  0.7801
  286MPD2    H3 4320   2.975   4.208   1.582  0.9877 -0.6218 -0.5416
  286MPD2     N 4321   3.137   3.882   1.328  0.4742 -0.5321  0.3773
  286MPD2    H5 4322   3.225   3.906   1.373  0.6963  3.1515 -1.9959
  286MPD2    N1 4323   2.659   3.992   1.331  0.5532  0.1535  0.1116
  286MPD2    H7 4324   2.648   3.925   1.255  3.5756 -1.9479  1.4944
  287TMC3    C1 4325   3.275   3.713   1.236  0.6534 -0.4723 -0.5296
  287TMC3    C2 4326   3.277   3.601   1.161  0.0396 -0.4301  0.0727
  287TMC3    C3 4327   3.384   3.519   1.159 -0.8350  0.3672  0.6251
  287TMC3    C4 4328   3.377   3.734   1.323  0.0913 -0.5009 -0.2380
  287TMC3    C5 4329   3.486   3.648   1.326 -0.0078  0.6748 -0.1036
  287TMC3    C6 4330   3.497   3.543   1.235 -0.1850  0.0773 -0.2770
  287TMC3     C 4331   3.138   3.767   1.255 -0.1315 -0.3968 -0.5721
  287TMC3     O 4332   3.043   3.707   1.210  0.0913 -0.9378  0.1548
  287TMC3     H 4333   3.187   3.567   1.110 -0.0787  0.3360 -0.2375
  287TMC3    H1 4334   3.378   3.812   1.398  1.7878 -1.1444  0.4092
  287TMC3    H2 4335   3.587   3.482   1.237  1.5331  2.5406 -2.7149
  287TMC3    C7 4336   3.617   3.700   1.379 -0.5289 -0.3832 -0.5720
  287TMC3    C8 4337   3.388   3.426   1.051 -0.1103  0.3434 -0.3270
  287TMC3    O1 4338   3.615   3.814   1.424  0.2110  0.3515  0.7418
  287TMC3    O2 4339   3.284   3.367   1.023 -0.4707  0.0360 -0.3363
  288TMC3    C1 4340   4.572   3.803  14.661 -0.2881 -0.1447  0.3159
  288TMC3    C2 4341   4.553   3.733  14.777  0.4848 -0.1671  0.2097
  288TMC3    C3 4342   4.588   3.800  14.894  0.5245 -0.4728 -0.2344
  288TMC3    C4 4343   4.627   3.931  14.651 -0.9167  0.6683  0.2271
  288TMC3    C5 4344   4.663   3.989  14.770  0.6030  0.2471  0.0413
  288TMC3    C6 4345   4.648   3.922  14.885 -0.0398  0.6310 -0.1387
  288TMC3     C 4346   4.550   3.722  14.540  0.2000 -0.4309 -0.8759
  288TMC3     O 4347   4.475   3.622  14.546  0.1599 -0.0168  0.0504
  288TMC3     H 4348   4.534   3.626  14.778  2.3447 -0.4751  1.4686
  288TMC3    H1 4349   4.640   3.979  14.554 -1.0307  0.5612  0.1591
  288TMC3    H2 4350   4.679   3.973  14.976  0.2777  0.5927 -0.2242
  288TMC3    C7 4351   0.017   4.110  14.776  0.1849 -0.0714 -0.2667
  288TMC3    C8 4352   4.552   3.749  15.024  0.3333 -0.2706 -0.3927
  288TMC3    O1 4353   0.050   4.152  14.885  0.7022  0.2422 -0.1432
  288TMC3    O2 4354   4.610   3.809  15.109  0.1969 -0.0655 -0.0662
  289MPD2     C 4355   0.396   3.141  14.644 -0.4863 -0.1576  0.3443
  289MPD2    C1 4356   0.343   3.235  14.565  0.0239  0.3478  0.6314
  289MPD2    C2 4357   0.205   3.218  14.537 -0.4358  1.0037 -0.2364
  289MPD2    C3 4358   0.128   3.099  14.561  0.6066  1.0595 -0.2378
  289MPD2    C4 4359   0.189   3.005  14.636 -0.1041 -0.5499 -1.0044
  289MPD2    C5 4360   0.321   3.027  14.667  0.5452 -0.6673  0.7726
  289MPD2     H 4361   0.155   3.298  14.483 -0.7033  1.5055  0.7501
  289MPD2    H1 4362   0.140   2.913  14.668 -2.6273  0.7477 -1.0972
  289MPD2    H2 4363   0.500   3.133  14.674 -0.6958 -0.9659  0.8325
  289MPD2    H3 4364   0.370   2.952  14.729  1.8288  0.6336  1.3265
  289MPD2     N 4365   4.710   3.083  14.530 -0.9903  0.2620 -0.2482
  289MPD2    H5 4366   4.664   3.009  14.582 -0.1552  0.5923  0.9798
  289MPD2    N1 4367   0.427   3.348  14.527  0.1535  0.1120 -0.6118
  289MPD2    H7 4368   0.522   3.355  14.561 -0.5731 -1.0229  1.6508
  290TMC3    C1 4369   4.494   3.157  14.468  0.2482 -0.0530 -0.3980
  290TMC3    C2 4370   4.415   3.269  14.441  0.1567  0.0837 -0.3420
  290TMC3    C3 4371   4.291   3.244  14.402  0.3967 -0.1907  0.3799
  290TMC3    C4 4372   4.443   3.030  14.480  0.0461 -0.4513  0.2881
  290TMC3    C5 4373   4.312   3.016  14.441  0.4778  0.4334 -0.7008
  290TMC3    C6 4374   4.237   3.122  14.411 -0.1404  0.1226 -0.2131
  290TMC3     C 4375   4.639   3.179  14.458 -0.6980 -0.2531 -0.7057
  290TMC3     O 4376   4.675   3.277  14.391  0.5923  0.1666  0.0231
  290TMC3     H 4377   4.465   3.365  14.438  2.2470 -0.9577  1.2676
  290TMC3    H1 4378   4.506   2.944  14.499 -0.9830 -1.6817 -1.8582
  290TMC3    H2 4379   4.132   3.106  14.391 -0.0229 -2.0497  0.9327
  290TMC3    C7 4380   4.234   2.904  14.493  0.0827  0.4902 -0.8540
  290TMC3    C8 4381   4.207   3.347  14.357  0.1519 -0.1358  0.0216
  290TMC3    O1 4382   4.125   2.933  14.541 -0.2254 -0.2124  0.3837
  290TMC3    O2 4383   4.126   3.306  14.281 -0.1919  0.4529 -0.5362
  291MPD2     C 4384   4.462   1.270  17.378  0.0305  0.2583 -0.0412
  291MPD2    C1 4385   4.386   1.388  17.371  0.6098  1.0549  0.2936
  291MPD2    C2 4386   4.445   1.509  17.327 -0.7367 -0.6772 -0.1361
  291MPD2    C3 4387   4.579   1.507  17.303  0.0494 -0.4537  1.0496
  291MPD2    C4 4388   4.657   1.387  17.316 -0.4596  0.0858  0.1937
  291MPD2    C5 4389   4.598   1.269  17.353 -0.1754  0.0135 -0.0542
  291MPD2     H 4390   4.395   1.605  17.322 -0.5763 -0.5720  0.2256
  291MPD2    H1 4391   0.040   1.386  17.287 -1.0145 -1.0324 -1.7330
  291MPD2    H2 4392   4.429   1.174  17.415  0.0268 -0.7165 -2.5345
  291MPD2    H3 4393   4.659   1.181  17.370 -0.7199 -0.7515 -2.0581
  291MPD2     N 4394   4.653   1.622  17.270  0.1020 -0.2701  0.0022
  291MPD2    H5 4395   0.032   1.611  17.273  0.0427 -0.8196 -0.0453
  291MPD2    N1 4396   4.240   1.392  17.385 -0.6614 -0.3624  0.1048
  291MPD2    H7 4397   4.201   1.485  17.373 -0.2560 -0.1979  0.0853
  292TMC3    C1 4398   4.027   1.335  17.425 -0.1216 -0.2467  0.4673
  292TMC3    C2 4399   3.991   1.454  17.481  0.3427  0.1377 -0.6713
  292TMC3    C3 4400   3.855   1.487  17.475 -0.2432  0.6296 -0.7114
  292TMC3    C4 4401   3.934   1.252  17.372  0.0905  0.6836  0.3345
  292TMC3    C5 4402   3.798   1.283  17.374 -0.8187  0.1284 -0.0606
  292TMC3    C6 4403   3.763   1.407  17.415 -0.2927  0.7509 -0.4817
  292TMC3     C 4404   4.159   1.287  17.433 -0.7178  0.0905  0.3932
  292TMC3     O 4405   4.178   1.169  17.454  0.0774 -0.5158  0.1929
  292TMC3     H 4406   4.060   1.521  17.531  0.0021 -0.5863  0.7828
  292TMC3    H1 4407   3.958   1.152  17.338 -0.7057  0.3214  0.8232
  292TMC3    H2 4408   3.660   1.440  17.414 -0.1406  1.2200 -0.7188
  292TMC3    C7 4409   3.711   1.189  17.296  0.8416  0.3078  0.9449
  292TMC3    C8 4410   3.811   1.600  17.558 -0.5298 -0.2748  0.8793
  292TMC3    O1 4411   3.764   1.091  17.245  0.3645 -0.7190 -0.1213
  292TMC3    O2 4412   3.891   1.637  17.645 -0.3180 -0.6199  0.6882
  293MPD2     C 4413   1.614   4.630  12.211 -0.0715  0.9568 -0.2695
  293MPD2    C1 4414   1.565   4.521  12.282 -0.3610 -0.4958  0.2799
  293MPD2    C2 4415   1.568   4.532  12.423 -0.5900  0.6094 -0.3917
  293MPD2    C3 4416   1.620   4.646  12.481 -0.2982 -0.2107  0.1168
  293MPD2    C4 4417   1.671   0.026  12.407  0.2732 -0.1718  0.2749
  293MPD2    C5 4418   1.664   0.025  12.272  0.3516  0.8574 -0.1919
  293MPD2     H 4419   1.535   4.450  12.485 -0.0225 -0.4543 -1.4856
  293MPD2    H1 4420   1.707   0.117  12.453 -2.2235  1.0929 -0.2425
  293MPD2    H2 4421   1.605   4.627  12.103  1.6220  0.6365 -0.4030
  293MPD2    H3 4422   1.705   0.107  12.214 -1.3527  1.6599 -0.2462
  293MPD2     N 4423   1.628   4.643  12.622 -0.2439  0.1843 -0.7459
  293MPD2    H5 4424   1.576   4.566  12.662 -0.0265  0.5997  0.3268
  293MPD2    N1 4425   1.504   4.416  12.208  0.0882  0.3383 -0.8590
  293MPD2    H7 4426   1.527   4.405  12.110  2.5251 -0.2470 -0.2159
  294TMC3    C1 4427   1.341   4.255  12.152  0.1530  0.2607  0.0887
  294TMC3    C2 4428   1.219   4.205  12.175  0.5048  0.6287 -0.5267
  294TMC3    C3 4429   1.163   4.129  12.083 -0.4754 -0.0093  0.2878
  294TMC3    C4 4430   1.403   4.229  12.029  0.4267 -0.6013  0.5535
  294TMC3    C5 4431   1.339   4.152  11.939  0.2432  0.0872  0.3929
  294TMC3    C6 4432   1.214   4.103  11.960  0.1469 -0.0356  0.1381
  294TMC3     C 4433   1.400   4.338  12.256 -0.2325 -0.2094 -0.2555
  294TMC3     O 4434   1.336   4.346  12.361 -0.7336 -0.5331  0.0798
  294TMC3     H 4435   1.168   4.221  12.269 -0.1175 -0.5326 -0.6611
  294TMC3    H1 4436   1.503   4.263  12.008  0.4221 -2.3994 -2.4852
  294TMC3    H2 4437   1.152   4.049  11.889 -1.2429  1.0770  0.5016
  294TMC3    C7 4438   1.410   4.129  11.811  0.1444 -0.0515 -0.0981
  294TMC3    C8 4439   1.016   4.122  12.099  0.7715  0.0158 -0.1216
  294TMC3    O1 4440   1.520   4.179  11.798 -0.0783  0.2401  0.0085
  294TMC3    O2 4441   0.969   4.208  12.170 -0.1962 -1.1491 -0.0196
  295MPD2     C 4442   2.037   2.942   0.960  0.1236 -0.3925  0.0029
  295MPD2    C1 4443   2.015   2.848   0.860 -0.4395 -0.1294  0.5485
  295MPD2    C2 4444   1.894   2.783   0.859 -0.8643  0.5077  0.3409
  295MPD2    C3 4445   1.782   2.824   0.938 -0.2961  0.3921 -0.1597
  295MPD2    C4 4446   1.808   2.908   1.032 -0.4685 -0.6943 -0.2322
  295MPD2    C5 4447   1.932   2.966   1.046 -0.3082  0.2317  0.5171
  295MPD2     H 4448   1.868   2.716   0.777 -0.8765  0.6153  0.2581
  295MPD2    H1 4449   1.731   2.934   1.104 -0.1107 -3.0985  1.0077
  295MPD2    H2 4450   2.126   3.003   0.972 -1.4941  2.0143 -0.0691
  295MPD2    H3 4451   1.938   3.043   1.123 -0.4555 -1.9947  2.7623
  295MPD2     N 4452   1.651   2.781   0.922 -0.6620 -0.2318 -0.0698
  295MPD2    H5 4453   1.577   2.816   0.982 -0.0795  1.8848 -0.5669
  295MPD2    N1 4454   2.103   2.826   0.751  1.0118  0.0662 -0.4689
  295MPD2    H7 4455   2.074   2.762   0.678 -0.7093  1.3948 -0.9481
  296TMC3    C1 4456   1.474   2.661   0.861 -0.8494 -0.6441  0.3649
  296TMC3    C2 4457   1.456   2.592   0.980 -0.1152 -0.1410 -0.3299
  296TMC3    C3 4458   1.340   2.528   1.001 -0.0474  0.6758 -0.1877
  296TMC3    C4 4459   1.372   2.665   0.770  0.2975  0.0612  0.2563
  296TMC3    C5 4460   1.255   2.607   0.802 -0.3548  0.7579  0.6986
  296TMC3    C6 4461   1.235   2.533   0.917 -0.1265  0.1271  0.0370
  296TMC3     C 4462   1.605   2.702   0.820  0.4340 -0.0943  0.3227
  296TMC3     O 4463   1.646   2.696   0.705  0.3771 -0.0741  0.1371
  296TMC3     H 4464   1.539   2.604   1.049 -0.9870  4.0033 -0.0239
  296TMC3    H1 4465   1.388   2.724   0.681 -1.0716  0.8174  0.5130
  296TMC3    H2 4466   1.146   2.472   0.924  0.2246 -0.4118 -0.1515
  296TMC3    C7 4467   1.180   2.567   0.686  0.1323 -0.1884  0.3723
  296TMC3    C8 4468   1.311   2.480   1.134  0.3845  0.4213  0.2685
  296TMC3    O1 4469   1.245   2.517   0.596 -0.9657  0.1118 -0.5319
  296TMC3    O2 4470   1.196   2.441   1.162 -0.4444 -0.0880  0.9068
  297MPD2     C 4471   4.012   0.130  15.787 -0.2825 -0.3303 -0.8567
  297MPD2    C1 4472   4.002   0.265  15.775  0.5776  0.4094  0.0310
  297MPD2    C2 4473   4.035   0.344  15.883  0.0902 -0.2401 -0.3523
  297MPD2    C3 4474   4.092   0.290  15.995 -0.6562 -0.6412  0.3529
  297MPD2    C4 4475   4.113   0.153  16.001  0.3847  0.5840  0.7670
  297MPD2    C5 4476   4.065   0.077  15.900 -1.0160  0.1056 -0.2636
  297MPD2     H 4477   4.022   0.451  15.877 -0.6349 -0.2926  0.3025
  297MPD2    H1 4478   4.171   0.110  16.082  1.1649  1.1753  0.5241
  297MPD2    H2 4479   3.977   0.068  15.705  1.6363 -0.4544 -1.5632
  297MPD2    H3 4480   4.074   4.690  15.901 -2.2167  0.0090  1.4320
  297MPD2     N 4481   4.128   0.383  16.089  0.4685  0.5748 -0.4299
  297MPD2    H5 4482   4.124   0.478  16.053  0.9203  0.6851 -0.1973
  297MPD2    N1 4483   3.944   0.341  15.665  0.1352 -0.0826  0.1542
  297MPD2    H7 4484   3.929   0.441  15.678 -0.7100 -0.1661 -0.1878
  298TMC3    C1 4485   3.813   0.365  15.461  0.3753 -0.4943 -0.5769
  298TMC3    C2 4486   3.787   0.319  15.333 -0.1373 -0.2261  0.0160
  298TMC3    C3 4487   3.698   0.387  15.258 -0.0346  0.0833 -0.4534
  298TMC3    C4 4488   3.746   0.477  15.512  0.5931  0.0339 -0.5697
  298TMC3    C5 4489   3.658   0.534  15.427  0.1580  0.2879  0.0282
  298TMC3    C6 4490   3.631   0.495  15.299 -0.9738 -0.0830 -0.0699
  298TMC3     C 4491   3.898   0.283  15.551  0.4088 -0.4656 -0.2742
  298TMC3     O 4492   3.932   0.171  15.505  0.0944  0.0117 -0.5208
  298TMC3     H 4493   3.828   0.226  15.295 -2.0086 -0.9154 -0.3083
  298TMC3    H1 4494   3.765   0.523  15.608 -0.9345 -0.7496  0.1178
  298TMC3    H2 4495   3.561   0.548  15.237 -0.6056  1.6607  0.9987
  298TMC3    C7 4496   3.548   0.601  15.500  0.1908  0.0705  0.0838
  298TMC3    C8 4497   3.699   0.371  15.118 -0.0292  0.3030 -0.5010
  298TMC3    O1 4498   3.534   0.560  15.615  0.5063  0.3456  0.1288
  298TMC3    O2 4499   3.652   0.464  15.055 -0.4419  0.4191 -0.4278
  299MPD2     C 4500   0.406   0.034  10.123 -0.1136 -0.8894 -0.1545
  299MPD2    C1 4501   0.338   0.153  10.105  0.4304  0.3774  0.1343
  299MPD2    C2 4502   0.199   0.163  10.070 -0.3307  0.2650  0.8045
  299MPD2    C3 4503   0.132   0.042  10.047 -0.0240  0.2837  0.3775
  299MPD2    C4 4504   0.201   4.645  10.052 -0.2243  0.3090  0.1123
  299MPD2    C5 4505   0.336   4.643  10.095 -0.6741 -0.0692  0.2496
  299MPD2     H 4506   0.147   0.257  10.055  1.3572  1.7021  4.0716
  299MPD2    H1 4507   0.157   4.549  10.027  0.7895  0.6207 -2.8654
  299MPD2    H2 4508   0.508   0.034  10.160  0.2931 -0.6816 -1.2805
  299MPD2    H3 4509   0.390   4.550  10.109 -1.9440 -1.0689 -1.4633
  299MPD2     N 4510   4.711   0.027  10.029 -0.0994 -0.2894  0.3912
  299MPD2    H5 4511   4.675   4.653  10.029 -2.1841  0.4925  0.5409
  299MPD2    N1 4512   0.409   0.267  10.145  0.2149  0.1636  0.0176
  299MPD2    H7 4513   0.502   0.260  10.186  0.7680 -0.2461 -1.2891
  300TMC3    C1 4514   4.479   0.093  10.028  0.4675 -0.0707 -0.1321
  300TMC3    C2 4515   4.392   0.187   9.997 -0.1124  0.5343  0.9305
  300TMC3    C3 4516   4.266   0.188  10.049  0.0926  0.1409  0.3279
  300TMC3    C4 4517   4.447   4.711  10.116  0.1416  0.7594  0.1109
  300TMC3    C5 4518   4.325   4.715  10.175  0.5997  0.3318 -0.0394
  300TMC3    C6 4519   4.227   0.086  10.134  1.2794  0.8336  0.1193
  300TMC3     C 4520   4.617   0.132  10.030  0.2950 -0.0157 -0.1866
  300TMC3     O 4521   4.635   0.251  10.056 -0.3905  0.6019  0.6198
  300TMC3     H 4522   4.418   0.266   9.928  1.4950  1.7590  2.9543
  300TMC3    H1 4523   4.524   4.641  10.147 -0.0005  0.6344  0.1828
  300TMC3    H2 4524   4.130   0.083  10.181 -0.2572 -0.7552 -3.1869
  300TMC3    C7 4525   4.299   4.637  10.291  0.1205  0.6442 -0.2802
  300TMC3    C8 4526   4.210   0.319  10.059 -0.1624 -0.1590  0.1523
  300TMC3    O1 4527   4.377   4.541  10.297 -0.0404  0.8385  0.1204
  300TMC3    O2 4528   4.293   0.410  10.052 -0.1003  0.4912 -0.0674
  301MPD2     C 4529   0.527   0.730   1.399 -0.0307 -0.9603  0.7193
  301MPD2    C1 4530   0.582   0.810   1.298 -0.1836 -0.1665  0.0023
  301MPD2    C2 4531   0.701   0.763   1.248  0.0352  0.0428 -0.8635
  301MPD2    C3 4532   0.762   0.654   1.305 -0.1501  0.2060  0.4600
  301MPD2    C4 4533   0.705   0.574   1.398  0.0478  0.6026 -0.2074
  301MPD2    C5 4534   0.581   0.613   1.438 -0.4105  0.2147  0.8137
  301MPD2     H 4535   0.747   0.815   1.165 -2.3076 -0.2900 -2.3758
  301MPD2    H1 4536   0.748   0.482   1.435 -2.9480 -0.7098  0.0424
  301MPD2    H2 4537   0.429   0.753   1.441 -0.3406  0.6927 -0.8649
  301MPD2    H3 4538   0.535   0.540   1.503  3.3731 -1.4689  1.5842
  301MPD2     N 4539   0.894   0.614   1.279 -0.3015  0.6469  0.3304
  301MPD2    H5 4540   0.926   0.533   1.330 -0.9759  1.0737  1.4348
  301MPD2    N1 4541   0.537   0.933   1.248 -0.3725 -0.7078  0.2605
  301MPD2    H7 4542   0.598   0.983   1.185 -0.3779  1.6967  2.1419
  302TMC3    C1 4543   1.103   0.624   1.178  0.0972  0.3164  0.0049
  302TMC3    C2 4544   1.116   0.489   1.193 -0.0545 -0.1228 -0.2167
  302TMC3    C3 4545   1.242   0.440   1.168  0.1552 -1.2477  0.4512
  302TMC3    C4 4546   1.208   0.711   1.161 -0.2289 -0.8474 -0.0618
  302TMC3    C5 4547   1.331   0.658   1.148  0.2484  0.0602 -0.1059
  302TMC3    C6 4548   1.346   0.527   1.144  0.6920  0.1026  0.5118
  302TMC3     C 4549   0.972   0.683   1.193 -0.5151  0.1002  0.3491
  302TMC3     O 4550   0.955   0.795   1.148 -0.0469 -0.3528  0.0290
  302TMC3     H 4551   1.032   0.422   1.206  1.4181 -1.5668  1.8538
  302TMC3    H1 4552   1.192   0.817   1.169  1.3888 -0.6741  0.7663
  302TMC3    H2 4553   1.446   0.486   1.143  0.4953 -0.4892  3.2062
  302TMC3    C7 4554   1.430   0.736   1.080 -0.9650  0.6896  0.8200
  302TMC3    C8 4555   1.279   0.298   1.169 -0.3027  0.0749  0.2826
  302TMC3    O1 4556   1.541   0.680   1.076 -0.0565 -0.3574  0.4017
  302TMC3    O2 4557   1.389   0.257   1.125 -0.0006 -0.8943 -0.4302
  303MPD2     C 4558   1.885   3.540  10.272 -0.3321  0.3943 -0.3709
  303MPD2    C1 4559   1.767   3.475  10.256 -0.9871  0.2103  0.2638
  303MPD2    C2 4560   1.688   3.514  10.150  0.4414  0.4249 -0.6819
  303MPD2    C3 4561   1.727   3.614  10.063 -0.0264 -0.0364 -0.5076
  303MPD2    C4 4562   1.844   3.687  10.084 -0.0761 -0.7800 -0.3105
  303MPD2    C5 4563   1.923   3.648  10.190 -0.0257  0.0145 -0.0781
  303MPD2     H 4564   1.592   3.468  10.136 -0.0360  1.3735 -0.5696
  303MPD2    H1 4565   1.887   3.766  10.024 -1.9390 -0.1817 -0.8585
  303MPD2    H2 4566   1.958   3.515  10.348 -0.0337 -0.1794 -0.8519
  303MPD2    H3 4567   2.001   3.719  10.213  0.4716 -0.6453  0.2707
  303MPD2     N 4568   1.649   3.653   9.954  0.1715 -0.6086  0.4557
  303MPD2    H5 4569   1.665   3.746   9.915  1.2970  0.1059  2.6136
  303MPD2    N1 4570   1.737   3.361  10.334  0.2891  0.0131  0.2705
  303MPD2    H7 4571   1.794   3.351  10.417  0.0031 -2.1313  0.1937
  304TMC3    C1 4572   1.643   3.166  10.423  0.1370  0.0461 -0.6076
  304TMC3    C2 4573   1.527   3.098  10.435  0.2307 -0.6304 -0.3902
  304TMC3    C3 4574   1.534   2.966  10.434 -0.8116  0.1359 -0.1084
  304TMC3    C4 4575   1.766   3.107  10.418 -0.4070  0.3224 -1.1121
  304TMC3    C5 4576   1.769   2.972  10.408  1.0915  0.8891 -0.3923
  304TMC3    C6 4577   1.655   2.897  10.424  0.1753 -0.2577  0.1437
  304TMC3     C 4578   1.633   3.274  10.325  0.0086 -0.2169  0.4380
  304TMC3     O 4579   1.553   3.272  10.234  0.9385  0.5758  0.1266
  304TMC3     H 4580   1.435   3.153  10.422  0.9584  0.5557 -0.4398
  304TMC3    H1 4581   1.857   3.163  10.403 -0.4665  0.4028 -1.1715
  304TMC3    H2 4582   1.653   2.790  10.438 -1.7345 -0.3646 -0.9267
  304TMC3    C7 4583   1.835   2.922  10.284 -0.0346  0.4559  0.4788
  304TMC3    C8 4584   1.437   2.902  10.365 -0.3007  0.0668  0.0127
  304TMC3    O1 4585   1.946   2.962  10.253 -0.7106 -0.4914  0.1192
  304TMC3    O2 4586   1.478   2.842  10.268 -0.5947  0.2454  0.5076
  305MPD2     C 4587   0.098   1.860  13.822 -0.1085 -0.2178 -0.5560
  305MPD2    C1 4588   0.096   1.721  13.840 -0.0429 -0.4007  0.5396
  305MPD2    C2 4589   0.108   1.631  13.734  0.7527  0.2625 -0.3632
  305MPD2    C3 4590   0.126   1.681  13.603  0.4310 -0.5637  0.0054
  305MPD2    C4 4591   0.119   1.819  13.585  0.7754 -0.2028  0.1475
  305MPD2    C5 4592   0.107   1.908  13.690  0.4554  0.6944 -0.7063
  305MPD2     H 4593   0.090   1.529  13.765  1.3135  0.4931  0.7026
  305MPD2    H1 4594   0.139   1.860  13.487  0.5805 -1.8924 -0.6100
  305MPD2    H2 4595   0.093   1.924  13.909  0.2786 -0.5653 -0.2820
  305MPD2    H3 4596   0.115   2.014  13.666  0.8736  1.2121  1.7212
  305MPD2     N 4597   0.146   1.597  13.496  0.0751  0.1242 -0.5005
  305MPD2    H5 4598   0.161   1.651  13.411 -0.1316  1.6251  0.4284
  305MPD2    N1 4599   0.084   1.682  13.978  0.0506 -0.1619  0.0273
  305MPD2    H7 4600   0.079   1.757  14.046 -2.3322 -0.9237  0.6830
  306TMC3    C1 4601   0.128   1.566  14.179  0.5567 -0.2386 -0.6457
  306TMC3    C2 4602   0.229   1.496  14.234 -0.3569  0.3369 -0.1075
  306TMC3    C3 4603   0.264   1.516  14.363 -0.8552 -0.3296 -0.4927
  306TMC3    C4 4604   0.052   1.651  14.261 -0.2535  0.0158 -0.1149
  306TMC3    C5 4605   0.093   1.664  14.392  0.0187 -0.5083  0.7749
  306TMC3    C6 4606   0.200   1.608  14.445 -0.7812  0.1846 -0.3955
  306TMC3     C 4607   0.106   1.556  14.034  0.1023  0.7773 -0.5817
  306TMC3     O 4608   0.147   1.459  13.975  0.7480 -0.4477  0.0021
  306TMC3     H 4609   0.286   1.426  14.175 -2.6919 -1.5565 -0.0959
  306TMC3    H1 4610   4.675   1.689  14.235 -0.4448  0.3788  1.1548
  306TMC3    H2 4611   0.194   1.583  14.551  0.2846  0.2933 -0.3085
  306TMC3    C7 4612   4.718   1.721  14.485  0.0340  0.5484 -0.3867
  306TMC3    C8 4613   0.384   1.455  14.409  0.2692 -0.6663 -0.0133
  306TMC3    O1 4614   4.597   1.721  14.459 -0.2074  0.4286  0.3390
  306TMC3    O2 4615   0.428   1.356  14.348  0.0605  0.0180  0.1014
  307MPD2     C 4616   2.527   3.347   0.809 -0.0653  0.5359 -0.1826
  307MPD2    C1 4617   2.449   3.421   0.725 -0.3816 -0.4168 -0.1097
  307MPD2    C2 4618   2.310   3.440   0.748 -0.4274  0.1433 -0.4285
  307MPD2    C3 4619   2.257   3.390   0.868 -0.5031  0.1514  0.5793
  307MPD2    C4 4620   2.344   3.326   0.955 -0.1517 -0.3548  0.0074
  307MPD2    C5 4621   2.473   3.299   0.923 -0.1201  0.4260  0.3630
  307MPD2     H 4622   2.246   3.509   0.695  1.3216  1.8706 -0.2874
  307MPD2    H1 4623   2.308   3.298   1.053  2.1339 -1.7674  0.4475
  307MPD2    H2 4624   2.629   3.320   0.784  0.2250  1.2103  0.2631
  307MPD2    H3 4625   2.537   3.249   0.994 -2.5156 -0.7013  1.7153
  307MPD2     N 4626   2.117   3.402   0.902 -0.1234 -0.0195  0.1014
  307MPD2    H5 4627   2.047   3.432   0.835 -1.6353 -0.4134  1.5077
  307MPD2    N1 4628   2.497   3.483   0.606  0.7066 -0.2893 -0.1220
  307MPD2    H7 4629   2.425   3.535   0.558  1.3082  0.6632  0.0044
  308TMC3    C1 4630   1.802   3.539   0.866  0.7372  0.0071  0.1156
  308TMC3    C2 4631   1.809   3.662   0.921 -0.2491  0.0364  0.0794
  308TMC3    C3 4632   1.868   3.660   1.041 -0.5571 -0.0203 -0.4079
  308TMC3    C4 4633   1.867   3.427   0.908 -0.3833 -0.4181 -0.1958
  308TMC3    C5 4634   1.927   3.433   1.031 -0.2661 -0.2575  0.1336
  308TMC3    C6 4635   1.918   3.545   1.112  0.1810  0.3265  0.4024
  308TMC3     C 4636   1.707   3.523   0.756  0.8980  0.4291 -0.0378
  308TMC3     O 4637   1.663   3.412   0.738  0.5649 -0.0655  0.4704
  308TMC3     H 4638   1.751   3.748   0.891  0.6480  1.1276  1.4777
  308TMC3    H1 4639   1.871   3.335   0.851 -1.3915 -0.9919  0.6646
  308TMC3    H2 4640   1.970   3.563   1.206 -0.0408  0.8387  0.4259
  308TMC3    C7 4641   2.063   3.377   1.029  0.1567  0.4588 -0.5977
  308TMC3    C8 4642   1.891   3.785   1.103  0.4095 -0.0638  0.4583
  308TMC3    O1 4643   2.115   3.361   1.138  0.1937  0.6234 -0.2676
  308TMC3    O2 4644   1.894   3.798   1.224 -0.3471  0.1310  0.3934
  309MPD2     C 4645   2.056   4.702  16.763 -0.2048  0.7587  0.0527
  309MPD2    C1 4646   1.961   0.034  16.681 -0.0796  0.0543  0.8401
  309MPD2    C2 4647   1.839   0.050  16.741  0.0921  0.0405  0.2161
  309MPD2    C3 4648   1.812   0.026  16.870 -0.3104 -0.6949  0.2673
  309MPD2    C4 4649   1.907   4.682  16.937 -0.0114  0.0913 -0.4174
  309MPD2    C5 4650   2.031   4.666  16.888 -0.0391  0.5766  0.2017
  309MPD2     H 4651   1.758   0.085  16.678  0.0451  0.3568  0.4515
  309MPD2    H1 4652   1.895   4.637  17.034 -0.7165 -2.0559 -1.4932
  309MPD2    H2 4653   2.158   4.686  16.729 -1.1815 -4.2821 -0.5973
  309MPD2    H3 4654   2.103   4.603  16.938 -1.4785 -1.1094  0.1506
  309MPD2     N 4655   1.685   0.058  16.923 -0.2122  0.2381  0.7958
  309MPD2    H5 4656   1.617   0.098  16.858 -1.9029  0.1908  2.5336
  309MPD2    N1 4657   1.975   0.069  16.543  0.7084  0.7074  0.7185
  309MPD2    H7 4658   1.898   0.114  16.494  0.9046  0.2336 -0.0339
  310TMC3    C1 4659   2.098   0.095  16.343 -0.4772  0.6895 -0.6991
  310TMC3    C2 4660   2.011   0.189  16.306 -0.6559  0.2889 -0.4718
  310TMC3    C3 4661   2.039   0.258  16.189 -0.0789 -0.0251  0.0699
  310TMC3    C4 4662   2.204   0.057  16.263  0.0336 -0.3197  1.2388
  310TMC3    C5 4663   2.230   0.128  16.154  0.2827  0.3619 -0.2832
  310TMC3    C6 4664   2.149   0.228  16.116 -0.1370  0.3766  0.1721
  310TMC3     C 4665   2.082   0.034  16.472  0.6850  0.3625 -0.9875
  310TMC3     O 4666   2.173   4.682  16.500 -0.1810  0.5847 -0.1643
  310TMC3     H 4667   1.925   0.225  16.362  1.7425  0.8226  2.8221
  310TMC3    H1 4668   2.281   4.708  16.293  1.0514  1.5232  2.8770
  310TMC3    H2 4669   2.158   0.274  16.019 -2.1934  0.2403 -0.0832
  310TMC3    C7 4670   2.316   0.064  16.061  0.0745 -0.3642  0.1583
  310TMC3    C8 4671   1.957   0.366  16.149 -0.2045 -0.3318  0.2028
  310TMC3    O1 4672   2.369   4.676  16.092 -0.1606 -0.2992 -0.4042
  310TMC3    O2 4673   1.848   0.374  16.203 -0.0211 -0.2951 -0.3389
  311MPD2     C 4674   4.327   1.304  12.733  0.0130 -0.2156  0.1438
  311MPD2    C1 4675   4.302   1.408  12.643  0.2493 -0.5234  0.1512
  311MPD2    C2 4676   4.193   1.493  12.646  0.2053 -0.4237 -0.2768
  311MPD2    C3 4677   4.090   1.460  12.734 -0.2896  0.2795 -0.8270
  311MPD2    C4 4678   4.112   1.350  12.813 -0.4416 -0.4378 -0.4941
  311MPD2    C5 4679   4.223   1.273  12.820  0.5255 -0.3977  0.0757
  311MPD2     H 4680   4.184   1.566  12.566  1.7624  0.7636  0.6339
  311MPD2    H1 4681   4.025   1.328  12.875 -0.3301 -3.3610 -1.3903
  311MPD2    H2 4682   4.419   1.246  12.741 -0.7281 -1.5543 -0.9909
  311MPD2    H3 4683   4.213   1.180  12.875  3.3815 -1.2047 -0.7548
  311MPD2     N 4684   3.970   1.533  12.734 -0.5056 -0.0139 -0.7736
  311MPD2    H5 4685   3.949   1.589  12.652  0.8575  0.0606 -1.0655
  311MPD2    N1 4686   4.410   1.443  12.558 -0.7231 -0.5151  0.1052
  311MPD2    H7 4687   4.400   1.531  12.508 -1.0714  0.5842  2.0998
  312TMC3    C1 4688   3.754   1.600  12.808  0.0547  0.1497  0.5079
  312TMC3    C2 4689   3.727   1.647  12.684 -0.4640  0.5625 -0.2589
  312TMC3    C3 4690   3.618   1.722  12.679  0.0158 -0.1761  0.0923
  312TMC3    C4 4691   3.688   1.643  12.920  0.1274  0.1826 -0.7263
  312TMC3    C5 4692   3.595   1.738  12.907 -0.5350  0.0038 -0.9312
  312TMC3    C6 4693   3.551   1.774  12.783  0.4286 -0.3050  0.5920
  312TMC3     C 4694   3.880   1.534  12.837 -0.0626  0.8129 -0.0556
  312TMC3     O 4695   3.895   1.486  12.948 -0.3368  0.3321 -0.0966
  312TMC3     H 4696   3.748   1.600  12.589  0.5878  2.7023 -1.0595
  312TMC3    H1 4697   3.712   1.595  13.014 -1.4920  1.5804  0.4041
  312TMC3    H2 4698   3.486   1.860  12.775 -1.2873 -1.6312  0.2255
  312TMC3    C7 4699   3.516   1.772  13.023  0.2419  0.3495 -0.2149
  312TMC3    C8 4700   3.520   1.692  12.575  0.2982 -0.0762 -0.5779
  312TMC3    O1 4701   3.406   1.823  13.001 -0.0428 -0.0561  0.3249
  312TMC3    O2 4702   3.518   1.579  12.525  0.2700  0.1127 -0.3612
  313MPD2     C 4703   3.960   0.376  10.594 -0.2363  0.3729 -0.2301
  313MPD2    C1 4704   3.826   0.360  10.602  0.0480  0.9214  0.5790
  313MPD2    C2 4705   3.762   0.266  10.521  0.2863  0.1854 -0.6851
  313MPD2    C3 4706   3.830   0.197  10.418 -0.3039  0.8007  0.4806
  313MPD2    C4 4707   3.970   0.217  10.411  0.6946 -0.0672 -0.3381
  313MPD2    C5 4708   4.030   0.308  10.493 -0.1794  0.3233  0.2448
  313MPD2     H 4709   3.654   0.256  10.529  0.2135 -0.6541 -2.7811
  313MPD2    H1 4710   4.033   0.169  10.337  3.2754  2.4377  0.2544
  313MPD2    H2 4711   4.008   0.444  10.664  2.9140  0.8603 -2.8762
  313MPD2    H3 4712   4.134   0.328  10.470  1.0083 -5.2009  0.8898
  313MPD2     N 4713   3.757   0.117  10.330  0.0974 -0.7575 -0.6511
  313MPD2    H5 4714   3.657   0.117  10.349  0.4176  0.4964  1.0210
  313MPD2    N1 4715   3.741   0.439  10.685 -0.0527  0.4795 -0.3854
  313MPD2    H7 4716   3.642   0.430  10.669 -0.1653 -1.3090  1.3432
  314TMC3    C1 4717   3.680   0.654  10.758 -0.5228  0.8713 -0.5781
  314TMC3    C2 4718   3.745   0.777  10.779 -0.1291  0.1232 -0.9104
  314TMC3    C3 4719   3.714   0.887  10.701  0.4288  0.0537 -0.4128
  314TMC3    C4 4720   3.588   0.641  10.654 -0.1342  0.1504 -0.0245
  314TMC3    C5 4721   3.574   0.753  10.575  0.0086  0.3049 -0.2773
  314TMC3    C6 4722   3.633   0.873  10.586  0.7098 -0.2915  0.0625
  314TMC3     C 4723   3.775   0.545  10.767  0.6874 -0.0843 -0.2189
  314TMC3     O 4724   3.876   0.573  10.824 -0.0958  0.3483  0.3160
  314TMC3     H 4725   3.819   0.789  10.858 -0.2123  1.5617 -1.0480
  314TMC3    H1 4726   3.540   0.546  10.630  1.1699 -0.8846  1.4146
  314TMC3    H2 4727   3.607   0.957  10.523 -1.2417  0.8068  2.3204
  314TMC3    C7 4728   3.471   0.730  10.483  0.0033  0.0113 -0.0006
  314TMC3    C8 4729   3.772   1.022  10.729  0.0039 -0.4339 -0.1152
  314TMC3    O1 4730   3.372   0.660  10.512 -0.0022  0.0661 -0.4949
  314TMC3    O2 4731   3.741   1.109  10.647 -0.2808 -0.0213 -0.3033
  315MPD2     C 4732   2.697   4.713  17.199  0.1160  0.6232  0.0320
  315MPD2    C1 4733   2.755   4.588  17.198  0.3911  1.1227 -0.2651
  315MPD2    C2 4734   2.828   4.550  17.093  1.0441  0.1152 -0.2460
  315MPD2    C3 4735   2.837   4.632  16.984 -0.1095  0.0520 -0.0485
  315MPD2    C4 4736   2.772   0.031  16.984  0.1683  0.3495 -0.3619
  315MPD2    C5 4737   2.699   0.078  17.088  0.3366  0.3215  0.7261
  315MPD2     H 4738   2.885   4.458  17.087  0.4325 -0.3575  1.1689
  315MPD2    H1 4739   2.782   0.106  16.906 -0.9944  0.1380 -0.7211
  315MPD2    H2 4740   2.626   0.027  17.274  0.2391  1.2257 -0.1286
  315MPD2    H3 4741   2.643   0.168  17.071 -2.4024 -0.9389  3.1895
  315MPD2     N 4742   2.933   4.596  16.885 -0.4192  0.2283 -0.5135
  315MPD2    H5 4743   2.985   4.510  16.897  0.7265  1.1148  0.8593
  315MPD2    N1 4744   2.746   4.496  17.305  0.0223 -0.3027 -0.9962
  315MPD2    H7 4745   2.792   4.405  17.299  1.2713  0.3407 -1.1069
  316TMC3    C1 4746   3.106   4.634  16.741 -0.2711 -0.2618  0.2866
  316TMC3    C2 4747   3.192   4.571  16.826  0.1171  1.4444 -0.6586
  316TMC3    C3 4748   3.323   4.565  16.785  0.0270  0.4480  0.3484
  316TMC3    C4 4749   3.143   4.678  16.617  0.5356 -0.6158  0.3113
  316TMC3    C5 4750   3.271   4.650  16.580  0.2469  0.0734  0.1806
  316TMC3    C6 4751   3.365   4.586  16.661  0.1671 -0.2449  1.1159
  316TMC3     C 4752   2.970   4.674  16.777  0.1040  0.3284  0.4291
  316TMC3     O 4753   2.929   0.053  16.726  0.2353 -0.4862  0.6986
  316TMC3     H 4754   3.177   4.581  16.933 -0.3048 -0.9802 -0.4759
  316TMC3    H1 4755   3.068   4.718  16.550  0.1990 -1.0499  0.4272
  316TMC3    H2 4756   3.461   4.550  16.625  0.3857  1.5109 -0.0637
  316TMC3    C7 4757   3.322   4.715  16.459  0.0625 -0.6212 -0.3696
  316TMC3    C8 4758   3.426   4.552  16.892 -0.1201  0.5504  0.2164
  316TMC3    O1 4759   3.438   4.685  16.441  0.5054 -0.1412 -0.4237
  316TMC3    O2 4760   3.539   4.561  16.856 -0.6718  0.2704 -0.9525
  317MPD2     C 4761   0.073   3.568  12.623 -0.0306  0.3627 -0.3772
  317MPD2    C1 4762   0.122   3.441  12.621 -0.2554  0.7888 -0.0707
  317MPD2    C2 4763   0.179   3.387  12.738 -0.1146 -0.0099 -0.2185
  317MPD2    C3 4764   0.181   3.456  12.856  0.4488  0.1746  0.4105
  317MPD2    C4 4765   0.147   3.584  12.852 -0.0618 -1.1210  0.1796
  317MPD2    C5 4766   0.099   3.634  12.739 -0.6525  0.0965  0.9237
  317MPD2     H 4767   0.206   3.282  12.743 -0.6713 -0.1548 -0.2632
  317MPD2    H1 4768   0.140   3.654  12.934  0.2286 -0.5606 -0.2694
  317MPD2    H2 4769   0.043   3.625  12.536 -0.9847 -0.8487 -0.8436
  317MPD2    H3 4770   0.080   3.739  12.758 -3.3405 -0.1482 -0.3940
  317MPD2     N 4771   0.227   3.393  12.973 -0.5996  0.6128  0.3850
  317MPD2    H5 4772   0.246   3.295  12.960  1.7322  0.8484  2.0103
  317MPD2    N1 4773   0.126   3.361  12.502  0.2654 -0.3168  0.3983
  317MPD2    H7 4774   0.152   3.263  12.503 -2.8670 -1.1285  0.9455
  318TMC3    C1 4775   0.247   3.344  13.198  0.4641  0.4812  0.0893
  318TMC3    C2 4776   0.179   3.229  13.174  0.3734 -0.0630  0.0377
  318TMC3    C3 4777   0.174   3.146  13.280 -0.3054 -0.3616  0.0866
  318TMC3    C4 4778   0.329   3.362  13.307 -0.3848 -0.0972 -0.2396
  318TMC3    C5 4779   0.320   3.276  13.409  0.4098 -0.1404 -0.1045
  318TMC3    C6 4780   0.234   3.173  13.401 -0.3408  0.3175 -0.0037
  318TMC3     C 4781   0.240   3.449  13.094  0.4148 -0.0819  0.2868
  318TMC3     O 4782   0.240   3.564  13.138 -0.0768 -0.1372 -0.0030
  318TMC3     H 4783   0.112   3.216  13.090 -1.5073 -0.9806  1.6862
  318TMC3    H1 4784   0.387   3.453  13.317 -0.6452 -0.0687  1.0156
  318TMC3    H2 4785   0.211   3.107  13.484 -2.0151 -0.0303 -0.7534
  318TMC3    C7 4786   0.415   3.283  13.524  0.1768  0.0877  0.0328
  318TMC3    C8 4787   0.090   3.025  13.263 -0.5351 -0.4265  0.3776
  318TMC3    O1 4788   0.457   3.397  13.545 -0.2926 -0.1744  0.7740
  318TMC3    O2 4789   0.048   2.972  13.364  0.3244 -0.1427  0.1360
  319MPD2     C 4790   1.950   4.472  16.319 -0.0482 -0.0211  0.3781
  319MPD2    C1 4791   1.871   4.427  16.423 -1.2397 -0.7068  0.2188
  319MPD2    C2 4792   1.736   4.419  16.398 -0.1447  0.1098 -1.0908
  319MPD2    C3 4793   1.673   4.461  16.281 -0.6869 -0.0964 -0.3498
  319MPD2    C4 4794   1.755   4.526  16.183 -0.7493 -0.9405 -0.4795
  319MPD2    C5 4795   1.890   4.529  16.204  0.2296 -0.6055 -0.3354
  319MPD2     H 4796   1.677   4.372  16.476  1.1432  1.0508  0.4620
  319MPD2    H1 4797   1.728   4.569  16.087 -2.3457  1.1503  0.9023
  319MPD2    H2 4798   2.057   4.482  16.329 -0.2094  1.0337  1.0402
  319MPD2    H3 4799   1.947   4.583  16.129 -0.0071 -1.2949 -0.9943
  319MPD2     N 4800   1.537   4.454  16.248  0.2489  0.5127  0.3032
  319MPD2    H5 4801   1.505   4.482  16.156  0.8443 -2.2446 -0.7197
  319MPD2    N1 4802   1.922   4.363  16.541 -0.1825  0.4807 -0.0508
  319MPD2    H7 4803   1.860   4.339  16.618  0.3884 -0.5220  0.0901
  320TMC3    C1 4804   1.319   4.365  16.249 -0.0949  0.0366 -0.9533
  320TMC3    C2 4805   1.281   4.446  16.151  0.2405  0.7619  0.1520
  320TMC3    C3 4806   1.168   4.417  16.074  0.2321  0.9837 -0.0266
  320TMC3    C4 4807   1.248   4.249  16.266  0.3432  0.2754  0.2096
  320TMC3    C5 4808   1.137   4.224  16.193 -0.0528 -0.2974  0.4840
  320TMC3    C6 4809   1.097   4.299  16.081  0.1516 -0.2260  0.8156
  320TMC3     C 4810   1.441   4.381  16.316  0.2763 -0.1242 -0.9239
  320TMC3     O 4811   1.458   4.326  16.423 -0.3554  0.3995  0.2015
  320TMC3     H 4812   1.330   4.541  16.130 -1.7908  1.7708 -0.0252
  320TMC3    H1 4813   1.280   4.163  16.323 -0.4444  1.0284  1.8034
  320TMC3    H2 4814   1.011   4.269  16.024 -0.7402  2.1516  0.8876
  320TMC3    C7 4815   1.061   4.108  16.223  0.0899  0.2486  0.3970
  320TMC3    C8 4816   1.086   4.529  16.041  0.2405  0.6441  0.0676
  320TMC3    O1 4817   1.006   4.051  16.131  0.1485 -0.3080  0.2830
  320TMC3    O2 4818   1.106   4.631  16.104  0.5891  0.1618  0.2094
  321TMC3    C1 4819   2.093   4.259  16.676 -0.6266  0.3167 -0.3235
  321TMC3    C2 4820   2.062   4.333  16.787 -0.6155 -0.0507 -0.1992
  321TMC3    C3 4821   2.147   4.335  16.893 -0.0288 -0.6415  0.1660
  321TMC3    C4 4822   2.216   4.191  16.671 -0.2516  0.0273 -0.2496
  321TMC3    C5 4823   2.297   4.197  16.780 -0.3868  0.4599 -0.1054
  321TMC3    C6 4824   2.271   4.279  16.889  0.1167  1.0143  0.8415
  321TMC3     C 4825   2.050   4.319  16.546 -0.5838 -0.6263  0.5465
  321TMC3     O 4826   2.144   4.313  16.464  0.5940 -0.2359  0.5697
  321TMC3     H 4827   1.961   4.373  16.792  0.2871  1.9853  1.6237
  321TMC3    H1 4828   2.254   4.150  16.578  0.0632 -3.2654  1.3411
  321TMC3    H2 4829   2.342   4.292  16.969  1.9383 -2.0452 -0.2932
  321TMC3    C7 4830   2.354   4.079  16.825  0.2394  0.0509  0.4962
  321TMC3    C8 4831   2.075   4.304  17.024  0.7376  0.3231  0.1061
  321TMC3    O1 4832   2.350   4.059  16.949 -0.1131 -0.0374 -0.0232
  321TMC3    O2 4833   1.976   4.370  17.066 -0.4216 -0.1697 -0.1451
  322MPD2     C 4834   0.052   0.949  13.493 -0.3068  0.1367 -0.3600
  322MPD2    C1 4835   0.040   0.927  13.625  0.1136  0.5662  0.0949
  322MPD2    C2 4836   0.033   0.800  13.677  0.3842  0.4214 -0.5012
  322MPD2    C3 4837   0.022   0.686  13.598 -0.6994 -0.6248  0.7860
  322MPD2    C4 4838   0.038   0.704  13.462  0.5438 -0.1769 -0.1324
  322MPD2    C5 4839   0.046   0.833  13.414  0.4142 -0.4574 -0.3966
  322MPD2     H 4840   0.023   0.793  13.785  0.5919  0.2250 -0.4958
  322MPD2    H1 4841   0.047   0.620  13.394  0.5662 -0.4726  0.2304
  322MPD2    H2 4842   0.055   1.050  13.454  1.0134 -0.0605 -0.7612
  322MPD2    H3 4843   0.053   0.854  13.308 -1.1860  1.2577 -0.1571
  322MPD2     N 4844   0.019   0.571  13.670  0.7128  1.1247 -0.1290
  322MPD2    H5 4845   0.028   0.580  13.771 -0.0995  1.7692 -0.1208
  322MPD2    N1 4846   0.065   1.031  13.711 -0.4465 -0.5936 -0.3832
  322MPD2    H7 4847   0.113   1.115  13.680 -1.0356 -0.0971  0.0486
  323TMC3    C1 4848   0.113   1.128  13.932  0.1884  0.3333  0.6256
  323TMC3    C2 4849   0.229   1.173  13.873  0.6940  1.0614  0.0289
  323TMC3    C3 4850   0.330   1.216  13.954  0.2288 -0.0497 -0.6220
  323TMC3    C4 4851   0.109   1.100  14.065 -1.0557 -0.0222  0.1000
  323TMC3    C5 4852   0.222   1.129  14.150 -0.3646 -0.3221 -0.3971
  323TMC3    C6 4853   0.330   1.194  14.091  0.6204  0.4078  0.4255
  323TMC3     C 4854   0.037   1.034  13.852 -0.3392  0.2906 -0.1963
  323TMC3     O 4855   4.679   0.958  13.911  0.4954  0.1345 -0.3196
  323TMC3     H 4856   0.229   1.198  13.767  0.2989  0.5595 -0.0906
  323TMC3    H1 4857   0.023   1.047  14.103 -1.8005  1.2140  0.1307
  323TMC3    H2 4858   0.425   1.204  14.142 -0.9737  1.1449  3.2392
  323TMC3    C7 4859   0.239   1.030  14.245  0.3122 -0.4990  1.1857
  323TMC3    C8 4860   0.446   1.266  13.886 -0.0846 -0.2545  0.3328
  323TMC3    O1 4861   0.173   0.933  14.238 -0.0310  0.0885 -0.5327
  323TMC3    O2 4862   0.550   1.263  13.950 -0.0873 -0.1028 -0.4029
  324MPD2     C 4863   1.818   1.514  14.122  0.3205  0.3376 -0.0735
  324MPD2    C1 4864   1.842   1.624  14.203  0.0442  0.0794 -0.3729
  324MPD2    C2 4865   1.738   1.684  14.275 -0.8307  0.3644  1.2104
  324MPD2    C3 4866   1.613   1.627  14.285 -0.1188  0.6544 -0.0445
  324MPD2    C4 4867   1.591   1.512  14.210  0.6425 -0.7790  0.8080
  324MPD2    C5 4868   1.690   1.458  14.134 -0.2251  0.1611 -0.0644
  324MPD2     H 4869   1.769   1.770  14.333  0.0878  0.3612  0.7189
  324MPD2    H1 4870   1.496   1.460  14.202  0.3032 -0.1097  0.4489
  324MPD2    H2 4871   1.898   1.464  14.069  0.6494 -2.2501  2.8406
  324MPD2    H3 4872   1.663   1.364  14.087 -0.1580  1.4028 -2.5598
  324MPD2     N 4873   1.507   1.678  14.361 -0.3152  0.1341  0.0578
  324MPD2    H5 4874   1.416   1.635  14.347 -0.2176 -1.0251  2.8034
  324MPD2    N1 4875   1.963   1.697  14.195  0.1326  0.2319 -0.2546
  324MPD2    H7 4876   1.984   1.771  14.261  0.5032  1.3694 -1.6544
  325TMC3    C1 4877   1.380   1.850  14.470 -0.3356  0.6390 -0.7091
  325TMC3    C2 4878   1.275   1.826  14.389  0.4900  0.0808  0.0572
  325TMC3    C3 4879   1.178   1.922  14.383  0.3454 -0.1199  0.6574
  325TMC3    C4 4880   1.392   1.966  14.533  0.2746  0.9245 -0.3643
  325TMC3    C5 4881   1.286   2.059  14.538  0.2114 -0.1418 -0.0009
  325TMC3    C6 4882   1.181   2.038  14.456 -0.0759  0.2490  0.3436
  325TMC3     C 4883   1.514   1.791  14.440  0.5564 -0.2982 -0.2689
  325TMC3     O 4884   1.614   1.861  14.450  0.3798 -0.4312 -0.4273
  325TMC3     H 4885   1.282   1.762  14.301  0.4498  0.0341  0.0881
  325TMC3    H1 4886   1.484   1.990  14.584  0.3032  0.2898 -0.1211
  325TMC3    H2 4887   1.100   2.110  14.457 -1.0630 -0.8487 -0.8740
  325TMC3    C7 4888   1.323   2.185  14.595  0.5625 -0.0160  0.2533
  325TMC3    C8 4889   1.108   1.922  14.255 -0.4960  0.1258 -0.3038
  325TMC3    O1 4890   1.432   2.197  14.646 -0.2937  0.3614  0.6916
  325TMC3    O2 4891   1.078   2.031  14.205  0.0552  0.9485  0.4967
  326MPD2     C 4892   3.432   2.850  11.188  0.6416  0.0695 -0.3644
  326MPD2    C1 4893   3.371   2.845  11.064 -0.6945 -0.0425  0.3305
  326MPD2    C2 4894   3.414   2.938  10.969  0.7336 -0.0159  0.8199
  326MPD2    C3 4895   3.491   3.048  11.010  0.6547  0.2493 -0.3285
  326MPD2    C4 4896   3.538   3.058  11.140 -0.4364  0.2642 -0.4480
  326MPD2    C5 4897   3.506   2.958  11.229 -0.0266  0.3620 -0.4469
  326MPD2     H 4898   3.370   2.935  10.870  0.5951 -1.7839  0.9388
  326MPD2    H1 4899   3.598   3.144  11.168  1.1578 -0.3129 -2.1151
  326MPD2    H2 4900   3.398   2.778  11.261  2.6638  0.6467  1.1461
  326MPD2    H3 4901   3.554   2.962  11.326  0.1139 -0.4651 -0.4869
  326MPD2     N 4902   3.529   3.153  10.927 -0.1750  0.1085 -0.3381
  326MPD2    H5 4903   3.567   3.237  10.971  0.5670  0.2008 -1.1452
  326MPD2    N1 4904   3.263   2.756  11.042  0.1040  0.0614 -0.8099
  326MPD2    H7 4905   3.212   2.763  10.955 -0.4566 -0.8071 -0.5547
  327TMC3    C1 4906   3.152   2.564  11.042 -0.4326  0.4812  0.3346
  327TMC3    C2 4907   3.028   2.615  11.019 -0.1327  0.4809  0.3137
  327TMC3    C3 4908   2.963   2.576  10.911  0.8018  0.4282 -0.3060
  327TMC3    C4 4909   3.214   2.469  10.962 -0.0201 -0.1328 -0.3814
  327TMC3    C5 4910   3.156   2.439  10.840  0.5767 -0.3879  0.2909
  327TMC3    C6 4911   3.022   2.480  10.824  0.2069 -0.0599  0.2279
  327TMC3     C 4912   3.242   2.642  11.119 -0.2332  0.5128  0.6456
  327TMC3     O 4913   3.315   2.585  11.201  0.2571  0.4364  0.2736
  327TMC3     H 4914   2.981   2.681  11.092 -0.1647 -1.9005  2.4367
  327TMC3    H1 4915   3.315   2.437  10.986 -0.1990 -2.1897 -2.3534
  327TMC3    H2 4916   2.982   2.450  10.728 -0.2039 -1.7064  0.9132
  327TMC3    C7 4917   3.242   2.462  10.724 -0.3188  0.5326  0.0423
  327TMC3    C8 4918   2.890   2.677  10.840  0.0443 -0.5856  0.2347
  327TMC3    O1 4919   3.179   2.465  10.619  0.7163 -0.2012 -0.5244
  327TMC3    O2 4920   2.870   2.646  10.724  0.3503  0.5224  0.2826
  328MPD2     C 4921   1.010   2.767  16.675  0.0997  0.4105 -0.1633
  328MPD2    C1 4922   0.898   2.692  16.648  0.5858 -1.1329 -0.0017
  328MPD2    C2 4923   0.780   2.730  16.707 -0.0245  0.2688 -0.1704
  328MPD2    C3 4924   0.773   2.842  16.792 -0.1372  0.0486  0.8264
  328MPD2    C4 4925   0.889   2.902  16.836 -0.7528 -0.3593  0.5011
  328MPD2    C5 4926   1.004   2.865  16.775 -0.2424  0.2229 -0.5098
  328MPD2     H 4927   0.686   2.685  16.675 -0.2133  1.3662 -1.1688
  328MPD2    H1 4928   0.887   2.997  16.888 -1.0337  0.1605 -0.4480
  328MPD2    H2 4929   1.109   2.748  16.637  0.6919  0.7961  1.1673
  328MPD2    H3 4930   1.089   2.932  16.788  0.3308 -0.9389  1.7167
  328MPD2     N 4931   0.652   2.896  16.830 -0.0630  0.2728  0.0311
  328MPD2    H5 4932   0.650   2.980  16.887 -1.2136  0.1460  0.1787
  328MPD2    N1 4933   0.910   2.584  16.562 -0.0257  0.0430 -0.2232
  328MPD2    H7 4934   1.005   2.563  16.533  0.6330  2.1128  0.4125
  329TMC3    C1 4935   0.882   2.362  16.493 -0.1439 -0.2800  0.5132
  329TMC3    C2 4936   0.836   2.240  16.539  0.1073  0.3273  0.1225
  329TMC3    C3 4937   0.869   2.123  16.465 -0.5137  0.3436 -0.4240
  329TMC3    C4 4938   0.954   2.372  16.375  0.3209 -0.0016  0.0405
  329TMC3    C5 4939   0.965   2.257  16.295  0.3206 -0.5115  0.0013
  329TMC3    C6 4940   0.922   2.130  16.339 -0.5355  0.0395  0.2344
  329TMC3     C 4941   0.821   2.477  16.561  0.6058  0.0846 -0.0079
  329TMC3     O 4942   0.722   2.447  16.630 -0.3886 -0.3349  0.2896
  329TMC3     H 4943   0.780   2.242  16.632  0.7135  0.5357  0.4773
  329TMC3    H1 4944   0.975   2.468  16.327 -0.3709  0.4307  0.6107
  329TMC3    H2 4945   0.951   2.044  16.280 -0.6757  1.3765 -1.7623
  329TMC3    C7 4946   1.007   2.282  16.162 -0.1702 -0.3158  0.1541
  329TMC3    C8 4947   0.798   2.002  16.490  0.4298  0.5067  0.3393
  329TMC3    O1 4948   1.082   2.374  16.134 -1.2419 -0.1846  0.4525
  329TMC3    O2 4949   0.812   1.912  16.405 -0.0163  0.5566 -0.5168
  330TMC3    C1 4950   3.814   2.462   9.659  0.2714  0.1845 -0.4577
  330TMC3    C2 4951   3.744   2.352   9.613  1.0515  0.1330 -0.7742
  330TMC3    C3 4952   3.794   2.233   9.646 -0.6771  0.2048 -0.8691
  330TMC3    C4 4953   3.927   2.451   9.730  0.0265 -0.3427 -0.1150
  330TMC3    C5 4954   3.975   2.327   9.768  0.2070 -0.3458 -0.3199
  330TMC3    C6 4955   3.901   2.216   9.730 -0.7184  0.3073  0.0977
  330TMC3     C 4956   3.751   2.597   9.665  0.0836  0.4449 -0.1378
  330TMC3     O 4957   3.800   2.695   9.726  0.8189 -0.8443 -0.7381
  330TMC3     H 4958   3.647   2.354   9.565  0.3999  1.0981  0.5925
  330TMC3    H1 4959   3.979   2.540   9.766 -0.1640  0.9236 -2.8932
  330TMC3    H2 4960   3.928   2.117   9.764  0.0757  1.2857  2.3072
  330TMC3    C7 4961   4.080   2.318   9.866  0.7208  0.1921  0.6120
  330TMC3    C8 4962   3.718   2.117   9.611 -0.2284  0.7767 -0.3397
  330TMC3    O1 4963   4.099   2.414   9.937 -0.3581 -0.2333 -0.4795
  330TMC3    O2 4964   3.734   2.018   9.681 -0.3661 -0.1490 -0.1120
  331MPD2     C 4965   1.254   1.039  12.057  0.3474  0.0594  0.0563
  331MPD2    C1 4966   1.325   1.154  12.039 -0.0738  0.2122  0.3627
  331MPD2    C2 4967   1.467   1.137  12.010  0.6544 -0.0831  0.6342
  331MPD2    C3 4968   1.529   1.011  11.991  0.6143 -0.2737  0.5560
  331MPD2    C4 4969   1.450   0.901  12.013 -0.2478  0.1562  0.3745
  331MPD2    C5 4970   1.319   0.917  12.051  0.2377 -0.6489  0.4759
  331MPD2     H 4971   1.536   1.218  11.989 -1.6897  1.6313 -0.5116
  331MPD2    H1 4972   1.490   0.801  12.004  1.8272  0.9413  0.7628
  331MPD2    H2 4973   1.147   1.048  12.071  0.3992 -0.5882  0.8334
  331MPD2    H3 4974   1.265   0.823  12.062 -0.8362 -0.2327 -1.2322
  331MPD2     N 4975   1.668   0.997  11.943  0.2885 -0.5318 -0.3899
  331MPD2    H5 4976   1.729   1.072  11.971 -1.3085 -0.3936  2.7478
  331MPD2    N1 4977   1.265   1.280  12.053  0.4272 -0.3671  0.2651
  331MPD2    H7 4978   1.166   1.277  12.076  0.7066  0.7144  1.5631
  332TMC3    C1 4979   1.876   0.907  11.889 -0.3101 -0.8192 -0.0602
  332TMC3    C2 4980   1.920   1.024  11.847 -0.1670 -0.4029  0.3241
  332TMC3    C3 4981   2.055   1.045  11.848  0.4811  0.2870  0.3791
  332TMC3    C4 4982   1.969   0.805  11.921  0.6988  0.1013 -0.2299
  332TMC3    C5 4983   2.098   0.839  11.945 -0.0911 -0.8563 -0.3282
  332TMC3    C6 4984   2.144   0.955  11.897  0.5983  0.1753 -0.6143
  332TMC3     C 4985   1.735   0.886  11.897 -0.3369  0.1031  0.6512
  332TMC3     O 4986   1.690   0.777  11.870  0.1264  0.0150 -0.0318
  332TMC3     H 4987   1.854   1.102  11.811 -1.0565 -0.6927  1.3238
  332TMC3    H1 4988   1.919   0.714  11.953 -0.0349  0.2452 -0.9664
  332TMC3    H2 4989   2.243   0.992  11.921 -0.3336  1.6135  0.9768
  332TMC3    C7 4990   2.170   0.768  12.048 -0.2435 -0.2988 -0.2426
  332TMC3    C8 4991   2.097   1.183  11.820  0.4420 -0.2813  0.0507
  332TMC3    O1 4992   2.112   0.670  12.084 -0.0629  0.5812  0.6031
  332TMC3    O2 4993   2.199   1.238  11.870 -0.1172 -0.5691  0.0086
  333MPD2     C 4994   1.764   1.358  11.203  0.0870 -0.0388  0.1482
  333MPD2    C1 4995   1.766   1.258  11.106 -0.1836 -0.1598 -0.0390
  333MPD2    C2 4996   1.696   1.140  11.124  0.2398 -0.9069 -0.3014
  333MPD2    C3 4997   1.646   1.110  11.248  0.4456  0.2778  0.3506
  333MPD2    C4 4998   1.640   1.208  11.340  0.2094 -0.5780 -0.8000
  333MPD2    C5 4999   1.693   1.329  11.320 -0.2278 -0.6470 -0.4586
  333MPD2     H 5000   1.682   1.064  11.047  0.1242 -0.6640 -0.5213
  333MPD2    H1 5001   1.599   1.201  11.440 -1.7775  1.6395 -1.4911
  333MPD2    H2 5002   1.809   1.457  11.196  0.0790 -0.0085  0.5243
  333MPD2    H3 5003   1.679   1.405  11.396  0.1954  0.5806 -1.5995
  333MPD2     N 5004   1.607   0.974  11.270 -0.0541  0.4020 -0.6580
  333MPD2    H5 5005   1.598   0.921  11.183  0.0740 -1.3115  0.3693
  333MPD2    N1 5006   1.842   1.288  10.990  0.1008  0.1069 -0.6296
  333MPD2    H7 5007   1.885   1.381  10.992 -1.6109  0.9026 -0.8204
  334TMC3    C1 5008   1.920   1.299  10.779  0.3999 -0.3114 -0.2327
  334TMC3    C2 5009   1.994   1.232  10.689 -0.0632 -0.2698  0.0328
  334TMC3    C3 5010   2.067   1.307  10.599  0.5866  1.1142 -0.0991
  334TMC3    C4 5011   1.902   1.431  10.777  0.7868  0.1126  0.1601
  334TMC3    C5 5012   1.968   1.501  10.676 -0.6776  0.2770  0.2028
  334TMC3    C6 5013   2.059   1.443  10.592  0.5280  0.2243  0.4168
  334TMC3     C 5014   1.866   1.213  10.877  0.4574  0.1774  0.4830
  334TMC3     O 5015   1.852   1.093  10.859  0.4868  0.7706 -0.0056
  334TMC3     H 5016   2.015   1.127  10.704 -1.1498 -0.7836 -1.9955
  334TMC3    H1 5017   1.829   1.478  10.842  0.9472 -1.5923  1.5789
  334TMC3    H2 5018   2.116   1.502  10.521  1.6830 -0.3379  0.8921
  334TMC3    C7 5019   1.953   1.645  10.661 -1.0115  0.1507  0.1249
  334TMC3    C8 5020   2.177   1.251  10.528  0.6134 -0.5267 -0.1802
  334TMC3    O1 5021   1.969   1.707  10.762  0.0911 -0.4760 -0.9170
  334TMC3    O2 5022   2.170   1.139  10.479  0.9914  0.0213  0.2977
  335TMC3    C1 5023   1.021   2.797  17.652 -0.0692 -0.1840 -0.3737
  335TMC3    C2 5024   0.974   2.760  17.527 -0.5308  0.1088 -0.4309
  335TMC3    C3 5025   1.059   2.774  17.416 -0.6575  0.4736 -0.7677
  335TMC3    C4 5026   1.153   2.843  17.666  0.3477 -0.4100  0.1608
  335TMC3    C5 5027   1.229   2.854  17.552  0.2485 -0.2498  0.2157
  335TMC3    C6 5028   1.184   2.834  17.429  0.0313 -0.3221 -0.0305
  335TMC3     C 5029   0.933   2.802   0.080  0.1521 -0.6813 -0.1069
  335TMC3     O 5030   0.841   2.722   0.078  1.0200  0.1987  0.2924
  335TMC3     H 5031   0.867   2.741  17.521 -1.1541  2.8696  1.9197
  335TMC3    H1 5032   1.192   2.835   0.080  0.0251  0.6725  0.3750
  335TMC3    H2 5033   1.246   2.849  17.341  0.5202  0.9252  0.5349
  335TMC3    C7 5034   1.381   2.879  17.549  0.0945  0.7757  0.2088
  335TMC3    C8 5035   1.019   2.724  17.282  0.2045 -0.6540 -0.0895
  335TMC3    O1 5036   1.431   2.845  17.443 -0.7886 -0.2623 -0.3274
  335TMC3    O2 5037   1.077   2.780  17.189  0.4686 -0.0882  0.1773
  336MPD2     C 5038   1.098   0.891  16.186 -0.1137  0.0729 -0.2242
  336MPD2    C1 5039   1.013   0.806  16.116 -0.2873 -0.4411 -0.2414
  336MPD2    C2 5040   1.034   0.672  16.124 -0.1891  0.1874  0.5573
  336MPD2    C3 5041   1.143   0.620  16.190  0.8441  1.3391  0.0839
  336MPD2    C4 5042   1.234   0.704  16.249 -0.5308 -0.1360 -0.1937
  336MPD2    C5 5043   1.204   0.841  16.259 -0.2189 -0.6077 -0.4113
  336MPD2     H 5044   0.979   0.605  16.059  0.5057 -0.1569  0.3251
  336MPD2    H1 5045   1.322   0.662  16.296 -0.5607 -0.5496 -0.5177
  336MPD2    H2 5046   1.089   0.999  16.192 -2.2214  0.0510 -3.2085
  336MPD2    H3 5047   1.276   0.904  16.310 -1.6115  0.6257  0.0237
  336MPD2     N 5048   1.183   0.485  16.190 -0.7333 -0.0947  0.3496
  336MPD2    H5 5049   1.266   0.461  16.243  1.0603 -0.9846 -2.8311
  336MPD2    N1 5050   0.918   0.877  16.047  0.0744 -0.2340 -0.5774
  336MPD2    H7 5051   0.929   0.978  16.040  2.3644 -0.4685 -0.2084
  337TMC3    C1 5052   0.734   0.931  15.906 -0.3413 -0.2168  0.5499
  337TMC3    C2 5053   0.639   0.885  15.816 -0.3426 -0.1549 -0.2532
  337TMC3    C3 5054   0.566   0.974  15.743 -0.4599 -0.5888  0.1747
  337TMC3    C4 5055   0.746   1.062  15.939  0.6945  0.2273 -0.4025
  337TMC3    C5 5056   0.664   1.150  15.871 -0.0300 -0.4818 -1.1033
  337TMC3    C6 5057   0.577   1.108  15.769  0.3078  0.2418  0.7541
  337TMC3     C 5058   0.817   0.830  15.968 -0.6345  0.3489  1.0027
  337TMC3     O 5059   0.794   0.718  15.930  0.6528 -0.4360 -0.9695
  337TMC3     H 5060   0.625   0.779  15.800 -0.7914 -0.5531  2.6659
  337TMC3    H1 5061   0.821   1.098  16.009  0.2962 -3.4946  1.9501
  337TMC3    H2 5062   0.498   1.174  15.735  1.0725 -0.3516 -2.1417
  337TMC3    C7 5063   0.653   1.289  15.910  0.0281 -0.1980 -0.6096
  337TMC3    C8 5064   0.435   0.921  15.692  0.3761 -0.5846 -0.0484
  337TMC3    O1 5065   0.592   1.369  15.836 -0.0934  0.2217 -0.0160
  337TMC3    O2 5066   0.378   0.827  15.746  0.0412  0.5399  0.1325
  338MPD2     C 5067   1.266   4.331   0.769 -0.2911  0.7671 -0.5326
  338MPD2    C1 5068   1.320   4.415   0.673  0.8640 -0.3176 -0.4927
  338MPD2    C2 5069   1.320   4.553   0.690  0.6479  0.2054 -0.3450
  338MPD2    C3 5070   1.247   4.607   0.795 -0.8148 -0.1843  0.2616
  338MPD2    C4 5071   1.188   4.524   0.890  0.1165  0.4624  0.1132
  338MPD2    C5 5072   1.198   4.391   0.873  0.0935  0.2905  0.4033
  338MPD2     H 5073   1.352   4.608   0.602  0.7105  0.8999  0.1149
  338MPD2    H1 5074   1.131   4.562   0.974  1.2890  1.6075  0.3778
  338MPD2    H2 5075   1.271   4.223   0.762 -1.8911  0.6020  0.9246
  338MPD2    H3 5076   1.134   4.327   0.931  1.4055 -0.9629  0.4661
  338MPD2     N 5077   1.220   0.022   0.796 -0.2586 -0.3430 -0.5474
  338MPD2    H5 5078   1.267   0.071   0.720  0.7735  0.0724  0.3603
  338MPD2    N1 5079   1.368   4.366   0.556  0.1576 -0.6189  0.4774
  338MPD2    H7 5080   1.394   4.435   0.486 -2.5756  0.6760  0.7402
  339TMC3    C1 5081   1.146   0.237   0.855 -0.8964  0.1085 -0.0693
  339TMC3    C2 5082   1.040   0.314   0.869 -0.1144 -0.2601 -0.3704
  339TMC3    C3 5083   1.040   0.451   0.840  0.1013  0.2554 -0.2001
  339TMC3    C4 5084   1.256   0.287   0.791 -0.5800  0.1564  0.2197
  339TMC3    C5 5085   1.251   0.418   0.742 -0.3197  0.1118 -0.2182
  339TMC3    C6 5086   1.152   0.505   0.776  0.2648  1.3121 -0.3265
  339TMC3     C 5087   1.131   0.092   0.881 -0.1950  0.2916 -0.0767
  339TMC3     O 5088   1.036   0.060   0.948 -0.3400  0.1942 -0.6519
  339TMC3     H 5089   0.953   0.269   0.915 -0.3334  1.7288  1.1891
  339TMC3    H1 5090   1.341   0.223   0.775 -1.8119 -1.9116  1.8517
  339TMC3    H2 5091   1.156   0.613   0.769 -0.9591  1.2669 -1.7393
  339TMC3    C7 5092   1.351   0.470   0.653 -0.4795 -0.2686 -0.5479
  339TMC3    C8 5093   0.931   0.546   0.865  0.3448 -0.0999  0.3495
  339TMC3    O1 5094   1.317   0.577   0.607 -0.0214 -0.7925  0.6721
  339TMC3    O2 5095   0.950   0.664   0.836 -0.4972 -0.2217  0.2364
  340MPD2     C 5096   1.505   2.231   9.709 -0.2096 -0.2321  0.0706
  340MPD2    C1 5097   1.613   2.287   9.638  0.8944 -0.0148 -0.0191
  340MPD2    C2 5098   1.736   2.242   9.671 -0.1507  0.7273 -0.3586
  340MPD2    C3 5099   1.762   2.155   9.779 -0.3269 -0.1579  0.1136
  340MPD2    C4 5100   1.654   2.108   9.853  0.1241  0.2097 -0.5287
  340MPD2    C5 5101   1.533   2.148   9.815  1.3080 -0.1738 -0.6707
  340MPD2     H 5102   1.821   2.254   9.605  2.5093 -0.3896  2.8844
  340MPD2    H1 5103   1.678   2.051   9.942  0.7352  1.0232 -0.1724
  340MPD2    H2 5104   1.400   2.240   9.683  0.0886 -0.2339 -1.1378
  340MPD2    H3 5105   1.448   2.120   9.876 -0.1779  0.8738 -2.2648
  340MPD2     N 5106   1.890   2.100   9.817  0.2086  0.0905  0.1047
  340MPD2    H5 5107   1.894   2.038   9.897  1.4381 -2.4777 -1.9572
  340MPD2    N1 5108   1.584   2.361   9.517 -0.2611  0.2730 -0.8137
  340MPD2    H7 5109   1.486   2.374   9.494  0.7622  2.0925 -4.1313
  341TMC3    C1 5110   1.648   2.439   9.304 -0.5300 -0.1589  0.3560
  341TMC3    C2 5111   1.576   2.331   9.263 -0.2439  0.3172  0.0392
  341TMC3    C3 5112   1.624   2.272   9.148 -0.1397  0.2278  0.0831
  341TMC3    C4 5113   1.741   2.504   9.232 -0.4719 -0.6755  0.0718
  341TMC3    C5 5114   1.790   2.437   9.120 -0.1293  0.4532 -0.3029
  341TMC3    C6 5115   1.729   2.320   9.073  0.5780  0.3511 -0.8426
  341TMC3     C 5116   1.679   2.435   9.443  0.6513  0.4375  0.2890
  341TMC3     O 5117   1.796   2.453   9.469 -0.8271 -0.1201 -0.6062
  341TMC3     H 5118   1.499   2.283   9.322  1.0928 -1.5188  0.2859
  341TMC3    H1 5119   1.782   2.593   9.279  0.0428 -0.8283 -0.0979
  341TMC3    H2 5120   1.758   2.262   8.986  0.6487 -0.6727 -0.1472
  341TMC3    C7 5121   1.930   2.457   9.082  0.4191 -0.6261  0.0223
  341TMC3    C8 5122   1.586   2.132   9.131  0.9548  0.4131  0.6393
  341TMC3    O1 5123   2.002   2.366   9.044  0.1155  0.2869 -0.4672
  341TMC3    O2 5124   1.484   2.091   9.185 -0.4464  0.9350  0.0314
  342MPD2     C 5125   3.982   0.467  16.618 -0.5462 -0.0795 -0.0577
  342MPD2    C1 5126   3.988   0.400  16.736 -0.4590 -0.2467 -0.3237
  342MPD2    C2 5127   3.885   0.410  16.826 -0.0464 -0.3243 -0.3145
  342MPD2    C3 5128   3.773   0.489  16.797  0.5826 -0.6856  0.1891
  342MPD2    C4 5129   3.769   0.562  16.682  0.0178  0.1670  1.1559
  342MPD2    C5 5130   3.869   0.541  16.589  0.0909  0.3037 -0.1152
  342MPD2     H 5131   3.890   0.347  16.915  0.1769 -0.0940 -0.1653
  342MPD2    H1 5132   3.689   0.634  16.668 -3.4215 -3.5367  1.9240
  342MPD2    H2 5133   4.064   0.462  16.547 -0.1592  0.4349  0.3520
  342MPD2    H3 5134   3.863   0.586  16.491 -2.2346 -0.7290 -0.4363
  342MPD2     N 5135   3.654   0.504  16.873 -0.1094 -0.2473 -0.2907
  342MPD2    H5 5136   3.589   0.579  16.851  1.0946  0.9830  0.2718
  342MPD2    N1 5137   4.100   0.322  16.767  0.7258 -0.2906 -0.0474
  342MPD2    H7 5138   4.162   0.291  16.693 -2.1931 -0.9357 -2.2291
  343TMC3    C1 5139   4.229   0.171  16.877 -0.1194 -0.3517  0.5012
  343TMC3    C2 5140   4.336   0.178  16.950 -0.1550  0.1171  0.3926
  343TMC3    C3 5141   4.415   0.071  16.985  0.3646  0.6049 -0.2880
  343TMC3    C4 5142   4.184   0.056  16.828 -0.0598 -0.7179  0.6525
  343TMC3    C5 5143   4.253   4.661  16.858 -0.1105 -0.1860 -0.3294
  343TMC3    C6 5144   4.363   4.668  16.944  0.5561  0.1973 -0.1276
  343TMC3     C 5145   4.129   0.272  16.886  0.3321  0.4560  0.0344
  343TMC3     O 5146   4.100   0.321  16.994  0.9312  0.0944  0.3767
  343TMC3     H 5147   4.347   0.279  16.987 -2.2984  1.0715 -1.5473
  343TMC3    H1 5148   4.103   0.049  16.757 -0.3945  2.1067  0.7743
  343TMC3    H2 5149   4.403   4.576  16.985  0.2139 -0.1104 -0.4918
  343TMC3    C7 5150   4.144   4.564  16.887 -0.2983  0.4183 -0.7185
  343TMC3    C8 5151   4.558   0.081  17.015  0.6201 -0.9035  0.2583
  343TMC3    O1 5152   4.067   4.548  16.795  0.6331  0.0113 -0.2615
  343TMC3    O2 5153   4.603   0.167  17.084  0.8305 -0.3648  1.0433
  344MPD2     C 5154   0.676   1.056  10.233  0.0863 -0.4885  0.3086
  344MPD2    C1 5155   0.604   0.991  10.126  0.4215 -0.1491 -0.1262
  344MPD2    C2 5156   0.629   1.043   9.999  0.4838  0.6083 -0.4284
  344MPD2    C3 5157   0.732   1.138   9.984 -0.4834  0.4908  0.1342
  344MPD2    C4 5158   0.798   1.186  10.090 -0.1655 -0.2714 -0.5012
  344MPD2    C5 5159   0.773   1.147  10.216  0.4762  0.1044  0.5510
  344MPD2     H 5160   0.582   1.002   9.910 -2.4016 -0.7203  1.7397
  344MPD2    H1 5161   0.876   1.259  10.074 -0.4741 -0.2222 -1.7761
  344MPD2    H2 5162   0.654   1.029  10.336  0.2455 -2.8262 -0.2630
  344MPD2    H3 5163   0.831   1.179  10.302  1.5947 -0.7667  0.1254
  344MPD2     N 5164   0.760   1.212   9.862 -0.0258 -0.3600 -0.1378
  344MPD2    H5 5165   0.828   1.288   9.867  0.5957 -0.8513 -1.2822
  344MPD2    N1 5166   0.510   0.885  10.146 -0.0762 -0.5161  0.7638
  344MPD2    H7 5167   0.468   0.843  10.064  0.6312 -0.1204  0.1914
  345TMC3    C1 5168   0.764   1.265   9.635 -0.2815 -0.0111 -0.6164
  345TMC3    C2 5169   0.897   1.280   9.662  0.4831 -0.0699  0.2372
  345TMC3    C3 5170   0.969   1.392   9.620  0.2542  0.6796  0.3853
  345TMC3    C4 5171   0.699   1.357   9.553  0.0836  0.8917  0.2460
  345TMC3    C5 5172   0.765   1.470   9.523 -0.3606 -0.1835 -0.0456
  345TMC3    C6 5173   0.896   1.491   9.561 -0.4784 -0.4793  0.0385
  345TMC3     C 5174   0.693   1.194   9.738  0.2163 -0.0414 -0.1715
  345TMC3     O 5175   0.592   1.138   9.709 -0.0463  0.1093 -0.0984
  345TMC3     H 5176   0.949   1.209   9.724 -0.0240 -1.4466 -0.9248
  345TMC3    H1 5177   0.592   1.371   9.547 -0.3052 -1.6714  1.1563
  345TMC3    H2 5178   0.940   1.588   9.540 -0.6134 -0.3693  0.2627
  345TMC3    C7 5179   0.706   1.551   9.416  0.4136 -0.2044  0.0802
  345TMC3    C8 5180   1.038   1.447   9.731  0.4135 -0.4445 -0.0432
  345TMC3    O1 5181   0.754   1.666   9.411  0.0544 -0.4477  0.2015
  345TMC3    O2 5182   1.004   1.413   9.843 -0.0315 -0.2122 -0.3540
  346MPD2     C 5183   4.649   2.634  14.518  0.6414 -0.0406  0.5318
  346MPD2    C1 5184   0.035   2.665  14.435 -0.2086  0.2601 -0.4341
  346MPD2    C2 5185   0.162   2.643  14.486 -0.4689  0.1915 -0.0236
  346MPD2    C3 5186   0.180   2.591  14.608  0.2866 -0.0550 -0.5200
  346MPD2    C4 5187   0.073   2.543  14.675  1.1321 -0.2372  0.3889
  346MPD2    C5 5188   4.670   2.555  14.624  0.6457  0.3719 -0.3814
  346MPD2     H 5189   0.249   2.661  14.424 -0.2531 -0.7776  0.0096
  346MPD2    H1 5190   0.077   2.498  14.774 -0.3425 -0.0836  0.5164
  346MPD2    H2 5191   4.548   2.652  14.481  1.0989 -0.7219 -1.0549
  346MPD2    H3 5192   4.588   2.517  14.684 -0.5251  1.8006 -1.0697
  346MPD2     N 5193   0.304   2.598  14.673 -0.2036  0.6540 -0.1351
  346MPD2    H5 5194   0.380   2.613  14.607  0.2393 -3.5726 -0.5790
  346MPD2    N1 5195   0.028   2.716  14.307  0.6474 -0.1178  0.2698
  346MPD2    H7 5196   0.111   2.731  14.249  0.3614  1.5119  0.2821
  347TMC3    C1 5197   0.467   2.640  14.830 -0.0334  0.6962 -0.6106
  347TMC3    C2 5198   0.568   2.592  14.753  0.6750  0.1897  0.0634
  347TMC3    C3 5199   0.694   2.639  14.771  0.3526  0.0447  0.4616
  347TMC3    C4 5200   0.498   2.723  14.939 -0.0237  0.1593 -0.1988
  347TMC3    C5 5201   0.630   2.748  14.968 -0.3736  0.6519 -0.2892
  347TMC3    C6 5202   0.733   2.713  14.881  0.5620 -0.4161  0.1722
  347TMC3     C 5203   0.327   2.608  14.807  0.0783  0.1624  0.5472
  347TMC3     O 5204   0.242   2.622  14.895  0.1753  0.0884 -0.5001
  347TMC3     H 5205   0.548   2.525  14.671  1.1963 -0.8842  0.8095
  347TMC3    H1 5206   0.415   2.759  14.999 -0.6137 -2.0291  0.3079
  347TMC3    H2 5207   0.840   2.724  14.894  0.4255 -0.0250  0.9389
  347TMC3    C7 5208   0.659   2.751  15.115  0.4178 -0.1741  1.0397
  347TMC3    C8 5209   0.797   2.572  14.690 -0.0311  0.3338 -0.4830
  347TMC3    O1 5210   0.571   2.715  15.190  0.5335  0.6084 -0.1251
  347TMC3    O2 5211   0.775   2.461  14.645 -0.3888 -0.0533 -0.4230
  348MPD2     C 5212   4.574   2.155  11.843 -0.1535 -0.0320  0.2713
  348MPD2    C1 5213   4.544   2.077  11.734 -0.0474  0.3847  0.0216
  348MPD2    C2 5214   4.518   2.137  11.611 -0.0713 -0.0968  0.1371
  348MPD2    C3 5215   4.554   2.265  11.583 -0.4673  0.1954  0.4941
  348MPD2    C4 5216   4.591   2.342  11.693  0.1390  0.1334 -0.1889
  348MPD2    C5 5217   4.593   2.290  11.823 -0.5713  0.1562 -0.4539
  348MPD2     H 5218   4.482   2.070  11.534 -2.1328 -1.6482  2.4560
  348MPD2    H1 5219   4.626   2.443  11.674 -0.4531  0.3691 -0.0161
  348MPD2    H2 5220   4.599   2.112  11.940  1.0290 -1.5755 -0.7169
  348MPD2    H3 5221   4.624   2.355  11.903 -0.5170 -1.0626  0.5220
  348MPD2     N 5222   4.547   2.313  11.451  0.2840  0.6066  0.1284
  348MPD2    H5 5223   4.517   2.240  11.388  2.6197  2.4045 -3.0434
  348MPD2    N1 5224   4.517   1.939  11.745 -0.3335 -0.0701  0.3175
  348MPD2    H7 5225   4.464   1.888  11.674 -0.9519 -0.4747  1.0729
  349TMC3    C1 5226   4.499   1.723  11.840  0.1642  0.1122 -0.4908
  349TMC3    C2 5227   4.469   1.652  11.955 -0.7269 -0.2804 -0.0841
  349TMC3    C3 5228   4.416   1.524  11.941 -0.2350 -1.0285  0.0260
  349TMC3    C4 5229   4.480   1.665  11.716  0.2141 -0.0799 -0.4055
  349TMC3    C5 5230   4.439   1.536  11.713  0.6314 -0.7298 -0.4281
  349TMC3    C6 5231   4.386   1.473  11.818  0.0100  0.1352 -0.4293
  349TMC3     C 5232   4.550   1.856  11.855  0.0664 -0.0049 -0.3561
  349TMC3     O 5233   4.612   1.883  11.958  0.6649 -0.4488  1.3435
  349TMC3     H 5234   4.489   1.683  12.057 -0.9160 -1.5429  0.3298
  349TMC3    H1 5235   4.494   1.726  11.627 -0.8468  2.0045  0.8397
  349TMC3    H2 5236   4.343   1.374  11.816 -0.7862  0.3966  2.4292
  349TMC3    C7 5237   4.375   1.491  11.587 -0.2377  0.0104  0.5171
  349TMC3    C8 5238   4.374   1.455  12.060 -0.2188  0.0760  0.0918
  349TMC3    O1 5239   4.255   1.467  11.589  0.0605 -0.1207 -0.1816
  349TMC3    O2 5240   4.376   1.333  12.056 -0.0816  0.0807 -0.0390
  350MPD2     C 5241   2.993   0.011   9.840  0.8198 -0.2793  0.2783
  350MPD2    C1 5242   3.034   4.598   9.833 -0.3111  0.4186  0.5969
  350MPD2    C2 5243   3.170   4.569   9.826 -0.6662 -0.3838  0.2896
  350MPD2    C3 5244   3.261   4.664   9.832  0.5830 -0.1271  0.6785
  350MPD2    C4 5245   3.222   0.071   9.837  0.4978  0.0986 -0.0992
  350MPD2    C5 5246   3.088   0.107   9.845  0.3054 -0.1837 -0.9077
  350MPD2     H 5247   3.202   4.466   9.831  0.3948 -0.1140 -1.0347
  350MPD2    H1 5248   3.297   0.147   9.819  1.0730 -0.1523  1.2580
  350MPD2    H2 5249   2.889   0.040   9.846  1.0242  1.3045 -3.9306
  350MPD2    H3 5250   3.057   0.210   9.852 -0.1361 -0.5280  2.4474
  350MPD2     N 5251   3.393   4.615   9.846  0.5804  0.2924  0.4520
  350MPD2    H5 5252   3.405   4.514   9.836  0.0153  0.4052 -1.3990
  350MPD2    N1 5253   2.949   4.487   9.819 -0.1420 -0.1814 -0.7898
  350MPD2    H7 5254   2.985   4.392   9.826  0.4649  0.2450  1.9794
  351TMC3    C1 5255   2.751   4.356   9.851 -0.4611  0.3027  0.1090
  351TMC3    C2 5256   2.831   4.242   9.835 -0.5197  0.1697  0.4208
  351TMC3    C3 5257   2.777   4.114   9.874 -0.1639  0.4773 -0.1766
  351TMC3    C4 5258   2.627   4.348   9.911 -0.0351 -0.6837 -0.5166
  351TMC3    C5 5259   2.577   4.226   9.945  0.0784  0.6003 -0.3636
  351TMC3    C6 5260   2.654   4.111   9.926  0.8568 -0.2114  0.0182
  351TMC3     C 5261   2.812   4.484   9.846 -0.3560  0.5140  0.1086
  351TMC3     O 5262   2.737   4.580   9.872  0.1067 -0.1196 -0.5157
  351TMC3     H 5263   2.935   4.245   9.804 -0.2690 -1.7326  1.0662
  351TMC3    H1 5264   2.563   4.431   9.940  0.7600 -0.1123 -0.3933
  351TMC3    H2 5265   2.605   4.017   9.951  0.6067 -0.2872 -0.7641
  351TMC3    C7 5266   2.453   4.227  10.028  0.6407 -0.8476  0.6631
  351TMC3    C8 5267   2.877   4.007   9.910  0.6496 -0.2978 -0.3178
  351TMC3    O1 5268   2.382   4.322  10.010  0.5162 -0.2834 -0.0576
  351TMC3    O2 5269   2.991   4.052   9.915  0.2594 -0.7154 -0.4089
  352MPD2     C 5270   0.374   1.899   1.365  0.3411  0.8856 -1.2521
  352MPD2    C1 5271   0.291   1.871   1.256 -0.0299  0.2124  0.1043
  352MPD2    C2 5272   0.256   1.739   1.229  0.0330 -0.2897  0.2222
  352MPD2    C3 5273   0.304   1.637   1.310 -0.9157  0.3978  0.3956
  352MPD2    C4 5274   0.386   1.670   1.417 -0.1945  0.5681  0.1969
  352MPD2    C5 5275   0.419   1.802   1.446 -0.0217 -0.1010  0.2623
  352MPD2     H 5276   0.185   1.710   1.152 -0.5885  1.9757 -0.0487
  352MPD2    H1 5277   0.430   1.593   1.479 -1.1734 -0.9935 -1.0527
  352MPD2    H2 5278   0.404   2.001   1.386  0.0431  0.9498 -1.1418
  352MPD2    H3 5279   0.478   1.825   1.534 -1.6565 -0.7986  1.5301
  352MPD2     N 5280   0.298   1.501   1.280  0.5192  0.1328  0.2748
  352MPD2    H5 5281   0.364   1.442   1.330  0.0791 -1.2346 -0.7540
  352MPD2    N1 5282   0.250   1.982   1.176 -0.2782  0.6809 -0.0644
  352MPD2    H7 5283   0.280   2.077   1.198  2.4830  0.1813 -1.6224
  353TMC3    C1 5284   0.263   1.314   1.151  0.6575 -0.0738  0.2342
  353TMC3    C2 5285   0.323   1.229   1.245  0.5554  0.2878  0.3519
  353TMC3    C3 5286   0.405   1.128   1.201 -0.3020 -0.4309  0.5986
  353TMC3    C4 5287   0.292   1.302   1.021  0.2612  0.1994  0.0448
  353TMC3    C5 5288   0.360   1.190   0.975 -0.6219 -0.3071  0.0804
  353TMC3    C6 5289   0.409   1.105   1.068  0.0112  0.6115  0.0681
  353TMC3     C 5290   0.214   1.443   1.182 -0.4540  0.0855 -0.5855
  353TMC3     O 5291   0.132   1.497   1.103  0.3539 -0.1143 -0.2546
  353TMC3     H 5292   0.301   1.253   1.349  0.2457 -0.9360  0.5711
  353TMC3    H1 5293   0.260   1.373   0.945  0.6329  0.6246  0.2866
  353TMC3    H2 5294   0.464   1.018   1.033  0.6058 -0.0276  2.6233
  353TMC3    C7 5295   0.438   1.207   0.862  0.4005  0.6427 -0.6260
  353TMC3    C8 5296   0.427   1.014   1.287 -0.4526 -0.2555  0.0534
  353TMC3    O1 5297   0.492   1.319   0.849 -0.2151  0.4332 -0.3538
  353TMC3    O2 5298   0.352   0.997   1.379  0.2471  0.2476  0.3094
  354TMC3    C1 5299   3.220   3.127  13.402  0.4009  0.6599  0.9810
  354TMC3    C2 5300   3.330   3.204  13.434  0.1824  0.3608 -0.1189
  354TMC3    C3 5301   3.434   3.211  13.348  1.0548  0.3347  0.0308
  354TMC3    C4 5302   3.223   3.036  13.301  1.0754  0.3277 -0.8124
  354TMC3    C5 5303   3.327   3.041  13.220  0.0606 -0.4384  0.1518
  354TMC3    C6 5304   3.435   3.127  13.241  0.1784 -0.2536 -0.1446
  354TMC3     C 5305   3.097   3.194  13.436  0.5844  0.6012  0.1781
  354TMC3     O 5306   3.072   3.205  13.555 -0.3756  0.2257 -0.2604
  354TMC3     H 5307   3.322   3.273  13.517  1.9309 -1.6533  1.7200
  354TMC3    H1 5308   3.128   3.013  13.254  0.7934 -1.1229  0.4619
  354TMC3    H2 5309   3.527   3.125  13.185  0.6859  1.7548  0.6487
  354TMC3    C7 5310   3.318   2.983  13.081  0.4425  0.3351  0.5545
  354TMC3    C8 5311   3.524   3.320  13.366  0.1733 -0.5834 -0.7701
  354TMC3    O1 5312   3.229   2.896  13.063  0.1329  0.0824  0.2961
  354TMC3    O2 5313   3.529   3.388  13.466  0.4102  0.7347 -0.0807
  355MPD2     C 5314   3.304   3.857  11.868  0.1337 -0.5924 -0.4091
  355MPD2    C1 5315   3.331   3.913  11.749 -0.1179 -0.0618 -0.3300
  355MPD2    C2 5316   3.458   3.962  11.722 -0.7787 -0.2054  1.1367
  355MPD2    C3 5317   3.563   3.944  11.812  0.9104  0.7978 -0.5804
  355MPD2    C4 5318   3.535   3.893  11.933 -0.3770  0.1239  0.2556
  355MPD2    C5 5319   3.405   3.852  11.958  0.2484  0.1163 -0.4379
  355MPD2     H 5320   3.476   3.998  11.621 -1.3174 -0.7178  0.8577
  355MPD2    H1 5321   3.595   3.901  12.023  1.3690  0.7601 -0.9566
  355MPD2    H2 5322   3.206   3.823  11.901 -1.5227  1.7167 -2.9020
  355MPD2    H3 5323   3.384   3.815  12.058  1.5951 -0.3703 -0.3380
  355MPD2     N 5324   3.697   3.999  11.793 -0.1161 -0.3421 -0.0362
  355MPD2    H5 5325   3.762   4.000  11.871  0.4149 -1.0039 -0.4658
  355MPD2    N1 5326   3.230   3.914  11.651 -0.3767  0.2154  0.1395
  355MPD2    H7 5327   3.144   3.866  11.680 -0.7273  0.7466 -0.0287
  356TMC3    C1 5328   3.840   4.164  11.700  0.9627  0.0372  0.0260
  356TMC3    C2 5329   3.892   4.227  11.589 -0.0883  0.1332 -0.1090
  356TMC3    C3 5330   3.979   4.331  11.600  0.2173 -0.0982  0.3608
  356TMC3    C4 5331   3.880   4.207  11.824 -0.1489  1.2179  0.2671
  356TMC3    C5 5332   3.974   4.309  11.838 -0.1879  0.2904  0.3056
  356TMC3    C6 5333   4.026   4.378  11.726  0.1511  0.4187  0.1439
  356TMC3     C 5334   3.736   4.069  11.674 -0.1279  0.9220 -0.0102
  356TMC3     O 5335   3.678   4.073  11.564  0.6393 -0.0107  0.5441
  356TMC3     H 5336   3.868   4.183  11.493  1.4863 -0.5364 -0.1975
  356TMC3    H1 5337   3.844   4.155  11.912  2.1475  1.4594  1.3494
  356TMC3    H2 5338   4.103   4.454  11.735 -1.2615  1.8185  0.3704
  356TMC3    C7 5339   4.017   4.339  11.972 -0.1788  0.4594  0.5205
  356TMC3    C8 5340   3.972   4.426  11.484  0.5189  0.1244 -0.6794
  356TMC3    O1 5341   3.979   4.271  12.062  0.5850  0.0563  0.1572
  356TMC3    O2 5342   3.906   4.396  11.386 -0.7860  0.4393 -0.1190
  357MPD2     C 5343   2.533   3.740   1.607  0.0479  0.1332 -0.2078
  357MPD2    C1 5344   2.528   3.628   1.520  0.5330  0.0524 -0.7155
  357MPD2    C2 5345   2.399   3.581   1.500  0.7917 -0.2706 -0.1274
  357MPD2    C3 5346   2.282   3.647   1.545 -0.2919  0.3380  0.9336
  357MPD2    C4 5347   2.298   3.772   1.602  0.6557  0.2783 -0.3258
  357MPD2    C5 5348   2.424   3.817   1.632 -0.9127  0.4935  0.9868
  357MPD2     H 5349   2.396   3.488   1.444 -1.3736  2.1877 -4.1006
  357MPD2    H1 5350   2.217   3.837   1.635  1.5151  0.7428  0.8809
  357MPD2    H2 5351   2.633   3.774   1.631  0.3231 -1.9078  1.5011
  357MPD2    H3 5352   2.429   3.912   1.684  0.6370 -0.6938  2.9748
  357MPD2     N 5353   2.151   3.597   1.535 -0.0560  0.5096 -0.0812
  357MPD2    H5 5354   2.074   3.658   1.560 -1.0151  0.3561 -2.6490
  357MPD2    N1 5355   2.644   3.563   1.475  0.3200  0.4414  0.2780
  357MPD2    H7 5356   2.736   3.604   1.488 -0.0724  0.6230  2.5393
  358TMC3    C1 5357   2.779   3.425   1.343  0.1115 -0.1125 -0.3763
  358TMC3    C2 5358   2.781   3.322   1.248  0.3857  0.3707 -0.7860
  358TMC3    C3 5359   2.901   3.259   1.229  0.0901  0.1129  0.1147
  358TMC3    C4 5360   2.893   3.464   1.411  0.4763 -0.4043  0.2074
  358TMC3    C5 5361   3.006   3.405   1.375 -0.7869  0.4949 -0.2772
  358TMC3    C6 5362   3.017   3.310   1.278  0.5891 -0.2143 -0.2811
  358TMC3     C 5363   2.646   3.455   1.386  0.1289 -0.4600  0.0219
  358TMC3     O 5364   2.553   3.391   1.342  0.1221  0.1807 -0.5692
  358TMC3     H 5365   2.691   3.277   1.207 -0.2365  0.9682 -0.0777
  358TMC3    H1 5366   2.884   3.526   1.499 -2.9018  1.2482 -1.3149
  358TMC3    H2 5367   3.105   3.247   1.273 -0.3356 -1.5773  0.4235
  358TMC3    C7 5368   3.125   3.422   1.456  0.4015 -0.0607  0.0507
  358TMC3    C8 5369   2.919   3.170   1.119 -0.4517 -0.6043  0.1626
  358TMC3    O1 5370   3.222   3.352   1.442  0.0358  0.3995  0.4615
  358TMC3    O2 5371   3.033   3.158   1.072 -0.1375 -0.1617 -0.0777
  359MPD2     C 5372   3.967   3.159  12.013 -0.4824  0.4221  0.4468
  359MPD2    C1 5373   4.009   3.072  11.915 -0.3175 -0.5204 -0.5264
  359MPD2    C2 5374   3.926   2.975  11.859 -0.2358 -0.7114 -0.2865
  359MPD2    C3 5375   3.799   2.958  11.906 -0.2821  0.3978 -0.7959
  359MPD2    C4 5376   3.753   3.043  12.004 -0.6609  0.2114 -0.7406
  359MPD2    C5 5377   3.830   3.147  12.048 -0.2955 -0.4617  0.5375
  359MPD2     H 5378   3.962   2.918  11.775  4.0049  0.3624  0.7830
  359MPD2    H1 5379   3.651   3.035  12.041 -0.1693 -0.4343  0.4989
  359MPD2    H2 5380   4.033   3.234  12.057 -0.8321  0.3686  1.0673
  359MPD2    H3 5381   3.792   3.223  12.115  0.5344  0.2433  0.2069
  359MPD2     N 5382   3.728   2.842  11.873 -0.4950 -0.1907 -0.6756
  359MPD2    H5 5383   3.628   2.834  11.886 -0.7184  0.0775 -2.2431
  359MPD2    N1 5384   4.138   3.066  11.870 -0.1797 -0.1044  0.2239
  359MPD2    H7 5385   4.154   2.990  11.805 -0.5554  2.3942 -2.8035
  360TMC3    C1 5386   4.362   3.115  11.829 -0.2670  0.0069  0.7264
  360TMC3    C2 5387   4.454   3.216  11.814  0.3812  0.0286  0.3036
  360TMC3    C3 5388   4.551   3.202  11.715 -0.4142  0.1451  0.5011
  360TMC3    C4 5389   4.371   2.993  11.755  0.0093 -0.3027 -0.7231
  360TMC3    C5 5390   4.487   2.977  11.680  0.0468  0.5505  0.2588
  360TMC3    C6 5391   4.573   3.078  11.659 -0.0788 -0.4273 -0.3302
  360TMC3     C 5392   4.244   3.145  11.908 -0.4718  0.2825  0.2377
  360TMC3     O 5393   4.248   3.245  11.981  0.1636  0.6303  0.5064
  360TMC3     H 5394   4.434   3.314  11.857 -2.0807 -0.4912  0.3464
  360TMC3    H1 5395   4.298   2.914  11.768  0.3017 -0.7397 -1.7770
  360TMC3    H2 5396   4.656   3.048  11.596 -1.4410  0.1305 -2.3895
  360TMC3    C7 5397   4.474   2.877  11.577 -0.2931 -0.0384  1.1584
  360TMC3    C8 5398   4.606   3.319  11.635 -0.0811 -0.4026 -0.1950
  360TMC3    O1 5399   4.505   2.910  11.461 -0.4891 -0.2067  0.3279
  360TMC3    O2 5400   4.589   3.432  11.683  0.4828  0.5632 -0.4373
  361MPD2     C 5401   4.663   0.964  17.046 -0.4059 -0.3406 -0.5309
  361MPD2    C1 5402   4.709   1.087  16.999  0.0427 -0.3304 -0.4212
  361MPD2    C2 5403   0.125   1.100  16.967  0.2440 -0.2681 -0.0816
  361MPD2    C3 5404   0.211   0.988  16.982  0.1427 -0.6775  0.1675
  361MPD2    C4 5405   0.158   0.867  17.016 -0.2123  0.5196 -0.2863
  361MPD2    C5 5406   0.026   0.859  17.057  0.3578  0.0087 -0.0135
  361MPD2     H 5407   0.165   1.196  16.934  1.4682 -0.7301  0.0683
  361MPD2    H1 5408   0.224   0.783  17.029 -0.5841  0.0694 -1.3682
  361MPD2    H2 5409   4.564   0.938  17.082  1.8911 -2.5290  4.1829
  361MPD2    H3 5410   4.709   0.763  17.091  0.7215  0.3242  1.2798
  361MPD2     N 5411   0.345   1.004  16.957 -0.7876 -0.0527 -0.6337
  361MPD2    H5 5412   0.400   0.919  16.954  0.3909  0.6144  2.3952
  361MPD2    N1 5413   4.617   1.199  16.987 -0.7396 -0.3951  0.4234
  361MPD2    H7 5414   4.652   1.280  16.938  0.2739 -1.9471 -1.4248
  362TMC3    C1 5415   4.421   1.325  17.002 -0.3154 -0.0118  0.0243
  362TMC3    C2 5416   4.291   1.331  17.040 -0.1385 -0.2706  0.0236
  362TMC3    C3 5417   4.224   1.450  17.031 -0.2180  0.7908 -0.0100
  362TMC3    C4 5418   4.486   1.436  16.966 -0.1632 -0.0051  0.0121
  362TMC3    C5 5419   4.413   1.550  16.941  0.2682 -0.3184  0.1968
  362TMC3    C6 5420   4.284   1.566  16.991  0.2100 -0.3341  0.4666
  362TMC3     C 5421   4.493   1.205  17.035  0.3756 -0.9665 -0.2196
  362TMC3     O 5422   4.441   1.127  17.113 -0.4411 -0.3665 -0.2615
  362TMC3     H 5423   4.228   1.248  17.070  1.0142 -0.7149  1.2360
  362TMC3    H1 5424   4.593   1.424  16.951 -0.4167 -0.4611 -1.5100
  362TMC3    H2 5425   4.230   1.657  16.969 -2.3075 -2.0116 -0.3296
  362TMC3    C7 5426   4.483   1.670  16.892 -0.5906 -0.3544  0.8051
  362TMC3    C8 5427   4.082   1.449  17.067  0.9686  0.1010 -0.1151
  362TMC3    O1 5428   4.409   1.768  16.896 -0.1796 -0.4996 -0.0439
  362TMC3    O2 5429   4.026   1.342  17.082 -0.2449 -0.0500 -0.1455
  363TMC3    C1 5430   4.060   4.455   9.541  0.7202  0.0147  0.4649
  363TMC3    C2 5431   4.047   4.331   9.606  0.9616  0.1175  0.2628
  363TMC3    C3 5432   3.935   4.317   9.686  0.2523 -0.1287  1.0690
  363TMC3    C4 5433   3.966   4.548   9.553 -0.2699 -0.5725  0.0192
  363TMC3    C5 5434   3.851   4.523   9.618  0.2182  0.0332  0.1433
  363TMC3    C6 5435   3.842   4.409   9.696  0.1206  0.7963  0.0561
  363TMC3     C 5436   4.182   4.486   9.471  0.0559  0.5830 -0.1239
  363TMC3     O 5437   4.182   4.580   9.396 -0.0336  0.3631 -0.0915
  363TMC3     H 5438   4.118   4.251   9.587  0.5088 -0.6391  1.7445
  363TMC3    H1 5439   3.977   4.634   9.488  1.1518 -1.6509 -1.1614
  363TMC3    H2 5440   3.756   4.394   9.761  1.2447  0.5956  1.5086
  363TMC3    C7 5441   3.730   4.603   9.594  0.2572  0.0943  0.8265
  363TMC3    C8 5442   3.918   4.194   9.764  0.0789 -0.8657  0.0958
  363TMC3    O1 5443   3.622   4.547   9.619  0.2657  0.2452 -0.2093
  363TMC3    O2 5444   3.867   4.219   9.874  0.3408 -0.4428  0.7593
  364MPD2     C 5445   2.655   3.141  10.812  0.4469 -0.7877  0.6061
  364MPD2    C1 5446   2.722   3.067  10.718  0.7636 -0.5186 -0.1970
  364MPD2    C2 5447   2.769   2.942  10.749 -0.2293  0.4918 -0.0365
  364MPD2    C3 5448   2.755   2.892  10.876 -0.1771  0.1631  0.1616
  364MPD2    C4 5449   2.706   2.972  10.977  0.8162  0.0728  0.1398
  364MPD2    C5 5450   2.652   3.096  10.945  0.3641 -0.3553 -0.5879
  364MPD2     H 5451   2.832   2.887  10.680  0.5946 -1.5460  2.2936
  364MPD2    H1 5452   2.708   2.922  11.074 -1.2377 -1.8470 -0.7967
  364MPD2    H2 5453   2.611   3.237  10.792  0.8337  0.0480  3.7490
  364MPD2    H3 5454   2.618   3.163  11.024  0.9973  0.9257 -1.4067
  364MPD2     N 5455   2.826   2.775  10.919 -0.4956 -0.0143 -0.6965
  364MPD2    H5 5456   2.829   2.762  11.020 -1.5109  3.8250 -0.1899
  364MPD2    N1 5457   2.736   3.126  10.593 -0.5998 -0.8071  0.1457
  364MPD2    H7 5458   2.717   3.225  10.586  1.9677 -0.5406 -3.0397
  365TMC3    C1 5459   2.823   3.163  10.373  0.9326 -0.5625 -0.1942
  365TMC3    C2 5460   2.830   3.111  10.248  0.0336  0.5204 -0.1032
  365TMC3    C3 5461   2.896   3.182  10.155 -0.4722 -0.7140 -0.3638
  365TMC3    C4 5462   2.873   3.279  10.406  0.1241  0.5296  0.3067
  365TMC3    C5 5463   2.907   3.362  10.297 -0.6664 -0.2289 -0.0496
  365TMC3    C6 5464   2.918   3.314  10.166 -0.0834  0.0515  0.4617
  365TMC3     C 5465   2.786   3.068  10.479  0.0032  0.1604  0.1618
  365TMC3     O 5466   2.805   2.950  10.456 -0.8155  0.2681  0.0528
  365TMC3     H 5467   2.785   3.014  10.229 -0.6736  0.9742 -0.7464
  365TMC3    H1 5468   2.872   3.323  10.505 -0.9311 -0.3733  0.6915
  365TMC3    H2 5469   2.971   3.373  10.093 -0.4316  0.6450  0.6827
  365TMC3    C7 5470   2.905   3.504  10.315 -0.3726 -0.2161  0.5197
  365TMC3    C8 5471   2.942   3.104  10.041  1.0562 -0.2324  0.1902
  365TMC3    O1 5472   2.920   3.577  10.221 -0.5718  0.1889  0.0186
  365TMC3    O2 5473   2.950   3.155   9.928  0.6905 -0.1281  0.0103
  366MPD2     C 5474   0.832   4.507  15.407 -0.2162  0.3225  0.3084
  366MPD2    C1 5475   0.873   4.639  15.381  0.1690  0.9554  0.1974
  366MPD2    C2 5476   1.006   4.667  15.360  0.3436  0.2824 -0.2820
  366MPD2    C3 5477   1.098   4.565  15.352 -0.8218  0.4678  0.0909
  366MPD2    C4 5478   1.064   4.440  15.386  0.2235  0.0242  0.6623
  366MPD2    C5 5479   0.929   4.410  15.408  0.6718  1.0940 -0.1002
  366MPD2     H 5480   1.043   0.042  15.326 -0.2392  0.6118  0.0255
  366MPD2    H1 5481   1.130   4.356  15.401 -1.1663 -0.7152  2.6197
  366MPD2    H2 5482   0.734   4.461  15.407  0.2635 -0.7043 -0.1188
  366MPD2    H3 5483   0.899   4.309  15.433  0.6560  1.9403  3.2754
  366MPD2     N 5484   1.230   4.604  15.308 -0.4559 -0.1283 -0.3361
  366MPD2    H5 5485   1.243   4.704  15.302  2.2705 -0.5203 -0.9500
  366MPD2    N1 5486   0.779   0.026  15.371  0.3262 -0.6565  0.6109
  366MPD2    H7 5487   0.819   0.111  15.331  1.3390 -0.3279  2.3199
  367TMC3    C1 5488   0.578   0.145  15.342  0.4697 -0.2829 -0.0021
  367TMC3    C2 5489   0.635   0.240  15.424  0.1959  0.3372  0.1369
  367TMC3    C3 5490   0.617   0.375  15.389 -0.0201  0.6116  0.9068
  367TMC3    C4 5491   0.529   0.172  15.220  0.2102  0.7695  0.1834
  367TMC3    C5 5492   0.535   0.301  15.181 -0.3655  0.7819 -0.5953
  367TMC3    C6 5493   0.563   0.401  15.265  0.2259  0.7471  0.4910
  367TMC3     C 5494   0.645   0.015  15.367  0.8568 -0.2466  0.1512
  367TMC3     O 5495   0.563   4.644  15.364 -0.3448 -0.0488  0.6537
  367TMC3     H 5496   0.680   0.211  15.519  2.5089  1.3576 -0.6409
  367TMC3    H1 5497   0.497   0.098  15.148  0.2089  1.1441 -0.1974
  367TMC3    H2 5498   0.564   0.503  15.229  0.2368  0.8082  0.6641
  367TMC3    C7 5499   0.465   0.346  15.069 -0.0201 -0.5059  0.1089
  367TMC3    C8 5500   0.714   0.455  15.455  0.3797  0.1942 -0.2568
  367TMC3    O1 5501   0.520   0.430  15.003  0.2829  0.5643  0.3756
  367TMC3    O2 5502   0.783   0.405  15.541  0.2809  0.4616  0.4295
  368MPD2     C 5503   2.428   2.149  12.993  0.3537 -0.0352  0.1090
  368MPD2    C1 5504   2.411   2.265  12.930 -1.2519  0.4298  0.0923
  368MPD2    C2 5505   2.514   2.305  12.843 -0.1596 -0.1137  0.2778
  368MPD2    C3 5506   2.620   2.218  12.819  0.2258  0.6137  0.3457
  368MPD2    C4 5507   2.632   2.103  12.888 -0.5287  0.5483  0.1791
  368MPD2    C5 5508   2.539   2.069  12.982 -0.3627 -0.2720 -0.1453
  368MPD2     H 5509   2.507   2.405  12.801 -0.0825 -0.3299 -0.2506
  368MPD2    H1 5510   2.710   2.030  12.869 -0.0804  0.5380  2.0151
  368MPD2    H2 5511   2.359   2.118  13.070  0.5222 -1.0233 -0.1435
  368MPD2    H3 5512   2.550   1.974  13.035  0.4854  0.1113  0.3704
  368MPD2     N 5513   2.726   2.246  12.722 -0.2221 -0.0021  0.3179
  368MPD2    H5 5514   2.799   2.176  12.710 -3.9803 -3.1707 -4.0110
  368MPD2    N1 5515   2.291   2.336  12.955 -0.7023 -0.4249 -0.4923
  368MPD2    H7 5516   2.230   2.295  13.024  0.8162 -2.5952 -0.4392
  369TMC3    C1 5517   2.105   2.469  12.901 -0.1508  0.6784  1.1260
  369TMC3    C2 5518   2.061   2.556  12.807 -0.4265  0.4913  0.4552
  369TMC3    C3 5519   1.929   2.578  12.775 -0.6660  0.1918  0.1428
  369TMC3    C4 5520   2.016   2.384  12.960  0.3797 -0.5148 -0.1667
  369TMC3    C5 5521   1.882   2.407  12.928  0.0783 -0.2454  0.3925
  369TMC3    C6 5522   1.836   2.508  12.842 -0.0273 -0.4856 -0.3879
  369TMC3     C 5523   2.247   2.441  12.884 -0.0226 -0.7103  0.3716
  369TMC3     O 5524   2.304   2.514  12.806 -0.1236 -0.5434  0.1123
  369TMC3     H 5525   2.133   2.616  12.753  0.3584  0.2936  1.2756
  369TMC3    H1 5526   2.047   2.308  13.031  0.2870  0.9420  1.4102
  369TMC3    H2 5527   1.731   2.530  12.835 -0.5208 -2.2501  1.4094
  369TMC3    C7 5528   1.780   2.316  12.971  0.1346  0.3729  0.0637
  369TMC3    C8 5529   1.894   2.654  12.664 -0.0465  0.1229 -0.5021
  369TMC3    O1 5530   1.817   2.243  13.066 -0.5471 -0.4754  0.4629
  369TMC3    O2 5531   1.781   2.648  12.631 -0.0195 -0.2417 -0.4427
  370TMC3    C1 5532   1.478   2.460  16.300  0.7070 -0.4057 -0.1431
  370TMC3    C2 5533   1.414   2.385  16.391  0.4302 -0.2129 -0.2856
  370TMC3    C3 5534   1.335   2.282  16.335  0.8661  0.3698  0.2699
  370TMC3    C4 5535   1.479   2.439  16.167 -0.4230  0.7062  0.1401
  370TMC3    C5 5536   1.426   2.321  16.128  0.3538  0.2848  0.4671
  370TMC3    C6 5537   1.344   2.248  16.202 -0.1665  0.0332  0.1659
  370TMC3     C 5538   1.558   2.576  16.353  0.3799 -0.5846  0.3308
  370TMC3     O 5539   1.635   2.540  16.443 -0.2315  0.2352  0.0216
  370TMC3     H 5540   1.401   2.423  16.492 -0.0874  0.0815 -0.4571
  370TMC3    H1 5541   1.549   2.496  16.107  1.8035 -1.1362  0.9542
  370TMC3    H2 5542   1.297   2.156  16.169 -3.5276  1.5391  0.7632
  370TMC3    C7 5543   1.479   2.271  16.001  0.4940 -0.5251 -0.0718
  370TMC3    C8 5544   1.300   2.165  16.421 -0.4268 -0.2528 -0.5048
  370TMC3    O1 5545   1.496   2.350  15.910 -0.1073 -0.1582  0.2945
  370TMC3    O2 5546   1.295   2.052  16.370 -0.0366 -0.1004  0.0138
  371TMC3    C1 5547   2.522   0.720  15.221  0.0175  0.3189 -0.7938
  371TMC3    C2 5548   2.392   0.719  15.220  0.2660  0.0523  0.0542
  371TMC3    C3 5549   2.328   0.838  15.215 -0.9092  0.1667  0.1121
  371TMC3    C4 5550   2.593   0.836  15.223  0.6931 -0.2865 -0.3002
  371TMC3    C5 5551   2.528   0.952  15.221 -0.1541  0.1623  0.0325
  371TMC3    C6 5552   2.393   0.958  15.216 -0.3283 -0.1141 -0.0931
  371TMC3     C 5553   2.596   0.596  15.234 -0.9595  0.1015 -0.7314
  371TMC3     O 5554   2.715   0.597  15.221 -0.5177  0.1349  0.0884
  371TMC3     H 5555   2.336   0.636  15.179 -2.5938  0.5909  2.8001
  371TMC3    H1 5556   2.696   0.830  15.192  0.6316  2.5079 -0.9675
  371TMC3    H2 5557   2.344   1.053  15.196  0.2358  0.0687 -0.6072
  371TMC3    C7 5558   2.594   1.075  15.215  0.4495  0.1528  0.2704
  371TMC3    C8 5559   2.196   0.831  15.273  0.5873  0.2685  0.2298
  371TMC3    O1 5560   2.532   1.164  15.156 -0.0378  0.3245  0.2168
  371TMC3    O2 5561   2.139   0.725  15.260 -0.5971  0.6893  0.4245
  372MPD2     C 5562   1.948   1.361  13.255 -0.6159 -0.3801 -0.1511
  372MPD2    C1 5563   2.078   1.329  13.275 -0.1771  0.8132 -0.6428
  372MPD2    C2 5564   2.114   1.275  13.401 -0.5576 -0.7686 -0.4943
  372MPD2    C3 5565   2.027   1.257  13.499 -0.0537  1.3892  0.1347
  372MPD2    C4 5566   1.893   1.295  13.478 -0.0574 -0.4083 -0.1803
  372MPD2    C5 5567   1.857   1.344  13.354 -0.3281  0.5013 -0.0661
  372MPD2     H 5568   2.219   1.252  13.416 -0.6764  0.4896  2.2326
  372MPD2    H1 5569   1.817   1.274  13.553 -0.2767 -0.7914 -0.5112
  372MPD2    H2 5570   1.912   1.406  13.162  0.7196  0.8224 -0.0844
  372MPD2    H3 5571   1.754   1.378  13.351 -0.8670 -1.1113  0.1126
  372MPD2     N 5572   2.073   1.186  13.614  0.7219 -0.1536 -0.0935
  372MPD2    H5 5573   2.172   1.165  13.624  0.3572 -0.6770  2.1864
  372MPD2    N1 5574   2.181   1.352  13.179  0.3421 -0.2039  0.3983
  372MPD2    H7 5575   2.280   1.343  13.200  0.1165  0.1113  1.5789
  373TMC3    C1 5576   2.098   1.110  13.826  0.0334  1.0489  0.8226
  373TMC3    C2 5577   2.107   1.185  13.937 -0.1127  0.6140 -0.4085
  373TMC3    C3 5578   2.230   1.207  13.987  0.2796 -0.1335 -0.1779
  373TMC3    C4 5579   2.211   1.053  13.775 -0.1232 -0.0879 -0.3615
  373TMC3    C5 5580   2.338   1.083  13.826 -0.1486 -0.2088 -0.7924
  373TMC3    C6 5581   2.346   1.163  13.941  0.5627  0.6294 -0.7089
  373TMC3     C 5582   2.006   1.159  13.729 -0.6983 -0.2633 -0.1913
  373TMC3     O 5583   1.912   1.226  13.773 -0.6147 -0.1540 -0.1731
  373TMC3     H 5584   2.019   1.216  13.992 -1.9697 -2.7927 -1.4236
  373TMC3    H1 5585   2.201   0.998  13.682 -0.6846 -4.7430  2.4459
  373TMC3    H2 5586   2.438   1.173  13.998  0.8016 -0.4645 -0.9077
  373TMC3    C7 5587   2.444   1.012  13.757  0.1811 -0.0463  0.2128
  373TMC3    C8 5588   2.237   1.303  14.089  0.3557  0.1962  0.7325
  373TMC3    O1 5589   2.413   0.929  13.671 -0.6768  0.3357 -0.4394
  373TMC3    O2 5590   2.134   1.335  14.146 -0.5649 -0.1238 -0.2591
  374TMC3    C1 5591   3.192   1.809   9.703 -0.8325 -0.5861  0.5160
  374TMC3    C2 5592   3.291   1.905   9.715  0.4931  0.7361  0.2221
  374TMC3    C3 5593   3.304   1.979   9.605  0.1441 -0.0278  0.0648
  374TMC3    C4 5594   3.114   1.793   9.592 -0.0261 -0.6063  1.0687
  374TMC3    C5 5595   3.136   1.874   9.483  0.1054  0.2362 -0.6344
  374TMC3    C6 5596   3.234   1.964   9.489 -0.2335 -0.4055  0.1096
  374TMC3     C 5597   3.144   1.743   9.817 -0.0821 -0.7279 -1.0090
  374TMC3     O 5598   3.026   1.715   9.817 -0.0649  0.3160 -0.1353
  374TMC3     H 5599   3.319   1.940   9.813 -1.3902 -2.8848  2.0757
  374TMC3    H1 5600   3.049   1.707   9.582 -3.8704  2.2545  1.4515
  374TMC3    H2 5601   3.242   2.027   9.401  2.3701 -1.2540 -0.2678
  374TMC3    C7 5602   3.055   1.858   9.365  0.2650  0.1212 -0.3609
  374TMC3    C8 5603   3.323   2.121   9.629 -0.0394  0.4564  0.7007
  374TMC3    O1 5604   3.109   1.881   9.254 -1.1017  0.2560 -0.4665
  374TMC3    O2 5605   3.275   2.206   9.557  0.0717 -0.5458  0.8406
  375MPD2     C 5606   2.664   2.447  17.397  0.2593  0.0710 -0.0060
  375MPD2    C1 5607   2.601   2.507  17.284 -0.3889 -0.0460 -0.4421
  375MPD2    C2 5608   2.654   2.490  17.162  0.4947 -0.0133 -0.0465
  375MPD2    C3 5609   2.766   2.413  17.139 -0.0790 -0.1477  0.2744
  375MPD2    C4 5610   2.831   2.355  17.244 -0.4203 -0.6151 -0.0017
  375MPD2    C5 5611   2.779   2.374  17.366 -0.2928 -0.3535 -0.3946
  375MPD2     H 5612   2.593   2.536  17.086  1.7022 -0.0066 -0.9999
  375MPD2    H1 5613   2.920   2.297  17.225  0.2135 -0.0267  1.2229
  375MPD2    H2 5614   2.632   2.473  17.497 -1.0117 -2.5456  0.2863
  375MPD2    H3 5615   2.840   2.335  17.447  1.8523 -1.2390 -2.4306
  375MPD2     N 5616   2.822   2.406  17.010  0.0352  0.3819  0.0105
  375MPD2    H5 5617   2.920   2.383  17.006 -0.1471  0.1950 -3.1774
  375MPD2    N1 5618   2.497   2.599  17.297 -0.3669  0.2887 -0.0420
  375MPD2    H7 5619   2.488   2.663  17.219 -0.1450 -0.2810 -0.5360
  376TMC3    C1 5620   2.834   2.455  16.784 -0.1633  0.5537 -0.4188
  376TMC3    C2 5621   2.966   2.495  16.810 -0.3725  0.1557  0.7201
  376TMC3    C3 5622   3.034   2.563  16.713 -0.0257  0.2896  0.5092
  376TMC3    C4 5623   2.776   2.465  16.657  0.2356 -0.0961  0.1954
  376TMC3    C5 5624   2.844   2.534  16.567 -0.1516 -0.3863 -0.2090
  376TMC3    C6 5625   2.965   2.589  16.598 -0.1264  0.1844  0.3932
  376TMC3     C 5626   2.751   2.428  16.896  0.3003  0.4431  0.3656
  376TMC3     O 5627   2.636   2.457  16.875  0.4457  0.6057 -0.2027
  376TMC3     H 5628   3.020   2.486  16.903  1.7399 -1.4751 -0.6741
  376TMC3    H1 5629   2.687   2.412  16.627  0.3182 -1.6715  2.7294
  376TMC3    H2 5630   3.005   2.650  16.517 -0.3846 -0.2667 -0.0766
  376TMC3    C7 5631   2.772   2.598  16.454  0.5130 -0.0945  1.2644
  376TMC3    C8 5632   3.177   2.587  16.712 -0.3308 -0.2944 -0.2799
  376TMC3    O1 5633   2.849   2.650  16.372  0.6025 -0.4908 -0.3636
  376TMC3    O2 5634   3.220   2.663  16.623  0.0055  0.0370  0.0055
  377MPD2     C 5635   1.279   2.658  12.577  0.6648 -0.8246 -0.3664
  377MPD2    C1 5636   1.256   2.523  12.581 -0.5323 -0.0472 -0.4874
  377MPD2    C2 5637   1.162   2.467  12.667 -0.1746 -0.5327 -0.8597
  377MPD2    C3 5638   1.072   2.549  12.730 -0.4283  0.0642  0.3080
  377MPD2    C4 5639   1.079   2.689  12.706  0.2548  0.1939 -0.8755
  377MPD2    C5 5640   1.189   2.738  12.639  0.1365 -0.5375  0.5324
  377MPD2     H 5641   1.163   2.361  12.688 -2.8684 -0.7886 -2.0280
  377MPD2    H1 5642   1.011   2.759  12.754 -0.4012 -0.8173 -0.3220
  377MPD2    H2 5643   1.364   2.701  12.525  0.3628  1.3977  1.0166
  377MPD2    H3 5644   1.206   2.844  12.627  1.1660 -0.8042 -0.4255
  377MPD2     N 5645   0.973   2.496  12.819  0.1145  0.0794 -0.2280
  377MPD2    H5 5646   0.912   2.561  12.869  2.2546  2.3302 -0.5683
  377MPD2    N1 5647   1.349   2.442  12.506  0.2029  0.0933  0.5241
  377MPD2    H7 5648   1.439   2.480  12.479 -0.7421  1.4212 -0.7981
  378TMC3    C1 5649   1.489   2.290  12.160  0.4733 -0.0272  0.6753
  378TMC3    C2 5650   1.402   2.246  12.250  0.2389  0.6688 -0.3583
  378TMC3    C3 5651   1.439   2.261  12.380  0.4906  0.9625 -0.5428
  378TMC3    C4 5652   1.611   2.338  12.185  0.4956 -0.1815 -0.1427
  378TMC3    C5 5653   1.652   2.334  12.314  0.4441  0.6602  0.4493
  378TMC3    C6 5654   1.566   2.302  12.413 -0.3804  0.1242  0.4513
  378TMC3     C 5655   1.456   2.292  12.017 -0.8252  0.6092  0.0228
  378TMC3     O 5656   1.518   2.365  11.942 -0.6301 -0.2583  1.5468
  378TMC3     H 5657   1.303   2.209  12.225 -0.1005  1.9082 -0.8337
  378TMC3    H1 5658   1.669   2.374  12.100  1.9950  0.8757  1.3270
  378TMC3    H2 5659   1.594   2.303  12.518 -1.9807  0.2144  0.8726
  378TMC3    C7 5660   1.795   2.342  12.344  0.1993  0.1042 -0.1488
  378TMC3    C8 5661   1.335   2.308  12.474  1.1676  0.0858  0.7965
  378TMC3    O1 5662   1.826   2.343  12.464 -0.4338  0.3458  0.2119
  378TMC3    O2 5663   1.230   2.244  12.474  0.5219  0.5156 -0.2764
  379MPD2     C 5664   1.823   0.777  15.876 -1.1377 -0.4703 -0.4913
  379MPD2    C1 5665   1.743   0.683  15.936  0.7017  0.0138 -0.0863
  379MPD2    C2 5666   1.809   0.580  15.998 -0.2860  0.5558 -0.1549
  379MPD2    C3 5667   1.948   0.573  16.006 -0.0234 -0.2192 -0.2550
  379MPD2    C4 5668   2.031   0.666  15.950  0.2120 -0.3282  0.4840
  379MPD2    C5 5669   1.960   0.772  15.892 -0.4539 -0.7921  0.8865
  379MPD2     H 5670   1.756   0.494  16.038  1.5731 -1.4811 -2.1515
  379MPD2    H1 5671   2.139   0.668  15.955  0.2393 -1.0765  0.1324
  379MPD2    H2 5672   1.779   0.865  15.831  1.6991  0.7564 -0.8777
  379MPD2    H3 5673   2.015   0.848  15.837  2.6175 -0.5348  4.3002
  379MPD2     N 5674   2.018   0.464  16.074  0.3010 -1.1371 -0.1836
  379MPD2    H5 5675   2.120   0.467  16.068  0.2404  1.0098 -0.1899
  379MPD2    N1 5676   1.600   0.692  15.922 -0.0537  0.3855 -0.8225
  379MPD2    H7 5677   1.570   0.756  15.849 -1.1887  1.9266  0.9937
  380TMC3    C1 5678   1.396   0.597  15.895  0.1263 -0.4153  0.0514
  380TMC3    C2 5679   1.437   0.544  15.779  0.0144  0.6335 -0.8264
  380TMC3    C3 5680   1.409   0.603  15.656  0.2817 -0.0807  0.0189
  380TMC3    C4 5681   1.318   0.712  15.884  0.1268 -0.0128  0.0181
  380TMC3    C5 5682   1.276   0.760  15.764 -0.4224 -0.1907  0.3801
  380TMC3    C6 5683   1.316   0.705  15.648 -0.3772 -0.1915 -0.0930
  380TMC3     C 5684   1.508   0.611  15.982 -0.3329  0.0769  0.5218
  380TMC3     O 5685   1.517   0.535  16.079  0.4053  0.6210  0.0067
  380TMC3     H 5686   1.510   0.467  15.800  0.2862  0.8544 -0.9608
  380TMC3    H1 5687   1.294   0.766  15.975  2.1800  0.5515  0.2187
  380TMC3    H2 5688   1.289   0.737  15.548 -2.1542 -1.3271  0.0291
  380TMC3    C7 5689   1.155   0.837  15.759  0.0917 -0.4117  0.1592
  380TMC3    C8 5690   1.495   0.572  15.541 -0.1620  0.9857 -0.1085
  380TMC3    O1 5691   1.157   0.959  15.755 -1.0944  0.1686  0.1518
  380TMC3    O2 5692   1.451   0.611  15.434  0.3638 -0.3001 -0.3808
  381TMC3    C1 5693   1.266   1.532  16.036 -0.3104  0.0845  0.9772
  381TMC3    C2 5694   1.386   1.595  16.055 -0.4702  0.7585  0.1034
  381TMC3    C3 5695   1.413   1.634  16.184 -0.1220 -0.6187  0.3095
  381TMC3    C4 5696   1.173   1.518  16.131  0.1401 -0.6743 -1.0671
  381TMC3    C5 5697   1.199   1.569  16.256 -0.4511  0.6883  0.1186
  381TMC3    C6 5698   1.320   1.625  16.287 -0.1829  0.0568  0.5656
  381TMC3     C 5699   1.247   1.449  15.920  0.2162  0.4682 -0.1218
  381TMC3     O 5700   1.197   1.338  15.948  0.2800 -0.0614  0.0196
  381TMC3     H 5701   1.456   1.608  15.973 -0.5524  0.9288  0.0593
  381TMC3    H1 5702   1.074   1.479  16.107 -0.1574  0.3184 -1.4498
  381TMC3    H2 5703   1.343   1.674  16.381 -0.5419 -0.2737  0.8244
  381TMC3    C7 5704   1.136   1.489  16.358  0.7565 -0.0958  0.4843
  381TMC3    C8 5705   1.540   1.698  16.206 -0.6845 -0.0695 -0.6563
  381TMC3    O1 5706   1.118   1.371  16.343 -0.0820 -0.2526  0.0023
  381TMC3    O2 5707   1.631   1.668  16.129  0.2663 -0.1519 -0.3953
  382MPD2     C 5708   1.060   3.677  17.258  0.1219 -0.0639  0.3259
  382MPD2    C1 5709   0.979   3.737  17.354 -0.0597 -0.2552 -0.5657
  382MPD2    C2 5710   0.869   3.669  17.408  0.5985  0.1822 -0.2877
  382MPD2    C3 5711   0.840   3.534  17.374 -0.3995  0.0029 -0.4043
  382MPD2    C4 5712   0.927   3.470  17.284 -0.2061 -0.5173 -1.0092
  382MPD2    C5 5713   1.033   3.543  17.234  0.2956  0.6482  0.4974
  382MPD2     H 5714   0.817   3.737  17.475 -3.4256 -2.9966 -0.1374
  382MPD2    H1 5715   0.901   3.372  17.245  0.7265 -1.7495  1.4869
  382MPD2    H2 5716   1.147   3.724  17.214 -0.5544  0.0950 -0.8448
  382MPD2    H3 5717   1.108   3.494  17.173  0.3617  0.7114  0.5266
  382MPD2     N 5718   0.726   3.466  17.430  0.0810  0.0935 -0.0129
  382MPD2    H5 5719   0.707   3.374  17.391 -1.0756 -0.1501  1.1254
  382MPD2    N1 5720   0.999   3.875  17.399 -0.6745  0.4052 -0.4139
  382MPD2    H7 5721   0.925   3.918  17.453 -2.3842  0.0849 -2.5274
  383TMC3    C1 5722   0.519   3.433  17.562  0.2878 -0.2992 -0.1460
  383TMC3    C2 5723   0.469   3.344  17.475 -0.1182  0.2988 -0.3118
  383TMC3    C3 5724   0.342   3.299  17.500  0.2491  0.6790  0.3060
  383TMC3    C4 5725   0.445   3.487  17.658 -0.2460 -0.8274 -0.0450
  383TMC3    C5 5726   0.315   3.446  17.678  0.0114  0.0917  0.4012
  383TMC3    C6 5727   0.260   3.356  17.592 -0.3893 -0.0752 -0.0978
  383TMC3     C 5728   0.635   3.524  17.521  0.0652  0.9540  0.3319
  383TMC3     O 5729   0.647   3.630  17.584  0.3818 -0.4428  0.2322
  383TMC3     H 5730   0.521   3.297  17.392 -0.3419 -0.0384 -0.2609
  383TMC3    H1 5731   0.496   3.551   0.042  0.0617 -2.8029  1.5411
  383TMC3    H2 5732   0.163   3.311  17.609  0.2082 -1.0729  0.6512
  383TMC3    C7 5733   0.216   3.518   0.078 -0.2631 -0.9610 -0.1024
  383TMC3    C8 5734   0.271   3.227  17.402  0.2888  0.0479 -0.3063
  383TMC3    O1 5735   0.104   3.475   0.100  0.2959 -0.1584  0.4589
  383TMC3    O2 5736   0.149   3.247  17.390  0.1906  0.1170  0.0294
  384MPD2     C 5737   2.549   0.195  11.895 -0.4513  0.0854 -0.4082
  384MPD2    C1 5738   2.544   0.149  12.030  0.4389 -0.1387 -0.2306
  384MPD2    C2 5739   2.613   0.032  12.069  0.0108  0.6625 -0.2527
  384MPD2    C3 5740   2.686   4.691  11.972  0.2714  0.1193  0.3820
  384MPD2    C4 5741   2.699   0.016  11.842 -0.0695  0.5453 -0.7926
  384MPD2    C5 5742   2.631   0.132  11.807 -0.1614  0.5302  0.5283
  384MPD2     H 5743   2.609   0.006  12.174 -0.7159 -0.9502 -0.6801
  384MPD2    H1 5744   2.750   4.685  11.763  0.5631  1.2042 -0.8163
  384MPD2    H2 5745   2.499   0.286  11.865  0.7453  0.0913 -2.4059
  384MPD2    H3 5746   2.646   0.167  11.705 -1.6510  0.8478  0.4100
  384MPD2     N 5747   2.739   4.565  12.007 -0.4210  0.2770  0.9399
  384MPD2    H5 5748   2.742   4.534  12.104  1.9282 -2.5891 -0.0502
  384MPD2    N1 5749   2.460   0.209  12.134 -0.5724 -0.3412 -0.3311
  384MPD2    H7 5750   2.461   0.168  12.227  0.5042  2.4114  0.8813
  385TMC3    C1 5751   2.848   4.361  12.007 -0.3750 -0.5117 -0.2929
  385TMC3    C2 5752   2.800   4.238  11.968  0.2860  0.2768 -0.4377
  385TMC3    C3 5753   2.741   4.155  12.054  0.1007 -0.2748 -0.0149
  385TMC3    C4 5754   2.850   4.387  12.144  0.0845  0.2648  0.0039
  385TMC3    C5 5755   2.780   4.311  12.229  0.0625  0.0174 -0.5119
  385TMC3    C6 5756   2.728   4.194  12.190 -0.1467  0.2140  0.5607
  385TMC3     C 5757   2.805   4.476  11.925  0.1478 -0.1146 -0.2138
  385TMC3     O 5758   2.839   4.460  11.808 -0.1234 -0.5838 -0.5968
  385TMC3     H 5759   2.807   4.222  11.861  0.3083 -0.6139 -0.2962
  385TMC3    H1 5760   2.888   4.481  12.182  0.8594  0.0949 -0.3697
  385TMC3    H2 5761   2.677   4.129  12.261 -2.0446 -0.0843 -1.0539
  385TMC3    C7 5762   2.690   4.391  12.315 -0.1324  0.2618 -0.3414
  385TMC3    C8 5763   2.687   4.028  12.019 -0.4376 -0.1748  0.5716
  385TMC3    O1 5764   2.694   4.506  12.271 -0.4445 -0.1799  0.4975
  385TMC3    O2 5765   2.638   3.958  12.105  0.0813  0.3613  0.3678
  386TMC3    C1 5766   2.862   2.392  11.780  0.0107  0.4881 -0.2444
  386TMC3    C2 5767   2.919   2.380  11.656 -0.0440 -0.0640 -0.2013
  386TMC3    C3 5768   2.872   2.451  11.551 -0.2026  0.4041 -0.9366
  386TMC3    C4 5769   2.757   2.476  11.798  0.4816 -0.2739  0.5641
  386TMC3    C5 5770   2.698   2.535  11.685  0.4433  0.4373 -0.4564
  386TMC3    C6 5771   2.768   2.537  11.565  0.1449  0.3024  0.6886
  386TMC3     C 5772   2.889   2.299  11.888  0.8898  0.8428  0.2220
  386TMC3     O 5773   2.800   2.280  11.967 -0.0976  0.1504 -0.3712
  386TMC3     H 5774   2.986   2.297  11.636  1.1741  0.0027  3.5746
  386TMC3    H1 5775   2.709   2.476  11.895 -0.4614  0.3884  0.0976
  386TMC3    H2 5776   2.737   2.604  11.487 -2.8065 -1.6422  0.2037
  386TMC3    C7 5777   2.557   2.531  11.687 -0.3245 -0.1067  0.3673
  386TMC3    C8 5778   2.878   2.383  11.419 -0.0196 -0.5774 -0.5897
  386TMC3    O1 5779   2.505   2.527  11.797  0.3811 -0.0622  0.0427
  386TMC3    O2 5780   2.773   2.396  11.351 -0.0650  1.0120 -0.0097
  387MPD2     C 5781   4.550   2.748   9.047 -0.1308 -0.3181  0.0427
  387MPD2    C1 5782   4.676   2.791   9.088 -0.1078  0.2326  0.1894
  387MPD2    C2 5783   0.056   2.704   9.055 -0.1454  0.0668 -0.1646
  387MPD2    C3 5784   0.038   2.582   8.995 -0.5585 -0.7917 -0.0886
  387MPD2    C4 5785   4.636   2.545   8.950  0.2074  0.0930  0.0901
  387MPD2    C5 5786   4.529   2.634   8.975 -0.1404 -0.4391 -0.2019
  387MPD2     H 5787   0.156   2.730   9.087 -1.0714  2.9026  0.4083
  387MPD2    H1 5788   4.616   2.452   8.897  2.0276  0.1477 -0.6865
  387MPD2    H2 5789   4.459   2.801   9.069 -0.3285 -1.1751  1.2672
  387MPD2    H3 5790   4.429   2.604   8.949 -0.0161 -1.0353  0.0192
  387MPD2     N 5791   0.141   2.492   8.999 -0.3097  0.1082 -1.3747
  387MPD2    H5 5792   0.225   2.540   9.030 -0.7272 -0.4450  0.5804
  387MPD2    N1 5793   4.711   2.905   9.172  0.3884 -0.5586  0.0508
  387MPD2    H7 5794   0.090   2.909   9.189  0.3886 -0.6970  0.0883
  388TMC3    C1 5795   4.670   3.031   9.375 -0.5479 -0.2709 -0.3496
  388TMC3    C2 5796   4.609   3.138   9.433 -0.1213  0.1597 -0.6065
  388TMC3    C3 5797   4.675   3.194   9.541  0.1550  0.1621 -0.7808
  388TMC3    C4 5798   0.059   2.965   9.422  0.2490 -1.1369  0.0106
  388TMC3    C5 5799   0.117   3.023   9.531  1.1825  0.8651 -0.5164
  388TMC3    C6 5800   0.074   3.142   9.587  0.1592  0.1909  0.4033
  388TMC3     C 5801   4.616   2.976   9.252 -0.3364 -0.4164 -0.0386
  388TMC3     O 5802   4.494   2.986   9.230 -0.2015  0.6964  0.3843
  388TMC3     H 5803   4.511   3.160   9.393 -1.3806 -2.2961  1.1216
  388TMC3    H1 5804   0.070   2.858   9.410 -1.1700 -1.4964  1.7978
  388TMC3    H2 5805   0.128   3.183   9.671 -0.8710  1.0853  0.6277
  388TMC3    C7 5806   0.240   2.956   9.582 -0.0434 -0.2338  0.3567
  388TMC3    C8 5807   4.598   3.294   9.607  0.4581 -0.1327 -0.0087
  388TMC3    O1 5808   0.292   2.997   9.686 -0.4739  0.1510  0.3439
  388TMC3    O2 5809   4.494   3.325   9.555  0.1229  0.0364 -0.0898
  389MPD2     C 5810   4.339   0.949  11.207 -0.2789  0.0261  0.6569
  389MPD2    C1 5811   4.267   0.864  11.125 -0.2548 -0.2956 -0.2238
  389MPD2    C2 5812   4.196   0.760  11.192  0.3966 -1.2249  0.0130
  389MPD2    C3 5813   4.192   0.745  11.329 -0.2173 -0.3081 -0.8930
  389MPD2    C4 5814   4.265   0.833  11.410 -0.5896  0.1567  0.2951
  389MPD2    C5 5815   4.341   0.922  11.342  0.5905 -0.0180 -0.4649
  389MPD2     H 5816   4.143   0.688  11.132 -0.1703 -0.4619 -0.4073
  389MPD2    H1 5817   4.282   0.824  11.517  1.1293 -1.8695 -0.1415
  389MPD2    H2 5818   4.412   1.014  11.162 -1.9701  0.4766 -1.4498
  389MPD2    H3 5819   4.418   0.972  11.400 -0.3670 -0.3062  1.0796
  389MPD2     N 5820   4.119   0.645  11.400  1.0980  0.0065  0.5594
  389MPD2    H5 5821   4.114   0.650  11.501 -1.5017 -0.9977  0.4757
  389MPD2    N1 5822   4.278   0.882  10.990 -0.2096 -0.2723  0.2177
  389MPD2    H7 5823   4.341   0.955  10.956  2.0314 -1.2872  2.2164
  390TMC3    C1 5824   3.941   0.494  11.429  0.0036 -0.1939  0.0342
  390TMC3    C2 5825   3.943   0.358  11.433  0.4993 -0.3660  0.3121
  390TMC3    C3 5826   3.932   0.300  11.556 -0.1175  0.2029  0.1558
  390TMC3    C4 5827   3.913   0.573  11.537  0.3095  0.0077  0.8217
  390TMC3    C5 5828   3.867   0.506  11.643  0.0526  0.6358  0.6239
  390TMC3    C6 5829   3.903   0.375  11.668  0.0394  1.0044  0.5028
  390TMC3     C 5830   4.042   0.546  11.344  0.0623 -0.3286  0.8667
  390TMC3     O 5831   4.067   0.493  11.239 -0.7564  0.5788  0.1305
  390TMC3     H 5832   3.968   0.308  11.340 -0.8885 -0.2613 -0.1129
  390TMC3    H1 5833   3.880   0.674  11.520 -0.9458 -0.1950  2.0239
  390TMC3    H2 5834   3.874   0.319  11.756  0.3749 -1.4496 -0.9504
  390TMC3    C7 5835   3.727   0.534  11.674  0.5394  0.2701 -0.2692
  390TMC3    C8 5836   3.873   0.172  11.554  0.3685  0.2070  0.0981
  390TMC3    O1 5837   3.684   0.642  11.637  0.0239 -0.1478 -0.0214
  390TMC3    O2 5838   3.838   0.124  11.445 -0.1946 -0.8603  0.0276
  391MPD2     C 5839   4.143   2.142  11.011  0.7396  0.1817  0.4085
  391MPD2    C1 5840   4.216   2.239  10.945 -0.4765 -0.3178  0.2536
  391MPD2    C2 5841   4.189   2.271  10.811 -0.5146  0.0316 -0.0171
  391MPD2    C3 5842   4.086   2.207  10.749  0.2194  0.3862  0.3699
  391MPD2    C4 5843   4.033   2.093  10.801  0.1892 -0.5761  0.8727
  391MPD2    C5 5844   4.058   2.065  10.935 -0.7970 -0.5074  0.0266
  391MPD2     H 5845   4.243   2.347  10.755  1.8385 -3.0646 -1.9341
  391MPD2    H1 5846   3.949   2.040  10.757 -0.5114  0.0548  1.4574
  391MPD2    H2 5847   4.144   2.126  11.118  2.0232  0.5083  0.4501
  391MPD2    H3 5848   4.003   1.987  10.987  1.8011 -0.7219  2.4060
  391MPD2     N 5849   4.059   2.257  10.621 -0.2142 -0.3444  0.0345
  391MPD2    H5 5850   4.122   2.328  10.586 -1.0255  0.2917 -0.1365
  391MPD2    N1 5851   4.320   2.303  11.021 -0.2448 -0.4639  0.4377
  391MPD2    H7 5852   4.337   2.262  11.112 -1.1569 -0.1112  0.7689
  392TMC3    C1 5853   3.975   2.271  10.403 -0.0475  0.3702 -0.5509
  392TMC3    C2 5854   3.875   2.244  10.313  0.0080  0.5869 -0.3183
  392TMC3    C3 5855   3.846   2.322  10.209 -0.4550  0.3793 -0.0437
  392TMC3    C4 5856   4.047   2.385  10.387  0.3810 -0.2333  0.3438
  392TMC3    C5 5857   4.011   2.473  10.289  0.0570  0.0717 -0.7987
  392TMC3    C6 5858   3.910   2.442  10.201  0.5387  0.3495 -0.3534
  392TMC3     C 5859   3.959   2.215  10.538 -0.3563 -0.1503  0.3113
  392TMC3     O 5860   3.861   2.149  10.569 -0.1103  0.6660 -0.5369
  392TMC3     H 5861   3.813   2.157  10.330  1.9128 -1.2767 -2.7172
  392TMC3    H1 5862   4.129   2.418  10.451 -0.8322  0.3886  1.5743
  392TMC3    H2 5863   3.872   2.514  10.129 -3.2942 -1.1655  0.1520
  392TMC3    C7 5864   4.078   2.604  10.292  0.4799  0.4081 -0.1065
  392TMC3    C8 5865   3.738   2.277  10.121 -0.0122  0.1700 -0.0784
  392TMC3    O1 5866   4.118   2.654  10.395 -0.2981  0.4761 -0.3065
  392TMC3    O2 5867   3.746   2.163  10.068  0.0201  0.2081  0.5967
  393TMC3    C1 5868   2.631   4.626  10.186  0.2720  0.4341 -0.2873
  393TMC3    C2 5869   2.505   4.587  10.225  0.5664  0.4456  0.2939
  393TMC3    C3 5870   2.492   4.467  10.285  0.6047  0.0985 -0.1195
  393TMC3    C4 5871   2.737   4.545  10.192 -0.1610 -0.6712 -0.4970
  393TMC3    C5 5872   2.713   4.422  10.253 -0.8822  0.3220 -0.7862
  393TMC3    C6 5873   2.589   4.377  10.302  0.4332  0.7747  0.5444
  393TMC3     C 5874   2.654   0.038  10.125  0.1768  0.0545  0.0231
  393TMC3     O 5875   2.556   0.090  10.075 -0.0689  0.1173 -0.2090
  393TMC3     H 5876   2.425   4.659  10.207  0.5993  0.4395  0.1214
  393TMC3    H1 5877   2.835   4.564  10.148 -0.0862  0.9173  0.3492
  393TMC3    H2 5878   2.583   4.285  10.360  3.9105 -0.3033 -0.8001
  393TMC3    C7 5879   2.808   4.312  10.263 -0.4594 -0.1804  0.3666
  393TMC3    C8 5880   2.362   4.433  10.344 -0.0461 -0.1188  0.1976
  393TMC3    O1 5881   2.768   4.195  10.262  0.0120 -0.3908 -0.3363
  393TMC3    O2 5882   2.273   4.503  10.297 -0.1715  0.7592  0.0399
  394TMC3    C1 5883   4.222   0.849  10.764 -0.2409  0.1863 -1.1002
  394TMC3    C2 5884   4.119   0.839  10.677 -0.2170  0.5628 -0.0575
  394TMC3    C3 5885   4.143   0.837  10.543 -0.4885 -0.0132  0.1118
  394TMC3    C4 5886   4.352   0.861  10.718 -0.3603 -0.4203  0.0607
  394TMC3    C5 5887   4.362   0.856  10.581 -0.2335  0.2560 -0.3295
  394TMC3    C6 5888   4.269   0.841  10.488  0.1060  0.4836 -0.2029
  394TMC3     C 5889   4.194   0.827  10.900  0.2000 -0.4083  0.1993
  394TMC3     O 5890   4.084   0.774  10.922 -0.6811  0.2847  0.6153
  394TMC3     H 5891   4.018   0.816  10.709 -0.7615 -1.2102 -3.0040
  394TMC3    H1 5892   4.435   0.880  10.785 -0.4866 -0.0262  0.1050
  394TMC3    H2 5893   4.288   0.856  10.382 -0.5306 -0.4584 -0.4442
  394TMC3    C7 5894   4.489   0.871  10.521  0.1846 -0.0748 -0.1379
  394TMC3    C8 5895   4.042   0.797  10.449 -0.2426  0.1304 -0.6125
  394TMC3    O1 5896   4.561   0.961  10.565 -0.4372 -0.1960  0.1312
  394TMC3    O2 5897   3.927   0.834  10.472  0.1459 -0.6336  0.3475
  395TMC3    C1 5898   3.107   2.710  14.442 -0.8086  0.1736 -0.4487
  395TMC3    C2 5899   2.983   2.709  14.511 -0.2404 -0.8261 -0.6332
  395TMC3    C3 5900   2.976   2.791  14.622 -0.2791  0.0546 -0.0803
  395TMC3    C4 5901   3.207   2.792  14.473 -0.6212  0.1263  0.2639
  395TMC3    C5 5902   3.192   2.873  14.587 -0.9029  0.5286 -0.1577
  395TMC3    C6 5903   3.078   2.876  14.661 -0.4955 -0.8476  0.2354
  395TMC3     C 5904   3.162   2.579  14.435  0.3104 -0.8471  0.0054
  395TMC3     O 5905   3.124   2.506  14.526  0.2186  0.1912 -0.2623
  395TMC3     H 5906   2.902   2.646  14.477 -0.6832  0.2803 -1.6456
  395TMC3    H1 5907   3.286   2.808  14.401 -2.0713 -0.9207 -1.5380
  395TMC3    H2 5908   3.055   2.944  14.743 -0.0829 -0.9849  0.4638
  395TMC3    C7 5909   3.310   2.904  14.664  0.2947  0.5004  0.1312
  395TMC3    C8 5910   2.895   2.731  14.722 -0.1013 -0.1026 -0.0994
  395TMC3    O1 5911   3.307   3.001  14.736 -0.0078 -0.3511 -0.5077
  395TMC3    O2 5912   2.837   2.805  14.798  0.0675 -0.7022  0.4898
  396MPD2     C 5913   3.445   3.551  16.955 -0.1429  0.1672  0.6690
  396MPD2    C1 5914   3.571   3.570  17.004 -0.2999 -0.2443  0.8311
  396MPD2    C2 5915   3.647   3.665  16.934  0.0110  0.2360 -0.4052
  396MPD2    C3 5916   3.607   3.720  16.812 -0.1915  0.4399 -0.1368
  396MPD2    C4 5917   3.473   3.691  16.760 -0.2868 -0.6307  0.2094
  396MPD2    C5 5918   3.395   3.606  16.841  0.2987 -0.2189  0.1092
  396MPD2     H 5919   3.743   3.692  16.976  0.4415  0.4016 -1.4994
  396MPD2    H1 5920   3.433   3.736  16.670  3.3877 -0.1734 -1.1718
  396MPD2    H2 5921   3.371   3.479  16.986  0.3043  0.7960  3.1731
  396MPD2    H3 5922   3.291   3.589  16.817 -0.1653  3.1192 -0.2764
  396MPD2     N 5923   3.695   3.812  16.747 -0.2803 -0.6920 -0.4382
  396MPD2    H5 5924   3.794   3.817  16.772  0.0388 -1.3607 -1.5496
  396MPD2    N1 5925   3.597   3.502  17.127  0.2710 -0.0556 -0.0002
  396MPD2    H7 5926   3.529   3.434  17.160 -1.2271  0.9654 -0.9904
  397TMC3    C1 5927   3.719   3.440  17.325 -1.1614  0.2289 -0.2615
  397TMC3    C2 5928   3.841   3.400  17.367  0.0163 -0.1962 -0.5605
  397TMC3    C3 5929   3.860   3.269  17.408  0.1017  0.5531 -0.4090
  397TMC3    C4 5930   3.611   3.354  17.353  0.7522  0.2257 -1.1641
  397TMC3    C5 5931   3.628   3.226  17.398  0.9298  0.1017  0.3706
  397TMC3    C6 5932   3.751   3.185  17.434 -0.0476  0.1035  0.7607
  397TMC3     C 5933   3.718   3.516  17.198  0.4287  0.2585 -0.3554
  397TMC3     O 5934   3.819   3.578  17.165 -0.2681  0.1058  0.4950
  397TMC3     H 5935   3.929   3.457  17.339  1.3761 -1.2854  1.5277
  397TMC3    H1 5936   3.511   3.389  17.330 -0.4283 -0.9620  2.1720
  397TMC3    H2 5937   3.769   3.084  17.468  0.9598 -0.1065 -0.4206
  397TMC3    C7 5938   3.507   3.153  17.435 -0.4130  0.9637 -0.7215
  397TMC3    C8 5939   3.975   3.242  17.495  0.4319  0.2539 -0.5354
  397TMC3    O1 5940   3.411   3.196  17.372 -0.3882  0.0547 -0.2300
  397TMC3    O2 5941   3.956   3.174  17.597 -0.3719 -0.1843 -0.2775
  398MPD2     C 5942   1.681   4.061  17.594  0.7497 -0.1598 -0.1882
  398MPD2    C1 5943   1.770   3.989  17.677 -0.6266 -0.4938  0.7598
  398MPD2    C2 5944   1.840   4.067   0.083  0.2198  0.4176 -0.8756
  398MPD2    C3 5945   1.830   4.202   0.094  0.4083  0.1393  0.2431
  398MPD2    C4 5946   1.755   4.270   0.004 -0.5931  0.6385 -0.2533
  398MPD2    C5 5947   1.682   4.201  17.591  0.4717  0.5935  0.0693
  398MPD2     H 5948   1.901   4.014   0.155 -2.3587 -2.1503 -0.5758
  398MPD2    H1 5949   1.752   4.378   0.006  2.4239  0.6963  1.6054
  398MPD2    H2 5950   1.608   4.009  17.534  1.3349  0.3751 -1.3694
  398MPD2    H3 5951   1.617   4.249  17.520  1.1305 -1.1347 -1.7022
  398MPD2     N 5952   1.888   4.263   0.202 -0.7059 -0.0620  0.0936
  398MPD2    H5 5953   1.912   4.207   0.283 -2.5325  1.4130  1.6371
  398MPD2    N1 5954   1.782   3.849  17.683  0.3465  0.0167 -0.5528
  398MPD2    H7 5955   1.846   3.812   0.066 -1.4352 -1.8661  0.0772
  399TMC3    C1 5956   1.744   3.621  17.638  0.4610 -0.9193 -1.0031
  399TMC3    C2 5957   1.816   3.595   0.062 -0.3128  0.4367  0.0787
  399TMC3    C3 5958   1.785   3.485   0.140  0.6590 -0.0447 -0.0393
  399TMC3    C4 5959   1.645   3.541  17.595 -0.3572  0.7663  0.7993
  399TMC3    C5 5960   1.623   3.429  17.667 -0.5220 -0.4604 -0.5013
  399TMC3    C6 5961   1.690   3.393   0.096 -0.3682 -0.4818  0.5011
  399TMC3     C 5962   1.719   3.759  17.603  0.7605  0.1111 -0.1997
  399TMC3     O 5963   1.643   3.782  17.509 -0.4611  0.2841 -0.0207
  399TMC3     H 5964   1.904   3.655   0.084 -0.1668  0.5579 -0.8182
  399TMC3    H1 5965   1.589   3.567  17.506  0.3561  0.3502  0.2337
  399TMC3    H2 5966   1.670   3.302   0.152  0.2024  0.3742  2.1266
  399TMC3    C7 5967   1.516   3.344  17.634  0.1198  0.6376  0.5010
  399TMC3    C8 5968   1.870   3.467   0.250  0.3824 -0.1093  0.4635
  399TMC3    O1 5969   1.440   3.305   0.032  0.0627  0.0300  0.1716
  399TMC3    O2 5970   1.972   3.537   0.263  0.0744 -0.2455 -0.3764
  400TMC3    C1 5971   0.436   2.923  16.876 -0.7410  0.5827 -0.4277
  400TMC3    C2 5972   0.305   2.903  16.829  0.2607  0.5948 -0.3325
  400TMC3    C3 5973   0.218   3.006  16.858 -0.1747 -0.0511  0.2007
  400TMC3    C4 5974   0.473   3.029  16.949  0.2686 -0.2917 -0.6897
  400TMC3    C5 5975   0.380   3.132  16.980 -0.2154  0.5328 -0.0926
  400TMC3    C6 5976   0.253   3.118  16.929 -0.5588 -0.2192 -0.0547
  400TMC3     C 5977   0.534   2.831  16.821  0.4562 -0.3216 -0.3413
  400TMC3     O 5978   0.504   2.711  16.801  0.1331  0.4261  0.9125
  400TMC3     H 5979   0.282   2.821  16.761 -1.6700 -0.4681  1.5996
  400TMC3    H1 5980   0.570   3.036  16.997 -0.3131  0.5686  0.3632
  400TMC3    H2 5981   0.184   3.201  16.939 -1.7672 -1.3120  0.6251
  400TMC3    C7 5982   0.438   3.256  17.028 -0.7825 -0.1454 -0.0625
  400TMC3    C8 5983   0.093   3.020  16.793  0.0389  0.2226 -0.1485
  400TMC3    O1 5984   0.561   3.249  17.037  0.1208  0.2896  0.9973
  400TMC3    O2 5985   0.035   3.130  16.785 -0.1748  0.2247 -0.3105
  401MPD2     C 5986   2.692   1.246  17.486  0.1670  0.3463  0.0110
  401MPD2    C1 5987   2.732   1.258  17.618  0.0444 -0.4258 -0.3880
  401MPD2    C2 5988   2.704   1.153   0.026  0.7204  0.2179 -0.1369
  401MPD2    C3 5989   2.616   1.051  17.676  0.2698 -0.0278 -0.0943
  401MPD2    C4 5990   2.560   1.048  17.546 -0.6836 -0.4105 -0.2551
  401MPD2    C5 5991   2.605   1.141  17.457 -0.0611 -0.2330 -0.0694
  401MPD2     H 5992   2.748   1.169   0.124  1.7781 -0.7570 -0.4525
  401MPD2    H1 5993   2.495   0.974  17.501 -1.2004  0.2459 -0.5953
  401MPD2    H2 5994   2.721   1.310  17.403  0.5877 -1.8193 -1.5163
  401MPD2    H3 5995   2.567   1.126  17.357 -0.7726 -0.6813  0.2695
  401MPD2     N 5996   2.590   0.952   0.089  0.5282 -0.1280 -0.1410
  401MPD2    H5 5997   2.636   0.971   0.177  2.8777 -0.4291 -1.2959
  401MPD2    N1 5998   2.817   1.359  17.663 -0.2793 -0.7813 -0.2108
  401MPD2    H7 5999   2.835   1.369   0.076  2.6513 -1.4114 -0.6837
  402TMC3    C1 6000   2.531   0.750   0.185  0.4612 -0.2279 -0.4035
  402TMC3    C2 6001   2.588   0.796   0.300 -0.3465 -0.6177  0.2622
  402TMC3    C3 6002   2.631   0.704   0.393  0.9269 -0.0837 -0.4653
  402TMC3    C4 6003   2.521   0.614   0.155  0.0860  0.4749  0.1792
  402TMC3    C5 6004   2.570   0.522   0.246 -0.4504 -0.0015  0.0339
  402TMC3    C6 6005   2.623   0.568   0.373 -0.0009 -0.3915 -0.3624
  402TMC3     C 6006   2.516   0.833   0.074 -0.2234  0.0565 -0.2950
  402TMC3     O 6007   2.439   0.813  17.670 -0.2632  0.6310  0.0346
  402TMC3     H 6008   2.584   0.902   0.322 -0.4083 -0.2774 -1.3881
  402TMC3    H1 6009   2.486   0.583   0.057 -0.2279  1.0850  0.0982
  402TMC3    H2 6010   2.664   0.497   0.443  1.1988 -0.2260 -0.8959
  402TMC3    C7 6011   2.578   0.383   0.218  0.0196  0.2831 -0.0038
  402TMC3    C8 6012   2.697   0.745   0.516 -0.5370 -0.4296 -0.8260
  402TMC3    O1 6013   2.493   0.330   0.149  0.0965  0.1110 -0.0051
  402TMC3    O2 6014   2.766   0.665   0.576  0.0553  0.1504 -0.4332
  403MPD2     C 6015   1.993   0.438  13.073  0.1415 -0.1124  0.4212
  403MPD2    C1 6016   1.997   0.312  13.122 -0.1711  0.2508 -0.1674
  403MPD2    C2 6017   2.112   0.280  13.193 -0.8395 -0.2256  0.1490
  403MPD2    C3 6018   2.205   0.376  13.236  0.0432 -0.2269 -0.0575
  403MPD2    C4 6019   2.195   0.504  13.185 -0.5982 -0.2517 -0.8093
  403MPD2    C5 6020   2.084   0.531  13.105  0.3644  0.3087 -0.4023
  403MPD2     H 6021   2.121   0.178  13.229  1.8885  0.7367  2.1654
  403MPD2    H1 6022   2.260   0.588  13.206 -0.3522 -0.2661 -1.5093
  403MPD2    H2 6023   1.915   0.473  13.006  0.5451  0.9550  0.5087
  403MPD2    H3 6024   2.065   0.634  13.077 -0.6621  0.3164  0.3538
  403MPD2     N 6025   2.313   0.340  13.323  0.1764 -0.0703 -0.4657
  403MPD2    H5 6026   2.314   0.242  13.351 -1.9072  0.2509  0.7279
  403MPD2    N1 6027   1.894   0.224  13.080 -0.3540 -0.3383  0.2114
  403MPD2    H7 6028   1.831   0.263  13.011  1.2266  1.1585 -0.3887
  404TMC3    C1 6029   1.774   0.024  13.055 -0.4753  0.2088  1.1116
  404TMC3    C2 6030   1.696   4.648  13.115 -0.2008 -0.6055  0.3989
  404TMC3    C3 6031   1.595   4.586  13.038  0.3569 -0.0479  0.1713
  404TMC3    C4 6032   1.768   0.047  12.924  0.5963  1.3648  0.1800
  404TMC3    C5 6033   1.674   4.709  12.846  0.2694  0.2726 -0.5097
  404TMC3    C6 6034   1.592   4.611  12.906  0.5809 -0.6011 -0.0822
  404TMC3     C 6035   1.866   0.100  13.137 -0.5361  0.6297  0.4427
  404TMC3     O 6036   1.907   0.055  13.241  0.3129 -0.4093  0.5070
  404TMC3     H 6037   1.707   4.628  13.221  3.0139  1.7587  0.5208
  404TMC3    H1 6038   1.837   0.117  12.878  1.8889  0.3528  0.5829
  404TMC3    H2 6039   1.533   4.542  12.848  0.3614 -0.1561 -0.3889
  404TMC3    C7 6040   1.676   0.018  12.707 -0.5219 -0.3216  0.7813
  404TMC3    C8 6041   1.543   4.459  13.083 -0.2692  0.5211  0.0674
  404TMC3    O1 6042   1.750   0.107  12.672  0.6182 -0.2048 -0.4141
  404TMC3    O2 6043   1.537   4.366  13.004 -0.0132  0.2860 -0.1652
  405MPD2     C 6044   2.135   0.728  14.418 -0.2022  0.3735 -0.1182
  405MPD2    C1 6045   2.119   0.616  14.335  0.1963 -0.0672 -0.5640
  405MPD2    C2 6046   2.081   0.642  14.205  0.4946  0.7438  0.2507
  405MPD2    C3 6047   2.041   0.770  14.161 -0.3658  0.0576 -0.2881
  405MPD2    C4 6048   2.049   0.875  14.246 -0.7009  0.1117 -0.0801
  405MPD2    C5 6049   2.104   0.855  14.366 -0.4203  0.2333  0.2888
  405MPD2     H 6050   2.075   0.566  14.128  0.2459  1.1469 -0.1242
  405MPD2    H1 6051   2.003   0.971  14.223 -0.9913  0.3106  1.3221
  405MPD2    H2 6052   2.181   0.733  14.515 -0.8710  1.5468  0.1424
  405MPD2    H3 6053   2.125   0.943  14.427  0.5434  0.1222  0.1067
  405MPD2     N 6054   1.971   0.775  14.035  0.4092 -0.3647  0.0411
  405MPD2    H5 6055   1.987   0.696  13.974 -1.2638 -1.1202  0.5822
  405MPD2    N1 6056   2.152   0.491  14.392 -0.6327 -0.5519  0.0528
  405MPD2    H7 6057   2.173   0.488  14.492 -1.0116 -2.3061  0.0758
  406TMC3    C1 6058   1.583   0.890  13.828 -0.1512 -0.2165 -0.0118
  406TMC3    C2 6059   1.536   0.762  13.833 -0.2209  0.1517  0.1106
  406TMC3    C3 6060   1.625   0.673  13.873 -0.6245  0.4943 -0.4523
  406TMC3    C4 6061   1.709   0.929  13.845  0.7308  0.2277 -0.1835
  406TMC3    C5 6062   1.799   0.834  13.890  0.2020  0.2343  0.3511
  406TMC3    C6 6063   1.756   0.700  13.904  0.2572  0.1407  0.4817
  406TMC3     C 6064   1.488   0.997  13.829 -0.2031 -0.6318  0.1971
  406TMC3     O 6065   1.504   1.100  13.769 -0.8576  0.0548  0.5730
  406TMC3     H 6066   1.438   0.736  13.794 -0.2447 -0.7076  0.7491
  406TMC3    H1 6067   1.734   1.035  13.851 -1.8348  0.8749 -1.1385
  406TMC3    H2 6068   1.827   0.621  13.926  0.7787  0.4355 -0.1299
  406TMC3    C7 6069   1.888   0.876  13.999  0.8377  0.0143  0.5568
  406TMC3    C8 6070   1.571   0.534  13.901 -0.2081  0.5219 -0.7039
  406TMC3    O1 6071   1.856   0.978  14.053 -0.4483 -0.8053  0.2895
  406TMC3    O2 6072   1.468   0.498  13.849  0.4378  0.1148 -0.1427
  407MPD2     C 6073   4.696   1.897   9.013 -0.3260  0.4532  0.0421
  407MPD2    C1 6074   4.663   2.028   8.992  0.5570  0.0648 -0.7667
  407MPD2    C2 6075   4.675   2.122   9.096 -0.4464 -0.2020 -0.2519
  407MPD2    C3 6076   0.014   2.084   9.217  0.5796 -0.4471  1.2295
  407MPD2    C4 6077   0.066   1.954   9.225  0.3863 -0.5924  0.6374
  407MPD2    C5 6078   0.035   1.860   9.130 -0.0905 -0.0724 -0.2264
  407MPD2     H 6079   4.632   2.220   9.078 -1.5598 -0.4803  0.8751
  407MPD2    H1 6080   0.115   1.913   9.313  3.1507 -0.9943 -1.0781
  407MPD2    H2 6081   4.681   1.815   8.944 -1.9586 -0.5976  1.6402
  407MPD2    H3 6082   0.077   1.760   9.137 -0.4218 -0.2579 -0.9586
  407MPD2     N 6083   0.049   2.177   9.317 -0.2328  0.4140 -0.0697
  407MPD2    H5 6084   0.093   2.132   9.397  0.8601  0.4806 -0.6339
  407MPD2    N1 6085   4.618   2.078   8.865 -0.3330 -0.0493  0.1749
  407MPD2    H7 6086   4.613   2.180   8.859  0.0387  0.0654  1.7245
  408TMC3    C1 6087   4.620   2.034   8.630 -0.5201 -0.4373  0.0949
  408TMC3    C2 6088   4.685   2.157   8.618 -0.2657  0.5908 -0.4360
  408TMC3    C3 6089   0.029   2.176   8.494  0.3780 -0.4015  0.1452
  408TMC3    C4 6090   4.599   1.948   8.526  0.6043 -0.1580 -0.3354
  408TMC3    C5 6091   4.667   1.972   8.407  0.1766  0.6855 -0.0256
  408TMC3    C6 6092   0.023   2.084   8.390  0.5876 -0.0933 -0.3765
  408TMC3     C 6093   4.586   1.988   8.762 -0.1162  0.4712 -0.5344
  408TMC3     O 6094   4.541   1.873   8.770  0.2091 -0.4860 -0.1684
  408TMC3     H 6095   4.696   2.226   8.700 -0.2217 -1.0642  0.9515
  408TMC3    H1 6096   4.526   1.868   8.530 -0.0993  0.5457  0.7451
  408TMC3    H2 6097   0.076   2.110   8.299  0.7300  0.8562 -0.0168
  408TMC3    C7 6098   4.617   1.897   8.292 -0.1662  0.4078  0.3026
  408TMC3    C8 6099   0.129   2.284   8.478 -0.1260 -0.1198 -0.6064
  408TMC3    O1 6100   4.515   1.833   8.303 -0.0039  0.2291  0.0186
  408TMC3    O2 6101   0.215   2.272   8.390 -0.2104 -0.2912  0.1254
  409MPD2     C 6102   3.707   2.585  17.002  0.2887 -0.0044 -0.8790
  409MPD2    C1 6103   3.791   2.577  17.112  0.1442 -0.2809  0.0353
  409MPD2    C2 6104   3.905   2.647  17.126 -0.3593 -0.1957  0.0459
  409MPD2    C3 6105   3.949   2.727  17.023 -0.4418  0.0104 -0.3647
  409MPD2    C4 6106   3.870   2.729  16.906 -0.1320  0.1132  0.6011
  409MPD2    C5 6107   3.748   2.664  16.897 -0.2116 -0.5491 -0.5343
  409MPD2     H 6108   3.961   2.636  17.218 -0.2104 -0.5679 -0.0890
  409MPD2    H1 6109   3.894   2.788  16.818 -0.0047  1.6449  1.6501
  409MPD2    H2 6110   3.615   2.529  16.998  0.1763  0.1504 -0.4198
  409MPD2    H3 6111   3.689   2.672  16.807 -0.2708 -1.3857 -0.5671
  409MPD2     N 6112   4.066   2.804  17.022 -0.0836 -0.1110  1.0985
  409MPD2    H5 6113   4.083   2.838  16.928  0.5993 -1.4130  0.7602
  409MPD2    N1 6114   3.765   2.500  17.227  0.5645 -0.3868  0.0166
  409MPD2    H7 6115   3.838   2.505  17.297 -0.2326 -0.3117  0.8434
  410TMC3    C1 6116   4.247   2.924  17.071 -0.0759  0.2510 -0.2616
  410TMC3    C2 6117   4.378   2.900  17.087  1.0495 -0.2977 -0.5379
  410TMC3    C3 6118   4.462   2.986  17.023  0.5437 -0.3160  0.5313
  410TMC3    C4 6119   4.187   3.024  16.995  0.4458  0.4066 -0.0361
  410TMC3    C5 6120   4.275   3.107  16.928 -0.2407  0.5178  0.3594
  410TMC3    C6 6121   4.415   3.093  16.943  0.4968 -0.1187 -0.2652
  410TMC3     C 6122   4.163   2.818  17.113 -0.3875  0.6886  0.1981
  410TMC3     O 6123   4.198   2.747  17.204  0.0023 -0.6790 -0.4402
  410TMC3     H 6124   4.415   2.828  17.159 -0.2885 -0.8993 -0.4515
  410TMC3    H1 6125   4.081   3.043  17.002 -0.0756 -2.2874 -0.5926
  410TMC3    H2 6126   4.494   3.135  16.882  0.8795 -0.4511  0.0037
  410TMC3    C7 6127   4.212   3.166  16.813 -0.1038 -0.4606 -0.3103
  410TMC3    C8 6128   4.591   3.016  17.088 -0.0497 -0.3857  0.3576
  410TMC3    O1 6129   4.097   3.138  16.785  0.5769  0.5375 -0.3247
  410TMC3    O2 6130   4.621   3.136  17.100 -0.1047 -0.3170 -0.2152
  411MPD2     C 6131   4.047   3.467  14.712 -0.3342 -0.2275  0.0602
  411MPD2    C1 6132   3.937   3.479  14.631  0.0070 -0.4306  0.1475
  411MPD2    C2 6133   3.861   3.371  14.588 -0.5334  0.9091  0.3670
  411MPD2    C3 6134   3.900   3.244  14.632  0.7621  0.0580  0.1372
  411MPD2    C4 6135   3.999   3.237  14.727 -0.8016  0.1858  0.0036
  411MPD2    C5 6136   4.081   3.342  14.762  0.3908 -0.2372  0.1279
  411MPD2     H 6137   3.783   3.387  14.515 -0.1443  0.9947 -0.0253
  411MPD2    H1 6138   4.036   3.139  14.752 -0.0571 -0.3089 -2.9606
  411MPD2    H2 6139   4.101   3.553  14.750  1.7016 -1.0818 -0.8703
  411MPD2    H3 6140   4.175   3.325  14.813  0.3267  1.6569  0.9053
  411MPD2     N 6141   3.847   3.129  14.568  0.0059 -0.4211  0.4179
  411MPD2    H5 6142   3.902   3.046  14.585  0.0079 -0.2874  1.0747
  411MPD2    N1 6143   3.902   3.610  14.591 -0.8960  0.4074 -0.0001
  411MPD2    H7 6144   3.948   3.687  14.639 -0.7017  0.3079 -0.0227
  412TMC3    C1 6145   3.705   2.996  14.440 -0.8561 -0.6036  0.9032
  412TMC3    C2 6146   3.579   2.981  14.387 -0.2484  0.0355  0.0647
  412TMC3    C3 6147   3.561   2.863  14.319 -0.5819  0.1167 -0.0073
  412TMC3    C4 6148   3.808   2.901  14.429 -1.3716 -0.5683 -0.1806
  412TMC3    C5 6149   3.780   2.782  14.367  0.0485 -0.1141  0.2626
  412TMC3    C6 6150   3.665   2.769  14.299 -0.4527 -0.1561 -0.0143
  412TMC3     C 6151   3.726   3.125  14.503 -0.4985  0.3119  0.5076
  412TMC3     O 6152   3.637   3.208  14.518  0.3507 -0.3665  0.8573
  412TMC3     H 6153   3.499   3.052  14.403 -1.9818 -1.9939  0.3359
  412TMC3    H1 6154   3.907   2.914  14.470 -1.6488 -2.7385  1.1527
  412TMC3    H2 6155   3.657   2.670  14.256  2.8440 -0.1316 -0.6552
  412TMC3    C7 6156   3.895   2.711  14.310 -0.4969 -0.3867 -0.5143
  412TMC3    C8 6157   3.500   2.903  14.195  0.2987 -0.2028  0.1437
  412TMC3    O1 6158   3.890   2.588  14.303  0.0341  0.3357  0.1612
  412TMC3    O2 6159   3.395   2.970  14.188 -0.0947  0.0806 -0.0728
  413MPD2     C 6160   0.805   1.348  15.528 -0.1892  0.7007 -0.2724
  413MPD2    C1 6161   0.805   1.441  15.422  0.4736 -0.0307 -0.4390
  413MPD2    C2 6162   0.927   1.454  15.354 -0.1864  0.0085 -0.4947
  413MPD2    C3 6163   1.042   1.393  15.392 -0.3049  0.6440 -0.3730
  413MPD2    C4 6164   1.034   1.304  15.495 -0.1827 -0.2942 -0.3708
  413MPD2    C5 6165   0.916   1.279  15.558  0.4029  0.1717 -0.5595
  413MPD2     H 6166   0.932   1.506  15.258  0.7899 -1.8948 -1.4799
  413MPD2    H1 6167   1.114   1.239  15.529  0.6738  0.3611 -1.1303
  413MPD2    H2 6168   0.718   1.321  15.586  0.0195 -0.2195 -0.4019
  413MPD2    H3 6169   0.911   1.205  15.638 -1.8313  0.1711 -0.6976
  413MPD2     N 6170   1.169   1.402  15.333 -0.0476  0.2752 -0.2301
  413MPD2    H5 6171   1.232   1.325  15.356 -1.0050 -0.3321  0.3716
  413MPD2    N1 6172   0.693   1.530  15.406 -0.6229  0.3923 -0.3106
  413MPD2    H7 6173   0.609   1.521  15.462  1.4502  0.4675  2.8099
  414TMC3    C1 6174   1.344   1.502  15.215 -0.9390  0.5385  0.2421
  414TMC3    C2 6175   1.429   1.412  15.280  0.2862  0.3163  0.5410
  414TMC3    C3 6176   1.561   1.444  15.272  0.3285  0.5667 -0.2770
  414TMC3    C4 6177   1.384   1.613  15.148 -0.0331  0.0954  0.4384
  414TMC3    C5 6178   1.514   1.654  15.165 -0.0182 -0.0324  0.2682
  414TMC3    C6 6179   1.601   1.572  15.238  0.0325  0.6320 -0.0068
  414TMC3     C 6180   1.200   1.497  15.240  0.1481  0.4338 -1.0649
  414TMC3     O 6181   1.135   1.592  15.202  0.1917 -0.0428  0.0441
  414TMC3     H 6182   1.394   1.315  15.312 -0.0976  0.3123  0.1101
  414TMC3    H1 6183   1.311   1.667  15.089  0.7428 -0.5607 -1.1077
  414TMC3    H2 6184   1.706   1.592  15.221 -0.0517  2.5098  1.7147
  414TMC3    C7 6185   1.579   1.680  15.048 -0.5418 -0.1128  0.1902
  414TMC3    C8 6186   1.641   1.343  15.206  0.1604 -0.4968  0.3648
  414TMC3    O1 6187   1.670   1.760  15.061 -0.2980 -0.0162  0.0944
  414TMC3    O2 6188   1.581   1.248  15.147  0.8199 -0.3868 -0.7592
  415TMC3    C1 6189   1.493   3.631   9.769 -0.1132 -0.1211 -0.2411
  415TMC3    C2 6190   1.507   3.760   9.733 -0.3017  0.4649 -0.3607
  415TMC3    C3 6191   1.424   3.806   9.638  0.1251 -0.9106  0.2049
  415TMC3    C4 6192   1.402   3.546   9.719  0.5710 -1.4527  0.2750
  415TMC3    C5 6193   1.312   3.599   9.630  0.8546 -0.6929  1.0109
  415TMC3    C6 6194   1.310   3.725   9.590 -0.0097 -0.7615  0.0344
  415TMC3     C 6195   1.560   3.572   9.887 -0.0847 -0.4410 -0.0096
  415TMC3     O 6196   1.518   3.464   9.922  0.5028  0.2955 -0.1662
  415TMC3     H 6197   1.589   3.825   9.762 -0.3750  0.3366  0.1263
  415TMC3    H1 6198   1.402   3.441   9.747 -1.1878 -1.7651 -0.8956
  415TMC3    H2 6199   1.229   3.767   9.532  1.5380  1.3456 -0.6182
  415TMC3    C7 6200   1.229   3.514   9.548  0.3852 -0.0012 -0.3194
  415TMC3    C8 6201   1.447   3.936   9.568  0.1474  1.3757  0.3558
  415TMC3    O1 6202   1.145   3.576   9.482  0.6597  0.0205  0.4996
  415TMC3    O2 6203   1.360   3.970   9.488 -0.3234 -0.1321  0.5416
  416MPD2     C 6204   3.943   3.745  11.043  0.3323  0.2561  0.2961
  416MPD2    C1 6205   3.954   3.677  11.160 -0.6039  0.4740 -0.3704
  416MPD2    C2 6206   3.980   3.547  11.148  0.5001 -0.3029 -0.3402
  416MPD2    C3 6207   3.984   3.478  11.029 -0.5926 -0.4430 -0.7449
  416MPD2    C4 6208   3.976   3.546  10.911 -0.1065  0.1278 -0.2617
  416MPD2    C5 6209   3.951   3.684  10.922  0.3237  0.3798 -0.5330
  416MPD2     H 6210   3.985   3.495  11.243 -0.1017  0.3298  0.0323
  416MPD2    H1 6211   3.967   3.504  10.812  2.9043  1.5252 -1.1247
  416MPD2    H2 6212   3.927   3.853  11.043  3.7256  0.7626  0.3084
  416MPD2    H3 6213   3.943   3.746  10.833  1.2438  2.0661  0.5592
  416MPD2     N 6214   3.976   3.332  11.037 -0.6475  0.1469 -0.1581
  416MPD2    H5 6215   3.964   3.283  11.125 -0.2739  1.6045  0.7019
  416MPD2    N1 6216   3.921   3.747  11.275  0.2189 -0.2653  0.1453
  416MPD2    H7 6217   3.878   3.839  11.267  3.0733  0.9284 -1.3258
  417TMC3    C1 6218   3.835   3.753  11.501  1.2107  0.8019 -0.3411
  417TMC3    C2 6219   3.825   3.680  11.617  0.1992 -0.0639  0.0513
  417TMC3    C3 6220   3.702   3.627  11.658 -1.1212 -0.3225  0.1855
  417TMC3    C4 6221   3.717   3.799  11.448 -0.0774 -0.1847 -0.4666
  417TMC3    C5 6222   3.606   3.737  11.493 -0.0272  0.1956  0.1800
  417TMC3    C6 6223   3.591   3.644  11.589  0.9800 -0.1717 -0.2164
  417TMC3     C 6224   3.926   3.692  11.401  0.1532  0.3408 -0.1271
  417TMC3     O 6225   3.985   3.591  11.435  0.1289 -0.6257  0.1827
  417TMC3     H 6226   3.919   3.660  11.667  1.6067  2.5569 -1.5382
  417TMC3    H1 6227   3.713   3.872  11.369 -0.3819 -0.4938 -0.7371
  417TMC3    H2 6228   3.492   3.613  11.622  1.9522 -1.6430  1.3137
  417TMC3    C7 6229   3.499   3.739  11.399  0.2426 -0.3942  0.8142
  417TMC3    C8 6230   3.692   3.599  11.796  0.2109 -0.2960 -0.2202
  417TMC3    O1 6231   3.507   3.846  11.335 -0.3193  0.5421  0.0299
  417TMC3    O2 6232   3.784   3.651  11.862  0.2008  0.3512  0.0268
  418TMC3    C1 6233   2.159   4.500   0.453  0.0428  0.3366  1.1181
  418TMC3    C2 6234   2.085   4.506   0.337 -1.2480  0.4924  0.6125
  418TMC3    C3 6235   1.979   4.422   0.340  0.3422 -0.2139 -0.2988
  418TMC3    C4 6236   2.122   4.440   0.569  0.3989  0.6439 -1.0884
  418TMC3    C5 6237   2.021   4.346   0.557  0.0027  0.3202 -0.1982
  418TMC3    C6 6238   1.950   4.341   0.443  0.6111  0.0519 -0.3580
  418TMC3     C 6239   2.291   4.503   0.419  0.4117 -0.1173 -0.2397
  418TMC3     O 6240   2.344   4.606   0.378  0.1777 -0.1617  0.3734
  418TMC3     H 6241   2.118   4.555   0.246 -1.8903 -0.7175 -0.2747
  418TMC3    H1 6242   2.196   4.435   0.648  0.3442  1.0188 -1.0162
  418TMC3    H2 6243   1.858   4.285   0.449 -0.4878  1.9566  0.7161
  418TMC3    C7 6244   1.999   4.241   0.655  0.2607  0.2190 -0.0968
  418TMC3    C8 6245   1.917   4.401   0.210 -0.1185  0.0075 -1.1386
  418TMC3    O1 6246   1.958   4.134   0.609 -0.0448 -0.8306 -0.0410
  418TMC3    O2 6247   1.912   4.483   0.123 -0.1332  0.4863 -0.1399
  419MPD2     C 6248   0.560   3.109  12.225  0.3998 -0.1363  0.5915
  419MPD2    C1 6249   0.578   3.248  12.201 -0.1792  0.0411  0.4088
  419MPD2    C2 6250   0.580   3.332  12.309 -0.5993  0.5080 -0.7204
  419MPD2    C3 6251   0.562   3.282  12.432  0.4591 -0.1311 -0.9131
  419MPD2    C4 6252   0.539   3.151  12.459  0.8858 -0.0352  0.3444
  419MPD2    C5 6253   0.539   3.064  12.354  0.0915  0.1821 -0.2852
  419MPD2     H 6254   0.601   3.438  12.302 -0.5110  0.5522  0.2244
  419MPD2    H1 6255   0.517   3.122  12.561 -0.4677  0.4137  0.1760
  419MPD2    H2 6256   0.553   3.035  12.146  1.7867  0.1175  0.2269
  419MPD2    H3 6257   0.523   2.960  12.381  1.5212  0.2654  0.9654
  419MPD2     N 6258   0.562   3.382  12.531  0.5677  0.7008  0.4706
  419MPD2    H5 6259   0.603   3.471  12.504  0.5153  0.5174 -0.2049
  419MPD2    N1 6260   0.578   3.307  12.079 -0.8923 -0.0725  0.2630
  419MPD2    H7 6261   0.596   3.407  12.075 -0.4951 -0.1926 -1.2440
  420TMC3    C1 6262   0.526   3.487  12.726 -0.1167 -0.4423  0.3112
  420TMC3    C2 6263   0.492   3.598  12.663  0.0259  0.1179 -0.3529
  420TMC3    C3 6264   0.487   3.719  12.739 -0.7332  0.3157 -0.5706
  420TMC3    C4 6265   0.537   3.488  12.866  0.3987 -0.2523  0.3823
  420TMC3    C5 6266   0.542   3.608  12.934  0.0328  0.0466  0.2593
  420TMC3    C6 6267   0.522   3.726  12.868  0.3512 -0.4169 -0.4772
  420TMC3     C 6268   0.521   3.362  12.656 -0.1591 -0.1180  0.7028
  420TMC3     O 6269   0.466   3.267  12.709 -0.6514  0.3976 -0.1024
  420TMC3     H 6270   0.444   3.582  12.567  0.2077 -0.8052 -0.2909
  420TMC3    H1 6271   0.551   3.393  12.917 -2.1910 -1.4768 -1.1698
  420TMC3    H2 6272   0.520   3.823  12.918  2.4002  0.2213 -1.6443
  420TMC3    C7 6273   0.575   3.606  13.073  0.1742  0.1901 -0.3078
  420TMC3    C8 6274   0.411   3.825  12.680  0.2824 -0.0268 -0.5942
  420TMC3    O1 6275   0.563   3.503  13.134 -0.0876 -0.8210 -0.3525
  420TMC3    O2 6276   0.436   3.850  12.561 -0.4316  0.2614 -0.2270
  421TMC3    C1 6277   2.509   0.355  13.464  0.2994  0.4658 -0.2191
  421TMC3    C2 6278   2.569   0.434  13.560  0.0912 -0.4693 -0.0713
  421TMC3    C3 6279   2.661   0.388  13.649 -0.0198 -0.0197  0.7918
  421TMC3    C4 6280   2.540   0.223  13.448 -0.5653  0.3097 -0.1220
  421TMC3    C5 6281   2.635   0.179  13.533 -0.3276  0.0105 -0.1280
  421TMC3    C6 6282   2.691   0.254  13.635  0.1311 -0.2088  0.2959
  421TMC3     C 6283   2.419   0.423  13.371 -0.9567 -0.4030 -0.0147
  421TMC3     O 6284   2.430   0.544  13.359  0.0784 -0.3958 -0.1543
  421TMC3     H 6285   2.557   0.542  13.550 -0.4065 -0.5709 -0.5535
  421TMC3    H1 6286   2.490   0.166  13.370 -0.3480 -0.3136  0.1917
  421TMC3    H2 6287   2.772   0.213  13.695 -0.3395  0.7469  1.5742
  421TMC3    C7 6288   2.665   0.041  13.546 -0.0379  0.0295  0.5717
  421TMC3    C8 6289   2.671   0.439  13.780  0.2079 -0.0035 -0.7091
  421TMC3    O1 6290   2.694   0.003  13.657  0.0987  0.1795  0.0237
  421TMC3    O2 6291   2.766   0.397  13.853 -0.0875 -0.6050  0.4831
  422TMC3    C1 6292   0.101   1.444  12.346  0.2870  0.6586 -0.2334
  422TMC3    C2 6293   0.132   1.566  12.394 -0.3209 -0.2148  0.3874
  422TMC3    C3 6294   0.036   1.630  12.470 -0.3480 -0.5658  0.4372
  422TMC3    C4 6295   4.712   1.377  12.377  0.6448  0.2151  0.1723
  422TMC3    C5 6296   4.609   1.447  12.448 -0.0522  0.1021  0.2950
  422TMC3    C6 6297   4.631   1.575  12.490  0.3367  0.3920 -0.3783
  422TMC3     C 6298   0.140   1.453  12.202 -0.0881  0.0304  0.4721
  422TMC3     O 6299   0.215   1.547  12.177  0.0452  0.3743 -0.0648
  422TMC3     H 6300   0.234   1.602  12.395  0.5873 -2.7623 -1.2677
  422TMC3    H1 6301   4.686   1.279  12.339 -0.7890  1.1166 -1.1737
  422TMC3    H2 6302   4.558   1.637  12.540 -0.1343  1.3515 -2.2292
  422TMC3    C7 6303   4.509   1.363  12.513 -0.0468 -0.2926 -0.1710
  422TMC3    C8 6304   0.033   1.777  12.455  0.0518 -0.0086  0.5513
  422TMC3    O1 6305   4.538   1.249  12.537 -0.2138  0.3454 -0.7897
  422TMC3    O2 6306   4.686   1.842  12.535 -0.1117 -0.4000  0.0439
  423MPD2     C 6307   0.722   2.276   0.673  0.4788 -0.2385 -0.8244
  423MPD2    C1 6308   0.603   2.237   0.607  0.0436  0.7934  0.1318
  423MPD2    C2 6309   0.610   2.215   0.472 -0.0342  0.3206 -0.0052
  423MPD2    C3 6310   0.734   2.202   0.406 -0.9182  0.3604  0.0075
  423MPD2    C4 6311   0.855   2.229   0.472 -0.5632 -0.4733  0.0402
  423MPD2    C5 6312   0.844   2.266   0.603  0.3606 -0.7479 -0.1485
  423MPD2     H 6313   0.522   2.187   0.415  0.3293 -0.1870 -0.3156
  423MPD2    H1 6314   0.950   2.239   0.422  1.4670 -0.2955  3.9495
  423MPD2    H2 6315   0.723   2.315   0.774 -2.2448  1.6623 -1.5108
  423MPD2    H3 6316   0.938   2.291   0.651 -0.9758  2.4358  0.8499
  423MPD2     N 6317   0.747   2.152   0.274  0.0337  0.0550  0.5833
  423MPD2    H5 6318   0.836   2.165   0.226  1.0251 -0.9360  2.1638
  423MPD2    N1 6319   0.481   2.230   0.670 -0.3773  0.4550 -0.2583
  423MPD2    H7 6320   0.404   2.198   0.612  1.7697  0.8765 -3.3307
  424TMC3    C1 6321   0.322   2.193   0.832 -0.8538  0.7388  0.1831
  424TMC3    C2 6322   0.295   2.138   0.957 -0.4877 -0.1213 -0.2299
  424TMC3    C3 6323   0.177   2.073   0.973  0.0863  0.0270 -0.7777
  424TMC3    C4 6324   0.231   2.211   0.736  0.3451  0.1313 -0.1150
  424TMC3    C5 6325   0.117   2.147   0.754  0.3830 -0.8300  1.8840
  424TMC3    C6 6326   0.085   2.074   0.868 -1.0391 -0.6611  0.3196
  424TMC3     C 6327   0.456   2.221   0.801 -0.6852  0.5208  1.0099
  424TMC3     O 6328   0.538   2.244   0.887 -0.3076  0.5917  0.3283
  424TMC3     H 6329   0.376   2.118   1.027 -2.5320 -1.5425  1.7159
  424TMC3    H1 6330   0.246   2.272   0.648 -0.0176 -0.2909 -0.4688
  424TMC3    H2 6331   0.006   1.999   0.869 -1.0950 -0.6462 -1.9491
  424TMC3    C7 6332   0.022   2.138   0.643  0.6395 -0.1674 -0.5650
  424TMC3    C8 6333   0.174   1.963   1.067 -0.4971 -0.2158 -0.1970
  424TMC3    O1 6334   0.064   2.133   0.526  0.3440  0.1850 -0.5272
  424TMC3    O2 6335   0.107   1.866   1.031  0.1972 -0.5482  0.7198
  425MPD2     C 6336   3.796   0.667   0.065 -0.6057  0.5691 -0.2728
  425MPD2    C1 6337   3.858   0.659  17.626  0.3166 -0.6572  0.5686
  425MPD2    C2 6338   3.777   0.611  17.525 -0.2722  0.4766  0.0681
  425MPD2    C3 6339   3.656   0.555  17.541  0.1246 -0.2329 -0.3618
  425MPD2    C4 6340   3.598   0.554  17.668 -0.3885 -0.2346  0.5645
  425MPD2    C5 6341   3.672   0.616   0.086  0.0895  0.0328 -0.0770
  425MPD2     H 6342   3.817   0.610  17.424 -1.1644 -3.9763 -0.2466
  425MPD2    H1 6343   3.504   0.505   0.005 -1.1296  0.6629 -0.4804
  425MPD2    H2 6344   3.843   0.729   0.141  0.0823  0.1134 -0.3261
  425MPD2    H3 6345   3.633   0.617   0.187 -0.7097 -2.8551 -0.3403
  425MPD2     N 6346   3.589   0.511  17.424  0.6939 -0.4086  0.3806
  425MPD2    H5 6347   3.628   0.528  17.332  1.4239 -0.1287  0.7467
  425MPD2    N1 6348   3.996   0.705  17.607  0.7687 -0.4537  0.2060
  425MPD2    H7 6349   4.043   0.745   0.001 -0.6084  0.9144  0.3352
  426TMC3    C1 6350   4.200   0.740  17.471  0.4091 -0.7083 -0.4908
  426TMC3    C2 6351   4.287   0.691  17.372 -0.1408  0.7218 -0.0961
  426TMC3    C3 6352   4.416   0.742  17.366  0.2083 -0.0413 -0.6578
  426TMC3    C4 6353   4.243   0.834  17.565 -0.3054 -0.3695 -0.0191
  426TMC3    C5 6354   4.373   0.881  17.553  0.1858 -0.1470 -0.3374
  426TMC3    C6 6355   4.458   0.830  17.456  0.1908 -0.2108 -0.0593
  426TMC3     C 6356   4.065   0.690  17.485  0.0745 -0.5788 -0.5260
  426TMC3     O 6357   4.024   0.637  17.385  0.1418  0.3400 -0.2610
  426TMC3     H 6358   4.256   0.620  17.296  1.1554  4.1763 -3.8014
  426TMC3    H1 6359   4.172   0.882  17.631  0.0580 -0.6909  0.5976
  426TMC3    H2 6360   4.560   0.867  17.455 -0.1813  0.8467  1.7596
  426TMC3    C7 6361   4.431   0.966  17.657 -0.0702 -0.1943 -0.0981
  426TMC3    C8 6362   4.501   0.691  17.255 -0.4819 -0.1404 -0.5424
  426TMC3    O1 6363   4.520   1.044  17.625  0.7573 -0.7004 -0.1928
  426TMC3    O2 6364   4.604   0.637  17.282  0.0106  0.7447  0.0588
  427MPD2     C 6365   3.205   3.608  14.631 -0.5940 -0.2882  0.3841
  427MPD2    C1 6366   3.189   3.584  14.763  0.4510 -0.4829  1.0414
  427MPD2    C2 6367   3.073   3.607  14.830  0.3030  0.0162 -0.1404
  427MPD2    C3 6368   2.958   3.652  14.764 -0.9346 -0.4705  0.1761
  427MPD2    C4 6369   2.973   3.671  14.627 -0.0048  0.1986  0.1368
  427MPD2    C5 6370   3.090   3.647  14.561  0.3934 -0.4601 -0.5228
  427MPD2     H 6371   3.075   3.587  14.937 -1.8197  0.9511  0.0671
  427MPD2    H1 6372   2.880   3.692  14.576  0.0127  1.8952  0.7869
  427MPD2    H2 6373   3.293   3.594  14.569 -0.1677  0.1068  0.9015
  427MPD2    H3 6374   3.093   3.668  14.455  0.0460  0.2491 -0.3957
  427MPD2     N 6375   2.831   3.667  14.831  0.1685  0.6933 -0.2042
  427MPD2    H5 6376   2.744   3.663  14.779  1.4371 -1.1798 -2.2295
  427MPD2    N1 6377   3.297   3.534  14.837 -0.5550 -0.1216 -0.1910
  427MPD2    H7 6378   3.273   3.512  14.934  0.5431  0.0511  0.1189
  428TMC3    C1 6379   3.496   3.438  14.890 -0.2570 -0.3837  0.3340
  428TMC3    C2 6380   3.425   3.336  14.954  0.6252  0.8517  0.4561
  428TMC3    C3 6381   3.483   3.282  15.067 -0.1226  0.2948  0.5506
  428TMC3    C4 6382   3.614   3.488  14.933 -0.0602 -0.5251 -0.2244
  428TMC3    C5 6383   3.661   3.443  15.049 -0.3175 -0.5204  0.0923
  428TMC3    C6 6384   3.603   3.337  15.112 -0.4956 -0.2102  0.1805
  428TMC3     C 6385   3.428   3.515  14.798  0.2179  0.1603 -0.7721
  428TMC3     O 6386   3.489   3.564  14.703  0.1021 -0.2961  0.2867
  428TMC3     H 6387   3.334   3.300  14.907  0.1793 -0.0662  2.0108
  428TMC3    H1 6388   3.671   3.549  14.864  2.0692 -0.9921  1.1215
  428TMC3    H2 6389   3.654   3.298  15.200  0.1656 -0.9582 -0.5370
  428TMC3    C7 6390   3.792   3.480  15.098 -0.2539  0.1040 -0.1769
  428TMC3    C8 6391   3.458   3.140  15.091  0.1681 -0.9322 -0.6276
  428TMC3    O1 6392   3.844   3.401  15.179 -0.4549 -0.4656  0.0124
  428TMC3    O2 6393   3.542   3.077  15.146  0.0390 -0.1997 -0.1643
  429MPD2     C 6394   4.132   3.340   0.110  0.3325 -0.6738  0.7082
  429MPD2    C1 6395   4.264   3.308   0.106 -0.1140 -0.7099  0.4109
  429MPD2    C2 6396   4.354   3.402   0.065  0.0077  0.3994  0.4838
  429MPD2    C3 6397   4.305   3.516  17.676  0.0917  0.8210 -0.2551
  429MPD2    C4 6398   4.177   3.549  17.671 -0.0814  0.0514  1.0367
  429MPD2    C5 6399   4.090   3.457   0.043 -0.5758 -0.4919 -0.4285
  429MPD2     H 6400   4.459   3.378   0.077  0.4864  3.4481  2.5144
  429MPD2    H1 6401   4.126   3.632  17.624  1.5356  1.3087  1.5131
  429MPD2    H2 6402   4.055   3.274   0.148 -2.7939  2.4040 -0.2637
  429MPD2    H3 6403   3.983   3.475   0.041 -0.0534  2.4247 -2.0844
  429MPD2     N 6404   4.412   3.600  17.632 -0.3927 -0.1712  0.1151
  429MPD2    H5 6405   4.504   3.560  17.649 -0.2500 -0.5552 -1.5305
  429MPD2    N1 6406   4.324   3.184   0.148  0.0683  0.3941  0.0939
  429MPD2    H7 6407   4.425   3.171   0.141  0.4622  3.1116  0.7880
  430TMC3    C1 6408   4.524   3.768  17.505 -0.0770  0.3849 -0.3822
  430TMC3    C2 6409   4.513   3.887  17.436 -0.1453  0.3081  0.1187
  430TMC3    C3 6410   4.630   3.945  17.402  0.0447 -0.0010 -0.0088
  430TMC3    C4 6411   4.643   3.714  17.540 -0.3273 -0.4579  0.6779
  430TMC3    C5 6412   0.032   3.773  17.484 -1.3533 -0.0412  0.2998
  430TMC3    C6 6413   0.036   3.900  17.432  0.0286 -0.6088  0.0022
  430TMC3     C 6414   4.400   3.717  17.565  0.0496 -0.0440 -0.6068
  430TMC3     O 6415   4.292   3.762  17.520 -0.0407 -0.1348  0.2327
  430TMC3     H 6416   4.417   3.933  17.416 -0.2182  0.3094  0.4777
  430TMC3    H1 6417   4.650   3.629  17.607 -2.2972 -1.0757  0.1177
  430TMC3    H2 6418   0.120   3.948  17.384  0.8917 -2.0239  0.1203
  430TMC3    C7 6419   0.124   3.677  17.417 -0.3082 -0.0033 -0.6291
  430TMC3    C8 6420   4.622   4.007  17.271 -0.7031  0.3154 -0.2187
  430TMC3    O1 6421   0.075   3.565  17.407 -0.4643 -0.1674  0.4604
  430TMC3    O2 6422   4.515   3.986  17.215  0.6200 -0.1631  0.1374
  431MPD2     C 6423   0.729   4.058  12.100 -0.3179  0.3196 -0.4206
  431MPD2    C1 6424   0.818   3.985  12.027 -0.0326  0.3927 -0.7670
  431MPD2    C2 6425   0.771   3.873  11.957  1.1026 -0.3881  0.7121
  431MPD2    C3 6426   0.631   3.851  11.941  0.1610 -0.1360 -0.2166
  431MPD2    C4 6427   0.545   3.931  12.009 -0.3484 -0.8621  0.3463
  431MPD2    C5 6428   0.594   4.031  12.088 -0.0762  0.4901  0.1723
  431MPD2     H 6429   0.842   3.814  11.902  0.9499 -0.1815  0.2942
  431MPD2    H1 6430   0.439   3.910  12.010 -0.2667 -1.2732  0.1156
  431MPD2    H2 6431   0.748   4.142  12.166  0.2827  0.8899 -1.3163
  431MPD2    H3 6432   0.514   4.090  12.132 -0.1879  0.6772 -0.2747
  431MPD2     N 6433   0.578   3.751  11.855 -0.7745 -0.0823 -0.5438
  431MPD2    H5 6434   0.478   3.739  11.859 -0.7617  0.2809  1.1501
  431MPD2    N1 6435   0.957   4.014  12.031 -0.4680 -0.7138  0.4718
  431MPD2    H7 6436   1.019   3.946  11.989 -0.7808 -0.2691 -0.6959
  432TMC3    C1 6437   0.581   3.538  11.752  0.5650  1.0375  0.1431
  432TMC3    C2 6438   0.640   3.481  11.640 -0.2821 -0.3686  0.1683
  432TMC3    C3 6439   0.638   3.346  11.625 -0.7904 -0.1083  0.7505
  432TMC3    C4 6440   0.541   3.458  11.857 -0.2710  0.2070 -0.3596
  432TMC3    C5 6441   0.562   3.321  11.841 -0.0748 -0.5621  0.9955
  432TMC3    C6 6442   0.605   3.264  11.730 -0.1151  0.3017  0.1450
  432TMC3     C 6443   0.652   3.661  11.785  0.1747 -0.3549 -1.1456
  432TMC3     O 6444   0.771   3.654  11.758 -0.0406 -0.0673  0.5420
  432TMC3     H 6445   0.661   3.543  11.553  2.6724 -1.6745 -0.0555
  432TMC3    H1 6446   0.506   3.495  11.953  1.6753  0.1056  0.3926
  432TMC3    H2 6447   0.613   3.158  11.710 -1.0816  0.3615 -0.6321
  432TMC3    C7 6448   0.554   3.237  11.962 -0.0316 -0.2978 -0.4765
  432TMC3    C8 6449   0.753   3.291  11.557 -0.2354  1.5050 -0.5023
  432TMC3    O1 6450   0.540   3.117  11.942 -0.0915  0.0646 -0.2830
  432TMC3    O2 6451   0.742   3.186  11.494 -0.3832 -0.0552 -0.3947
  433MPD2     C 6452   4.446   2.811  10.186 -0.2159 -1.0952  0.5578
  433MPD2    C1 6453   4.491   2.714  10.267 -0.4451  0.3386  0.3682
  433MPD2    C2 6454   4.544   2.754  10.393  0.5335  0.0145  0.5107
  433MPD2    C3 6455   4.542   2.890  10.433  0.2286  0.1890  0.1750
  433MPD2    C4 6456   4.483   2.985  10.352  0.0584 -0.2422 -0.6551
  433MPD2    C5 6457   4.436   2.942  10.229  0.7289 -0.1804 -0.2494
  433MPD2     H 6458   4.590   2.675  10.450  2.7351  1.8844  1.3453
  433MPD2    H1 6459   4.472   3.091  10.373 -3.3478 -1.2769  2.8972
  433MPD2    H2 6460   4.410   2.783  10.087 -0.9285 -2.3545  1.1722
  433MPD2    H3 6461   4.383   3.010  10.164  0.9121 -0.5312 -0.7627
  433MPD2     N 6462   4.583   2.910  10.563  0.0613 -0.2272 -0.2544
  433MPD2    H5 6463   4.621   2.830  10.612  0.4974 -1.1391 -2.0980
  433MPD2    N1 6464   4.497   2.579  10.223 -0.7325  0.0827  0.3664
  433MPD2    H7 6465   4.483   2.567  10.123  0.0524  0.2939  0.2356
  434TMC3    C1 6466   4.592   2.358  10.249 -1.0336  0.0360  0.3036
  434TMC3    C2 6467   4.608   2.251  10.335 -0.3626  0.5018  0.7258
  434TMC3    C3 6468   4.671   2.140  10.282 -0.2762 -0.3794  0.1526
  434TMC3    C4 6469   4.626   2.358  10.116  0.0821  0.2390  0.2526
  434TMC3    C5 6470   4.675   2.239  10.066 -0.9294 -0.0052 -0.1196
  434TMC3    C6 6471   4.706   2.134  10.152 -0.1670  0.2981 -0.0318
  434TMC3     C 6472   4.519   2.473  10.302 -0.1768 -0.9098 -0.5678
  434TMC3     O 6473   4.492   2.473  10.423  0.6115 -0.0081 -0.1693
  434TMC3     H 6474   4.568   2.254  10.435 -3.4726 -3.5894 -0.4119
  434TMC3    H1 6475   4.598   2.438  10.048  0.5730  0.5563  0.4246
  434TMC3    H2 6476   0.027   2.041  10.116  0.4171  0.9389 -1.0105
  434TMC3    C7 6477   4.639   2.213   9.924  0.9094  0.0201 -0.1440
  434TMC3    C8 6478   0.034   2.088  10.380  0.6656  0.1875 -0.0941
  434TMC3    O1 6479   4.624   2.315   9.856  0.1040  0.7197 -0.2811
  434TMC3    O2 6480   4.709   2.086  10.493  0.1901  0.2046 -0.0127
  435MPD2     C 6481   1.632   2.449  15.437 -0.4321 -0.2613  0.2679
  435MPD2    C1 6482   1.611   2.430  15.575  0.3449  0.5840 -0.3060
  435MPD2    C2 6483   1.717   2.384  15.651  0.0572 -1.0862  0.6234
  435MPD2    C3 6484   1.832   2.333  15.595 -0.1692 -0.6069 -0.3690
  435MPD2    C4 6485   1.844   2.344  15.453 -0.7433 -0.1188  0.0382
  435MPD2    C5 6486   1.751   2.406  15.384 -0.1777 -0.3596 -0.0433
  435MPD2     H 6487   1.708   2.368  15.758 -1.1128 -0.8645  0.5527
  435MPD2    H1 6488   1.933   2.310  15.400 -0.9991  0.2842 -0.6473
  435MPD2    H2 6489   1.560   2.505  15.378  0.8797  1.6914  0.5234
  435MPD2    H3 6490   1.770   2.417  15.278 -0.4294  0.2659 -0.0268
  435MPD2     N 6491   1.914   2.254  15.673 -0.3001  0.0969  0.4143
  435MPD2    H5 6492   1.883   2.248  15.770 -2.8097 -2.3166 -0.5220
  435MPD2    N1 6493   1.492   2.465  15.643  0.2362 -0.8632 -0.2572
  435MPD2    H7 6494   1.488   2.451  15.744  2.9147 -1.1650 -0.1918
  436TMC3    C1 6495   1.236   2.599  15.894  0.2048 -0.8992 -0.7803
  436TMC3    C2 6496   1.327   2.579  15.798  0.2174 -1.0584 -0.0229
  436TMC3    C3 6497   1.278   2.540  15.679 -0.5431  0.6689 -0.0484
  436TMC3    C4 6498   1.099   2.595  15.868  0.4275 -0.3115 -0.7248
  436TMC3    C5 6499   1.056   2.547  15.744  0.0278 -0.2198 -0.0787
  436TMC3    C6 6500   1.146   2.525  15.645 -0.5863  0.3655  0.7221
  436TMC3     C 6501   1.286   2.678  16.009  0.0310 -0.3220 -0.2286
  436TMC3     O 6502   1.407   2.690  16.022 -0.5646 -0.2384  0.5290
  436TMC3     H 6503   1.430   2.595  15.827 -0.0772 -0.4728  0.6914
  436TMC3    H1 6504   1.030   2.621  15.947  1.4156 -0.0442  0.0425
  436TMC3    H2 6505   1.112   2.503  15.544  2.4794  2.0474 -0.6987
  436TMC3    C7 6506   0.917   2.529  15.732  0.0808  0.4461 -0.5035
  436TMC3    C8 6507   1.380   2.509  15.581 -0.0463 -0.4008  0.5381
  436TMC3    O1 6508   0.840   2.581  15.816 -0.2174 -0.2845 -0.2043
  436TMC3    O2 6509   1.335   2.497  15.467  0.5195  0.2938  0.0160
  437TMC3    C1 6510   0.655   4.339  11.886 -0.0081 -0.7562  0.7477
  437TMC3    C2 6511   0.582   4.376  11.771  0.4578 -0.2087  0.5658
  437TMC3    C3 6512   0.652   4.394  11.650  0.2779  0.8359 -0.6197
  437TMC3    C4 6513   0.784   4.302  11.873  0.2194  0.3206 -0.0565
  437TMC3    C5 6514   0.842   4.316  11.750 -0.2688  0.0288 -0.3249
  437TMC3    C6 6515   0.785   4.365  11.638  0.9143  0.0426  0.2163
  437TMC3     C 6516   0.619   4.396  12.016  0.3893 -0.0852  0.2770
  437TMC3     O 6517   0.705   4.393  12.104 -0.3931  0.5247  0.1211
  437TMC3     H 6518   0.477   4.400  11.782  0.7485  0.5334  1.7525
  437TMC3    H1 6519   0.839   4.282  11.965  0.8821  1.0373 -0.2908
  437TMC3    H2 6520   0.842   4.389  11.549  1.1499 -0.2443  0.2911
  437TMC3    C7 6521   0.986   4.339  11.747 -0.3179 -0.4647 -0.1965
  437TMC3    C8 6522   0.599   4.499  11.570  0.4213 -0.8299  0.0539
  437TMC3    O1 6523   1.045   4.318  11.643 -0.2205 -0.4552 -0.4087
  437TMC3    O2 6524   0.504   4.562  11.619  0.6345  0.0995  0.1169
  438MPD2     C 6525   2.401   0.303  16.784  0.7008  0.4841  0.3184
  438MPD2    C1 6526   2.429   0.165  16.769 -1.1442  0.7759 -0.0193
  438MPD2    C2 6527   2.419   0.085  16.878  0.2523 -0.0209 -0.2278
  438MPD2    C3 6528   2.378   0.133  17.006  0.2424  0.7796  0.0331
  438MPD2    C4 6529   2.364   0.269  17.021  0.0651  0.5104 -0.1184
  438MPD2    C5 6530   2.366   0.350  16.901  0.3760  0.1667  0.8663
  438MPD2     H 6531   2.452   4.704  16.861  0.0367 -0.3778  1.5298
  438MPD2    H1 6532   2.347   0.320  17.115  2.5796 -0.8947  1.0811
  438MPD2    H2 6533   2.388   0.361  16.694 -1.6082 -0.0201  0.3395
  438MPD2    H3 6534   2.335   0.454  16.903  0.6973  0.2236  2.4437
  438MPD2     N 6535   2.363   0.048  17.118  0.3382 -0.2850 -0.0700
  438MPD2    H5 6536   2.356   0.089  17.210  0.5043  0.2339 -0.2884
  438MPD2    N1 6537   2.482   0.104  16.644 -0.1858 -0.1971 -0.3457
  438MPD2    H7 6538   2.483   0.003  16.648 -2.3730 -0.1841  0.9881
  439TMC3    C1 6539   2.608   0.084  16.445 -0.2520 -0.1150  0.2752
  439TMC3    C2 6540   2.638   0.125  16.321 -0.0906 -0.3724  0.3492
  439TMC3    C3 6541   2.677   0.030  16.228  0.2398  0.0334 -0.3505
  439TMC3    C4 6542   2.635   4.676  16.482  0.1665 -0.3101  0.0703
  439TMC3    C5 6543   2.673   4.584  16.392  0.3707  0.0382  0.0797
  439TMC3    C6 6544   2.685   4.622  16.259  0.1954  0.2363  0.0948
  439TMC3     C 6545   2.541   0.174  16.538  0.0206 -0.0290 -0.4867
  439TMC3     O 6546   2.534   0.293  16.523  0.3563 -0.1443 -0.4610
  439TMC3     H 6547   2.628   0.231  16.299 -0.0098 -0.5854 -0.7123
  439TMC3    H1 6548   2.653   4.652  16.586 -1.0445 -0.2755  0.2853
  439TMC3    H2 6549   2.684   4.543  16.184 -2.4266  0.5090 -0.1524
  439TMC3    C7 6550   2.789   4.507  16.426 -0.9166  0.4213  0.8323
  439TMC3    C8 6551   2.774   0.062  16.126 -0.0566  0.9379  0.3226
  439TMC3    O1 6552   2.796   4.459  16.541  0.2448  0.3041 -0.2635
  439TMC3    O2 6553   2.832   4.683  16.094  0.5207  0.0832  0.7418
  440MPD2     C 6554   1.473   1.115  14.333  0.7390  0.0278 -0.0391
  440MPD2    C1 6555   1.420   1.065  14.443  0.0667  0.3970  0.2179
  440MPD2    C2 6556   1.487   0.964  14.504 -0.0905 -0.3728 -0.1797
  440MPD2    C3 6557   1.600   0.908  14.457  0.0098 -0.7433  0.4260
  440MPD2    C4 6558   1.642   0.945  14.335 -0.0625 -0.1962  0.1058
  440MPD2    C5 6559   1.581   1.050  14.272 -0.2502 -0.4531 -0.2155
  440MPD2     H 6560   1.444   0.931  14.598  1.6715  0.8068  1.0320
  440MPD2    H1 6561   1.731   0.893  14.300  0.6526  0.5945  0.7725
  440MPD2    H2 6562   1.426   1.195  14.277 -1.5340 -1.2830 -0.0204
  440MPD2    H3 6563   1.621   1.089  14.179 -0.8562  0.1883 -0.2034
  440MPD2     N 6564   1.693   0.833  14.533 -0.2332 -0.0202  0.3748
  440MPD2    H5 6565   1.788   0.820  14.497 -0.8120 -2.5000 -0.2730
  440MPD2    N1 6566   1.319   1.132  14.517  0.2687 -0.1554 -0.2322
  440MPD2    H7 6567   1.298   1.086  14.605  0.1811  0.1613 -0.0892
  441TMC3    C1 6568   1.790   0.751  14.744 -0.5141 -0.2585 -0.4317
  441TMC3    C2 6569   1.907   0.831  14.738 -0.5174  0.3597  0.2976
  441TMC3    C3 6570   1.980   0.817  14.857  0.2708 -0.3801  0.0672
  441TMC3    C4 6571   1.758   0.662  14.839  0.5481  0.4652 -0.1594
  441TMC3    C5 6572   1.839   0.662  14.951 -0.1456 -0.4299 -0.0077
  441TMC3    C6 6573   1.944   0.740  14.959 -0.1742  0.1178 -0.2098
  441TMC3     C 6574   1.672   0.790  14.663 -0.1213 -0.3619  0.8263
  441TMC3     O 6575   1.569   0.750  14.714  0.5569 -0.2858 -0.4355
  441TMC3     H 6576   1.918   0.909  14.663  2.1900 -0.4522 -0.1502
  441TMC3    H1 6577   1.676   0.592  14.835  0.8410  0.2137 -1.8896
  441TMC3    H2 6578   2.004   0.748  15.050 -0.2538  1.6761 -0.2937
  441TMC3    C7 6579   1.782   0.609  15.071 -0.7666  0.3937 -0.2798
  441TMC3    C8 6580   2.048   0.935  14.903 -0.2190 -1.3070  0.2416
  441TMC3    O1 6581   1.662   0.617  15.078  0.0214  0.0699  0.5484
  441TMC3    O2 6582   2.150   0.975  14.847 -0.4647 -0.1367  0.0388
  442MPD2     C 6583   4.094   1.314  16.466  0.2600 -0.1802 -0.5987
  442MPD2    C1 6584   4.036   1.204  16.526  1.7151  0.1183  0.0196
  442MPD2    C2 6585   4.075   1.070  16.483 -0.5342 -0.5607  0.0360
  442MPD2    C3 6586   4.182   1.058  16.396 -0.1199  0.3154  0.6898
  442MPD2    C4 6587   4.249   1.175  16.349  0.5807 -0.4798  0.4249
  442MPD2    C5 6588   4.192   1.296  16.374 -0.2373  0.3914 -0.0498
  442MPD2     H 6589   4.029   0.978  16.518 -2.4157  2.3179  5.1060
  442MPD2    H1 6590   4.337   1.159  16.288 -1.5214 -1.0071 -2.4297
  442MPD2    H2 6591   4.052   1.413  16.482 -0.8678 -0.6888 -0.3628
  442MPD2    H3 6592   4.223   1.390  16.331  2.2020  0.3799  1.6536
  442MPD2     N 6593   4.236   0.932  16.369  0.5779  0.5861  0.2751
  442MPD2    H5 6594   4.322   0.921  16.317 -0.8391 -1.9364 -1.5958
  442MPD2    N1 6595   3.947   1.221  16.634 -0.5990  0.1154  0.1885
  442MPD2    H7 6596   3.886   1.144  16.659  1.6023 -1.3843  0.9304
  443TMC3    C1 6597   3.807   1.347  16.779 -0.4118  0.0823  0.3218
  443TMC3    C2 6598   3.762   1.478  16.791 -0.3304  0.6296  0.0558
  443TMC3    C3 6599   3.634   1.514  16.751  0.6824  0.0834 -0.3190
  443TMC3    C4 6600   3.721   1.243  16.763  0.4501 -0.1205  0.5045
  443TMC3    C5 6601   3.588   1.281  16.763 -0.3114 -0.0297  0.0603
  443TMC3    C6 6602   3.544   1.412  16.752 -0.2303 -0.0985 -0.3381
  443TMC3     C 6603   3.938   1.340  16.716  0.8896  0.0741 -0.1229
  443TMC3     O 6604   4.014   1.437  16.721  0.2693  0.1206  1.1195
  443TMC3     H 6605   3.833   1.560  16.800 -0.0731  0.2572  1.3933
  443TMC3    H1 6606   3.756   1.141  16.773 -3.1079 -1.1908  2.3250
  443TMC3    H2 6607   3.442   1.425  16.717 -0.5821  0.8695  1.0709
  443TMC3    C7 6608   3.490   1.168  16.770 -0.3712 -0.3097 -0.1343
  443TMC3    C8 6609   3.641   1.546  16.604  0.5689  0.7504  0.5388
  443TMC3    O1 6610   3.538   1.055  16.759 -0.1742  0.2634 -0.9484
  443TMC3    O2 6611   3.558   1.493  16.532  0.2846 -0.1877  0.0593
  444MPD2     C 6612   0.112   4.703  17.078 -0.5811 -0.2225 -0.2007
  444MPD2    C1 6613   0.047   4.686  16.956 -0.3116 -0.0609  0.1995
  444MPD2    C2 6614   0.115   4.630  16.852  0.1703 -0.7683 -0.5607
  444MPD2    C3 6615   0.240   4.577  16.873  0.0061  0.5359 -0.1169
  444MPD2    C4 6616   0.293   4.568  16.999 -0.1972  0.3217 -1.4504
  444MPD2    C5 6617   0.232   4.636  17.101 -0.1547  0.4080  0.5242
  444MPD2     H 6618   0.070   4.627  16.753  0.2671  0.1481 -0.6331
  444MPD2    H1 6619   0.384   4.516  17.023 -0.6901 -0.0735 -0.4515
  444MPD2    H2 6620   0.068   0.035  17.163  2.3216  0.0625  1.1449
  444MPD2    H3 6621   0.285   4.638  17.195  0.3174  2.6183  0.2096
  444MPD2     N 6622   0.304   4.528  16.759  0.2931 -0.3404 -0.1528
  444MPD2    H5 6623   0.258   4.537  16.669  1.3486 -2.5619 -0.9212
  444MPD2    N1 6624   4.630   0.001  16.933 -0.7279 -0.2320  0.2066
  444MPD2    H7 6625   4.591   4.681  16.848 -1.2072  0.5171  0.0637
  445TMC3    C1 6626   0.480   4.440  16.630 -0.2103  0.5311 -0.0006
  445TMC3    C2 6627   0.388   4.397  16.544  0.4001  0.0786 -0.0737
  445TMC3    C3 6628   0.431   4.369  16.414 -0.8103  0.8460 -0.0564
  445TMC3    C4 6629   0.613   4.450  16.604 -0.6239  0.3968 -0.0030
  445TMC3    C5 6630   0.649   4.422  16.469  0.6587  0.3307 -0.1938
  445TMC3    C6 6631   0.558   4.394  16.373 -0.1296 -0.0161 -0.0199
  445TMC3     C 6632   0.435   4.484  16.761  0.5872  0.3459  0.5948
  445TMC3     O 6633   0.529   4.511  16.832 -0.5962  0.3273 -0.0463
  445TMC3     H 6634   0.288   4.366  16.574 -0.0473  2.2765  0.6972
  445TMC3    H1 6635   0.684   4.488  16.676  1.2651 -2.3370 -0.4329
  445TMC3    H2 6636   0.586   4.381  16.269 -0.9664  0.0888 -0.2618
  445TMC3    C7 6637   0.788   4.409  16.432 -0.8529  0.2511  0.0029
  445TMC3    C8 6638   0.328   4.351  16.307  0.2311  0.1958  0.0189
  445TMC3    O1 6639   0.812   4.401  16.310 -0.3869  0.1638  0.6544
  445TMC3    O2 6640   0.215   4.372  16.343 -0.0149 -0.1756 -0.4668
  446MPD2     C 6641   4.414   1.924  10.936 -0.2387 -0.4261 -1.2752
  446MPD2    C1 6642   4.414   1.960  10.804 -0.0993  0.1524  0.5728
  446MPD2    C2 6643   4.498   2.053  10.744  0.3492 -0.1530 -0.5086
  446MPD2    C3 6644   4.593   2.110  10.826 -0.6559 -0.0551  0.5873
  446MPD2    C4 6645   4.594   2.080  10.962 -0.0450  0.4520 -0.3995
  446MPD2    C5 6646   4.497   1.993  11.022 -0.5732 -0.5506  0.7809
  446MPD2     H 6647   4.496   2.071  10.637 -0.9140 -1.1894 -0.6684
  446MPD2    H1 6648   4.669   2.111  11.033 -1.3711 -0.8884  1.6101
  446MPD2    H2 6649   4.342   1.858  10.981  0.1313  0.3889  0.5083
  446MPD2    H3 6650   4.506   1.971  11.128  0.2654  0.6705  0.9684
  446MPD2     N 6651   4.693   2.199  10.777 -0.2435  0.5766  0.4681
  446MPD2    H5 6652   4.690   2.207  10.676  0.6889 -0.9490  0.3351
  446MPD2    N1 6653   4.306   1.882  10.735  0.3406  0.1757 -0.5838
  446MPD2    H7 6654   4.249   1.824  10.796  2.3700 -1.8686 -0.6437
  447TMC3    C1 6655   0.150   2.350  10.771 -0.1246  0.6452  0.7126
  447TMC3    C2 6656   0.146   2.344  10.635  0.3555  0.1706 -0.7013
  447TMC3    C3 6657   0.262   2.363  10.559  0.4926  0.3794 -0.0968
  447TMC3    C4 6658   0.276   2.359  10.829 -0.2697  0.9004 -1.1871
  447TMC3    C5 6659   0.389   2.374  10.752  0.5525  0.2100  0.4831
  447TMC3    C6 6660   0.382   2.386  10.615  0.1262  0.0825 -0.3947
  447TMC3     C 6661   0.058   2.271  10.856  0.5406 -0.6393  0.5343
  447TMC3     O 6662   0.081   2.263  10.975 -0.1614 -0.0983 -0.2355
  447TMC3     H 6663   0.055   2.319  10.582  0.6738  0.2071 -1.2645
  447TMC3    H1 6664   0.275   2.367  10.937  1.1855  0.2054 -1.1208
  447TMC3    H2 6665   0.467   2.408  10.552  0.6509 -1.2795 -0.1680
  447TMC3    C7 6666   0.525   2.353  10.804  0.0731 -0.2974 -0.0778
  447TMC3    C8 6667   0.251   2.379  10.419 -0.6112  0.2143 -0.0622
  447TMC3    O1 6668   0.609   2.344  10.719  0.0181  0.1422 -0.4247
  447TMC3    O2 6669   0.148   2.430  10.370  0.3515 -0.0211  0.0135
  448TMC3    C1 6670   2.631   1.306  16.922 -0.3138 -0.1795 -0.4021
  448TMC3    C2 6671   2.663   1.287  16.791  0.0343 -0.5896  0.2856
  448TMC3    C3 6672   2.557   1.245  16.716 -0.6114  0.6805  0.8640
  448TMC3    C4 6673   2.522   1.263  16.987 -0.1332  0.0402  0.1061
  448TMC3    C5 6674   2.428   1.208  16.909 -0.3701 -0.5353  0.4875
  448TMC3    C6 6675   2.440   1.206  16.774  0.2020 -0.0278  0.2822
  448TMC3     C 6676   2.732   1.350  17.004  0.9776 -1.1023  1.1416
  448TMC3     O 6677   2.737   1.304  17.118 -0.6755  0.1461  0.1091
  448TMC3     H 6678   2.760   1.312  16.752  0.4005 -0.9117  0.9928
  448TMC3    H1 6679   2.512   1.262  17.095 -1.1709  0.6668  0.0227
  448TMC3    H2 6680   2.364   1.162  16.711  0.7294  1.5204 -1.4502
  448TMC3    C7 6681   2.326   1.126  16.966 -0.3185  0.3802 -0.4770
  448TMC3    C8 6682   2.586   1.200  16.581 -0.3364 -0.0093 -0.3541
  448TMC3    O1 6683   2.262   1.065  16.884 -0.0528  0.0779 -0.4972
  448TMC3    O2 6684   2.700   1.168  16.560 -0.2182 -0.1052 -0.1910
  449MPD2     C 6685   4.386   0.419  14.082  0.3163 -0.4203 -0.4465
  449MPD2    C1 6686   4.289   0.398  13.991 -0.5816 -0.1726  0.1154
  449MPD2    C2 6687   4.212   0.283  13.997  0.0809 -0.6385  0.1421
  449MPD2    C3 6688   4.231   0.193  14.102  0.1704  0.1649 -0.3030
  449MPD2    C4 6689   4.332   0.215  14.196 -0.1279  0.9128  0.0132
  449MPD2    C5 6690   4.412   0.323  14.179 -0.4868  0.1725 -0.3494
  449MPD2     H 6691   4.126   0.269  13.934  2.0822  1.5574 -3.0868
  449MPD2    H1 6692   4.355   0.150  14.279 -0.0140 -0.0838 -0.8074
  449MPD2    H2 6693   4.456   0.501  14.090 -0.5893  0.1131  2.1063
  449MPD2    H3 6694   4.484   0.348  14.256 -0.3437  0.5265 -0.5979
  449MPD2     N 6695   4.137   0.089  14.099  0.3621 -0.1379 -0.2056
  449MPD2    H5 6696   4.071   0.102  14.024 -0.4307 -1.8817  0.2002
  449MPD2    N1 6697   4.256   0.493  13.893  0.3522  0.1932  0.3206
  449MPD2    H7 6698   4.165   0.475  13.850 -0.3918 -0.5653  2.2258
  450TMC3    C1 6699   4.242   0.667  13.741 -0.1069  0.9733 -0.3253
  450TMC3    C2 6700   4.301   0.655  13.617 -0.3047  0.0725 -0.5489
  450TMC3    C3 6701   4.207   0.643  13.522 -0.7515  0.1972 -0.1228
  450TMC3    C4 6702   4.109   0.653  13.770 -0.4069 -0.5654 -0.1528
  450TMC3    C5 6703   4.020   0.642  13.667 -1.1464 -0.6402  0.2762
  450TMC3    C6 6704   4.069   0.649  13.541  0.0821 -0.0272 -0.0967
  450TMC3     C 6705   4.330   0.601  13.842 -0.6529  0.0894  0.0479
  450TMC3     O 6706   4.445   0.637  13.865 -0.0142  0.3122 -0.1895
  450TMC3     H 6707   4.408   0.649  13.597 -0.0386 -1.0346  1.1438
  450TMC3    H1 6708   4.056   0.646  13.864  0.2447  1.5290  0.3632
  450TMC3    H2 6709   4.001   0.632  13.458 -1.2467  0.9010  0.8033
  450TMC3    C7 6710   3.955   0.515  13.695  0.0462  0.2394 -0.1421
  450TMC3    C8 6711   4.252   0.626  13.380  0.6953  0.2477 -0.2590
  450TMC3    O1 6712   4.031   0.433  13.738 -0.2566 -0.0616 -0.8061
  450TMC3    O2 6713   4.181   0.668  13.288 -0.1659 -0.1136  0.1049
  451MPD2     C 6714   0.249   4.397   0.683  0.0291  0.1768  0.7554
  451MPD2    C1 6715   0.130   4.346   0.734 -0.2744  0.1003 -0.0258
  451MPD2    C2 6716   0.086   4.213   0.707  0.5999  1.6912 -0.0539
  451MPD2    C3 6717   0.162   4.133   0.630  0.8867 -0.0663 -0.0831
  451MPD2    C4 6718   0.274   4.188   0.564 -0.0798 -0.2108  0.0016
  451MPD2    C5 6719   0.311   4.318   0.586 -0.1177  0.8827  0.0882
  451MPD2     H 6720   4.721   4.174   0.759  0.5522 -1.4185 -2.4736
  451MPD2    H1 6721   0.334   4.130   0.495  1.0734  1.1982 -0.1694
  451MPD2    H2 6722   0.289   4.491   0.719  1.9301 -0.8918  1.4509
  451MPD2    H3 6723   0.396   4.352   0.528  0.1813  0.0239  0.0263
  451MPD2     N 6724   0.132   3.998   0.614  0.3121  0.2999  0.9311
  451MPD2    H5 6725   0.212   3.950   0.574 -0.0430  2.2847 -2.2138
  451MPD2    N1 6726   0.060   4.432   0.826  0.8376  0.4775  0.5154
  451MPD2    H7 6727   0.111   4.511   0.865  2.0465 -0.7240  1.3794
  452TMC3    C1 6728   0.038   3.788   0.625  0.0573  0.2047  0.4157
  452TMC3    C2 6729   4.681   3.711   0.710  0.2862  0.1611 -0.1504
  452TMC3    C3 6730   4.691   3.570   0.683 -0.2235 -0.9080  0.1719
  452TMC3    C4 6731   0.121   3.742   0.534  0.0034 -0.2394  0.3865
  452TMC3    C5 6732   0.126   3.602   0.515 -1.1132  0.4106  0.1131
  452TMC3    C6 6733   0.049   3.514   0.584  0.8719 -0.1850  0.4612
  452TMC3     C 6734   0.023   3.931   0.658 -0.3925  0.3178  0.5987
  452TMC3     O 6735   4.649   3.966   0.725  0.5615  0.0264 -0.3613
  452TMC3     H 6736   4.614   3.760   0.780 -0.3477 -3.4304  1.7651
  452TMC3    H1 6737   0.168   3.812   0.466 -0.4849 -0.3701 -0.0815
  452TMC3    H2 6738   0.056   3.411   0.553 -1.9274 -0.5490  1.0585
  452TMC3    C7 6739   0.250   3.541   0.456  1.4375 -0.0460 -0.0038
  452TMC3    C8 6740   4.638   3.482   0.791  0.0401  0.1809  0.1835
  452TMC3    O1 6741   0.248   3.419   0.446  0.1415  0.4741  0.3123
  452TMC3    O2 6742   4.582   3.542   0.882 -0.6369 -0.3599 -0.5417
  453TMC3    C1 6743   2.382   0.639  11.675  0.2604 -0.2350 -0.5541
  453TMC3    C2 6744   2.293   0.551  11.741 -0.6601 -0.6099  0.4789
  453TMC3    C3 6745   2.156   0.566  11.707  0.6352 -0.0229  0.5751
  453TMC3    C4 6746   2.336   0.723  11.578  0.3452 -0.1619  0.2434
  453TMC3    C5 6747   2.209   0.712  11.531 -0.2715  0.1057 -0.3590
  453TMC3    C6 6748   2.119   0.639  11.593  0.0224  0.1580  0.2137
  453TMC3     C 6749   2.521   0.660  11.735 -0.4245 -0.2970 -0.4756
  453TMC3     O 6750   2.585   0.756  11.687  0.4713  0.3832 -0.0422
  453TMC3     H 6751   2.326   0.476  11.811 -1.6561 -0.8476  0.6918
  453TMC3    H1 6752   2.405   0.791  11.529  0.5289 -1.1465 -0.8836
  453TMC3    H2 6753   2.025   0.628  11.541  0.4224 -2.2590  0.0123
  453TMC3    C7 6754   2.195   0.749  11.392 -0.2867 -0.7955 -0.4279
  453TMC3    C8 6755   2.059   0.470  11.747  0.2551 -0.4035 -0.1900
  453TMC3    O1 6756   2.079   0.750  11.353 -0.0122  0.2135 -0.2076
  453TMC3    O2 6757   1.947   0.506  11.717  0.4571  0.1441  0.3745
  454MPD2     C 6758   0.930   0.208  16.571 -0.3090 -0.1937 -0.7303
  454MPD2    C1 6759   0.835   0.305  16.586  0.6434 -0.2785 -0.1405
  454MPD2    C2 6760   0.755   0.310  16.700 -0.8168  0.1667  0.0746
  454MPD2    C3 6761   0.759   0.210  16.792  0.4514  0.6127  1.1928
  454MPD2    C4 6762   0.854   0.106  16.772  0.1721 -0.1619  0.6980
  454MPD2    C5 6763   0.945   0.114  16.668  0.2128 -0.3585 -0.2201
  454MPD2     H 6764   0.670   0.378  16.701 -1.3513 -0.5007 -0.8881
  454MPD2    H1 6765   0.871   0.029  16.847 -1.2533  1.3948  2.6308
  454MPD2    H2 6766   1.004   0.208  16.492 -1.7622  1.8107 -2.1092
  454MPD2    H3 6767   1.013   0.030  16.661  0.7352 -0.0406  0.9696
  454MPD2     N 6768   0.663   0.190  16.896  0.0888  0.5011  0.3030
  454MPD2    H5 6769   0.666   0.096  16.935  0.9865  0.2676 -0.3260
  454MPD2    N1 6770   0.787   0.391  16.481 -0.2686 -0.5465 -0.3536
  454MPD2    H7 6771   0.717   0.460  16.508 -0.6324 -0.2240 -2.1512
  455TMC3    C1 6772   0.439   0.222  16.920  0.3918  0.0289 -0.9040
  455TMC3    C2 6773   0.343   0.313  16.958  0.6245 -0.5425 -0.3280
  455TMC3    C3 6774   0.231   0.327  16.876  0.1996  0.0884 -0.0164
  455TMC3    C4 6775   0.425   0.150  16.803 -0.1152 -0.9468 -0.3011
  455TMC3    C5 6776   0.316   0.186  16.720 -0.1943  0.3039  0.0865
  455TMC3    C6 6777   0.217   0.266  16.756 -0.7764 -0.2895 -1.1233
  455TMC3     C 6778   0.567   0.281  16.922 -0.2646 -0.7273  0.3600
  455TMC3     O 6779   0.565   0.405  16.919 -0.2472 -0.1226  0.2078
  455TMC3     H 6780   0.354   0.365  17.053  0.7505 -0.3805 -0.4320
  455TMC3    H1 6781   0.494   0.073  16.771 -0.5242 -0.6980 -1.8020
  455TMC3    H2 6782   0.143   0.286  16.678 -0.3778 -1.9140 -1.9323
  455TMC3    C7 6783   0.325   0.148  16.577  0.7877 -0.7894 -0.2622
  455TMC3    C8 6784   0.122   0.398  16.936  0.7518 -0.6889  0.0325
  455TMC3    O1 6785   0.231   0.122  16.500  0.5155 -0.2888  0.4886
  455TMC3    O2 6786   0.147   0.439  17.052 -0.7152 -0.6497 -0.1623
  456MPD2     C 6787   3.331   0.884  15.380  0.5466 -0.9479 -0.2343
  456MPD2    C1 6788   3.386   0.783  15.466 -0.4219  0.6568  0.0556
  456MPD2    C2 6789   3.324   0.763  15.591 -0.1469  0.0398  0.0303
  456MPD2    C3 6790   3.203   0.826  15.620  0.1371 -0.0939  0.3299
  456MPD2    C4 6791   3.161   0.931  15.544  0.2041  0.0995  0.5136
  456MPD2    C5 6792   3.223   0.959  15.422 -0.2872 -0.2580  0.9188
  456MPD2     H 6793   3.363   0.689  15.659 -1.4303 -3.0311 -2.5652
  456MPD2    H1 6794   3.085   0.998  15.583 -0.4014 -1.2550  1.6584
  456MPD2    H2 6795   3.385   0.912  15.290 -0.9007  1.4774 -0.3271
  456MPD2    H3 6796   3.197   1.047  15.364 -0.5414 -0.7012  0.3596
  456MPD2     N 6797   3.136   0.787  15.734  0.4355  0.2707  0.1050
  456MPD2    H5 6798   3.186   0.717  15.788 -1.2786 -1.4177 -0.4923
  456MPD2    N1 6799   3.497   0.706  15.425 -0.3670 -0.2679  0.2276
  456MPD2    H7 6800   3.545   0.729  15.339 -0.1309  1.2199  0.7668
  457TMC3    C1 6801   2.962   0.762  15.895 -0.9414 -0.5076 -0.6240
  457TMC3    C2 6802   2.878   0.841  15.965  0.1908  0.1283  0.0785
  457TMC3    C3 6803   2.862   0.824  16.100  0.3190  0.1081 -0.2303
  457TMC3    C4 6804   3.044   0.672  15.958  0.2440 -0.0185  0.7624
  457TMC3    C5 6805   3.030   0.651  16.092  0.0999  0.3898 -0.4307
  457TMC3    C6 6806   2.934   0.727  16.159  0.5588  0.0535 -0.4429
  457TMC3     C 6807   3.003   0.806  15.763  0.2198 -1.1267  0.5635
  457TMC3     O 6808   2.919   0.867  15.700 -0.4274  0.5497 -0.4587
  457TMC3     H 6809   2.843   0.931  15.915 -0.2192 -0.4303 -0.6351
  457TMC3    H1 6810   3.091   0.596  15.896  0.8281  0.5809  0.4756
  457TMC3    H2 6811   2.920   0.699  16.263 -0.9050  1.9226 -0.1451
  457TMC3    C7 6812   3.076   0.526  16.156 -0.8311  0.3315 -0.8425
  457TMC3    C8 6813   2.773   0.903  16.182  0.0981  0.2887  0.5577
  457TMC3    O1 6814   3.012   0.492  16.253  0.0412  0.4217  0.3778
  457TMC3    O2 6815   2.789   0.889  16.299 -0.1703  0.9177 -0.0096
  458MPD2     C 6816   1.364   4.646  11.931  0.5232 -0.0779  0.1303
  458MPD2    C1 6817   1.272   4.625  12.033 -0.1266  0.6362  0.4976
  458MPD2    C2 6818   1.170   4.537  12.002 -0.6794  0.0652 -0.0223
  458MPD2    C3 6819   1.154   4.470  11.883 -0.3618  0.0187  0.1474
  458MPD2    C4 6820   1.254   4.480  11.785 -0.4250 -0.1447 -0.0981
  458MPD2    C5 6821   1.359   4.566  11.818  0.5593 -0.3597  0.8702
  458MPD2     H 6822   1.096   4.519  12.080  1.1270  3.6578  2.4683
  458MPD2    H1 6823   1.250   4.429  11.690 -1.4471 -1.3640  0.5831
  458MPD2    H2 6824   1.442   0.000  11.935 -0.6415  1.0597  1.3245
  458MPD2    H3 6825   1.439   4.580  11.746 -0.1142  2.4915  0.6919
  458MPD2     N 6826   1.033   4.393  11.867  0.1910 -0.2265  0.4241
  458MPD2    H5 6827   0.958   4.415  11.932  0.8725  0.2683  1.0349
  458MPD2    N1 6828   1.289   4.689  12.157 -0.7959  1.0946 -0.1866
  458MPD2    H7 6829   1.380   0.012  12.170 -1.5484  2.5420  0.1454
  459TMC3    C1 6830   1.258   0.015  12.381 -0.2709  0.3480 -0.7151
  459TMC3    C2 6831   1.306   0.140  12.387  1.1106  0.1500  0.6466
  459TMC3    C3 6832   1.352   0.201  12.500 -0.2817  0.1501  0.1120
  459TMC3    C4 6833   1.256   4.660  12.495  0.1933 -0.2119  0.0828
  459TMC3    C5 6834   1.285   4.720  12.615 -0.0543 -0.1768  0.5976
  459TMC3    C6 6835   1.339   0.123  12.615 -0.2382 -0.1225 -0.0498
  459TMC3     C 6836   1.205   4.681  12.262  0.2921 -0.7243 -0.4125
  459TMC3     O 6837   1.112   4.600  12.277  0.2121  0.1729 -0.8138
  459TMC3     H 6838   1.318   0.193  12.293  0.2089 -0.2128  0.3293
  459TMC3    H1 6839   1.210   4.562  12.498 -0.5891  0.1520 -0.0212
  459TMC3    H2 6840   1.386   0.175  12.698  2.0965 -1.3833 -0.5666
  459TMC3    C7 6841   1.291   4.639  12.730 -0.0767 -0.7094 -0.7286
  459TMC3    C8 6842   1.463   0.292  12.478  0.4939  0.2414  0.3201
  459TMC3    O1 6843   1.334   4.523  12.714 -0.0327  1.2412  0.2006
  459TMC3    O2 6844   1.553   0.290  12.560  0.4641  0.4661  0.6304
  460MPD2     C 6845   0.512   2.234  10.182  0.3070 -0.3739  0.1898
  460MPD2    C1 6846   0.400   2.303  10.218  0.3117  0.9213 -0.0322
  460MPD2    C2 6847   0.321   2.355  10.114  0.2484  0.7358 -0.0418
  460MPD2    C3 6848   0.344   2.317   9.982 -0.1163 -0.2148  0.2937
  460MPD2    C4 6849   0.448   2.231   9.953  1.1872 -0.0400 -0.1652
  460MPD2    C5 6850   0.540   2.208  10.052 -0.3577 -0.8095 -0.0226
  460MPD2     H 6851   0.232   2.415  10.130  0.3157  1.1464 -1.1797
  460MPD2    H1 6852   0.482   2.215   9.851 -0.5423  2.4957 -1.1210
  460MPD2    H2 6853   0.581   2.204  10.260 -0.2197  0.3920  0.9380
  460MPD2    H3 6854   0.632   2.168  10.012 -1.8326 -3.2841 -0.9777
  460MPD2     N 6855   0.245   2.355   9.888  0.3240 -0.1419  0.4216
  460MPD2    H5 6856   0.177   2.426   9.912 -2.3752 -2.8904  0.9863
  460MPD2    N1 6857   0.365   2.325  10.355 -0.4247  0.1817 -0.1976
  460MPD2    H7 6858   0.430   2.280  10.419  0.0422  1.9484  0.5693
  461TMC3    C1 6859   0.145   2.353   9.661 -0.7537  0.1214 -0.4669
  461TMC3    C2 6860   0.147   2.296   9.536 -0.2442 -0.0307  0.1839
  461TMC3    C3 6861   0.071   2.365   9.444  0.2999  0.9245 -0.4146
  461TMC3    C4 6862   0.082   2.470   9.688 -0.1297  0.1075 -0.4767
  461TMC3    C5 6863   0.017   2.541   9.582 -0.0327 -0.1376 -0.5141
  461TMC3    C6 6864   0.007   2.484   9.467  0.4843 -0.1699 -0.2188
  461TMC3     C 6865   0.225   2.291   9.766 -0.2132  0.7655  0.4691
  461TMC3     O 6866   0.270   2.180   9.735  0.7711 -0.3424 -0.6945
  461TMC3     H 6867   0.202   2.205   9.512 -0.0399  0.1186  0.0884
  461TMC3    H1 6868   0.070   2.505   9.790 -0.3860 -1.8457  0.1480
  461TMC3    H2 6869   4.671   2.534   9.390  2.7795 -1.7647 -2.9353
  461TMC3    C7 6870   4.678   2.672   9.606  0.6620 -0.7510  0.3693
  461TMC3    C8 6871   0.029   2.308   9.321 -0.6970  0.3117  0.0054
  461TMC3    O1 6872   4.614   2.715   9.508 -0.5087  0.2706  0.1718
  461TMC3    O2 6873   4.668   2.366   9.252  0.0144  0.0689 -0.6163
  462TMC3    C1 6874   4.719   2.028  17.032 -0.5398 -0.3276  1.2867
  462TMC3    C2 6875   0.117   1.987  16.982  0.4256  0.2401  0.5730
  462TMC3    C3 6876   0.168   1.861  17.023  0.2708  0.4557 -0.9105
  462TMC3    C4 6877   4.647   1.957  17.132  0.9992 -0.1758 -0.3434
  462TMC3    C5 6878   4.699   1.834  17.168 -0.2815  0.5646  0.5448
  462TMC3    C6 6879   0.096   1.785  17.110  0.1322  0.0166  0.2214
  462TMC3     C 6880   4.670   2.153  16.984 -0.2120 -0.2165 -0.0728
  462TMC3     O 6881   0.025   2.225  16.918 -0.0574  0.1012 -0.7147
  462TMC3     H 6882   0.174   2.054  16.918  0.6901  1.0898  1.6802
  462TMC3    H1 6883   4.564   2.001  17.186  0.7689 -0.6903 -0.2757
  462TMC3    H2 6884   0.106   1.677  17.116 -0.1467 -0.0559 -0.6524
  462TMC3    C7 6885   4.599   1.734  17.213  0.2042 -0.3844 -0.7146
  462TMC3    C8 6886   0.280   1.798  16.963  0.6352  0.1064 -0.0515
  462TMC3    O1 6887   4.485   1.770  17.179  0.1976  0.3046  0.1837
  462TMC3    O2 6888   0.302   1.679  16.982 -0.4373  0.0273 -0.2296
  463MPD2     C 6889   0.371   2.343   1.421 -0.4959  0.1422  0.1973
  463MPD2    C1 6890   0.262   2.306   1.351 -0.3813  0.3108 -0.1900
  463MPD2    C2 6891   0.230   2.365   1.234  0.0893  0.4612  0.3588
  463MPD2    C3 6892   0.330   2.441   1.166 -0.7044 -0.5206  0.0592
  463MPD2    C4 6893   0.446   2.472   1.235 -0.4019  0.4546 -0.6447
  463MPD2    C5 6894   0.469   2.422   1.362 -0.3732  1.1486  0.0226
  463MPD2     H 6895   0.148   2.319   1.180 -1.0358  0.0563  2.4031
  463MPD2    H1 6896   0.530   2.526   1.194 -0.4179 -0.4907 -1.9307
  463MPD2    H2 6897   0.390   2.318   1.524  3.6467  0.4291 -0.4830
  463MPD2    H3 6898   0.552   2.452   1.424 -0.2888  0.8508  0.0527
  463MPD2     N 6899   0.325   2.476   1.030 -0.4118 -0.5541  0.2481
  463MPD2    H5 6900   0.404   2.521   0.985 -0.2761 -0.6770  0.3637
  463MPD2    N1 6901   0.175   2.199   1.395  0.4056 -0.4364 -0.2887
  463MPD2    H7 6902   0.093   2.174   1.341 -0.1038  1.4958 -0.4206
  464TMC3    C1 6903   0.090   2.027   1.540 -0.5080 -0.2275 -0.0497
  464TMC3    C2 6904   4.687   2.045   1.485 -0.0209 -0.0195  0.3672
  464TMC3    C3 6905   4.603   1.935   1.486  0.1381 -0.0563 -0.2944
  464TMC3    C4 6906   0.123   1.907   1.601 -0.5957 -0.3994  0.2453
  464TMC3    C5 6907   0.034   1.798   1.596  0.0021 -0.2253 -0.1701
  464TMC3    C6 6908   4.636   1.811   1.537 -0.2658  0.2299 -0.5435
  464TMC3     C 6909   0.187   2.134   1.516  0.7489  0.1832 -0.0066
  464TMC3     O 6910   0.262   2.160   1.608  0.3898  0.2984 -0.0423
  464TMC3     H 6911   4.667   2.145   1.448  0.2556 -0.9309 -2.2290
  464TMC3    H1 6912   0.223   1.889   1.638 -0.0662 -0.1298 -1.0584
  464TMC3    H2 6913   4.562   1.732   1.541  0.5144 -0.3307  3.5087
  464TMC3    C7 6914   0.095   1.674   1.631 -0.8012  0.2898  0.0888
  464TMC3    C8 6915   4.475   1.951   1.427  0.4337  0.4567 -0.0970
  464TMC3    O1 6916   0.192   1.655   1.703 -0.0949  0.0148 -0.4986
  464TMC3    O2 6917   4.434   1.854   1.364 -0.3129 -0.5936  0.2346
  465MPD2     C 6918   2.600   0.851  16.714  0.4649 -0.6519  0.3253
  465MPD2    C1 6919   2.500   0.787  16.787  0.5906  0.2959  0.1796
  465MPD2    C2 6920   2.387   0.747  16.726  0.2366  0.2712  0.2053
  465MPD2    C3 6921   2.357   0.772  16.589  0.2372  0.8604  0.5926
  465MPD2    C4 6922   2.459   0.829  16.516  0.0347 -0.2412  0.1241
  465MPD2    C5 6923   2.581   0.863  16.576  0.1930  0.2190  0.0383
  465MPD2     H 6924   2.307   0.705  16.788  0.3183  1.1924  0.9332
  465MPD2    H1 6925   2.462   0.838  16.408  0.6188 -0.9901  0.0743
  465MPD2    H2 6926   2.697   0.875  16.756  1.0219 -1.8194 -0.2849
  465MPD2    H3 6927   2.660   0.904  16.514 -0.3456 -0.1835 -0.9033
  465MPD2     N 6928   2.235   0.740  16.531 -0.8313 -0.0586 -0.7713
  465MPD2    H5 6929   2.159   0.701  16.585 -1.8340  1.9352 -0.7433
  465MPD2    N1 6930   2.504   0.769  16.928 -0.3652 -0.2089  0.5736
  465MPD2    H7 6931   2.435   0.718  16.982  0.0576 -0.7634  0.5869
  466TMC3    C1 6932   1.853   0.637  16.405  0.4377 -0.3064 -0.0960
  466TMC3    C2 6933   1.801   0.711  16.306  0.1712 -0.2419 -0.2771
  466TMC3    C3 6934   1.882   0.800  16.239  1.0379 -0.5792  0.0569
  466TMC3    C4 6935   1.988   0.642  16.433  0.5889  0.0514  0.5959
  466TMC3    C5 6936   2.064   0.731  16.363 -0.3838  0.0923  0.8896
  466TMC3    C6 6937   2.014   0.805  16.260 -0.7194 -0.2265  0.1520
  466TMC3     C 6938   1.773   0.586  16.512  0.0044  0.6056  1.4886
  466TMC3     O 6939   1.826   0.515  16.600  0.6398  0.0200 -0.0009
  466TMC3     H 6940   1.697   0.702  16.277  0.7292 -1.8267 -1.8365
  466TMC3    H1 6941   2.036   0.566  16.493 -0.5794 -0.9689  0.2371
  466TMC3    H2 6942   2.064   0.894  16.225 -2.3773  1.3140  1.7391
  466TMC3    C7 6943   2.199   0.767  16.400 -0.0311 -0.0070 -0.1307
  466TMC3    C8 6944   1.812   0.928  16.209  0.1620 -0.4544  0.6470
  466TMC3    O1 6945   2.264   0.804  16.308 -0.4664 -0.1979 -0.2370
  466TMC3    O2 6946   1.871   1.022  16.157 -0.3918 -0.4740  0.0895
  467TMC3    C1 6947   2.723   3.933  13.628  0.1394  0.3510  0.3810
  467TMC3    C2 6948   2.736   3.897  13.494  0.3175  0.0217  0.2668
  467TMC3    C3 6949   2.636   3.933  13.407  0.0129  0.2887 -0.9701
  467TMC3    C4 6950   2.613   4.000  13.663  0.9753 -0.7144 -0.6801
  467TMC3    C5 6951   2.513   4.043  13.571 -0.7478 -0.1076 -0.3092
  467TMC3    C6 6952   2.527   4.016  13.437 -0.6766 -0.3593 -0.6057
  467TMC3     C 6953   2.830   3.895  13.712 -0.2052  0.0392 -0.0005
  467TMC3     O 6954   2.857   3.965  13.805  0.1048  0.2151  0.4188
  467TMC3     H 6955   2.819   3.836  13.460  0.8070 -0.4440  2.2848
  467TMC3    H1 6956   2.599   4.020  13.769 -1.6121 -0.5397 -1.0378
  467TMC3    H2 6957   2.450   4.049  13.368 -0.0786  2.6737  0.1740
  467TMC3    C7 6958   2.381   4.051  13.624 -0.6706 -0.8635 -0.2978
  467TMC3    C8 6959   2.673   3.916  13.269  0.0056  0.4365  0.7832
  467TMC3    O1 6960   2.375   3.999  13.734 -0.5351 -0.7827 -0.1515
  467TMC3    O2 6961   2.587   3.885  13.187  0.4322 -0.8539  0.7169
  468MPD2     C 6962   2.250   1.939  10.388 -0.6941  0.0578  0.0107
  468MPD2    C1 6963   2.247   1.924  10.525 -0.9450 -0.3148 -0.0737
  468MPD2    C2 6964   2.150   1.836  10.577 -0.5650 -0.5614 -0.3329
  468MPD2    C3 6965   2.058   1.774  10.484 -0.0948  0.2072  0.0350
  468MPD2    C4 6966   2.067   1.791  10.348  0.1266  0.0249 -0.2014
  468MPD2    C5 6967   2.162   1.875  10.303  0.0954 -0.0971 -0.1708
  468MPD2     H 6968   2.134   1.834  10.684  0.4012 -1.5271 -0.2083
  468MPD2    H1 6969   2.008   1.745  10.271 -0.2342  0.9884 -0.4994
  468MPD2    H2 6970   2.311   2.018  10.347  2.1801 -3.3869 -2.4289
  468MPD2    H3 6971   2.166   1.896  10.197 -0.7951  0.5052 -0.0828
  468MPD2     N 6972   1.961   1.679  10.531  0.3836 -0.0208 -0.4772
  468MPD2    H5 6973   1.918   1.618  10.461 -1.3011 -1.7063  2.0483
  468MPD2    N1 6974   2.336   1.981  10.623 -0.2035  0.2255 -0.2210
  468MPD2    H7 6975   2.319   1.976  10.723  1.2534  0.1151  0.0184
  469TMC3    C1 6976   2.526   2.090  10.694 -0.5894 -0.3265  0.6170
  469TMC3    C2 6977   2.659   2.093  10.698  0.2021  0.5180  0.3072
  469TMC3    C3 6978   2.717   2.189  10.776 -0.5986 -0.1286  0.7665
  469TMC3    C4 6979   2.452   2.200  10.743  0.1922  0.0026  0.0366
  469TMC3    C5 6980   2.509   2.294  10.823  0.3147 -0.0706  0.3191
  469TMC3    C6 6981   2.650   2.291  10.834 -0.2707  0.6367  0.0150
  469TMC3     C 6982   2.460   2.012  10.582  0.8157 -0.0970 -0.7706
  469TMC3     O 6983   2.514   2.007  10.474 -0.1796  0.2572  0.7078
  469TMC3     H 6984   2.721   2.007  10.674 -0.6121 -0.6107  2.2518
  469TMC3    H1 6985   2.345   2.209  10.728  0.5728  0.6199 -2.2488
  469TMC3    H2 6986   2.701   2.374  10.881 -0.8954  1.3055 -0.4768
  469TMC3    C7 6987   2.455   2.426  10.808 -0.6280 -0.8837 -0.1731
  469TMC3    C8 6988   2.847   2.144  10.832  0.2243 -0.4814 -0.0812
  469TMC3    O1 6989   2.396   2.451  10.703  0.1020  0.0901  0.1006
  469TMC3    O2 6990   2.922   2.074  10.769  0.2237  0.3132  0.3369
  470TMC3    C1 6991   3.838   2.919   1.051 -0.3076 -0.7481  0.3097
  470TMC3    C2 6992   3.912   3.032   1.077 -0.5505 -0.7726 -0.6242
  470TMC3    C3 6993   3.856   3.110   1.171  0.0529 -0.1398 -0.1597
  470TMC3    C4 6994   3.738   2.868   1.135 -0.1663  0.0444 -0.7627
  470TMC3    C5 6995   3.715   2.946   1.240  0.5341 -0.3904 -0.0435
  470TMC3    C6 6996   3.770   3.067   1.259 -0.3364  0.2794 -0.0221
  470TMC3     C 6997   3.856   2.856   0.921  0.0803 -0.4032  0.4173
  470TMC3     O 6998   3.951   2.892   0.852  0.4810 -0.1013 -0.7142
  470TMC3     H 6999   3.962   3.078   0.992  1.1076 -1.2954  0.0801
  470TMC3    H1 7000   3.690   2.772   1.125  2.0577 -0.9361 -1.8975
  470TMC3    H2 7001   3.742   3.135   1.339  0.4999  1.1461 -0.4742
  470TMC3    C7 7002   3.640   2.883   1.345  0.4526  0.0072 -0.1710
  470TMC3    C8 7003   3.856   3.254   1.138 -0.4805 -0.0101  0.4646
  470TMC3    O1 7004   3.571   2.784   1.318  0.4990 -0.2724  0.6198
  470TMC3    O2 7005   3.757   3.320   1.176  0.2444  0.2523 -0.2303
  471MPD2     C 7006   0.102   4.187  16.837  0.7424 -0.4473 -0.5277
  471MPD2    C1 7007   4.717   4.105  16.858 -1.2056  0.3584  0.4281
  471MPD2    C2 7008   4.674   4.081  16.988  0.1782  0.7134  0.3322
  471MPD2    C3 7009   0.019   4.139  17.097  0.1457 -0.2006 -0.0914
  471MPD2    C4 7010   0.117   4.223  17.074  0.5336 -0.0610  0.1786
  471MPD2    C5 7011   0.158   4.247  16.945 -0.3676 -0.3701  0.2369
  471MPD2     H 7012   4.585   4.020  17.000 -0.7232  2.3885  2.0569
  471MPD2    H1 7013   0.172   4.270  17.155 -0.4557 -0.1569  0.9105
  471MPD2    H2 7014   0.134   4.212  16.736 -0.8266 -0.8734 -1.1395
  471MPD2    H3 7015   0.245   4.309  16.924 -0.9748 -0.1646 -1.6108
  471MPD2     N 7016   4.716   4.102  17.234  0.0536 -0.1759 -0.6568
  471MPD2    H5 7017   0.059   4.136  17.305  0.4886  0.0938 -1.1772
  471MPD2    N1 7018   4.648   4.042  16.753  0.5625  0.1829  0.2283
  471MPD2    H7 7019   4.591   3.965  16.785  0.3552 -0.4843 -1.7425
  472TMC3    C1 7020   4.595   3.983  16.535  0.1033 -0.4910 -0.3643
  472TMC3    C2 7021   4.513   4.040  16.440  0.5649 -0.3752 -0.5112
  472TMC3    C3 7022   4.477   3.959  16.337 -0.3150 -0.6721  0.4481
  472TMC3    C4 7023   4.634   3.849  16.533 -0.5066  0.8926 -0.2816
  472TMC3    C5 7024   4.591   3.776  16.426  0.1590 -0.1883 -0.2122
  472TMC3    C6 7025   4.513   3.826  16.321  0.0912  0.1529 -0.5863
  472TMC3     C 7026   4.652   4.081  16.622  0.2189 -0.2970  0.1631
  472TMC3     O 7027   4.699   4.180  16.575 -0.0639 -0.1186 -0.3427
  472TMC3     H 7028   4.492   4.145  16.426  2.1341 -0.0568 -0.4804
  472TMC3    H1 7029   4.690   3.805  16.615 -0.3070 -0.9453 -1.4032
  472TMC3    H2 7030   4.480   3.757  16.243  1.4903  0.1925 -1.2297
  472TMC3    C7 7031   4.527   3.655  16.485  0.5240 -0.0325 -0.2858
  472TMC3    C8 7032   4.354   3.989  16.275 -0.2413 -0.2874 -0.2809
  472TMC3    O1 7033   4.563   3.626  16.598  0.2317 -0.2858  0.4513
  472TMC3    O2 7034   4.350   4.024  16.156  0.1617  0.2513  0.0111
  473MPD2     C 7035   4.318   1.651  13.861  0.8953  0.3747  0.1981
  473MPD2    C1 7036   4.411   1.754  13.835 -1.0654 -0.4385 -0.2783
  473MPD2    C2 7037   4.446   1.833  13.938 -1.0043 -0.2283  0.1341
  473MPD2    C3 7038   4.396   1.812  14.058 -0.7090 -0.7502  0.3802
  473MPD2    C4 7039   4.296   1.725  14.082 -0.1949 -1.1080  0.7265
  473MPD2    C5 7040   4.260   1.638  13.982  0.3505  0.2946 -0.0021
  473MPD2     H 7041   4.524   1.907  13.925 -0.1489 -0.8669  1.4968
  473MPD2    H1 7042   4.254   1.728  14.182  1.3994  0.5176  1.3425
  473MPD2    H2 7043   4.277   1.590  13.781  0.9566 -1.0690  1.2782
  473MPD2    H3 7044   4.180   1.567  14.001  1.0501 -0.7952 -1.1290
  473MPD2     N 7045   4.435   1.901  14.161  0.2820 -0.4796 -0.0460
  473MPD2    H5 7046   4.368   1.916  14.236 -0.3827  1.9309 -1.1203
  473MPD2    N1 7047   4.457   1.778  13.703 -0.4771 -0.1079 -0.2620
  473MPD2    H7 7048   4.522   1.856  13.695  1.4288 -1.4330  2.3481
  474TMC3    C1 7049   4.584   2.023  14.302  0.0441 -0.4441  0.0467
  474TMC3    C2 7050   4.483   2.089  14.367 -0.3544  0.1908  0.2573
  474TMC3    C3 7051   4.508   2.144  14.487  0.6269 -0.2288 -0.5423
  474TMC3    C4 7052   4.716   2.036  14.344 -0.5589 -0.0241  0.0856
  474TMC3    C5 7053   0.007   2.091  14.473 -0.4213 -0.1413 -0.1583
  474TMC3    C6 7054   4.631   2.158  14.544  0.2529  0.5522  0.1811
  474TMC3     C 7055   4.570   1.946  14.178 -0.5677  0.6735 -0.1950
  474TMC3     O 7056   4.666   1.898  14.128  0.3784  0.5935  0.1867
  474TMC3     H 7057   4.380   2.094  14.336  0.6969 -1.3045 -3.5109
  474TMC3    H1 7058   0.080   1.996  14.289  1.0152  0.0047  2.4775
  474TMC3    H2 7059   4.640   2.215  14.635 -1.2425 -1.2194  1.4322
  474TMC3    C7 7060   0.141   2.108  14.523 -0.5486 -0.0867  0.3052
  474TMC3    C8 7061   4.400   2.206  14.556 -0.4160  0.3217 -1.1390
  474TMC3    O1 7062   0.234   2.119  14.444 -0.0889 -0.7236 -0.6918
  474TMC3    O2 7063   4.374   2.182  14.672  0.1486  0.1280  0.2562
  475MPD2     C 7064   3.295   4.142  10.187 -0.2322  0.1979 -0.7436
  475MPD2    C1 7065   3.300   4.279  10.217 -0.3757  0.1451 -0.3335
  475MPD2    C2 7066   3.179   4.339  10.250 -0.0014 -0.0939  0.1448
  475MPD2    C3 7067   3.056   4.276  10.244 -0.1852 -0.0323  1.1141
  475MPD2    C4 7068   3.060   4.138  10.237  0.8941 -0.0062 -0.0002
  475MPD2    C5 7069   3.177   4.075  10.208  0.0250  0.4518  0.0570
  475MPD2     H 7070   3.180   4.445  10.275 -0.7777  0.1698 -0.9300
  475MPD2    H1 7071   2.976   4.070  10.241  1.0127 -0.1194  0.6989
  475MPD2    H2 7072   3.385   4.091  10.156 -0.7050 -0.4831 -0.9979
  475MPD2    H3 7073   3.171   3.968  10.190 -1.3628  0.6976 -0.9980
  475MPD2     N 7074   2.940   4.352  10.249  0.5124  0.4827  1.0690
  475MPD2    H5 7075   2.946   4.454  10.255 -0.3685  0.6688 -1.0397
  475MPD2    N1 7076   3.425   4.346  10.203  0.6840  0.1555  0.1337
  475MPD2    H7 7077   3.497   4.294  10.152  0.2741  0.6765 -0.9840
  476TMC3    C1 7078   3.565   4.525  10.165 -0.2528  0.8642  0.9382
  476TMC3    C2 7079   3.551   4.511  10.025  0.6553  0.3678  0.4391
  476TMC3    C3 7080   3.601   4.612   9.954 -0.3809 -0.3786  0.1965
  476TMC3    C4 7081   3.625   4.620  10.228  0.1667  0.1147  0.0108
  476TMC3    C5 7082   3.706   4.696  10.148  0.5733 -0.0861 -0.4001
  476TMC3    C6 7083   3.690   4.702  10.016  0.3733 -0.3533  0.2037
  476TMC3     C 7084   3.449   4.472  10.233 -0.6827  0.4165 -0.1603
  476TMC3     O 7085   3.388   4.552  10.305  0.3349  0.3517 -0.1229
  476TMC3     H 7086   3.480   4.444   9.978  2.4745  0.2113 -2.0908
  476TMC3    H1 7087   3.626   4.616  10.337  0.3348 -0.0832  0.0013
  476TMC3    H2 7088   3.769   0.024   9.954  0.8227  0.0016  1.0236
  476TMC3    C7 7089   3.804   0.063  10.212  0.0314 -0.0529  0.0127
  476TMC3    C8 7090   3.500   4.681   9.888 -0.4448  0.3816  0.1863
  476TMC3    O1 7091   3.903   0.092  10.146  0.0828  0.1415 -0.4561
  476TMC3    O2 7092   3.519   0.085   9.902 -0.1683  0.3933 -0.1092
  477MPD2     C 7093   0.866   1.639  11.222  0.1245  0.0507  0.5637
  477MPD2    C1 7094   0.767   1.685  11.304 -0.0720 -0.2434  0.4932
  477MPD2    C2 7095   0.743   1.619  11.423  0.0985  1.0170 -0.3588
  477MPD2    C3 7096   0.826   1.513  11.461  0.0439  0.6786  0.3863
  477MPD2    C4 7097   0.927   1.475  11.372  0.0272  0.1691  0.0013
  477MPD2    C5 7098   0.946   1.536  11.255 -0.0608 -0.3284 -1.0665
  477MPD2     H 7099   0.670   1.644  11.499  1.3140  1.1968  0.7536
  477MPD2    H1 7100   0.992   1.391  11.391 -0.4002 -0.5640 -1.7900
  477MPD2    H2 7101   0.877   1.686  11.125  0.3808  1.0800  1.0892
  477MPD2    H3 7102   1.021   1.487  11.193 -1.3170 -1.2852 -1.8464
  477MPD2     N 7103   0.806   1.449  11.580 -0.4054  0.2435 -0.3672
  477MPD2    H5 7104   0.753   1.499  11.650 -0.5475 -0.6365  0.1455
  477MPD2    N1 7105   0.683   1.788  11.252  0.2672 -0.1795 -0.7207
  477MPD2    H7 7106   0.714   1.839  11.170  1.7260  0.2264  0.0858
  478TMC3    C1 7107   0.508   1.933  11.228 -0.3689 -0.9715  1.0010
  478TMC3    C2 7108   0.414   2.006  11.282 -0.8495 -0.1484 -0.3427
  478TMC3    C3 7109   0.330   2.077  11.196 -0.0651  0.3813 -0.1254
  478TMC3    C4 7110   0.520   1.917  11.093  0.1307 -0.2633  0.6047
  478TMC3    C5 7111   0.425   1.977  11.013 -0.2407 -0.1152 -0.7019
  478TMC3    C6 7112   0.327   2.058  11.058 -0.5212 -0.1385 -1.0297
  478TMC3     C 7113   0.567   1.830  11.310  0.5819 -0.0239  0.1883
  478TMC3     O 7114   0.497   1.787  11.404  0.0649 -0.1100  0.3779
  478TMC3     H 7115   0.418   2.019  11.389 -1.6897  0.0904 -0.3409
  478TMC3    H1 7116   0.597   1.859  11.043 -1.4157 -0.2680 -1.7501
  478TMC3    H2 7117   0.255   2.110  10.996 -2.8617 -1.7195  0.3717
  478TMC3    C7 7118   0.470   1.987  10.878 -0.2420  0.2108 -0.1432
  478TMC3    C8 7119   0.308   2.208  11.260 -0.1238  0.5063 -0.3166
  478TMC3    O1 7120   0.589   1.984  10.860  0.2364 -0.1653  0.0899
  478TMC3    O2 7121   0.378   2.225  11.360  0.1313 -0.1042  0.6344
  479MPD2     C 7122   4.015   3.776  15.028  0.0949  0.4676 -0.4084
  479MPD2    C1 7123   3.955   3.672  15.103  0.2144  0.8309  0.3928
  479MPD2    C2 7124   3.998   3.652  15.232  0.3473  0.4445  0.0825
  479MPD2    C3 7125   4.101   3.725  15.294 -0.7223 -0.2983 -0.5401
  479MPD2    C4 7126   4.163   3.820  15.216 -0.1350  0.2933 -0.1850
  479MPD2    C5 7127   4.124   3.839  15.089  0.1192  0.1216 -0.5619
  479MPD2     H 7128   3.950   3.569  15.282 -0.2369 -0.3533 -1.7897
  479MPD2    H1 7129   4.247   3.882  15.246  1.0469 -1.5344  0.2933
  479MPD2    H2 7130   3.982   3.816  14.933 -1.3665 -1.7522 -0.8254
  479MPD2    H3 7131   4.171   3.913  15.025  0.3297 -1.3197 -2.0704
  479MPD2     N 7132   4.144   3.721  15.432  0.2166  0.5204  0.2215
  479MPD2    H5 7133   4.228   3.773  15.454  0.3249 -0.1500  1.3941
  479MPD2    N1 7134   3.842   3.602  15.048 -0.0906  0.6833 -0.1288
  479MPD2    H7 7135   3.795   3.646  14.969  1.8225  0.4140 -1.4226
  480TMC3    C1 7136   3.790   3.436  15.611 -0.5749 -0.0754 -0.8222
  480TMC3    C2 7137   3.678   3.507  15.561 -0.1131  0.6240  0.0677
  480TMC3    C3 7138   3.711   3.630  15.513 -0.2666  0.5957 -0.0858
  480TMC3    C4 7139   3.922   3.480  15.590  0.8901  0.2861 -0.0219
  480TMC3    C5 7140   3.944   3.597  15.530  0.4216 -0.2206  0.4986
  480TMC3    C6 7141   3.836   3.671  15.489  0.4122  0.4855 -0.6460
  480TMC3     C 7142   3.776   3.328  15.708 -0.0665  0.1478  0.1257
  480TMC3     O 7143   3.869   3.245  15.722  0.4752  0.4765  0.0350
  480TMC3     H 7144   3.578   3.479  15.595  0.9027 -0.0383  2.4618
  480TMC3    H1 7145   4.006   3.426  15.629  0.5409 -1.3956 -1.5925
  480TMC3    H2 7146   3.862   3.770  15.451  0.8533  0.4072 -0.5560
  480TMC3    C7 7147   4.085   3.639  15.530 -0.2133  0.2427  0.6141
  480TMC3    C8 7148   3.604   3.690  15.440  0.2033  0.6704  1.2677
  480TMC3    O1 7149   4.140   3.620  15.639  0.1116 -0.5441  0.2811
  480TMC3    O2 7150   3.495   3.661  15.492 -0.0062 -0.2488 -0.8231
  481MPD2     C 7151   0.934   3.689  14.323  0.0982  0.4827  0.4124
  481MPD2    C1 7152   0.837   3.589  14.321  0.4012 -0.3313  0.3318
  481MPD2    C2 7153   0.836   3.493  14.425 -0.4415 -0.1979 -0.0692
  481MPD2    C3 7154   0.928   3.499  14.532  0.0999  0.1866 -0.3653
  481MPD2    C4 7155   1.025   3.599  14.523 -0.2523  0.1913  0.0176
  481MPD2    C5 7156   1.027   3.683  14.424  0.5106 -0.3329 -0.0319
  481MPD2     H 7157   0.761   3.415  14.423  0.4632 -1.1314  2.1852
  481MPD2    H1 7158   1.096   3.602  14.604 -0.8721  0.1390  0.5672
  481MPD2    H2 7159   0.940   3.768  14.250 -1.8170  0.1437 -0.1309
  481MPD2    H3 7160   1.109   3.753  14.414 -0.0589  0.4684  1.0249
  481MPD2     N 7161   0.917   3.433  14.655 -0.5767  0.5150  0.7219
  481MPD2    H5 7162   0.988   3.468  14.718  0.0179  0.0017  0.3303
  481MPD2    N1 7163   0.754   3.602  14.210  0.7185 -0.7450  0.1697
  481MPD2    H7 7164   0.764   3.689  14.159  1.9099  0.4246  2.4073
  482TMC3    C1 7165   0.582   3.569  14.062  0.1123 -0.8775  0.4763
  482TMC3    C2 7166   0.452   3.535  14.055 -0.0463 -0.6766  0.2205
  482TMC3    C3 7167   0.395   3.541  13.930 -0.1680 -0.5921  0.1196
  482TMC3    C4 7168   0.650   3.624  13.960  0.2012 -0.3736 -0.2156
  482TMC3    C5 7169   0.587   3.633  13.835 -0.2830  0.5256  0.2691
  482TMC3    C6 7170   0.457   3.593  13.817  0.1073  0.2221 -0.3578
  482TMC3     C 7171   0.652   3.520  14.180 -0.9429  0.3262 -0.0379
  482TMC3     O 7172   0.610   3.417  14.232  0.4206 -0.3412  0.2662
  482TMC3     H 7173   0.405   3.480  14.136 -0.0627 -0.8579  0.0886
  482TMC3    H1 7174   0.759   3.632  13.959  0.2269 -0.6231  0.3741
  482TMC3    H2 7175   0.398   3.620  13.730 -0.1094  1.9120  0.3141
  482TMC3    C7 7176   0.655   3.717  13.738 -0.3946 -0.4207  0.7197
  482TMC3    C8 7177   0.280   3.448  13.918 -0.4220  0.4912 -0.0356
  482TMC3    O1 7178   0.700   3.823  13.768  0.0016 -0.7141 -0.2153
  482TMC3    O2 7179   0.241   3.397  14.025  0.5307  0.1587 -0.7701
  483TMC3    C1 7180   2.928   1.560  17.663 -0.0267  0.2102  0.0944
  483TMC3    C2 7181   3.006   1.650  17.588 -0.1577 -0.2859 -0.0003
  483TMC3    C3 7182   3.079   1.751  17.649  0.5146  0.2149  0.0417
  483TMC3    C4 7183   2.914   1.577   0.113 -0.3128 -0.3140 -0.2089
  483TMC3    C5 7184   2.994   1.675   0.163  0.7635  0.9395  0.2114
  483TMC3    C6 7185   3.083   1.759   0.097  0.5311  0.6013 -0.3931
  483TMC3     C 7186   2.874   1.450  17.581 -0.0703 -0.0693 -0.0968
  483TMC3     O 7187   2.885   1.462  17.459  0.1189 -0.0893  0.4815
  483TMC3     H 7188   3.025   1.636  17.483  1.4913  1.3657  0.0882
  483TMC3    H1 7189   2.863   1.505   0.175 -1.0730  0.1796 -0.2662
  483TMC3    H2 7190   3.134   1.833   0.158  0.5281  1.1548 -1.0588
  483TMC3    C7 7191   2.989   1.710   0.304  0.0396 -0.5022  0.3408
  483TMC3    C8 7192   3.205   1.784  17.580  0.8957 -0.3181 -0.4363
  483TMC3    O1 7193   3.080   1.765   0.361 -0.1528 -0.4582  0.0090
  483TMC3    O2 7194   3.221   1.721  17.474  0.0448 -0.7196 -0.0830
  484MPD2     C 7195   1.535   0.517  12.190  0.2922  0.2430  0.3893
  484MPD2    C1 7196   1.558   0.433  12.293 -0.0439 -0.1460 -0.0820
  484MPD2    C2 7197   1.690   0.395  12.328  0.2057  0.4490  0.5362
  484MPD2    C3 7198   1.799   0.437  12.249  0.3318  0.2222 -0.3709
  484MPD2    C4 7199   1.771   0.516  12.138 -0.2210  0.4380 -0.4604
  484MPD2    C5 7200   1.643   0.554  12.108  0.6132 -0.2878 -0.2044
  484MPD2     H 7201   1.707   0.337  12.418  0.2405 -1.3192 -0.6025
  484MPD2    H1 7202   1.855   0.544  12.075  0.8862  1.1947  1.3722
  484MPD2    H2 7203   1.435   0.556  12.173  0.0058 -0.5459  0.2793
  484MPD2    H3 7204   1.626   0.613  12.019 -0.1352 -1.9533 -1.1673
  484MPD2     N 7205   1.935   0.396  12.258 -0.1740 -0.1450 -0.4286
  484MPD2    H5 7206   2.002   0.441  12.196 -0.8403 -0.2785 -1.2525
  484MPD2    N1 7207   1.449   0.372  12.367  0.2430 -0.3781 -0.0462
  484MPD2    H7 7208   1.357   0.389  12.327  2.0303  0.9402 -3.4913
  485TMC3    C1 7209   2.128   0.294  12.336  0.3872 -0.7605  0.7763
  485TMC3    C2 7210   2.192   0.221  12.437  0.3890  0.3041  0.5291
  485TMC3    C3 7211   2.327   0.215  12.429  1.3795 -0.2086 -0.2178
  485TMC3    C4 7212   2.185   0.357  12.228  0.2413 -0.4385  0.1988
  485TMC3    C5 7213   2.323   0.356  12.233  0.2315  0.4049  0.3480
  485TMC3    C6 7214   2.384   0.303  12.344 -0.0651 -0.4251 -0.5889
  485TMC3     C 7215   1.986   0.319  12.360  0.2524  0.0928 -0.3687
  485TMC3     O 7216   1.931   0.267  12.454 -0.1375  0.4238 -0.1335
  485TMC3     H 7217   2.137   0.160  12.508 -0.6161  1.3455  0.6408
  485TMC3    H1 7218   2.141   0.366  12.129 -0.2298 -2.9882  0.1709
  485TMC3    H2 7219   2.488   0.329  12.361  0.0389 -0.7042 -0.7862
  485TMC3    C7 7220   2.386   0.319  12.110  0.3252  0.3483 -0.4366
  485TMC3    C8 7221   2.393   0.088  12.442  0.3428 -0.4281  0.2090
  485TMC3    O1 7222   2.363   0.378  12.005 -0.4103  0.2621 -0.2119
  485TMC3    O2 7223   2.501   0.080  12.379  0.2099 -0.1277  0.5310
  486MPD2     C 7224   4.131   3.516  12.864  0.4505 -0.4264  0.4381
  486MPD2    C1 7225   4.087   3.517  12.736 -0.2848 -0.2246 -0.1363
  486MPD2    C2 7226   4.071   3.639  12.676  0.3796  0.8229  0.4056
  486MPD2    C3 7227   4.089   3.756  12.745 -0.5335  0.6114  0.1267
  486MPD2    C4 7228   4.137   3.748  12.871 -0.0481  0.0324  0.0552
  486MPD2    C5 7229   4.167   3.628  12.928 -0.5104  0.0060  0.0191
  486MPD2     H 7230   4.043   3.643  12.571  0.9259 -2.3535  0.1232
  486MPD2    H1 7231   4.156   3.836  12.932  0.4049 -1.9679  2.8158
  486MPD2    H2 7232   4.161   3.424  12.912  1.8020 -0.7726 -1.0646
  486MPD2    H3 7233   4.209   3.625  13.028  0.4234  1.6635 -0.3119
  486MPD2     N 7234   4.062   3.881  12.676 -0.6007 -0.5108 -0.1546
  486MPD2    H5 7235   4.040   3.871  12.577  0.2403 -0.6524 -0.3267
  486MPD2    N1 7236   4.081   3.395  12.663 -0.0184  0.0289 -0.0619
  486MPD2    H7 7237   4.086   3.309  12.716  1.1412  0.1511  0.0350
  487TMC3    C1 7238   4.019   3.240  12.492  0.4944  0.1306 -0.6763
  487TMC3    C2 7239   3.901   3.206  12.426  0.3774 -0.9572 -0.9923
  487TMC3    C3 7240   3.858   3.079  12.436 -0.1086  0.0697 -0.1216
  487TMC3    C4 7241   4.087   3.150  12.569  0.0737 -0.1502 -0.4987
  487TMC3    C5 7242   4.039   3.024  12.580  0.5343  0.6000 -1.0759
  487TMC3    C6 7243   3.922   2.987  12.515 -0.3636  0.1964 -0.1252
  487TMC3     C 7244   4.049   3.379  12.526  0.3250  0.0455 -0.9654
  487TMC3     O 7245   4.011   3.468  12.448  0.1780  0.5511 -0.4516
  487TMC3     H 7246   3.840   3.279  12.373 -0.0767 -0.1476  0.6207
  487TMC3    H1 7247   4.182   3.172  12.617 -1.2413 -0.3024  2.1730
  487TMC3    H2 7248   3.864   2.901  12.547  0.3979 -0.1637  0.2966
  487TMC3    C7 7249   4.051   2.977  12.718 -0.0029  0.2718  0.0949
  487TMC3    C8 7250   3.715   3.053  12.455 -0.0087 -0.6020  0.3342
  487TMC3    O1 7251   4.089   3.070  12.792  0.5838  0.3333  0.1874
  487TMC3    O2 7252   3.674   2.974  12.371  0.2574 -0.4977  0.3665
  488MPD2     C 7253   3.781   0.503  16.257 -0.1171  0.1242  0.0285
  488MPD2    C1 7254   3.705   0.614  16.260 -0.7598 -0.6137 -0.5942
  488MPD2    C2 7255   3.585   0.605  16.327 -0.1893  0.1730 -0.1038
  488MPD2    C3 7256   3.546   0.479  16.386  0.0494  0.1954  0.2326
  488MPD2    C4 7257   3.620   0.368  16.367  0.5972 -0.2924 -0.2871
  488MPD2    C5 7258   3.736   0.384  16.296 -0.0707 -0.2087  0.0397
  488MPD2     H 7259   3.523   0.694  16.323  0.8256  0.7826 -2.4214
  488MPD2    H1 7260   3.588   0.272  16.405  0.8141 -0.6113 -0.9125
  488MPD2    H2 7261   3.877   0.501  16.207  0.4512  1.1633  1.0810
  488MPD2    H3 7262   3.802   0.302  16.273 -1.3876 -1.0472 -0.7720
  488MPD2     N 7263   3.429   0.481  16.465  0.1724  0.1931  0.1680
  488MPD2    H5 7264   3.374   0.565  16.452  1.4223  1.1068  0.8968
  488MPD2    N1 7265   3.747   0.742  16.205  0.3510  0.0602  0.0269
  488MPD2    H7 7266   3.690   0.824  16.221 -0.2593 -0.0201 -1.7168
  489TMC3    C1 7267   3.262   0.402  16.606 -0.2435  0.0602  0.3690
  489TMC3    C2 7268   3.223   0.534  16.612 -0.3875  0.2345 -0.4822
  489TMC3    C3 7269   3.153   0.573  16.725  0.4888 -0.1614 -0.0111
  489TMC3    C4 7270   3.216   0.312  16.704  0.4667 -0.1660  0.2589
  489TMC3    C5 7271   3.147   0.353  16.815  0.5245 -0.0152 -0.0856
  489TMC3    C6 7272   3.119   0.485  16.828  0.2424  0.1285  0.2839
  489TMC3     C 7273   3.382   0.374  16.533 -0.5641  0.2260  0.3540
  489TMC3     O 7274   3.444   0.275  16.574  0.0550 -0.4210  0.6127
  489TMC3     H 7275   3.219   0.611  16.536  2.1406  0.0780 -0.7838
  489TMC3    H1 7276   3.250   0.209  16.697 -0.5803 -0.6322  2.3226
  489TMC3    H2 7277   3.084   0.526  16.922  1.5231 -0.2081  0.9157
  489TMC3    C7 7278   3.113   0.268  16.930  0.1094 -0.5611 -0.2234
  489TMC3    C8 7279   3.216   0.696  16.770 -0.4017  0.1898 -0.0019
  489TMC3    O1 7280   3.019   0.306  16.998 -0.3295 -0.6860  0.7777
  489TMC3    O2 7281   3.328   0.718  16.721 -0.1088  0.1136 -0.0520
  490MPD2     C 7282   4.596   4.721   0.134 -0.2416 -0.0602  0.8772
  490MPD2    C1 7283   4.599   4.708  17.685 -0.4335 -0.5603 -0.3366
  490MPD2    C2 7284   4.679   0.068  17.609 -0.0858 -0.4296  0.4861
  490MPD2    C3 7285   0.046   0.153  17.665 -0.2491 -0.6438 -1.0407
  490MPD2    C4 7286   0.030   0.172   0.115 -0.3433 -0.1567 -0.3283
  490MPD2    C5 7287   4.667   0.103   0.189  0.2169 -0.2651  0.3180
  490MPD2     H 7288   4.685   0.053  17.502  0.6051 -1.1233  0.6156
  490MPD2    H1 7289   0.094   0.243   0.165  0.8847 -0.2320 -1.7606
  490MPD2    H2 7290   4.533   4.662   0.199 -1.2938 -0.1130 -0.1963
  490MPD2    H3 7291   4.655   0.122   0.295  0.8559  2.4304 -0.1152
  490MPD2     N 7292   0.145   0.226  17.588 -0.3987  0.3213 -0.0871
  490MPD2    H5 7293   0.201   0.295  17.637 -0.2621 -0.5464  0.9982
  490MPD2    N1 7294   4.523   4.606  17.626 -0.6211  0.2173 -0.3979
  490MPD2    H7 7295   4.531   4.618  17.526  0.2223  0.2840 -0.3263
  491TMC3    C1 7296   4.415   4.400  17.571  0.0222  0.1886 -0.4119
  491TMC3    C2 7297   4.354   4.290  17.614  0.1126 -0.3583  0.0410
  491TMC3    C3 7298   4.309   4.203  17.515  0.7821  0.1059 -0.0673
  491TMC3    C4 7299   4.452   4.412  17.439  0.6028 -0.0224  0.5491
  491TMC3    C5 7300   4.424   4.317  17.348 -0.6422  0.1536  0.3277
  491TMC3    C6 7301   4.345   4.215  17.390  0.1643  0.5563  0.1587
  491TMC3     C 7302   4.471   4.486  17.678 -1.1113  0.0051 -0.1489
  491TMC3     O 7303   4.477   4.451   0.107 -0.0552 -0.0800  0.5804
  491TMC3     H 7304   4.319   4.287   0.030  2.0814 -1.6756  0.6838
  491TMC3    H1 7305   4.507   4.498  17.402  0.4129  0.2455  0.8822
  491TMC3    H2 7306   4.307   4.148  17.314  1.6182  1.7128 -1.5867
  491TMC3    C7 7307   4.441   4.342  17.202 -0.0922  0.1803 -0.1769
  491TMC3    C8 7308   4.197   4.122  17.545  0.2386  0.1707  0.7483
  491TMC3    O1 7309   4.530   4.423  17.173 -0.0556 -0.3930 -0.3539
  491TMC3    O2 7310   4.113   4.105  17.462  0.1153  0.2566 -0.0104
  492MPD2     C 7311   0.303   0.663  10.891 -0.0534  0.4374  0.7647
  492MPD2    C1 7312   0.283   0.565  10.794  0.8367 -0.6360 -0.1436
  492MPD2    C2 7313   0.205   0.454  10.829 -0.1628  0.1268 -0.2394
  492MPD2    C3 7314   0.155   0.433  10.961 -0.4269 -0.7280 -0.2062
  492MPD2    C4 7315   0.189   0.530  11.050 -0.7558  0.3622 -0.5163
  492MPD2    C5 7316   0.263   0.640  11.017 -1.1126 -0.0129  0.1255
  492MPD2     H 7317   0.202   0.368  10.763  1.2305  0.9757 -1.4026
  492MPD2    H1 7318   0.131   0.531  11.142 -2.1631 -2.2139 -1.3633
  492MPD2    H2 7319   0.364   0.750  10.871  0.5383 -0.0589  0.3699
  492MPD2    H3 7320   0.273   0.717  11.093  0.6908 -1.2806  1.1660
  492MPD2     N 7321   0.069   0.325  10.999 -0.1374  0.6084  0.0598
  492MPD2    H5 7322   0.049   0.321  11.099 -2.0091  1.7074 -0.2512
  492MPD2    N1 7323   0.328   0.588  10.663  0.5463 -0.6835  0.5805
  492MPD2    H7 7324   0.378   0.674  10.643  0.0519 -0.7095 -0.7529
  493TMC3    C1 7325   0.368   0.548  10.433 -0.1183 -0.0231 -0.0196
  493TMC3    C2 7326   0.354   0.678  10.407 -1.0355 -0.2328 -0.5916
  493TMC3    C3 7327   0.385   0.712  10.276  0.2433  0.5908  0.1591
  493TMC3    C4 7328   0.420   0.450  10.353  0.2919 -0.1684  0.2878
  493TMC3    C5 7329   0.449   0.485  10.221 -0.0484  0.1725 -0.3944
  493TMC3    C6 7330   0.430   0.618  10.189 -0.3821  0.1365 -0.1011
  493TMC3     C 7331   0.317   0.495  10.557 -0.6019 -0.3229  0.7356
  493TMC3     O 7332   0.290   0.374  10.550  0.0906  0.4104 -0.5790
  493TMC3     H 7333   0.306   0.751  10.471  2.5803  0.9688  0.7597
  493TMC3    H1 7334   0.428   0.349  10.393  1.9225  0.3798  1.3646
  493TMC3    H2 7335   0.443   0.651  10.087 -0.8337  0.5676 -0.0179
  493TMC3    C7 7336   0.380   0.399  10.125 -0.0459  0.7767 -0.3547
  493TMC3    C8 7337   0.458   0.844  10.272  0.1234 -0.3868  0.4916
  493TMC3    O1 7338   0.301   0.452  10.051  0.2192 -0.3474  0.3699
  493TMC3    O2 7339   0.462   0.913  10.377 -0.7197 -0.1035  0.8407
  494TMC3    C1 7340   0.111   1.770   0.455 -0.1740  0.4439  0.3048
  494TMC3    C2 7341   0.199   1.819   0.544 -0.4061 -0.4980 -0.0150
  494TMC3    C3 7342   0.329   1.823   0.498 -0.3515  1.1108  0.2636
  494TMC3    C4 7343   0.141   1.759   0.325 -0.2470  0.5823  0.5882
  494TMC3    C5 7344   0.271   1.766   0.282 -0.0149 -0.6142  0.2659
  494TMC3    C6 7345   0.369   1.791   0.375  0.2801  0.7508 -0.2444
  494TMC3     C 7346   4.695   1.759   0.499 -0.2189 -0.2659 -0.3925
  494TMC3     O 7347   4.657   1.828   0.594 -0.0671  0.1460  0.5811
  494TMC3     H 7348   0.167   1.827   0.648  0.2201 -0.9303  0.2111
  494TMC3    H1 7349   0.064   1.727   0.255  0.8155  2.4887 -1.4448
  494TMC3    H2 7350   0.473   1.796   0.344  1.1656 -0.6353  2.5160
  494TMC3    C7 7351   0.298   1.786   0.143 -0.0001  0.6429 -0.5667
  494TMC3    C8 7352   0.437   1.866   0.584  0.4055 -0.2347 -0.3628
  494TMC3    O1 7353   0.407   1.758   0.096 -0.3160  0.5365 -0.9373
  494TMC3    O2 7354   0.413   1.936   0.682  0.4849 -0.2376 -0.2482
  495TMC3    C1 7355   3.817   3.797  14.481  0.2784 -0.1834 -0.9946
  495TMC3    C2 7356   3.714   3.826  14.387 -0.2225 -0.1680 -0.2576
  495TMC3    C3 7357   3.592   3.868  14.438 -0.0340 -0.4327  0.5315
  495TMC3    C4 7358   3.795   3.839  14.612 -0.1584  0.0911  0.3690
  495TMC3    C5 7359   3.674   3.879  14.657 -0.0620 -0.5216 -1.3404
  495TMC3    C6 7360   3.571   3.888  14.565 -0.4566  0.2707  0.0949
  495TMC3     C 7361   3.834   3.647  14.477 -0.6625 -0.0238 -0.1544
  495TMC3     O 7362   3.781   3.582  14.389  0.0372 -0.6126 -0.1446
  495TMC3     H 7363   3.713   3.799  14.282  1.4983  2.9542 -1.0771
  495TMC3    H1 7364   3.880   3.860  14.677 -0.5537  0.4205  0.7804
  495TMC3    H2 7365   3.468   3.892  14.600 -0.9591 -0.0786 -1.3229
  495TMC3    C7 7366   3.660   3.853  14.801 -0.0532 -0.3944  0.0333
  495TMC3    C8 7367   3.480   3.805  14.373  0.1892  0.2082 -0.1706
  495TMC3    O1 7368   3.754   3.801  14.856  0.3947  0.2962 -1.0341
  495TMC3    O2 7369   3.369   3.854  14.382 -0.1034 -0.2857 -0.0586
  496MPD2     C 7370   1.219   3.993  15.233  0.1280 -0.2405 -0.3437
  496MPD2    C1 7371   1.228   3.866  15.279  0.2348  0.4644 -0.0563
  496MPD2    C2 7372   1.148   3.827  15.384  0.4286  0.1004  0.0601
  496MPD2    C3 7373   1.073   3.917  15.456 -0.0896  0.3811 -0.6248
  496MPD2    C4 7374   1.085   4.047  15.419 -0.6710 -0.6539  0.2505
  496MPD2    C5 7375   1.143   4.083  15.299 -0.0339 -0.4599  0.3615
  496MPD2     H 7376   1.151   3.730  15.434 -0.0829 -0.8558 -1.7638
  496MPD2    H1 7377   1.015   4.116  15.464 -1.8430 -1.1661 -0.7717
  496MPD2    H2 7378   1.260   4.021  15.136  1.0272  2.1693  0.7208
  496MPD2    H3 7379   1.134   4.184  15.262 -0.0919  0.0596  1.8232
  496MPD2     N 7380   1.010   3.878  15.576  0.5078 -0.3196  0.4538
  496MPD2    H5 7381   1.007   3.777  15.582 -0.4877 -0.1897  2.0565
  496MPD2    N1 7382   1.326   3.788  15.216  0.0881  0.6122  0.2116
  496MPD2    H7 7383   1.372   3.828  15.135  1.1767  3.0225  1.9950
  497TMC3    C1 7384   0.970   3.879  15.797  0.8521 -0.3499  0.3728
  497TMC3    C2 7385   0.883   3.775  15.786  0.2277  0.0513 -0.3160
  497TMC3    C3 7386   0.909   3.663  15.862  0.1701  0.6381 -0.5754
  497TMC3    C4 7387   1.087   3.866  15.868  0.1294 -0.6532  0.6116
  497TMC3    C5 7388   1.121   3.746  15.934 -0.0860 -0.4851  0.0147
  497TMC3    C6 7389   1.027   3.647  15.929  0.2810  0.4667 -0.1580
  497TMC3     C 7390   0.993   3.963  15.680 -0.5901  0.4284  0.3771
  497TMC3     O 7391   1.024   4.079  15.705 -0.4808 -0.0593 -0.2795
  497TMC3     H 7392   0.811   3.777  15.706  0.1216  1.8870 -0.1736
  497TMC3    H1 7393   1.142   3.955  15.897 -0.0807 -0.7739  1.3737
  497TMC3    H2 7394   1.039   3.557  15.989  3.1738  0.6497 -0.4706
  497TMC3    C7 7395   1.198   3.753  16.060 -0.4013 -0.2691  0.1624
  497TMC3    C8 7396   0.834   3.544  15.820 -0.3074 -1.0083 -0.0442
  497TMC3    O1 7397   1.160   3.677  16.147 -0.5474  0.2386 -0.0179
  497TMC3    O2 7398   0.713   3.557  15.791 -0.0893 -0.0043  0.4402
  498MPD2     C 7399   1.653   4.405   9.485 -0.2483 -0.5849  0.0487
  498MPD2    C1 7400   1.741   4.335   9.548  0.4987  0.3266  0.4597
  498MPD2    C2 7401   1.705   4.208   9.584 -0.3214  0.3705  0.4661
  498MPD2    C3 7402   1.582   4.148   9.560 -0.1775  0.4241 -0.0939
  498MPD2    C4 7403   1.491   4.225   9.488  0.2426  0.5424 -0.9371
  498MPD2    C5 7404   1.528   4.356   9.455 -0.2135  0.0534 -0.2619
  498MPD2     H 7405   1.781   4.140   9.619  1.4125  2.2613  0.3573
  498MPD2    H1 7406   1.391   4.189   9.468 -0.0168  0.5335  0.3626
  498MPD2    H2 7407   1.670   4.506   9.448  1.0901  0.3211  3.1193
  498MPD2    H3 7408   1.460   4.423   9.404 -0.3808 -0.3571 -0.5813
  498MPD2     N 7409   1.560   4.009   9.603 -0.2165  0.1433  0.0450
  498MPD2    H5 7410   1.616   3.971   9.678 -0.8363 -1.2424 -0.2095
  498MPD2    N1 7411   1.875   4.380   9.577 -0.4819  0.1567 -0.5594
  498MPD2    H7 7412   1.929   4.325   9.643  0.5036  2.4208  0.5082
  499TMC3    C1 7413   2.058   4.522   9.565  0.6468 -0.6050 -0.4070
  499TMC3    C2 7414   2.139   4.409   9.590 -0.7102  0.3455 -0.4708
  499TMC3    C3 7415   2.272   4.431   9.601 -0.8379  0.4710 -0.8588
  499TMC3    C4 7416   2.100   4.655   9.575  0.1161 -0.1620 -0.9018
  499TMC3    C5 7417   2.237   4.669   9.603  0.9531 -0.0475 -0.5682
  499TMC3    C6 7418   2.321   4.558   9.604 -0.0255  0.6231 -0.0452
  499TMC3     C 7419   1.925   4.502   9.525 -0.4090 -0.1830  0.1178
  499TMC3     O 7420   1.868   4.582   9.454  0.2110 -0.1633  0.3045
  499TMC3     H 7421   2.102   4.307   9.580  1.8429 -0.7299  1.0722
  499TMC3    H1 7422   2.031   0.014   9.551  1.0244  1.8746  3.1664
  499TMC3    H2 7423   2.429   4.567   9.598  0.1960 -1.7921  0.2565
  499TMC3    C7 7424   2.292   0.076   9.571 -0.0454 -0.5808  0.0390
  499TMC3    C8 7425   2.367   4.320   9.618  0.1807 -0.7505  0.6078
  499TMC3    O1 7426   2.236   0.142   9.486  0.1627  0.3943  0.1985
  499TMC3    O2 7427   2.485   4.330   9.590 -0.2974  0.3235 -0.2530
  500MPD2     C 7428   4.093   1.355  10.049 -0.0350  0.0345 -0.2798
  500MPD2    C1 7429   4.132   1.334   9.919 -0.1760  0.7010  0.3370
  500MPD2    C2 7430   4.021   1.294   9.837  0.2435  0.1232  0.9245
  500MPD2    C3 7431   3.891   1.278   9.883  0.7334 -0.2368  0.2713
  500MPD2    C4 7432   3.867   1.288  10.017  0.1184 -1.0491 -0.1132
  500MPD2    C5 7433   3.965   1.342  10.094  0.1018  0.4489  0.2042
  500MPD2     H 7434   4.038   1.286   9.730 -1.9218  2.6470  0.4036
  500MPD2    H1 7435   3.770   1.271  10.062 -0.0434 -1.1015 -0.4881
  500MPD2    H2 7436   4.168   1.372  10.126  0.1201 -0.9130 -0.2232
  500MPD2    H3 7437   3.944   1.349  10.200  0.2648  2.5581  0.0954
  500MPD2     N 7438   3.786   1.246   9.803 -0.5004  0.1551 -0.0892
  500MPD2    H5 7439   3.700   1.219   9.850 -0.7027  0.5278 -0.2472
  500MPD2    N1 7440   4.264   1.354   9.871 -0.3531 -0.0286 -0.2665
  500MPD2    H7 7441   4.339   1.390   9.930  0.1784  0.2324 -1.0977
  501TMC3    C1 7442   4.456   1.351   9.739 -0.0289 -0.3608  0.1166
  501TMC3    C2 7443   4.516   1.440   9.652 -0.2847 -0.1829  0.2572
  501TMC3    C3 7444   4.648   1.471   9.669  0.6879  0.6403 -0.1277
  501TMC3    C4 7445   4.531   1.300   9.844  0.2532  0.0209 -0.1201
  501TMC3    C5 7446   4.659   1.336   9.856 -0.2283  0.1634 -0.2970
  501TMC3    C6 7447   0.004   1.405   9.758  0.2234  0.4300 -0.1589
  501TMC3     C 7448   4.311   1.335   9.743  0.8455  0.3098  0.5517
  501TMC3     O 7449   4.250   1.327   9.639 -0.0283 -0.2698 -0.3764
  501TMC3     H 7450   4.456   1.486   9.574 -0.9409 -1.6850 -0.1253
  501TMC3    H1 7451   4.479   1.235   9.913  0.7697 -0.2012  0.0567
  501TMC3    H2 7452   0.111   1.421   9.763 -0.2068  2.3991  2.6663
  501TMC3    C7 7453   4.702   1.340   9.991  1.0936  0.1314 -0.1957
  501TMC3    C8 7454   4.658   1.616   9.704  0.4536 -0.3906 -1.2012
  501TMC3    O1 7455   4.656   1.259  10.068  0.1730  0.3122  0.3164
  501TMC3    O2 7456   0.020   1.638   9.798  0.3977 -0.2349 -0.0170
  502TMC3    C1 7457   3.364   4.652  14.775 -0.6076  0.2043  0.1380
  502TMC3    C2 7458   3.349   0.051  14.721 -0.0532 -0.7279 -0.5802
  502TMC3    C3 7459   3.229   0.114  14.728  0.6817  0.4230  0.2641
  502TMC3    C4 7460   3.264   4.589  14.837 -0.2946  0.9543 -0.0745
  502TMC3    C5 7461   3.147   4.655  14.853  0.2367 -0.5319  0.4898
  502TMC3    C6 7462   3.126   0.054  14.797 -0.2367 -0.4301  0.1124
  502TMC3     C 7463   3.494   4.605  14.821 -0.2694 -0.5260 -0.0161
  502TMC3     O 7464   3.573   4.563  14.743 -0.4568 -0.3838 -0.3006
  502TMC3     H 7465   3.439   0.089  14.676 -0.4576 -0.1366 -0.8917
  502TMC3    H1 7466   3.266   4.489  14.880  1.2019  0.3232 -1.6427
  502TMC3    H2 7467   3.024   0.090  14.789 -0.2226  0.2583  2.8116
  502TMC3    C7 7468   3.033   4.568  14.874 -0.1799 -0.3268  0.1013
  502TMC3    C8 7469   3.235   0.253  14.706  0.3721 -0.1137 -0.0318
  502TMC3    O1 7470   3.032   4.458  14.817 -0.0576  0.2923 -0.5350
  502TMC3    O2 7471   3.346   0.298  14.696 -0.9458  0.0488 -0.1875
  503MPD2     C 7472   0.973   0.644  16.669  0.7106 -0.6973 -0.0720
  503MPD2    C1 7473   0.962   0.668  16.802 -0.4777 -0.4153  0.2436
  503MPD2    C2 7474   1.027   0.585  16.892 -0.3577  1.1755  0.1396
  503MPD2    C3 7475   1.109   0.481  16.852 -0.8633  0.8619 -0.3445
  503MPD2    C4 7476   1.121   0.459  16.721  0.1725  0.2476 -0.9458
  503MPD2    C5 7477   1.059   0.542  16.635 -0.6301 -0.9816 -0.2039
  503MPD2     H 7478   1.011   0.604  16.997  4.6209 -0.0808  1.1243
  503MPD2    H1 7479   1.172   0.372  16.682 -0.9390  0.7192 -3.4232
  503MPD2    H2 7480   0.925   0.707  16.594 -0.1238  0.0270  1.0748
  503MPD2    H3 7481   1.052   0.511  16.532 -1.9294 -1.1417 -0.0640
  503MPD2     N 7482   1.185   0.414  16.944 -0.0658  0.6980 -0.1378
  503MPD2    H5 7483   1.176   0.445  17.041  0.0415 -0.3073  0.1954
  503MPD2    N1 7484   0.871   0.768  16.852 -0.3041 -0.3389 -0.4043
  503MPD2    H7 7485   0.863   0.777  16.953  0.2699  1.0065 -0.4762
  504TMC3    C1 7486   1.359   0.274  17.036 -0.1374 -0.1657 -0.2935
  504TMC3    C2 7487   1.284   0.247  17.143 -0.0542 -0.4437 -0.1126
  504TMC3    C3 7488   1.319   0.143  17.228  0.1107  0.2879  0.7017
  504TMC3    C4 7489   1.476   0.212  17.013  0.0788 -0.5712 -0.6877
  504TMC3    C5 7490   1.514   0.105  17.095  0.2636 -0.1569  0.7275
  504TMC3    C6 7491   1.432   0.064  17.202  0.2223 -0.0984  0.2012
  504TMC3     C 7492   1.294   0.330  16.921 -0.2862  0.3630  0.2896
  504TMC3     O 7493   1.352   0.301  16.817  0.1524 -0.1618  0.0395
  504TMC3     H 7494   1.191   0.300  17.162 -1.4514 -2.8948 -0.1230
  504TMC3    H1 7495   1.538   0.255  16.935  0.2623 -1.4784 -1.0459
  504TMC3    H2 7496   1.474   4.704  17.260 -1.0821 -1.5569 -0.8623
  504TMC3    C7 7497   1.639   0.029  17.054 -0.2849  0.0989  0.5189
  504TMC3    C8 7498   1.225   0.128  17.338  0.5165  0.1047  0.6509
  504TMC3    O1 7499   1.690   4.678  17.140  0.2128 -0.5530 -0.3694
  504TMC3    O2 7500   1.152   0.220  17.370 -0.5238  0.1895  0.0170
  505MPD2     C 7501   0.979   2.702  10.251  0.0869 -0.7573  0.1132
  505MPD2    C1 7502   1.095   2.696  10.180 -0.2150 -0.3248  0.2071
  505MPD2    C2 7503   1.203   2.768  10.227 -0.3293 -0.7868 -0.4118
  505MPD2    C3 7504   1.194   2.850  10.337 -0.6849  0.2602 -0.2570
  505MPD2    C4 7505   1.072   2.866  10.404 -0.7045  0.0720 -0.1920
  505MPD2    C5 7506   0.961   2.791  10.355 -0.1494 -0.4434  0.5056
  505MPD2     H 7507   1.294   2.771  10.169 -1.6138  0.4123 -2.3692
  505MPD2    H1 7508   1.058   2.921  10.496  0.3672 -0.0875  0.0679
  505MPD2    H2 7509   0.905   2.626  10.226  0.3794 -0.2890 -2.2149
  505MPD2    H3 7510   0.864   2.802  10.403 -1.0524  0.2132 -1.4505
  505MPD2     N 7511   1.306   2.911  10.408 -0.0278 -0.1065  0.4973
  505MPD2    H5 7512   1.289   2.967  10.491 -1.0085 -0.9940  0.8994
  505MPD2    N1 7513   1.102   2.607  10.074 -0.3399 -0.3645  0.4669
  505MPD2    H7 7514   1.014   2.569  10.039  0.4783 -2.1354  0.3346
  506TMC3    C1 7515   1.213   2.545   9.875  0.6906 -0.0549  0.4055
  506TMC3    C2 7516   1.131   2.632   9.808 -0.2902  0.0261  0.0793
  506TMC3    C3 7517   1.167   2.700   9.697  0.4104 -0.3494  0.0119
  506TMC3    C4 7518   1.335   2.527   9.823 -0.2649  0.2207 -0.2645
  506TMC3    C5 7519   1.371   2.593   9.714  0.0204 -0.7638 -1.1034
  506TMC3    C6 7520   1.293   2.680   9.645 -0.1829 -0.4940  1.0125
  506TMC3     C 7521   1.220   2.567  10.018  0.4019 -0.2678  0.3514
  506TMC3     O 7522   1.336   2.576  10.060 -0.0244  0.1741 -0.7562
  506TMC3     H 7523   1.041   2.679   9.847 -0.9994  0.5833 -2.2239
  506TMC3    H1 7524   1.399   2.448   9.860  0.6889  0.3760 -1.6129
  506TMC3    H2 7525   1.337   2.734   9.562  1.1717 -1.7809  0.8941
  506TMC3    C7 7526   1.510   2.634   9.716 -0.4566 -0.6441  0.3395
  506TMC3    C8 7527   1.090   2.812   9.636 -0.1566  0.4933 -0.3327
  506TMC3    O1 7528   1.561   2.670   9.612 -0.4117 -0.4318 -0.0569
  506TMC3    O2 7529   0.969   2.799   9.633 -0.2138 -0.3631  0.3436
  507TMC3    C1 7530   2.003   0.200  14.593  0.9049 -0.8019  0.5714
  507TMC3    C2 7531   1.954   0.091  14.529  0.5515 -0.2321  0.2467
  507TMC3    C3 7532   2.010   0.056  14.405 -0.0878 -0.3920 -0.0253
  507TMC3    C4 7533   2.112   0.276  14.547  0.0243  0.3385 -0.2355
  507TMC3    C5 7534   2.141   0.257  14.418 -0.0462  0.5571  0.2739
  507TMC3    C6 7535   2.099   0.144  14.350 -0.2736 -0.1465  0.0399
  507TMC3     C 7536   1.933   0.258  14.707 -0.0505 -0.4307 -0.2941
  507TMC3     O 7537   1.976   0.343  14.783 -0.3991  0.1658 -0.1856
  507TMC3     H 7538   1.875   0.030  14.571  0.5874 -0.1863  0.3790
  507TMC3    H1 7539   2.143   0.357  14.612 -2.3783  1.3179 -0.3151
  507TMC3    H2 7540   2.129   0.123  14.247 -1.5123  0.0577 -0.3599
  507TMC3    C7 7541   2.149   0.372  14.328  0.1258 -0.2736  0.4684
  507TMC3    C8 7542   1.905   0.026  14.316  0.1297 -0.2433  0.3194
  507TMC3    O1 7543   2.130   0.349  14.211 -0.7977  0.0463  0.0795
  507TMC3    O2 7544   1.848   4.636  14.316 -0.1500  0.1392 -0.0207
  508MPD2     C 7545   2.413   2.594  16.371  0.2559  0.9798 -0.1356
  508MPD2    C1 7546   2.541   2.638  16.359  0.2285 -0.0860 -0.7346
  508MPD2    C2 7547   2.569   2.680  16.230 -0.0754  0.2379 -0.0172
  508MPD2    C3 7548   2.469   2.694  16.135 -0.4214 -0.6504  0.7617
  508MPD2    C4 7549   2.341   2.664  16.164 -0.2262  0.0320  0.6318
  508MPD2    C5 7550   2.313   2.606  16.278  0.0366 -0.4658 -0.1893
  508MPD2     H 7551   2.672   2.696  16.201 -0.9203  1.6920 -2.1993
  508MPD2    H1 7552   2.247   2.681  16.113 -0.2581  0.7549  0.9256
  508MPD2    H2 7553   2.385   2.541  16.461 -0.8347 -1.1415 -1.7337
  508MPD2    H3 7554   2.213   2.591  16.315  0.2972 -1.9635 -0.0909
  508MPD2     N 7555   2.500   2.748  16.007 -0.9857 -0.0280  0.0774
  508MPD2    H5 7556   2.593   2.787  16.000 -0.9384 -0.1256  0.1632
  508MPD2    N1 7557   2.631   2.594  16.468 -0.4795 -0.7304 -0.4146
  508MPD2    H7 7558   2.590   2.553  16.551  2.9862  0.3693  1.8818
  509TMC3    C1 7559   2.441   2.920  15.572 -0.1693  0.8399 -0.8240
  509TMC3    C2 7560   2.579   2.940  15.562  0.3051  0.5379  0.3103
  509TMC3    C3 7561   2.655   2.876  15.659 -0.9566 -0.1239  0.3038
  509TMC3    C4 7562   2.386   2.850  15.677 -0.9249 -0.6390 -0.1930
  509TMC3    C5 7563   2.469   2.799  15.771  0.1692  0.1018  0.0438
  509TMC3    C6 7564   2.603   2.806  15.764 -0.0625  0.7723  0.0736
  509TMC3     C 7565   2.347   2.977  15.489 -0.1510 -0.0514  0.1229
  509TMC3     O 7566   2.245   2.914  15.469 -0.4242 -0.1853 -0.3391
  509TMC3     H 7567   2.632   2.997  15.486  1.3383 -1.0855 -0.1966
  509TMC3    H1 7568   2.280   2.830  15.683 -0.9232 -0.2977  0.9227
  509TMC3    H2 7569   2.666   2.757  15.838 -0.9666  0.1517  0.4282
  509TMC3    C7 7570   2.411   2.747  15.896 -0.2688  0.2458 -0.4889
  509TMC3    C8 7571   2.785   2.917  15.692  0.6148  0.3251  0.0178
  509TMC3    O1 7572   2.304   2.692  15.884 -0.5068  0.2239 -0.6434
  509TMC3    O2 7573   2.861   2.837  15.739  0.2337 -0.8671  0.0776
  510MPD2     C 7574   0.576   4.322  14.171  0.5106 -0.1849 -0.2891
  510MPD2    C1 7575   0.640   4.276  14.285 -0.4944 -0.9129 -0.6984
  510MPD2    C2 7576   0.772   4.239  14.266 -0.1161  0.2847 -0.3849
  510MPD2    C3 7577   0.839   4.255  14.140 -0.0738 -0.7682 -0.8065
  510MPD2    C4 7578   0.762   4.301  14.035  0.5180  0.1084 -0.3357
  510MPD2    C5 7579   0.629   4.338  14.049  0.6332  0.3089 -0.3480
  510MPD2     H 7580   0.827   4.203  14.353  0.7953  4.4928  0.7757
  510MPD2    H1 7581   0.807   4.300  13.937 -0.3010 -0.9089 -0.6990
  510MPD2    H2 7582   0.469   4.339  14.181  0.5512  0.8711 -1.6542
  510MPD2    H3 7583   0.577   4.375  13.961  1.6522  1.0061 -0.6639
  510MPD2     N 7584   0.976   4.217  14.118 -0.2158 -0.9594  0.4067
  510MPD2    H5 7585   1.027   4.161  14.186  0.9267 -0.3120  0.0935
  510MPD2    N1 7586   0.567   4.272  14.404 -0.1616 -0.0663  0.5832
  510MPD2    H7 7587   0.472   4.307  14.402  1.1639  3.4063 -0.4046
  511TMC3    C1 7588   0.487   4.195  14.623  0.4854  0.0169 -0.3571
  511TMC3    C2 7589   0.521   4.229  14.750 -0.0979  0.6135  0.4905
  511TMC3    C3 7590   0.463   4.157  14.848  0.3373  0.3142  0.9351
  511TMC3    C4 7591   0.405   4.092  14.598 -0.1639 -0.0697 -0.0602
  511TMC3    C5 7592   0.362   4.015  14.704 -0.7988 -0.3683 -0.2059
  511TMC3    C6 7593   0.392   4.045  14.834  0.0414 -0.1422 -0.4382
  511TMC3     C 7594   0.602   4.212  14.528  0.6750 -0.3195 -0.1708
  511TMC3     O 7595   0.696   4.136  14.547  0.3291 -0.3287  0.9439
  511TMC3     H 7596   0.584   4.316  14.767 -0.1036  0.7074  0.0288
  511TMC3    H1 7597   0.392   4.063  14.495 -0.1016 -0.6968  0.1056
  511TMC3    H2 7598   0.343   3.992  14.916  0.1387 -0.0244 -0.3027
  511TMC3    C7 7599   0.282   3.902  14.670  0.2092 -0.7921 -0.2165
  511TMC3    C8 7600   0.503   4.203  14.977  0.2264 -0.4967  0.0428
  511TMC3    O1 7601   0.234   3.894  14.556 -0.3883 -0.4672 -0.6104
  511TMC3    O2 7602   0.521   4.322  15.001 -0.3527  0.2515 -0.5942
  512TMC3    C1 7603   4.475   3.769  12.808 -0.5187 -0.2563  0.5125
  512TMC3    C2 7604   4.503   3.694  12.919 -0.2999 -0.5254 -0.4637
  512TMC3    C3 7605   4.518   3.561  12.917  0.3449  0.2293  0.3424
  512TMC3    C4 7606   4.443   3.699  12.695 -0.1519 -1.0412 -0.0203
  512TMC3    C5 7607   4.465   3.563  12.680  0.5922  0.0409  0.2293
  512TMC3    C6 7608   4.502   3.494  12.794 -0.1469 -0.6791 -0.5035
  512TMC3     C 7609   4.447   3.904  12.827 -0.2605 -0.4903  0.6065
  512TMC3     O 7610   4.414   3.938  12.939 -0.0124 -0.0399 -0.1667
  512TMC3     H 7611   4.527   3.736  13.016  1.0072 -0.5885 -0.7576
  512TMC3    H1 7612   4.414   3.756  12.607 -0.7036  1.4702  1.8004
  512TMC3    H2 7613   4.518   3.387  12.783  0.4489 -0.7873  1.4176
  512TMC3    C7 7614   4.437   3.498  12.556 -0.2504 -0.2403 -0.4237
  512TMC3    C8 7615   4.512   3.472  13.034 -0.0135 -0.3276  0.6638
  512TMC3    O1 7616   4.447   3.575  12.460  0.7404  0.2201  0.1209
  512TMC3    O2 7617   4.495   3.354  13.009 -0.5519 -0.8337  0.0713
  513MPD2     C 7618   1.805   3.614  13.182  0.2138 -0.4083  0.2306
  513MPD2    C1 7619   1.742   3.527  13.097 -0.6242 -0.0368 -0.2479
  513MPD2    C2 7620   1.798   3.403  13.064 -0.0418 -0.3984 -0.2076
  513MPD2    C3 7621   1.913   3.359  13.120 -0.7240  0.0353  0.1396
  513MPD2    C4 7622   1.971   3.440  13.219  0.5186 -1.0645 -0.1674
  513MPD2    C5 7623   1.920   3.566  13.241 -0.3393 -0.7870  0.8505
  513MPD2     H 7624   1.751   3.332  12.997 -0.8823 -0.4717  0.4570
  513MPD2    H1 7625   2.060   3.401  13.266 -0.2149 -1.7819  0.6392
  513MPD2    H2 7626   1.762   3.709  13.208 -1.2101 -1.2395  0.9080
  513MPD2    H3 7627   1.955   3.622  13.327  0.0730  0.0362  0.1448
  513MPD2     N 7628   1.965   3.244  13.065  0.2297 -0.3039 -0.2386
  513MPD2    H5 7629   1.912   3.195  12.994  0.9261  0.6874 -1.4448
  513MPD2    N1 7630   1.632   3.580  13.035 -0.2545 -0.4471 -0.2716
  513MPD2    H7 7631   1.602   3.673  13.065  0.7884 -0.7708  1.7207
  514TMC3    C1 7632   1.433   3.588  12.913  0.0262 -0.7161 -0.1120
  514TMC3    C2 7633   1.474   3.703  12.848  0.2904  0.1184  0.6329
  514TMC3    C3 7634   1.443   3.709  12.718 -0.8406 -0.4982  0.2018
  514TMC3    C4 7635   1.348   3.500  12.853  0.3003 -0.0845  0.0662
  514TMC3    C5 7636   1.313   3.524  12.724  0.5245 -0.6595  0.3294
  514TMC3    C6 7637   1.359   3.628  12.655  0.3904  0.4306  0.3376
  514TMC3     C 7638   1.543   3.509  12.960  0.1230  0.0184 -0.3634
  514TMC3     O 7639   1.547   3.391  12.926  0.1789 -0.2566  0.1697
  514TMC3     H 7640   1.549   3.769  12.892  1.3647  0.4882 -1.7340
  514TMC3    H1 7641   1.323   3.414  12.915  1.4397 -1.1607 -0.9603
  514TMC3    H2 7642   1.320   3.636  12.554 -0.4463 -0.8611  0.5517
  514TMC3    C7 7643   1.328   3.405  12.633 -0.4877  1.0818 -0.9389
  514TMC3    C8 7644   1.474   3.837  12.642 -0.3954 -0.0701 -0.3935
  514TMC3    O1 7645   1.279   3.399  12.525  0.1722 -0.2858  0.2767
  514TMC3    O2 7646   1.515   3.929  12.711  0.4571 -0.1861  0.3072
  515MPD2     C 7647   4.341   0.498  15.102 -0.0999 -0.6334 -0.0638
  515MPD2    C1 7648   4.360   0.503  14.967 -0.3780 -0.6379 -0.1007
  515MPD2    C2 7649   4.409   0.625  14.908  0.0193  0.5216  0.6399
  515MPD2    C3 7650   4.444   0.737  14.980 -0.1670  0.4418  0.1278
  515MPD2    C4 7651   4.434   0.720  15.115 -0.7979 -0.6647  0.7771
  515MPD2    C5 7652   4.396   0.603  15.174 -0.3710 -0.4224  0.5295
  515MPD2     H 7653   4.428   0.611  14.802  1.7325  3.1137  0.6070
  515MPD2    H1 7654   4.471   0.804  15.173 -0.9077 -1.5813  2.1710
  515MPD2    H2 7655   4.319   0.403  15.150 -1.4207  0.0825  0.7427
  515MPD2    H3 7656   4.399   0.593  15.281 -1.5417  0.8821  0.6901
  515MPD2     N 7657   4.512   0.845  14.922  0.0575  0.2197 -0.2857
  515MPD2    H5 7658   4.558   0.904  14.991 -1.4178 -0.9038  1.6933
  515MPD2    N1 7659   4.326   0.407  14.870 -0.6766 -0.1714  0.0313
  515MPD2    H7 7660   4.318   0.443  14.776  0.3420 -2.2634 -0.8732
  516TMC3    C1 7661   4.265   0.208  14.779  0.4587  0.3884  0.5274
  516TMC3    C2 7662   4.183   0.275  14.692 -0.2031 -0.3366 -0.2549
  516TMC3    C3 7663   4.123   0.203  14.596  0.4178 -0.1405  0.4894
  516TMC3    C4 7664   4.289   0.077  14.765  0.1840 -0.4016  0.2071
  516TMC3    C5 7665   4.228   0.008  14.664  0.2268 -0.8167  0.6016
  516TMC3    C6 7666   4.154   0.071  14.575 -0.3746  0.5300  0.0819
  516TMC3     C 7667   4.308   0.277  14.903  0.4544 -0.0534 -0.3459
  516TMC3     O 7668   4.359   0.217  14.997 -0.4215  0.2857  0.7804
  516TMC3     H 7669   4.135   0.368  14.718 -0.9199 -0.8193  0.1679
  516TMC3    H1 7670   4.353   0.032  14.840 -0.9662 -0.2554  1.2864
  516TMC3    H2 7671   4.107   0.023  14.490  0.9818 -1.6618  0.5661
  516TMC3    C7 7672   4.226   4.585  14.684  0.8791  0.6818  0.5332
  516TMC3    C8 7673   4.056   0.270  14.490 -0.1168  0.4110 -0.3927
  516TMC3    O1 7674   4.260   4.541  14.788 -0.4398 -0.2196 -0.0937
  516TMC3    O2 7675   3.976   0.202  14.427  0.1579  0.0769  0.0894
  517MPD2     C 7676   3.254   1.011  17.134  0.0297 -0.1314 -0.7560
  517MPD2    C1 7677   3.377   0.942  17.148  0.2890  0.1049 -0.0187
  517MPD2    C2 7678   3.485   1.013  17.199 -0.1457 -0.1393  0.8179
  517MPD2    C3 7679   3.479   1.150  17.231  0.2697 -0.7720  0.8143
  517MPD2    C4 7680   3.355   1.213  17.212  0.1484  0.3647 -0.8053
  517MPD2    C5 7681   3.253   1.144  17.167  0.1494 -0.7796  0.6196
  517MPD2     H 7682   3.572   0.954  17.225 -0.0868  0.0656  1.0901
  517MPD2    H1 7683   3.344   1.319  17.235 -0.3252  0.2601 -0.5590
  517MPD2    H2 7684   3.166   0.962  17.094 -0.8653  0.9932 -0.1244
  517MPD2    H3 7685   3.160   1.200  17.161 -1.0219 -2.7759  0.0060
  517MPD2     N 7686   3.586   1.231  17.283  0.2141 -0.4008 -0.2646
  517MPD2    H5 7687   3.553   1.323  17.313  0.5749 -1.1166  2.3229
  517MPD2    N1 7688   3.383   0.798  17.137 -0.2417 -0.4396  0.1552
  517MPD2    H7 7689   3.471   0.753  17.157  0.3544 -0.4011 -2.4282
  518TMC3    C1 7690   3.319   0.578  17.108 -0.1596 -0.5192  0.4972
  518TMC3    C2 7691   3.422   0.547  17.021 -0.1235 -0.4133  0.0034
  518TMC3    C3 7692   3.524   0.473  17.072 -0.5643 -0.1286  0.5242
  518TMC3    C4 7693   3.315   0.524  17.232 -0.7731 -0.2256 -0.3190
  518TMC3    C5 7694   3.420   0.452  17.282 -0.0410  0.3592  0.5656
  518TMC3    C6 7695   3.525   0.425  17.202 -0.0821  0.5367  1.1898
  518TMC3     C 7696   3.281   0.720  17.109  0.7006  0.0952 -0.2554
  518TMC3     O 7697   3.163   0.737  17.120  0.0576 -0.6134  0.3509
  518TMC3     H 7698   3.430   0.597  16.925  2.4331  1.2483  1.0872
  518TMC3    H1 7699   3.236   0.556  17.299 -1.8179  0.4631 -1.8722
  518TMC3    H2 7700   3.595   0.348  17.232 -2.3052 -1.9329 -0.0247
  518TMC3    C7 7701   3.455   0.471  17.420 -0.0774 -0.2627 -0.1918
  518TMC3    C8 7702   3.641   0.435  16.990  0.2153 -0.0599 -0.3271
  518TMC3    O1 7703   3.370   0.488  17.511 -0.3378 -0.0993 -0.9050
  518TMC3    O2 7704   3.713   0.354  17.043 -0.2436  0.0605  0.1083
  519MPD2     C 7705   1.175   0.777  13.686  0.8136 -0.1972  0.2640
  519MPD2    C1 7706   1.098   0.687  13.753 -0.0230 -0.5397  0.1433
  519MPD2    C2 7707   1.105   0.557  13.721  0.1299  0.4462  0.2641
  519MPD2    C3 7708   1.172   0.509  13.612 -0.1938 -0.3433  0.0039
  519MPD2    C4 7709   1.261   0.596  13.547 -0.4866 -0.1964  0.2965
  519MPD2    C5 7710   1.258   0.728  13.590 -0.7117 -0.1159 -1.1794
  519MPD2     H 7711   1.031   0.493  13.767 -0.9504 -0.8848 -3.3346
  519MPD2    H1 7712   1.315   0.564  13.460  0.3833  0.4588  0.5925
  519MPD2    H2 7713   1.166   0.884  13.701 -0.2328 -0.3821  0.9565
  519MPD2    H3 7714   1.317   0.798  13.532  1.0580  1.3390  2.3131
  519MPD2     N 7715   1.163   0.372  13.569 -0.1057 -0.0499  0.4788
  519MPD2    H5 7716   1.233   0.347  13.499  0.9802  0.7208  1.2955
  519MPD2    N1 7717   1.004   0.736  13.841  0.2331  0.1103  0.5429
  519MPD2    H7 7718   0.997   0.837  13.845  3.6698  0.3313  0.4693
  520TMC3    C1 7719   1.088   0.144  13.548 -0.3998 -0.2328 -0.4961
  520TMC3    C2 7720   0.968   0.069  13.542 -0.7880 -0.2596 -0.5769
  520TMC3    C3 7721   0.975   4.658  13.570  0.9570  0.4173 -0.7464
  520TMC3    C4 7722   1.211   0.083  13.567 -0.2707  0.5399 -0.1157
  520TMC3    C5 7723   1.214   4.667  13.585 -0.2207 -0.1956  0.0689
  520TMC3    C6 7724   1.098   4.596  13.587 -0.5239 -0.4128  0.7161
  520TMC3     C 7725   1.076   0.274  13.618 -0.0309 -0.5786  0.7181
  520TMC3     O 7726   0.985   0.283  13.698  0.4999  0.2694 -0.1010
  520TMC3     H 7727   0.872   0.116  13.523  0.3593  1.3542 -2.4340
  520TMC3    H1 7728   1.292   0.152  13.588 -2.0017  2.0219  1.5845
  520TMC3    H2 7729   1.112   4.493  13.617 -0.9839  0.0071  2.3671
  520TMC3    C7 7730   1.315   4.608  13.669  0.8391  0.4212  0.5379
  520TMC3    C8 7731   0.862   4.570  13.580  0.2337 -0.1366  0.1157
  520TMC3    O1 7732   1.281   4.534  13.758 -0.2367  0.0861  0.7443
  520TMC3    O2 7733   0.883   4.451  13.576 -0.3945 -0.2425  0.3177
  521MPD2     C 7734   1.600   3.011   0.130 -0.0267 -0.4798 -0.4949
  521MPD2    C1 7735   1.570   2.951   0.010 -0.4273 -0.2846 -0.7354
  521MPD2    C2 7736   1.669   2.908  17.603  0.9185  0.4664  0.2119
  521MPD2    C3 7737   1.801   2.924  17.638 -0.1973  0.4766  0.0683
  521MPD2    C4 7738   1.836   2.983   0.075 -0.3917 -0.0153  0.5726
  521MPD2    C5 7739   1.735   3.024   0.161 -0.1779 -1.1188  0.2427
  521MPD2     H 7740   1.649   2.840  17.520 -1.9308  1.3323  0.2011
  521MPD2    H1 7741   1.938   3.002   0.107 -0.0371  0.9169 -1.0775
  521MPD2    H2 7742   1.518   3.045   0.193  1.3971  0.9776  0.5580
  521MPD2    H3 7743   1.767   3.069   0.254 -0.6059 -1.9385  0.7912
  521MPD2     N 7744   1.902   2.869  17.556 -0.7478 -0.7937  0.1219
  521MPD2    H5 7745   1.878   2.845  17.461 -0.8457 -0.4757  0.0665
  521MPD2    N1 7746   1.436   2.922  17.675 -0.0563  0.2195 -0.1845
  521MPD2    H7 7747   1.371   2.953   0.060  0.8213  0.9960  0.2776
  522TMC3    C1 7748   2.115   2.812  17.468  0.2036  0.5624  0.6032
  522TMC3    C2 7749   2.231   2.742  17.489 -0.2541 -0.2237  0.5190
  522TMC3    C3 7750   2.303   2.710  17.380 -0.2861 -0.8502  0.0000
  522TMC3    C4 7751   2.077   2.869  17.352  0.0681 -0.8654 -0.1867
  522TMC3    C5 7752   2.159   2.840  17.247 -0.3137 -0.3330 -0.1998
  522TMC3    C6 7753   2.276   2.760  17.261  0.1746  0.4037 -0.6609
  522TMC3     C 7754   2.035   2.834  17.589  0.4437 -0.1849  0.0185
  522TMC3     O 7755   2.097   2.836   0.007 -0.1254 -0.1682  0.0648
  522TMC3     H 7756   2.253   2.710  17.590 -0.5566  0.4829  0.8145
  522TMC3    H1 7757   2.000   2.945  17.350 -1.2228 -2.1754 -1.2263
  522TMC3    H2 7758   2.330   2.719  17.176  2.9472  2.3080  0.1883
  522TMC3    C7 7759   2.133   2.873  17.109  0.3765  0.9056  0.5359
  522TMC3    C8 7760   2.409   2.610  17.399 -0.1566 -0.2729  0.1178
  522TMC3    O1 7761   2.190   2.818  17.017 -0.1054 -0.2883  0.4365
  522TMC3    O2 7762   2.403   2.541  17.496  0.0948 -0.1891 -0.4963
  523MPD2     C 7763   4.695   2.906   9.891  0.6729  0.3453  0.2719
  523MPD2    C1 7764   4.635   2.853   9.781 -0.3877  0.2894  0.0955
  523MPD2    C2 7765   4.522   2.905   9.722  0.7979  0.0733 -0.2933
  523MPD2    C3 7766   4.463   3.011   9.775 -0.2179  0.0096 -0.4496
  523MPD2    C4 7767   4.514   3.065   9.887  0.3300  0.5081 -0.1994
  523MPD2    C5 7768   4.631   3.015   9.942  1.0612 -0.7166  0.4465
  523MPD2     H 7769   4.484   2.851   9.636  2.2933 -2.4864  0.6587
  523MPD2    H1 7770   4.456   3.148   9.926  1.9356  1.4479  0.1997
  523MPD2    H2 7771   0.058   2.862   9.944  0.1243 -2.0743 -0.8783
  523MPD2    H3 7772   4.658   3.058  10.038 -1.8332 -1.2885  1.5092
  523MPD2     N 7773   4.365   3.086   9.718  0.6040 -0.0158  0.3450
  523MPD2    H5 7774   4.348   3.175   9.762  1.7254 -0.3777  1.4869
  523MPD2    N1 7775   4.694   2.732   9.734 -0.1338  0.2443 -0.3730
  523MPD2    H7 7776   0.044   2.696   9.797  1.1606  0.8962 -1.4718
  524TMC3    C1 7777   4.200   3.177   9.586  0.3083 -0.1013 -0.4143
  524TMC3    C2 7778   4.163   3.192   9.455 -0.5355 -0.4686 -0.3911
  524TMC3    C3 7779   4.085   3.301   9.424 -0.0897  0.0185  0.5672
  524TMC3    C4 7780   4.179   3.273   9.684 -0.3236 -0.3596 -0.5352
  524TMC3    C5 7781   4.121   3.388   9.645 -0.2604 -0.5715 -0.3064
  524TMC3    C6 7782   4.067   3.398   9.518  1.0437 -0.2900  0.2853
  524TMC3     C 7783   4.291   3.067   9.607  0.0622  0.1655  0.5041
  524TMC3     O 7784   4.301   2.978   9.526  0.4754  0.2914 -0.6603
  524TMC3     H 7785   4.164   3.106   9.389  0.3896  0.9137 -2.1708
  524TMC3    H1 7786   4.198   3.253   9.789 -0.4101  1.3913 -0.1959
  524TMC3    H2 7787   3.996   3.477   9.496  0.6444 -1.1547 -1.5403
  524TMC3    C7 7788   4.077   3.486   9.746 -0.7944  0.5494 -0.6469
  524TMC3    C8 7789   4.003   3.300   9.304  0.5138  0.0949 -0.4545
  524TMC3    O1 7790   4.109   3.465   9.861  0.1015  0.5748 -0.1951
  524TMC3    O2 7791   3.912   3.383   9.295  0.2172 -0.2438  0.6245
  525MPD2     C 7792   2.167   4.506  14.250  1.0214 -0.0176 -0.1867
  525MPD2    C1 7793   2.284   4.517  14.325  0.3703 -0.7484 -0.1098
  525MPD2    C2 7794   2.386   4.592  14.274  0.5286 -0.6447 -0.6125
  525MPD2    C3 7795   2.368   4.667  14.166 -0.2061  0.1575  0.5723
  525MPD2    C4 7796   2.254   4.656  14.084 -0.5494 -0.5542 -0.5805
  525MPD2    C5 7797   2.157   4.566  14.127 -0.7085  0.5439 -0.3127
  525MPD2     H 7798   2.476   4.598  14.335  0.1152  0.9944 -0.1474
  525MPD2    H1 7799   2.233   4.717  13.998  1.7065  0.1954 -0.6110
  525MPD2    H2 7800   2.083   4.447  14.285  1.1358 -0.7218 -1.1007
  525MPD2    H3 7801   2.065   4.559  14.070  0.1242 -0.6387 -1.5230
  525MPD2     N 7802   2.457   0.050  14.144 -0.1990  0.4856 -0.1424
  525MPD2    H5 7803   2.421   0.111  14.072 -0.7634  0.6227  0.2568
  525MPD2    N1 7804   2.318   4.442  14.439  0.2512  0.2902 -0.2962
  525MPD2    H7 7805   2.418   4.431  14.457  0.6243  2.5728 -0.9765
  526TMC3    C1 7806   2.276   4.304  14.619 -0.1346 -0.0283  0.5896
  526TMC3    C2 7807   2.206   4.291  14.735 -0.2298 -0.2311 -0.1667
  526TMC3    C3 7808   2.255   4.202  14.830  0.3914 -0.3191  0.2194
  526TMC3    C4 7809   2.392   4.242  14.596  0.4152  0.7856 -0.2756
  526TMC3    C5 7810   2.440   4.163  14.697 -0.0621  0.0708  0.6247
  526TMC3    C6 7811   2.377   4.146  14.816  0.7818 -0.3306 -0.0775
  526TMC3     C 7812   2.221   4.381  14.519  1.3356  0.2095  0.3726
  526TMC3     O 7813   2.102   4.409  14.527  0.0221  0.2792  0.1801
  526TMC3     H 7814   2.121   4.356  14.751  1.3701  1.4639  1.4506
  526TMC3    H1 7815   2.441   4.244  14.499 -0.3296 -0.6887 -0.6745
  526TMC3    H2 7816   2.428   4.114  14.906 -0.2207  1.2507  1.0296
  526TMC3    C7 7817   2.569   4.103  14.678  0.7379 -0.4200  0.2458
  526TMC3    C8 7818   2.197   4.206  14.963  0.2251 -0.0052 -0.2375
  526TMC3    O1 7819   2.641   4.087  14.777 -0.6849  0.0794  0.2997
  526TMC3    O2 7820   2.265   4.208  15.064 -0.2627  0.2990  0.1729
  527MPD2     C 7821   4.255   2.136   0.504  0.0439  0.2711  0.1644
  527MPD2    C1 7822   4.264   2.198   0.622  0.4374  0.4412  0.6456
  527MPD2    C2 7823   4.387   2.209   0.675  0.5430  0.7515 -0.1016
  527MPD2    C3 7824   4.503   2.172   0.609 -0.3087 -0.2195 -0.2985
  527MPD2    C4 7825   4.483   2.108   0.494  0.1064 -0.0776  0.1874
  527MPD2    C5 7826   4.365   2.091   0.438  0.7564 -0.6609  0.1074
  527MPD2     H 7827   4.399   2.245   0.777 -3.0253 -2.7579  1.5224
  527MPD2    H1 7828   4.568   2.062   0.446 -0.2353  0.2345 -0.7301
  527MPD2    H2 7829   4.163   2.104   0.457  1.1212 -3.1988  0.3743
  527MPD2    H3 7830   4.358   2.035   0.345  0.0862  1.4416 -1.1130
  527MPD2     N 7831   4.620   2.183   0.682 -0.1924  0.1635  0.2971
  527MPD2    H5 7832   4.619   2.221   0.776  3.9321 -0.0581  0.4427
  527MPD2    N1 7833   4.151   2.251   0.683  0.0576  0.3088  0.1820
  527MPD2    H7 7834   4.166   2.279   0.780 -1.0942 -2.2065  1.0837
  528TMC3    C1 7835   3.936   2.334   0.739 -0.6686  0.7314  0.9529
  528TMC3    C2 7836   3.992   2.410   0.837  0.2145  0.6022 -0.2756
  528TMC3    C3 7837   3.917   2.433   0.949 -1.1294 -0.3285 -0.4278
  528TMC3    C4 7838   3.809   2.295   0.738 -0.8378 -0.0771 -0.5599
  528TMC3    C5 7839   3.734   2.339   0.847  0.1625 -0.3077 -0.4722
  528TMC3    C6 7840   3.785   2.409   0.954 -0.4949  0.4469 -0.4751
  528TMC3     C 7841   4.029   2.280   0.632  0.1755 -0.1963  0.0516
  528TMC3     O 7842   3.992   2.266   0.518 -0.2100  0.7685  0.0581
  528TMC3     H 7843   4.097   2.436   0.845  1.0910 -2.2886 -2.2179
  528TMC3    H1 7844   3.753   2.241   0.662  0.5611  1.7991 -2.9170
  528TMC3    H2 7845   3.723   2.458   1.028  1.1641  1.0405  0.5289
  528TMC3    C7 7846   3.593   2.298   0.860 -0.8126  0.3977  0.4461
  528TMC3    C8 7847   3.977   2.514   1.051 -0.1156 -0.4972  0.3878
  528TMC3    O1 7848   3.544   2.273   0.753  0.4775 -0.0751 -0.0124
  528TMC3    O2 7849   4.073   2.587   1.013 -0.1681 -0.4636  0.0984
  529MPD2     C 7850   2.314   1.017   0.936 -0.2971 -0.4461  0.6539
  529MPD2    C1 7851   2.328   0.919   0.838 -0.1967 -0.5028 -0.6744
  529MPD2    C2 7852   2.308   0.951   0.707 -0.8615 -1.1804  0.5641
  529MPD2    C3 7853   2.286   1.084   0.667  0.2151  0.3148  0.1123
  529MPD2    C4 7854   2.273   1.181   0.764  0.1750 -0.0637  0.5762
  529MPD2    C5 7855   2.288   1.141   0.895  0.4104 -0.3441 -0.9212
  529MPD2     H 7856   2.314   0.868   0.638  1.1796  0.1018 -0.7759
  529MPD2    H1 7857   2.247   1.284   0.742  1.4236  0.8236  3.3326
  529MPD2    H2 7858   2.310   0.994   1.042 -0.3609 -0.0956  0.7274
  529MPD2    H3 7859   2.278   1.212   0.976  0.2179  3.1020 -3.9447
  529MPD2     N 7860   2.279   1.116   0.526  0.6649  0.2859  0.3171
  529MPD2    H5 7861   2.253   1.213   0.516  0.6667  0.3966  1.3773
  529MPD2    N1 7862   2.319   0.780   0.859  0.2620 -0.0795  0.2453
  529MPD2    H7 7863   2.318   0.723   0.775 -1.2487 -0.1265  0.2900
  530TMC3    C1 7864   2.342   0.563   0.957 -0.8797 -0.4521  0.8365
  530TMC3    C2 7865   2.435   0.494   1.028 -0.0291 -0.2325  0.5062
  530TMC3    C3 7866   2.402   0.360   1.041 -0.6143  0.0594  1.0383
  530TMC3    C4 7867   2.237   0.500   0.886  0.3504  0.9436  0.0364
  530TMC3    C5 7868   2.202   0.367   0.913 -0.2033  0.5180  0.1616
  530TMC3    C6 7869   2.292   0.301   0.985  0.5425  0.6249  0.2167
  530TMC3     C 7870   2.327   0.706   0.979  0.4289 -0.0082 -0.1358
  530TMC3     O 7871   2.359   0.752   1.087  0.0017 -0.0554 -0.3547
  530TMC3     H 7872   2.514   0.553   1.072 -0.9852  1.0691  0.4895
  530TMC3    H1 7873   2.164   0.557   0.829 -0.5906 -1.5027 -1.2313
  530TMC3    H2 7874   2.281   0.193   0.991 -1.1015  0.8106  0.4022
  530TMC3    C7 7875   2.121   0.302   0.805 -0.4974 -0.0211 -1.1448
  530TMC3    C8 7876   2.531   0.286   1.050 -0.9835  0.5388  0.3050
  530TMC3    O1 7877   2.119   0.359   0.695  0.3202 -0.3210  0.5214
  530TMC3    O2 7878   2.625   0.356   1.072 -0.2213  0.4677  0.6337
  531MPD2     C 7879   1.555   2.939  12.573  0.1103 -0.8265  0.0415
  531MPD2    C1 7880   1.614   3.009  12.675  0.3702  0.4748 -1.1184
  531MPD2    C2 7881   1.550   3.123  12.725 -0.2897  0.5494 -0.4778
  531MPD2    C3 7882   1.453   3.189  12.648  0.0295 -0.1742 -0.2789
  531MPD2    C4 7883   1.399   3.122  12.543  0.1067 -0.1336 -0.1290
  531MPD2    C5 7884   1.450   2.993  12.512 -0.5693  1.0918 -0.3314
  531MPD2     H 7885   1.593   3.178  12.808 -1.7490  2.0876 -0.7350
  531MPD2    H1 7886   1.316   3.162  12.486  1.4131 -0.2509 -2.1104
  531MPD2    H2 7887   1.572   2.838  12.540  0.4668 -0.3485 -1.2394
  531MPD2    H3 7888   1.396   2.923  12.449 -0.5923  1.6134 -0.8980
  531MPD2     N 7889   1.414   3.318  12.692  0.5009  0.6494 -0.3487
  531MPD2    H5 7890   1.464   3.348  12.775  2.1100  0.3839 -1.2223
  531MPD2    N1 7891   1.735   2.958  12.743  0.2865 -0.7816 -0.3642
  531MPD2    H7 7892   1.770   2.865  12.720 -0.0096 -1.1997  0.8665
  532TMC3    C1 7893   1.929   2.964  12.883  0.9312 -0.3966  0.6486
  532TMC3    C2 7894   2.022   3.060  12.920 -0.7599 -0.1244  0.9205
  532TMC3    C3 7895   2.075   3.052  13.044  0.3701 -0.1500  0.7368
  532TMC3    C4 7896   1.892   2.871  12.972  1.0131 -0.2842  0.6738
  532TMC3    C5 7897   1.957   2.858  13.086 -0.1702  0.1128  0.2573
  532TMC3    C6 7898   2.056   2.945  13.121 -0.0158  0.2281  0.6778
  532TMC3     C 7899   1.820   3.031  12.815 -0.2961 -0.3861 -0.2909
  532TMC3     O 7900   1.816   3.150  12.842 -0.0110 -0.0858  0.0194
  532TMC3     H 7901   2.041   3.149  12.860 -1.9532 -2.2348 -2.5488
  532TMC3    H1 7902   1.821   2.797  12.933 -2.0661  3.5225 -0.9643
  532TMC3    H2 7903   2.097   2.942  13.221  0.0550 -0.9965  0.6112
  532TMC3    C7 7904   1.922   2.757  13.178 -0.0223 -0.1873  0.1167
  532TMC3    C8 7905   2.073   3.178  13.117 -0.4850 -0.8274 -0.1977
  532TMC3    O1 7906   1.994   2.721  13.270  0.2988  0.1148  0.2195
  532TMC3    O2 7907   2.132   3.195  13.225  0.0254 -0.0269 -0.2126
  533TMC3    C1 7908   2.618   0.218  14.199 -0.4279 -0.5292  0.3276
  533TMC3    C2 7909   2.747   0.244  14.220 -0.4607  0.3070 -0.3178
  533TMC3    C3 7910   2.784   0.361  14.288  0.3220 -0.3464 -0.2702
  533TMC3    C4 7911   2.521   0.305  14.238 -1.3108  0.2833 -0.3010
  533TMC3    C5 7912   2.552   0.422  14.303 -0.5628 -0.0285  0.1856
  533TMC3    C6 7913   2.687   0.455  14.315 -0.1546 -0.2027 -0.9661
  533TMC3     C 7914   2.580   0.076  14.203  0.4627 -0.4899  0.0289
  533TMC3     O 7915   2.653   4.716  14.254 -0.6277 -0.2363  0.5551
  533TMC3     H 7916   2.825   0.174  14.193 -0.0755  0.5557  0.1422
  533TMC3    H1 7917   2.419   0.268  14.244 -0.9686 -0.3025  1.8751
  533TMC3    H2 7918   2.721   0.532  14.383  0.3535  0.1687 -1.6337
  533TMC3    C7 7919   2.485   0.428  14.425 -0.0042 -1.0182 -0.0088
  533TMC3    C8 7920   2.920   0.403  14.287 -0.1812 -0.8612  0.2612
  533TMC3    O1 7921   2.430   0.326  14.470  0.6706  0.2277  0.1248
  533TMC3    O2 7922   2.934   0.524  14.285 -0.4513  0.0411  0.2737
  534MPD2     C 7923   0.145   1.365   1.651  0.1982  0.2689 -0.1225
  534MPD2    C1 7924   0.063   1.437   1.561  1.5991  0.6041  0.3956
  534MPD2    C2 7925   0.007   1.360   1.461 -0.6564 -0.3141  0.2345
  534MPD2    C3 7926   0.023   1.224   1.446 -0.0143 -0.2621  0.0486
  534MPD2    C4 7927   0.102   1.158   1.537  0.8170 -1.0157  0.3402
  534MPD2    C5 7928   0.163   1.222   1.637 -0.1310  0.1066  0.2156
  534MPD2     H 7929   4.674   1.415   1.386  2.0188 -2.3339 -3.1959
  534MPD2    H1 7930   0.126   1.053   1.531  3.6854 -0.4632  1.9420
  534MPD2    H2 7931   0.191   1.415   1.735  0.0377 -1.1889  0.8441
  534MPD2    H3 7932   0.216   1.171   1.716  0.2949  1.8741  1.0907
  534MPD2     N 7933   4.678   1.148   1.351  0.2097 -0.0743 -0.3529
  534MPD2    H5 7934   4.707   1.051   1.341  0.5647  0.0056 -0.0788
  534MPD2    N1 7935   0.036   1.577   1.557 -0.2640  0.0807  0.0804
  534MPD2    H7 7936   4.681   1.614   1.501  0.3249  0.3144 -0.5658
  535TMC3    C1 7937   4.532   1.101   1.179 -0.0571  0.3036  0.3070
  535TMC3    C2 7938   4.403   1.092   1.165 -0.1298 -0.1033 -0.1314
  535TMC3    C3 7939   4.363   1.039   1.047  0.1955 -0.0344  0.0460
  535TMC3    C4 7940   4.626   1.075   1.079 -0.0306 -0.5111 -0.8745
  535TMC3    C5 7941   4.578   1.019   0.962 -0.5012 -0.2327 -0.3730
  535TMC3    C6 7942   4.444   1.021   0.939 -0.5824  0.3420  0.3714
  535TMC3     C 7943   4.578   1.198   1.275  0.4573  0.3994 -0.7748
  535TMC3     O 7944   4.508   1.294   1.302  0.0538 -0.1550  0.1454
  535TMC3     H 7945   4.346   1.087   1.258 -1.4516 -0.9527 -0.9848
  535TMC3    H1 7946   0.011   1.096   1.088 -0.7409  2.6459  0.1466
  535TMC3    H2 7947   4.413   0.987   0.842 -2.8893  0.9819  0.8885
  535TMC3    C7 7948   4.653   1.063   0.854  0.1227 -0.4864 -0.6692
  535TMC3    C8 7949   4.221   1.056   1.016 -0.2033 -0.0515 -0.2546
  535TMC3    O1 7950   4.704   0.977   0.779 -0.2631 -0.3549 -0.4217
  535TMC3    O2 7951   4.171   0.985   0.927  0.0488  0.2935  0.1602
  536MPD2     C 7952   4.079   4.281  16.038  0.2850  0.4285  0.1255
  536MPD2    C1 7953   3.957   4.280  16.105 -0.5998 -0.3088  0.1778
  536MPD2    C2 7954   3.854   4.355  16.048 -0.1530 -0.2784  0.4773
  536MPD2    C3 7955   3.867   4.413  15.922 -0.0688 -0.2649  0.5110
  536MPD2    C4 7956   3.990   4.411  15.859  0.0672 -0.2340  0.5875
  536MPD2    C5 7957   4.096   4.346  15.920 -0.5784  0.1461 -0.1692
  536MPD2     H 7958   3.768   4.367  16.113 -1.6026 -0.6514 -1.3944
  536MPD2    H1 7959   4.014   4.459  15.765  1.3646 -1.8550  0.0792
  536MPD2    H2 7960   4.168   4.240  16.084  1.3530  0.5323 -1.8520
  536MPD2    H3 7961   4.194   4.340  15.875  0.0826  0.5753  1.2163
  536MPD2     N 7962   3.764   4.482  15.858  0.7718  0.7233  0.4351
  536MPD2    H5 7963   3.791   4.531  15.774 -2.7058  3.1976  0.7636
  536MPD2    N1 7964   3.965   4.223  16.236  0.3358  0.2911  0.2068
  536MPD2    H7 7965   4.055   4.184  16.262  0.6268  0.3515 -0.7154
  537TMC3    C1 7966   3.875   4.118  16.430 -0.0993 -0.0637 -0.3849
  537TMC3    C2 7967   3.984   4.137  16.505 -0.2250  0.1062  0.5434
  537TMC3    C3 7968   3.988   4.074  16.629 -0.4246  0.4315 -0.1576
  537TMC3    C4 7969   3.768   4.045  16.476  0.2166 -0.4347 -0.1547
  537TMC3    C5 7970   3.776   3.969  16.588  0.1953  0.4789 -0.1117
  537TMC3    C6 7971   3.894   3.984  16.665 -0.8828 -0.5590 -0.0305
  537TMC3     C 7972   3.847   4.198  16.311  0.7230 -0.1624  0.6714
  537TMC3     O 7973   3.728   4.217  16.281  0.3434  0.1210 -0.8083
  537TMC3     H 7974   4.055   4.216  16.481 -1.5860  0.4177 -2.4640
  537TMC3    H1 7975   3.672   4.042  16.426  0.2047  0.0429 -0.1633
  537TMC3    H2 7976   3.922   3.908  16.736 -1.1624  0.2828  0.9715
  537TMC3    C7 7977   3.660   3.887  16.635 -0.6403  1.0151  0.0412
  537TMC3    C8 7978   4.090   4.095  16.723 -0.2598 -0.7362  0.0056
  537TMC3    O1 7979   3.549   3.911  16.595 -0.2871  0.3951 -0.1043
  537TMC3    O2 7980   4.084   4.043  16.830 -0.0639 -0.0390  0.3214
  538TMC3    C1 7981   0.525   2.834  10.689  0.1979 -0.3199  0.3672
  538TMC3    C2 7982   0.560   2.747  10.593  0.2673 -0.1831 -0.2602
  538TMC3    C3 7983   0.512   2.754  10.466 -0.2656  0.6352 -0.4440
  538TMC3    C4 7984   0.428   2.926  10.654  0.8113 -0.0726 -0.7445
  538TMC3    C5 7985   0.365   2.922  10.533  0.8731  0.3764  0.5942
  538TMC3    C6 7986   0.408   2.832  10.439  0.6756 -0.3509 -0.9851
  538TMC3     C 7987   0.534   2.802  10.829  0.0324 -0.6605  0.1849
  538TMC3     O 7988   0.446   2.854  10.895 -0.0596  0.2481  0.0424
  538TMC3     H 7989   0.640   2.676  10.611  0.5842 -0.4259 -2.6319
  538TMC3    H1 7990   0.412   3.009  10.722  1.7948 -0.8119  0.3848
  538TMC3    H2 7991   0.360   2.828  10.342 -0.7484  0.6146 -0.3196
  538TMC3    C7 7992   0.279   3.026  10.494 -0.1447 -0.3719 -0.0784
  538TMC3    C8 7993   0.567   2.668  10.361  0.4935  1.2807 -0.3791
  538TMC3    O1 7994   0.226   3.096  10.579 -0.7492  0.0533 -0.0714
  538TMC3    O2 7995   0.636   2.572  10.396  0.0288  0.3116  0.5317
  539MPD2     C 7996   0.279   2.489  11.350 -0.1347 -0.4859  0.1820
  539MPD2    C1 7997   0.241   2.443  11.226  0.0535 -0.3832 -0.1718
  539MPD2    C2 7998   0.197   2.541  11.128  0.0097  0.3909  0.2075
  539MPD2    C3 7999   0.186   2.674  11.157 -0.2837 -0.7816  0.1916
  539MPD2    C4 8000   0.218   2.713  11.282 -0.4379  0.2306 -0.0981
  539MPD2    C5 8001   0.268   2.626  11.373  0.0632 -0.1825  0.7022
  539MPD2     H 8002   0.172   2.499  11.032  2.7674  0.4943 -0.5750
  539MPD2    H1 8003   0.218   2.819  11.305  1.3423  0.4674 -1.1589
  539MPD2    H2 8004   0.326   2.438  11.433  0.3693  0.7947  0.6778
  539MPD2    H3 8005   0.296   2.663  11.471 -0.0578  1.0349  0.2762
  539MPD2     N 8006   0.153   2.773  11.060 -0.4212 -0.3451  0.6792
  539MPD2    H5 8007   0.145   2.870  11.091  2.1705 -0.2294  0.9540
  539MPD2    N1 8008   0.241   2.306  11.184  0.1191 -0.7885  0.5407
  539MPD2    H7 8009   0.191   2.285  11.098  1.4038  0.6117 -0.5366
  540TMC3    C1 8010   0.107   2.884  10.861  0.0270 -0.0068 -0.0654
  540TMC3    C2 8011   4.713   2.897  10.784 -0.0886  0.4771  0.3346
  540TMC3    C3 8012   4.659   3.017  10.755 -0.3792  0.8930 -0.2806
  540TMC3    C4 8013   0.160   2.996  10.926 -0.5103  0.2240  0.0158
  540TMC3    C5 8014   0.089   3.123  10.908  0.3114  0.2770  0.7823
  540TMC3    C6 8015   4.705   3.130  10.816  0.4074  0.1126 -0.3576
  540TMC3     C 8016   0.119   2.753  10.930 -0.2145 -0.0669  0.0311
  540TMC3     O 8017   0.098   2.650  10.871  0.0171  0.0568 -0.1136
  540TMC3     H 8018   4.657   2.807  10.760 -1.5099  1.5908 -0.5407
  540TMC3    H1 8019   0.244   3.003  10.994 -1.0158 -0.2035  0.6933
  540TMC3    H2 8020   4.648   3.221  10.799  0.4509  0.7657  2.8351
  540TMC3    C7 8021   0.065   3.169  11.046 -0.1801  0.6970  0.1477
  540TMC3    C8 8022   4.583   3.031  10.630  0.2482 -0.3172 -0.1879
  540TMC3    O1 8023   0.077   3.083  11.136  0.3687  0.3951 -0.1336
  540TMC3    O2 8024   4.547   3.140  10.584  0.1859  0.1193  0.0463
  541MPD2     C 8025   3.731   3.539  13.329 -0.0978  0.5641  0.0256
  541MPD2    C1 8026   3.669   3.464  13.229 -0.2027  0.9051  0.3738
  541MPD2    C2 8027   3.690   3.491  13.095  0.1457  0.2941  0.5023
  541MPD2    C3 8028   3.769   3.595  13.053 -0.6415 -0.1475 -0.1697
  541MPD2    C4 8029   3.837   3.670  13.152  0.1794  0.1731  0.0268
  541MPD2    C5 8030   3.813   3.641  13.286  0.0756  0.3230  0.0541
  541MPD2     H 8031   3.631   3.438  13.022 -1.8837  2.2263  0.7275
  541MPD2    H1 8032   3.902   3.757  13.145  0.2699 -0.1219 -2.8047
  541MPD2    H2 8033   3.713   3.529  13.436 -0.5531  2.7067  0.1537
  541MPD2    H3 8034   3.862   3.708  13.355  0.7616  0.1369 -0.2527
  541MPD2     N 8035   3.783   3.641  12.920  0.0909  0.5536  0.3249
  541MPD2    H5 8036   3.835   3.727  12.906  0.5240 -0.0218 -1.6041
  541MPD2    N1 8037   3.570   3.364  13.245 -0.0728 -0.1218  0.5724
  541MPD2    H7 8038   3.542   3.321  13.158  1.4379  1.7513 -0.8184
  542TMC3    C1 8039   3.705   3.687  12.701 -0.1002 -0.5151  0.0288
  542TMC3    C2 8040   3.689   3.623  12.584  0.3157  0.0486 -0.7988
  542TMC3    C3 8041   3.643   3.703  12.484 -0.8863  0.2452 -0.2883
  542TMC3    C4 8042   3.720   3.820  12.719  0.5502 -0.5480  0.0595
  542TMC3    C5 8043   3.697   3.900  12.612  0.1964 -0.4756  0.3697
  542TMC3    C6 8044   3.650   3.841  12.497  0.7676 -0.2647 -0.3713
  542TMC3     C 8045   3.713   3.594  12.814  0.1170  0.2997  0.1733
  542TMC3     O 8046   3.662   3.484  12.810  0.4112  0.3413  0.0858
  542TMC3     H 8047   3.677   3.515  12.587  3.6549 -0.2826  0.6166
  542TMC3    H1 8048   3.733   3.863  12.818  0.1016 -1.5686  0.5535
  542TMC3    H2 8049   3.621   3.905  12.415  0.2464 -1.0057 -0.7603
  542TMC3    C7 8050   3.656   4.037  12.652  0.1388  0.5954 -0.3850
  542TMC3    C8 8051   3.655   3.650  12.349  0.0033 -0.4090 -1.0907
  542TMC3    O1 8052   3.712   4.096  12.744 -0.0793 -0.5765  0.0288
  542TMC3    O2 8053   3.722   3.717  12.266  0.0786 -0.2727 -0.1097
  543TMC3    C1 8054   2.330   4.574  17.251  0.0084  0.2769 -0.8854
  543TMC3    C2 8055   2.361   4.442  17.258 -0.0401  0.1606  0.6081
  543TMC3    C3 8056   2.369   4.374  17.378 -0.3290 -0.3358  1.2284
  543TMC3    C4 8057   2.312   4.644  17.368  0.5066  0.1790 -0.6178
  543TMC3    C5 8058   2.326   4.579  17.487 -0.0222  0.1387  0.2902
  543TMC3    C6 8059   2.361   4.443  17.496  0.4934 -0.8818 -0.6793
  543TMC3     C 8060   2.351   4.633  17.117  0.2945  0.2544  0.0655
  543TMC3     O 8061   2.341   4.556  17.019  0.1159 -0.0128 -0.2700
  543TMC3     H 8062   2.395   4.398  17.166 -0.0682 -0.4829  0.9064
  543TMC3    H1 8063   2.268   0.022  17.359  0.2530  0.0319 -0.9861
  543TMC3    H2 8064   2.364   4.388  17.590  3.4757  2.4692  1.1966
  543TMC3    C7 8065   2.260   4.632  17.605 -0.0286 -0.4746 -0.2179
  543TMC3    C8 8066   2.443   4.251  17.377 -0.2177  0.0737  0.1860
  543TMC3    O1 8067   2.226   4.546  17.684  0.5552 -0.0362  0.1431
  543TMC3    O2 8068   2.499   4.211  17.276 -0.4837 -0.0670 -0.4656
  544MPD2     C 8069   2.585   3.804  17.608  0.2772 -0.0051 -0.0490
  544MPD2    C1 8070   2.633   3.867  17.492  0.4111  0.3395  0.0910
  544MPD2    C2 8071   2.580   3.997  17.457 -0.1120  0.5935 -0.1383
  544MPD2    C3 8072   2.481   4.056  17.525 -0.2596 -0.2548 -0.3258
  544MPD2    C4 8073   2.423   3.988  17.633  0.5738 -0.4085  0.5386
  544MPD2    C5 8074   2.482   3.867  17.675  0.1319  0.3824  0.5280
  544MPD2     H 8075   2.620   4.057  17.377  1.2919 -1.7373 -1.2036
  544MPD2    H1 8076   2.361   4.043   0.018  0.1024  1.1703 -1.0902
  544MPD2    H2 8077   2.606   3.703  17.641 -2.0475 -0.6688 -0.5795
  544MPD2    H3 8078   2.428   3.816   0.067 -1.3380  0.0871 -0.6843
  544MPD2     N 8079   2.429   4.187  17.496 -0.4639 -0.1603  0.0724
  544MPD2    H5 8080   2.359   4.222  17.560 -0.2369 -2.4768  1.5996
  544MPD2    N1 8081   2.720   3.796  17.405 -0.4106 -0.0343 -0.2714
  544MPD2    H7 8082   2.768   3.716  17.445  0.3782  0.2761 -0.6063
  545TMC3    C1 8083   2.846   3.756  17.202  0.3262 -0.2763 -0.4867
  545TMC3    C2 8084   2.899   3.804  17.084  0.0976  0.1532  0.6524
  545TMC3    C3 8085   2.934   3.710  16.992  0.5194  0.3649  0.4531
  545TMC3    C4 8086   2.833   3.620  17.231  0.1961  0.3197 -0.1608
  545TMC3    C5 8087   2.886   3.529  17.132 -0.6875  0.5000  0.0608
  545TMC3    C6 8088   2.927   3.574  17.012  0.4127  0.1331  0.2730
  545TMC3     C 8089   2.763   3.849  17.280  0.2965  0.1909 -0.4237
  545TMC3     O 8090   2.719   3.951  17.221  0.0989  0.0075  0.1818
  545TMC3     H 8091   2.907   3.911  17.064 -0.2799  0.4783  2.2258
  545TMC3    H1 8092   2.789   3.586  17.324  1.8344 -0.5365  0.3009
  545TMC3    H2 8093   2.952   3.502  16.935  0.9729 -0.0365  0.6060
  545TMC3    C7 8094   2.877   3.386  17.161 -0.6960  0.0878 -0.1156
  545TMC3    C8 8095   3.004   3.749  16.874 -0.0523  0.0150 -0.1515
  545TMC3    O1 8096   2.899   3.309  17.071  0.2869 -0.0906 -0.1409
  545TMC3    O2 8097   3.073   3.661  16.825 -0.0760  0.3584  0.4609
  546MPD2     C 8098   3.876   4.250  17.195  0.6991 -0.7925  0.3574
  546MPD2    C1 8099   3.868   4.271  17.055 -0.1451  0.1308 -0.1290
  546MPD2    C2 8100   3.958   4.355  16.992 -0.0973 -0.7628  0.0356
  546MPD2    C3 8101   4.054   4.429  17.068  0.0065  0.7896  0.4776
  546MPD2    C4 8102   4.052   4.402  17.205 -0.0559 -0.0283 -0.7375
  546MPD2    C5 8103   3.966   4.315  17.270  0.4926  0.2315  0.1146
  546MPD2     H 8104   3.964   4.366  16.884 -0.4957 -2.3837 -0.1533
  546MPD2    H1 8105   4.127   4.452  17.266  1.4722 -2.0985 -0.9509
  546MPD2    H2 8106   3.800   4.190  17.242 -0.2850  0.4145  0.3021
  546MPD2    H3 8107   3.980   4.300  17.377 -0.4878 -0.3012  0.1629
  546MPD2     N 8108   4.144   4.521  17.014  0.4009  0.4373 -0.2251
  546MPD2    H5 8109   4.216   4.556  17.077 -1.6848  1.0376  1.8512
  546MPD2    N1 8110   3.769   4.202  16.982 -0.1638  0.2987 -0.0699
  546MPD2    H7 8111   3.707   4.145  17.040  1.1410  0.1260  1.1464
  547TMC3    C1 8112   3.612   4.171  16.814  0.8982 -0.5807  0.9824
  547TMC3    C2 8113   3.572   4.209  16.690  0.4778  0.5361 -0.1773
  547TMC3    C3 8114   3.440   4.209  16.658 -0.6816 -0.8976  0.0128
  547TMC3    C4 8115   3.519   4.143  16.910 -0.0627 -0.9295  0.0587
  547TMC3    C5 8116   3.385   4.128  16.868  0.4479  0.1659 -0.2224
  547TMC3    C6 8117   3.345   4.156  16.743 -0.2656 -0.5187  0.4291
  547TMC3     C 8118   3.742   4.223  16.851 -0.6004  0.7806 -0.4341
  547TMC3     O 8119   3.805   4.282  16.763 -0.1629 -0.1988  0.0082
  547TMC3     H 8120   3.649   4.227  16.615  0.9329  0.6359  0.3176
  547TMC3    H1 8121   3.551   4.136  17.013  0.1903 -2.3952 -0.1251
  547TMC3    H2 8122   3.242   4.141  16.713 -0.4479  0.8342  0.3705
  547TMC3    C7 8123   3.281   4.089  16.966 -0.5311 -0.7987 -0.1318
  547TMC3    C8 8124   3.403   4.268  16.532  0.1882  0.3845  0.2130
  547TMC3    O1 8125   3.177   4.149  16.966 -0.3335 -0.1556 -0.3278
  547TMC3    O2 8126   3.496   4.304  16.459  1.0097 -0.1143 -0.3345
  548MPD2     C 8127   4.031   0.816  12.260 -0.2226  0.1672 -0.9532
  548MPD2    C1 8128   4.069   0.722  12.354 -0.4405  0.1063 -0.2237
  548MPD2    C2 8129   4.184   0.660  12.326  0.3870  1.0762  0.4382
  548MPD2    C3 8130   4.261   0.677  12.214 -0.6247  0.8860  0.6192
  548MPD2    C4 8131   4.206   0.754  12.111 -0.4090  0.3893 -0.8440
  548MPD2    C5 8132   4.098   0.825  12.139  0.0089 -0.8237 -0.1885
  548MPD2     H 8133   4.230   0.613  12.412  2.2256  1.0129 -0.5734
  548MPD2    H1 8134   4.246   0.775  12.012 -1.5138  0.0769 -1.3650
  548MPD2    H2 8135   3.941   0.877  12.260  0.4406  1.1395  0.0220
  548MPD2    H3 8136   4.065   0.892  12.061 -2.2762  0.6442  2.0462
  548MPD2     N 8137   4.388   0.617  12.204 -0.2882  0.1443 -0.3895
  548MPD2    H5 8138   4.425   0.568  12.284  0.7639 -0.2755 -1.1280
  548MPD2    N1 8139   3.993   0.699  12.475 -0.3209  0.2738  0.3252
  548MPD2    H7 8140   3.912   0.758  12.491 -1.1728 -0.6486 -0.5006
  549TMC3    C1 8141   3.886   0.583  12.653 -0.0809  0.4219  0.2438
  549TMC3    C2 8142   3.821   0.699  12.690 -0.0069  0.0520  0.7605
  549TMC3    C3 8143   3.710   0.686  12.771 -0.3562  0.1479 -0.4662
  549TMC3    C4 8144   3.847   0.460  12.697 -0.1358  0.9687 -0.6674
  549TMC3    C5 8145   3.734   0.454  12.773 -0.0759  0.3321  0.8007
  549TMC3    C6 8146   3.664   0.564  12.808  0.1951 -0.2876  0.8056
  549TMC3     C 8147   3.994   0.582  12.547 -0.1292  0.1800  0.0076
  549TMC3     O 8148   4.045   0.473  12.520  0.4682 -0.3753  0.1524
  549TMC3     H 8149   3.851   0.796  12.651  0.1365 -0.7901 -1.2226
  549TMC3    H1 8150   3.905   0.370  12.682  0.0245  0.7055  1.5221
  549TMC3    H2 8151   3.568   0.546  12.854  0.1180 -0.0921  0.7227
  549TMC3    C7 8152   3.700   0.324  12.846  0.2248 -0.1494 -1.0392
  549TMC3    C8 8153   3.605   0.779  12.745 -0.6584 -0.2352  0.4119
  549TMC3    O1 8154   3.608   0.329  12.925  0.3303  0.4829 -0.1825
  549TMC3    O2 8155   3.491   0.735  12.723 -0.2033  0.3190  0.7347
  550TMC3    C1 8156   2.332   3.162  12.479  0.4309  0.0184  0.5140
  550TMC3    C2 8157   2.308   3.218  12.603  0.1697  0.1302  0.0371
  550TMC3    C3 8158   2.260   3.341  12.610  0.1369  0.0673 -0.6897
  550TMC3    C4 8159   2.302   3.224  12.361  0.2544  0.1293  0.5463
  550TMC3    C5 8160   2.255   3.356  12.371  0.2141  0.0115 -0.3743
  550TMC3    C6 8161   2.237   3.414  12.495  0.0472  0.8334  0.3499
  550TMC3     C 8162   2.421   3.046  12.473 -0.5958  0.2781 -0.0341
  550TMC3     O 8163   2.395   2.949  12.542 -0.0653  0.1709  0.7253
  550TMC3     H 8164   2.301   3.152  12.688  1.2855 -1.2514 -0.9327
  550TMC3    H1 8165   2.320   3.176  12.266  0.9653 -0.9862  1.2474
  550TMC3    H2 8166   2.203   3.517  12.502  3.0620  1.8354  0.3124
  550TMC3    C7 8167   2.203   3.427  12.259 -1.0973 -0.3491  0.5424
  550TMC3    C8 8168   2.237   3.404  12.735  0.1226 -0.0421  0.3167
  550TMC3    O1 8169   2.129   3.523  12.268 -0.3017  0.0469  0.1497
  550TMC3    O2 8170   2.155   3.495  12.735 -0.0147  0.3412 -0.4070
  551TMC3    C1 8171   0.133   1.241  13.215 -0.0160 -0.4394  0.6465
  551TMC3    C2 8172   0.236   1.293  13.139  0.2482 -0.6228  0.8907
  551TMC3    C3 8173   0.294   1.418  13.172 -0.2768  0.0911 -0.0142
  551TMC3    C4 8174   0.101   1.292  13.332  0.2609  0.1998  0.3869
  551TMC3    C5 8175   0.181   1.400  13.369  0.2900 -0.5434  0.2014
  551TMC3    C6 8176   0.277   1.465  13.298 -0.1422  0.0908  0.1255
  551TMC3     C 8177   0.043   1.141  13.154  0.9640 -0.3774 -0.8368
  551TMC3     O 8178   4.651   1.132  13.195  0.2901 -0.2611 -0.1403
  551TMC3     H 8179   0.264   1.245  13.047  0.3502 -1.2716  1.2580
  551TMC3    H1 8180   0.019   1.259  13.395 -0.8692  0.7592 -0.8003
  551TMC3    H2 8181   0.338   1.550  13.327  0.1621 -0.6487  1.6528
  551TMC3    C7 8182   0.160   1.458  13.498 -0.3888  0.8350  0.5896
  551TMC3    C8 8183   0.380   1.481  13.065  0.4608 -0.1252  0.9432
  551TMC3    O1 8184   0.163   1.379  13.594 -0.2817  0.1882  0.1203
  551TMC3    O2 8185   0.411   1.402  12.974  0.8165 -0.1262 -0.4827
  552MPD2     C 8186   1.384   2.973  14.282  0.0248  0.8734 -0.6253
  552MPD2    C1 8187   1.475   3.000  14.175 -0.4229  0.6327  0.6257
  552MPD2    C2 8188   1.608   2.957  14.180  0.7815 -0.5307 -0.4782
  552MPD2    C3 8189   1.649   2.885  14.282  0.1936 -0.1395  0.2025
  552MPD2    C4 8190   1.553   2.845  14.382 -0.1755 -0.4922  0.3069
  552MPD2    C5 8191   1.423   2.885  14.376 -0.3009  0.5928 -0.2423
  552MPD2     H 8192   1.680   2.992  14.108  0.4843 -0.5113 -0.7687
  552MPD2    H1 8193   1.588   2.778  14.460 -1.3561 -2.6162 -1.0050
  552MPD2    H2 8194   1.290   3.026  14.292 -1.5109 -2.0844  0.4560
  552MPD2    H3 8195   1.357   2.869  14.461  1.4073  1.3836  1.2416
  552MPD2     N 8196   1.783   2.849  14.319 -1.2669 -0.8382  0.2306
  552MPD2    H5 8197   1.790   2.797  14.406  0.3001 -0.1460  0.5197
  552MPD2    N1 8198   1.437   3.084  14.068  0.5596  0.1981  0.2999
  552MPD2    H7 8199   1.506   3.109  13.998  0.3448 -0.5153 -0.1699
  553TMC3    C1 8200   1.287   3.192  13.921 -0.2517 -0.0666  0.0885
  553TMC3    C2 8201   1.199   3.126  13.841  0.3991 -0.1089 -0.1076
  553TMC3    C3 8202   1.165   3.184  13.723  0.2545 -0.0197  0.2051
  553TMC3    C4 8203   1.359   3.302  13.879 -0.3667  0.0027 -0.0919
  553TMC3    C5 8204   1.329   3.352  13.749  0.4472  0.2423  0.0125
  553TMC3    C6 8205   1.238   3.288  13.668 -0.6491  0.0989  0.1127
  553TMC3     C 8206   1.310   3.130  14.048  0.4559  0.6599 -0.1885
  553TMC3     O 8207   1.210   3.098  14.105 -0.2904 -0.2010 -0.6468
  553TMC3     H 8208   1.151   3.035  13.875 -1.8712  0.5705 -1.4598
  553TMC3    H1 8209   1.424   3.354  13.948 -0.7003 -1.0838  1.0467
  553TMC3    H2 8210   1.222   3.323  13.567  4.1778 -0.3717 -0.8452
  553TMC3    C7 8211   1.422   3.444  13.673  0.0819  0.2454 -0.3852
  553TMC3    C8 8212   1.082   3.116  13.634  0.1084  0.1886  0.2795
  553TMC3    O1 8213   1.375   3.519  13.591 -0.5497 -0.2803  0.1242
  553TMC3    O2 8214   1.108   3.113  13.516 -0.1126 -0.2604 -0.0146
  554TMC3    C1 8215   4.549   2.478  11.273  0.1805  0.0742 -0.3024
  554TMC3    C2 8216   4.518   2.381  11.183  0.8002 -0.9217  0.5846
  554TMC3    C3 8217   4.521   2.423  11.052 -0.6026 -0.4729 -0.3704
  554TMC3    C4 8218   4.550   2.607  11.238 -0.0870  0.0371  0.0571
  554TMC3    C5 8219   4.537   2.646  11.108 -0.8763 -0.3430  0.1946
  554TMC3    C6 8220   4.530   2.552  11.015  0.1045  0.6387 -0.2093
  554TMC3     C 8221   4.581   2.440  11.407 -0.1254 -0.4308 -0.0696
  554TMC3     O 8222   4.625   2.536  11.469 -1.0531  0.6437  0.3908
  554TMC3     H 8223   4.511   2.276  11.207  0.9435 -1.4398 -1.6218
  554TMC3    H1 8224   4.572   2.683  11.312  0.1727  2.6677 -2.7194
  554TMC3    H2 8225   4.527   2.583  10.911 -0.1925 -1.0994 -0.7109
  554TMC3    C7 8226   4.490   2.774  11.067  0.4159 -0.1937  0.1331
  554TMC3    C8 8227   4.429   2.358  10.961 -0.4321  0.3527  0.1297
  554TMC3    O1 8228   4.468   2.791  10.948 -0.2470  0.7832 -0.2919
  554TMC3    O2 8229   4.440   2.401  10.848  0.3276 -0.5931  1.1559
  555TMC3    C1 8230   2.650   1.862  14.936  0.1990 -0.3371  0.4397
  555TMC3    C2 8231   2.636   1.952  15.038  0.2647  0.7525  0.2887
  555TMC3    C3 8232   2.689   1.911  15.161  0.1973  0.3301  0.0454
  555TMC3    C4 8233   2.703   1.738  14.955 -0.1522  0.7123  0.2943
  555TMC3    C5 8234   2.753   1.706  15.075 -0.1159 -0.4417 -0.5338
  555TMC3    C6 8235   2.743   1.788  15.188 -0.5883  0.0795 -0.2146
  555TMC3     C 8236   2.569   1.885  14.822  0.2577 -0.8835  0.0822
  555TMC3     O 8237   2.592   1.815  14.724 -0.0755  0.2313 -0.4188
  555TMC3     H 8238   2.608   2.055  15.019 -0.6810  0.3248 -0.6328
  555TMC3    H1 8239   2.702   1.670  14.870 -0.6841 -0.3334  1.1346
  555TMC3    H2 8240   2.770   1.761  15.289 -0.8255  0.9693  0.0817
  555TMC3    C7 8241   2.762   1.566  15.101 -0.3718 -0.0157 -0.5734
  555TMC3    C8 8242   2.688   2.017  15.267 -0.7126 -0.5677  0.5422
  555TMC3    O1 8243   2.693   1.491  15.033 -0.3645 -0.2575  0.3619
  555TMC3    O2 8244   2.611   2.111  15.259 -0.2610  0.0072  0.4036
  556MPD2     C 8245   1.238   3.706  10.034 -0.1986 -0.0520  0.1326
  556MPD2    C1 8246   1.223   3.578  10.083  0.0764 -0.2724  0.1722
  556MPD2    C2 8247   1.160   3.482  10.014 -0.7656  0.8327  0.2216
  556MPD2    C3 8248   1.100   3.517   9.897 -0.0584 -0.3794  0.0998
  556MPD2    C4 8249   1.106   3.646   9.851  0.1019 -0.1703 -0.3261
  556MPD2    C5 8250   1.185   3.742   9.913 -0.4606 -0.1342 -0.2072
  556MPD2     H 8251   1.161   3.381  10.053 -1.3502  0.0530 -1.7732
  556MPD2    H1 8252   1.051   3.671   9.761 -0.3231  1.2206  0.3157
  556MPD2    H2 8253   1.295   3.778  10.092  2.9884 -2.4508 -0.0403
  556MPD2    H3 8254   1.197   3.842   9.873  0.2755 -1.1306 -2.4979
  556MPD2     N 8255   1.013   3.429   9.828  0.2635 -0.5901  0.3628
  556MPD2    H5 8256   0.973   3.468   9.743 -0.7177 -1.4454  0.4359
  556MPD2    N1 8257   1.281   3.537  10.199 -0.4743 -0.4137  0.1627
  556MPD2    H7 8258   1.255   3.446  10.236  0.3479 -0.6580  0.1447
  557TMC3    C1 8259   0.870   3.249   9.763 -1.0623 -0.7446 -0.2454
  557TMC3    C2 8260   0.773   3.328   9.715 -0.0465 -0.2212 -0.3195
  557TMC3    C3 8261   0.661   3.278   9.661 -0.1053 -0.3442  0.5963
  557TMC3    C4 8262   0.838   3.112   9.771 -0.4136 -0.4773 -0.4929
  557TMC3    C5 8263   0.723   3.062   9.723 -0.0643  0.7231  0.6782
  557TMC3    C6 8264   0.634   3.148   9.662  0.0691 -0.3868 -0.5906
  557TMC3     C 8265   0.966   3.301   9.861 -0.3057 -0.1842 -0.7599
  557TMC3     O 8266   1.019   3.222   9.939  0.0521 -0.1335  0.2135
  557TMC3     H 8267   0.792   3.435   9.709  0.2264 -0.2964 -0.8192
  557TMC3    H1 8268   0.906   3.042   9.819 -0.5661 -1.1421 -1.2431
  557TMC3    H2 8269   0.531   3.117   9.648 -0.2739  0.2541  0.4853
  557TMC3    C7 8270   0.664   2.967   9.811 -0.4171 -0.4540  0.2193
  557TMC3    C8 8271   0.570   3.370   9.589  0.0080  0.6291  0.2003
  557TMC3    O1 8272   0.550   2.994   9.848  0.6268 -0.0036 -0.5477
  557TMC3    O2 8273   0.580   3.487   9.621 -0.3828 -0.1651  0.7629
  558TMC3    C1 8274   3.666   1.126   9.638 -0.6613  0.1949 -0.1646
  558TMC3    C2 8275   3.602   1.046   9.731  0.3075 -0.1759 -0.4688
  558TMC3    C3 8276   3.496   0.966   9.683 -0.0906 -0.2060  0.6349
  558TMC3    C4 8277   3.617   1.134   9.512  0.2203  0.1954 -0.0538
  558TMC3    C5 8278   3.498   1.077   9.474 -0.3868  0.3137  0.6073
  558TMC3    C6 8279   3.441   0.983   9.558 -0.5860  0.1192  0.0749
  558TMC3     C 8280   3.792   1.201   9.669  0.2564 -0.1453  0.1469
  558TMC3     O 8281   3.887   1.212   9.591  0.2737  0.4850 -1.2298
  558TMC3     H 8282   3.663   1.024   9.818 -0.8836 -0.5628  0.2523
  558TMC3    H1 8283   3.671   1.205   9.451  0.2414  0.1087 -0.1342
  558TMC3    H2 8284   3.372   0.906   9.526 -1.1005  0.1224  1.1510
  558TMC3    C7 8285   3.417   1.140   9.368 -0.0926  0.1572 -0.5778
  558TMC3    C8 8286   3.415   0.891   9.783 -0.8525  0.0520  0.1917
  558TMC3    O1 8287   3.473   1.224   9.298 -0.3622  0.0338  0.2458
  558TMC3    O2 8288   3.311   0.848   9.735  0.8656  0.2962  0.1706
  559MPD2     C 8289   3.353   1.879  10.200 -1.3936  0.1052  1.1064
  559MPD2    C1 8290   3.354   1.835  10.335  0.1226 -0.1701  0.6834
  559MPD2    C2 8291   3.476   1.826  10.397 -0.2570  0.0831 -0.7844
  559MPD2    C3 8292   3.595   1.860  10.333 -0.2732  0.2559 -0.3544
  559MPD2    C4 8293   3.595   1.919  10.200 -0.0925 -0.3869  0.2020
  559MPD2    C5 8294   3.469   1.926  10.139  0.4241 -0.1989 -0.3519
  559MPD2     H 8295   3.475   1.791  10.500  2.4951 -0.5093 -0.9677
  559MPD2    H1 8296   3.680   1.952  10.141 -1.1138 -1.4170 -1.8397
  559MPD2    H2 8297   3.269   1.874  10.132 -0.1392 -0.4480 -0.4292
  559MPD2    H3 8298   3.470   1.972  10.042 -1.4900  1.3064  0.3619
  559MPD2     N 8299   3.716   1.853  10.410  0.0011 -0.2196  0.1363
  559MPD2    H5 8300   3.705   1.830  10.508 -0.3150  0.8604  0.3583
  559MPD2    N1 8301   3.238   1.787  10.380  0.4470 -0.9340  0.6952
  559MPD2    H7 8302   3.168   1.762  10.312  1.6276 -2.2363 -0.0387
  560TMC3    C1 8303   3.944   1.816  10.456 -0.1307 -0.0200  0.9586
  560TMC3    C2 8304   3.911   1.699  10.510  0.6064 -0.2002  0.8949
  560TMC3    C3 8305   4.000   1.652  10.606  0.1185 -0.1301 -0.7443
  560TMC3    C4 8306   4.056   1.888  10.484  0.2845 -0.3510  0.5031
  560TMC3    C5 8307   4.143   1.837  10.581 -0.1844  0.9501 -0.8083
  560TMC3    C6 8308   4.114   1.726  10.648 -0.4789 -0.4293  0.3685
  560TMC3     C 8309   3.842   1.875  10.363 -0.6635  0.1798  0.2658
  560TMC3     O 8310   3.880   1.937  10.262  0.1734 -0.1659  0.4040
  560TMC3     H 8311   3.838   1.633  10.465  0.3435 -0.1550  1.2591
  560TMC3    H1 8312   4.081   1.973  10.422  2.5089 -0.4905  1.2078
  560TMC3    H2 8313   4.182   1.675  10.715 -0.3741 -1.3067 -0.3857
  560TMC3    C7 8314   4.269   1.909  10.606  0.3157  0.5435  0.5193
  560TMC3    C8 8315   3.962   1.526  10.668 -0.3910 -0.3404 -0.3560
  560TMC3    O1 8316   4.302   1.993  10.520 -0.3445  0.3291  0.1559
  560TMC3    O2 8317   3.855   1.481  10.637  0.2497  0.2670  0.7774
  561TMC3    C1 8318   1.532   0.577  11.287 -0.3360  0.4375  0.3522
  561TMC3    C2 8319   1.480   0.518  11.405  0.0967 -0.3383 -0.5312
  561TMC3    C3 8320   1.470   0.599  11.513 -0.1506 -0.0698  0.0746
  561TMC3    C4 8321   1.557   0.710  11.271  0.6484 -0.0214  0.2411
  561TMC3    C5 8322   1.535   0.783  11.389  0.9602  0.1470  0.9774
  561TMC3    C6 8323   1.497   0.734  11.508  0.1284 -0.0304  0.6748
  561TMC3     C 8324   1.528   0.493  11.167 -0.2315  0.5792 -0.3870
  561TMC3     O 8325   1.442   0.404  11.158  0.1538 -0.5603  0.2560
  561TMC3     H 8326   1.444   0.416  11.399 -2.6285  0.6675 -1.5728
  561TMC3    H1 8327   1.582   0.745  11.172 -0.9985  0.5341  0.0269
  561TMC3    H2 8328   1.482   0.795  11.597 -3.0757 -1.0199  0.8259
  561TMC3    C7 8329   1.574   0.926  11.392  0.2639 -0.8895 -0.1126
  561TMC3    C8 8330   1.366   0.558  11.601  0.0412 -0.1152 -0.5045
  561TMC3    O1 8331   1.577   0.985  11.500 -0.0716 -0.1179 -0.1824
  561TMC3    O2 8332   1.352   0.435  11.614  0.3193 -0.5460  0.2199
  562TMC3    C1 8333   2.574   2.168  16.227  0.4030  0.4324 -0.1921
  562TMC3    C2 8334   2.447   2.208  16.250 -0.4169  0.4505 -0.2980
  562TMC3    C3 8335   2.366   2.223  16.138  0.1833  0.2640 -0.5309
  562TMC3    C4 8336   2.616   2.129  16.105 -0.0470  0.6483 -0.3810
  562TMC3    C5 8337   2.530   2.133  16.000 -0.1076  0.0923 -0.0549
  562TMC3    C6 8338   2.402   2.188  16.009 -0.5337  0.1425  0.3683
  562TMC3     C 8339   2.667   2.184  16.339  0.1796  0.6285 -0.0851
  562TMC3     O 8340   2.613   2.166  16.444  0.0341 -0.2188  0.2109
  562TMC3     H 8341   2.410   2.221  16.351 -1.3260  0.5147 -0.6349
  562TMC3    H1 8342   2.718   2.100  16.082 -0.3310  0.8435 -1.8757
  562TMC3    H2 8343   2.335   2.183  15.924 -2.5199  1.9591  1.8215
  562TMC3    C7 8344   2.543   2.038  15.890  0.0053 -0.0520  0.6112
  562TMC3    C8 8345   2.241   2.297  16.158  0.3087  0.2357  0.2767
  562TMC3    O1 8346   2.478   2.059  15.788 -0.2742  0.4366  0.1522
  562TMC3    O2 8347   2.182   2.277  16.263  0.1853 -0.2045 -0.7043
  563MPD2     C 8348   0.210   2.987  16.034  0.1476  0.1739  0.3843
  563MPD2    C1 8349   0.214   3.127  16.037 -0.2123 -0.3207 -0.3435
  563MPD2    C2 8350   0.336   3.189  16.067 -0.1268  0.0091  0.1836
  563MPD2    C3 8351   0.449   3.114  16.087 -0.0490 -0.2718 -0.6917
  563MPD2    C4 8352   0.447   2.976  16.075 -0.5745 -0.2126 -0.4845
  563MPD2    C5 8353   0.322   2.914  16.063  0.3260 -0.7584 -0.2428
  563MPD2     H 8354   0.332   3.295  16.092 -2.7914  0.4559 -2.1236
  563MPD2    H1 8355   0.532   2.913  16.102 -1.3241  0.0865  2.5761
  563MPD2    H2 8356   0.119   2.932  16.016  0.1515  0.7332 -1.3607
  563MPD2    H3 8357   0.310   2.806  16.061 -0.0503 -0.7218  0.0655
  563MPD2     N 8358   0.565   3.181  16.122 -0.4090  0.0612 -0.3323
  563MPD2    H5 8359   0.547   3.280  16.140 -1.6067 -0.8144  3.4186
  563MPD2    N1 8360   0.094   3.200  16.026  0.3465 -0.0777  0.8606
  563MPD2    H7 8361   0.017   3.133  16.023  0.6423 -0.2923 -1.6516
  564TMC3    C1 8362   4.653   3.357  16.075  0.2748 -0.0900  0.3637
  564TMC3    C2 8363   4.570   3.268  16.020  0.7662  0.1653  0.0270
  564TMC3    C3 8364   4.476   3.200  16.097 -0.1708 -0.3499  0.0304
  564TMC3    C4 8365   4.651   3.387  16.212  0.8589 -0.3691 -0.2778
  564TMC3    C5 8366   4.565   3.319  16.292 -0.4947 -0.5881 -0.0203
  564TMC3    C6 8367   4.473   3.235  16.232  0.2376  0.0449 -0.4327
  564TMC3     C 8368   0.067   3.336  16.032 -0.1839  0.3893 -0.7139
  564TMC3     O 8369   0.154   3.424  16.046  0.2496 -0.3167  0.7068
  564TMC3     H 8370   4.563   3.257  15.913 -2.7500  0.4268  0.2178
  564TMC3    H1 8371   0.010   3.443  16.259  1.5629  1.3988 -3.5988
  564TMC3    H2 8372   4.399   3.193  16.299 -1.6631  0.3856 -2.3121
  564TMC3    C7 8373   4.635   3.251  16.401  0.2068 -0.7525 -0.8440
  564TMC3    C8 8374   4.435   3.065  16.062 -0.0621  0.3435 -0.0388
  564TMC3    O1 8375   0.002   3.315  16.457 -0.0278 -0.4973 -0.0035
  564TMC3    O2 8376   4.385   3.000  16.152  0.1771  0.3176 -0.1361
  565TMC3    C1 8377   1.262   4.635   9.995  0.1568  0.0334 -0.6288
  565TMC3    C2 8378   1.313   4.558  10.099 -0.1376  0.4992 -0.1369
  565TMC3    C3 8379   1.276   4.424  10.102  0.7372  0.0682 -0.6736
  565TMC3    C4 8380   1.170   4.584   9.910  0.9971 -0.1818 -0.1016
  565TMC3    C5 8381   1.141   4.454   9.907 -0.0272 -0.4707  0.0930
  565TMC3    C6 8382   1.181   4.376  10.008  0.0867  0.2457  0.0140
  565TMC3     C 8383   1.313   0.050   9.963 -0.9828 -1.0145  0.3730
  565TMC3     O 8384   1.248   0.120   9.889  0.1831  0.3880  0.1773
  565TMC3     H 8385   1.390   4.591  10.168  0.9081 -0.9594 -0.6137
  565TMC3    H1 8386   1.143   4.651   9.829 -0.2880 -0.0324  0.4545
  565TMC3    H2 8387   1.125   4.284  10.018 -0.9839  0.7559 -1.2366
  565TMC3    C7 8388   1.023   4.416   9.833 -0.1950 -0.0568  0.3720
  565TMC3    C8 8389   1.304   4.352  10.221  0.4136  0.4189  0.0611
  565TMC3    O1 8390   0.991   4.298   9.842  0.0365  0.2871  0.4543
  565TMC3    O2 8391   1.333   4.414  10.320 -0.1810 -0.2148  0.2801
  566MPD2     C 8392   2.486   1.682  14.341 -1.1747  0.5895  0.7688
  566MPD2    C1 8393   2.553   1.668  14.222 -0.1412 -0.3168 -0.2421
  566MPD2    C2 8394   2.496   1.574  14.143  0.1279  0.2751 -0.3440
  566MPD2    C3 8395   2.395   1.484  14.175 -0.0755  0.2704 -0.2615
  566MPD2    C4 8396   2.334   1.510  14.297 -0.3697  0.1803  0.5508
  566MPD2    C5 8397   2.382   1.601  14.378 -0.1924  0.3077 -0.0071
  566MPD2     H 8398   2.539   1.560  14.044  0.8135  1.8145 -0.2720
  566MPD2    H1 8399   2.262   1.437  14.332  1.1141 -1.7470 -0.4077
  566MPD2    H2 8400   2.527   1.741  14.423  2.0805 -1.2704  0.5060
  566MPD2    H3 8401   2.344   1.620  14.477  0.7964 -3.0118  0.9932
  566MPD2     N 8402   2.355   1.381  14.083  0.4062  0.6093  0.5240
  566MPD2    H5 8403   2.408   1.379  13.996 -1.2922  2.4439 -0.5443
  566MPD2    N1 8404   2.669   1.743  14.197 -0.6200  0.2267  0.3424
  566MPD2    H7 8405   2.682   1.813  14.269 -2.3398 -1.1654  2.0185
  567TMC3    C1 8406   2.775   1.615  14.029 -0.2070  0.0025  0.8866
  567TMC3    C2 8407   2.781   1.613  13.893  0.1433  0.3620  0.5485
  567TMC3    C3 8408   2.799   1.486  13.841 -0.3263 -0.7399  0.2764
  567TMC3    C4 8409   2.803   1.503  14.105 -1.0271 -0.3792 -0.2143
  567TMC3    C5 8410   2.816   1.382  14.046  0.2179 -0.4490 -0.5551
  567TMC3    C6 8411   2.813   1.372  13.909 -0.2269  0.2360  0.3935
  567TMC3     C 8412   2.763   1.740  14.094  0.2384 -0.2263 -0.2023
  567TMC3     O 8413   2.859   1.813  14.085  0.4158  0.4112  0.3730
  567TMC3     H 8414   2.758   1.696  13.826 -1.8794 -0.8616 -0.2819
  567TMC3    H1 8415   2.808   1.509  14.213 -1.7572  0.8383 -0.2459
  567TMC3    H2 8416   2.813   1.275  13.860  2.7161  0.3115  0.2708
  567TMC3    C7 8417   2.721   1.278  14.105  0.5060 -0.2967 -0.0679
  567TMC3    C8 8418   2.774   1.469  13.698 -0.7966 -0.4178 -0.0846
  567TMC3    O1 8419   2.662   1.205  14.025 -0.1845  0.1497  0.0082
  567TMC3    O2 8420   2.719   1.366  13.658 -0.0404  0.2328  0.2338
  568MPD2     C 8421   0.070   1.706  16.697  0.2688 -0.2930 -0.0399
  568MPD2    C1 8422   4.669   1.749  16.747 -0.6591 -0.0398  0.1021
  568MPD2    C2 8423   4.617   1.875  16.710 -0.3066 -0.5450  0.4552
  568MPD2    C3 8424   4.687   1.964  16.628 -0.3733 -0.6347 -0.3579
  568MPD2    C4 8425   0.094   1.923  16.589 -0.0134  0.0896  0.1166
  568MPD2    C5 8426   0.144   1.802  16.631 -0.0788 -0.2278 -1.2852
  568MPD2     H 8427   4.518   1.900  16.745 -0.3050 -2.3235  1.6958
  568MPD2    H1 8428   0.161   1.977  16.523 -1.0642 -0.7783 -1.6496
  568MPD2    H2 8429   0.121   1.613  16.720  0.5524 -0.5961 -1.8734
  568MPD2    H3 8430   0.247   1.785  16.600  0.5787 -1.8476  1.8203
  568MPD2     N 8431   4.613   2.069  16.565  0.3479  0.1484 -0.3742
  568MPD2    H5 8432   4.517   2.083  16.596  0.8137  0.8897  0.7259
  568MPD2    N1 8433   4.604   1.650  16.832 -0.3404  1.0139  0.1903
  568MPD2    H7 8434   4.633   1.554  16.843 -0.1945  0.7326 -2.5841
  569TMC3    C1 8435   4.574   2.251  16.417  0.3477 -0.6205  1.0149
  569TMC3    C2 8436   4.479   2.311  16.493  0.0616  0.6402  0.8264
  569TMC3    C3 8437   4.396   2.404  16.433 -0.0491 -0.2933 -0.4174
  569TMC3    C4 8438   4.584   2.261  16.279  0.6476  0.9311 -0.7263
  569TMC3    C5 8439   4.497   2.356  16.224  0.5242  0.1200 -0.0257
  569TMC3    C6 8440   4.400   2.414  16.295  0.4090 -0.5124  0.1887
  569TMC3     C 8441   4.662   2.155  16.475 -0.1466 -0.1644 -0.3266
  569TMC3     O 8442   0.045   2.139  16.417 -0.5226 -0.2258 -0.1097
  569TMC3     H 8443   4.473   2.312  16.601 -0.6980 -2.4798  0.8112
  569TMC3    H1 8444   4.657   2.216  16.212  1.7470 -2.3695  2.7080
  569TMC3    H2 8445   4.326   2.470  16.240  0.3930 -1.7249 -1.0416
  569TMC3    C7 8446   4.561   2.430  16.108  1.1758 -0.5751 -0.1833
  569TMC3    C8 8447   4.369   2.532  16.493  0.9376  0.0947 -0.1095
  569TMC3    O1 8448   4.672   2.392  16.072  0.1529 -0.2093 -0.2945
  569TMC3    O2 8449   4.281   2.590  16.431 -0.4960  0.7747 -0.2504
  570TMC3    C1 8450   3.882   0.891  16.084  0.1002 -0.0200  0.7722
  570TMC3    C2 8451   3.933   0.905  15.961 -0.2894  0.4102 -0.1009
  570TMC3    C3 8452   3.978   1.033  15.928  0.1646 -0.4052  0.5345
  570TMC3    C4 8453   3.870   0.995  16.181  0.0907 -0.0854 -0.1278
  570TMC3    C5 8454   3.892   1.116  16.134 -0.4817 -0.2031  0.5042
  570TMC3    C6 8455   3.957   1.137  16.016 -0.4431  0.0490 -0.4645
  570TMC3     C 8456   3.859   0.754  16.123 -0.1246  0.7178 -0.5561
  570TMC3     O 8457   3.903   0.665  16.049  0.4950  0.2438  0.1908
  570TMC3     H 8458   3.956   0.826  15.892  0.0089  1.3356 -1.0625
  570TMC3    H1 8459   3.835   0.986  16.283  1.5136  1.0032  0.4491
  570TMC3    H2 8460   3.986   1.237  15.986 -0.7405 -0.1641 -1.4801
  570TMC3    C7 8461   3.831   1.232  16.200  0.5818 -0.0615  0.8077
  570TMC3    C8 8462   4.085   1.050  15.833 -0.2680  0.1378  0.4440
  570TMC3    O1 8463   3.744   1.201  16.280  0.1569  0.3215  0.6776
  570TMC3    O2 8464   4.134   1.161  15.840  0.1462 -0.7881 -0.0016
  571MPD2     C 8465   2.013   2.276   0.045 -0.0200 -0.2484  1.2862
  571MPD2    C1 8466   1.954   2.398   0.028 -0.4721 -0.0487  0.0263
  571MPD2    C2 8467   2.012   2.510   0.087  0.0110  0.4478 -0.6913
  571MPD2    C3 8468   2.122   2.497   0.172 -1.0251 -0.3058 -0.8566
  571MPD2    C4 8469   2.173   2.371   0.201  0.0851  0.0897 -0.7135
  571MPD2    C5 8470   2.113   2.261   0.144 -0.3201  0.1849  0.2183
  571MPD2     H 8471   1.991   2.614   0.066  1.5211  0.5208 -1.8381
  571MPD2    H1 8472   2.264   2.357   0.259 -0.9472 -0.1044  0.8522
  571MPD2    H2 8473   1.969   2.183   0.010  0.8858  0.1165 -0.7891
  571MPD2    H3 8474   2.156   2.163   0.160 -0.9872 -0.2398 -0.6040
  571MPD2     N 8475   2.171   2.617   0.235 -0.3651 -0.4047  0.0505
  571MPD2    H5 8476   2.139   2.706   0.199  0.4555 -0.0886  0.1202
  571MPD2    N1 8477   1.834   2.404  17.638 -0.1888 -0.2889  0.0151
  571MPD2    H7 8478   1.799   2.316  17.599 -2.3775  0.5625  0.0551
  572TMC3    C1 8479   2.244   2.745   0.414 -0.6673 -0.1165 -0.6081
  572TMC3    C2 8480   2.251   2.740   0.553  0.3745 -0.2297 -0.5482
  572TMC3    C3 8481   2.297   2.843   0.620  0.7360  0.1648  0.2047
  572TMC3    C4 8482   2.302   2.842   0.345  0.0081 -0.5886 -0.1215
  572TMC3    C5 8483   2.351   2.945   0.421 -0.1629  0.4093  0.4778
  572TMC3    C6 8484   2.352   2.948   0.557  0.1321  0.0675 -0.3367
  572TMC3     C 8485   2.257   2.622   0.347 -0.1939  0.1551  0.3154
  572TMC3     O 8486   2.311   2.534   0.410 -0.8377  0.4075 -0.1453
  572TMC3     H 8487   2.207   2.654   0.601 -2.3685  2.1440  1.2190
  572TMC3    H1 8488   2.294   2.853   0.237 -1.7748 -0.6083  0.0199
  572TMC3    H2 8489   2.392   3.028   0.619  0.3966  1.0199 -1.7345
  572TMC3    C7 8490   2.376   3.072   0.358 -0.2224 -0.2114 -0.5274
  572TMC3    C8 8491   2.224   2.883   0.737  0.6089  0.4410 -0.0458
  572TMC3    O1 8492   2.295   3.106   0.271 -0.2921 -0.0068  0.2526
  572TMC3    O2 8493   2.274   2.964   0.809 -0.2374 -0.1919 -0.0274
  573MPD2     C 8494   2.652   2.996   0.949 -0.1525 -0.5989 -0.0471
  573MPD2    C1 8495   2.777   3.051   0.960  0.5401  0.2441 -0.5051
  573MPD2    C2 8496   2.861   3.061   0.850  0.0631 -0.5119 -0.8580
  573MPD2    C3 8497   2.822   3.006   0.733  0.4032 -0.3581  0.2182
  573MPD2    C4 8498   2.695   2.947   0.729 -0.1049 -0.0579  0.5719
  573MPD2    C5 8499   2.612   2.949   0.834  0.3631  1.0000  0.3359
  573MPD2     H 8500   2.960   3.107   0.857 -1.0428  1.3643  2.4939
  573MPD2    H1 8501   2.662   2.911   0.633 -0.2255  0.2103  0.5136
  573MPD2    H2 8502   2.584   2.976   1.031  0.7437  1.7538  1.2564
  573MPD2    H3 8503   2.516   2.897   0.838  0.0667  1.5133 -0.0395
  573MPD2     N 8504   2.893   3.007   0.612  0.6214  0.2728  0.0813
  573MPD2    H5 8505   2.844   2.969   0.532 -0.0869 -0.3672  0.8149
  573MPD2    N1 8506   2.804   3.105   1.087 -0.1786  0.4537  0.3066
  573MPD2    H7 8507   2.734   3.103   1.160 -0.4289 -3.4499 -0.0435
  574TMC3    C1 8508   3.067   3.055   0.451  0.5582  0.3720 -0.0822
  574TMC3    C2 8509   2.986   3.012   0.349  0.0435  0.0720  0.4433
  574TMC3    C3 8510   3.032   3.050   0.226 -0.0561  0.6946  0.6500
  574TMC3    C4 8511   3.194   3.102   0.435  0.5512 -0.1660 -0.1404
  574TMC3    C5 8512   3.229   3.128   0.308  0.3217  0.6280 -0.6592
  574TMC3    C6 8513   3.156   3.103   0.198  0.2879 -0.5262 -0.3397
  574TMC3     C 8514   3.026   3.041   0.596 -0.3509 -0.0852 -0.6225
  574TMC3     O 8515   3.110   3.056   0.681 -0.2525  0.7774 -0.1262
  574TMC3     H 8516   2.884   2.977   0.361 -0.7473  1.3136 -2.6556
  574TMC3    H1 8517   3.256   3.129   0.520  3.0596 -0.2513 -1.9369
  574TMC3    H2 8518   3.206   3.104   0.102  3.6046  2.7419  1.4185
  574TMC3    C7 8519   3.365   3.180   0.291  0.0997  0.0242  0.5808
  574TMC3    C8 8520   2.960   3.013   0.107  0.8459  0.2840 -0.3196
  574TMC3    O1 8521   3.449   3.133   0.363 -0.2762  0.1435  0.5879
  574TMC3    O2 8522   2.895   2.909   0.109 -0.7871 -0.1988  0.4911
  575TMC3    C1 8523   1.379   4.273  11.079 -0.6951 -0.1741 -0.4457
  575TMC3    C2 8524   1.300   4.186  11.141  0.0880  0.7654 -0.0913
  575TMC3    C3 8525   1.220   4.108  11.059 -0.7618  0.2727  0.1382
  575TMC3    C4 8526   1.392   4.279  10.947 -0.1614 -0.3998  0.4306
  575TMC3    C5 8527   1.325   4.194  10.867  0.2317  0.0996 -0.7116
  575TMC3    C6 8528   1.230   4.111  10.924  0.4733 -0.5622  0.0370
  575TMC3     C 8529   1.480   4.338  11.157 -0.4487  0.3539  0.1029
  575TMC3     O 8530   1.564   4.396  11.088 -0.0953  0.1382  0.5681
  575TMC3     H 8531   1.328   4.156  11.242  1.0847  2.0107 -0.0009
  575TMC3    H1 8532   1.468   4.341  10.900 -0.4792  0.7062  1.3795
  575TMC3    H2 8533   1.164   4.055  10.859  0.3878 -1.9707  1.3464
  575TMC3    C7 8534   1.347   4.196  10.728 -0.9248  0.2113  0.5475
  575TMC3    C8 8535   1.133   4.012  11.113 -0.5153  0.0672  0.2887
  575TMC3    O1 8536   1.416   4.284  10.675  0.0536  0.4888 -0.1536
  575TMC3    O2 8537   1.093   3.925  11.037  0.0054 -0.0113  0.2172
  576MPD2     C 8538   0.906   1.623  12.258  0.4416 -0.4762  0.3037
  576MPD2    C1 8539   0.855   1.658  12.133  0.2707  0.1264  0.3492
  576MPD2    C2 8540   0.839   1.787  12.089  0.4775  0.2369  0.5190
  576MPD2    C3 8541   0.863   1.887  12.181 -0.3901  1.0373 -0.5560
  576MPD2    C4 8542   0.902   1.856  12.315 -0.2149  0.3788  0.3505
  576MPD2    C5 8543   0.928   1.726  12.347  0.3729 -0.1088 -0.2040
  576MPD2     H 8544   0.804   1.818  11.991 -1.6833 -0.3321  1.1110
  576MPD2    H1 8545   0.939   1.934  12.381 -0.0606  0.5862  0.0188
  576MPD2    H2 8546   0.929   1.518  12.276 -0.0292 -0.4138  1.2831
  576MPD2    H3 8547   0.971   1.723  12.446  3.1410  2.1216 -1.3286
  576MPD2     N 8548   0.860   2.024  12.135 -0.3111  0.2386 -0.5905
  576MPD2    H5 8549   0.813   2.038  12.046 -2.5754 -0.5596  0.4613
  576MPD2    N1 8550   0.831   1.560  12.041 -0.9242 -0.2223  0.6201
  576MPD2    H7 8551   0.836   1.586  11.943  1.1664  2.8818  1.5386
  577TMC3    C1 8552   0.811   1.330  11.968 -0.9141 -0.2022  0.0795
  577TMC3    C2 8553   0.802   1.198  12.011 -0.0747  0.3038  0.0818
  577TMC3    C3 8554   0.809   1.108  11.908 -0.5196  0.0198 -0.2078
  577TMC3    C4 8555   0.810   1.371  11.838  0.4086 -0.5377  0.0106
  577TMC3    C5 8556   0.798   1.277  11.744 -0.1950 -0.2260  0.0978
  577TMC3    C6 8557   0.815   1.147  11.776 -1.0137 -0.8601 -0.2146
  577TMC3     C 8558   0.803   1.426  12.077 -0.7276 -0.7040  0.3051
  577TMC3     O 8559   0.765   1.379  12.185 -0.1845  0.1478 -0.2743
  577TMC3     H 8560   0.802   1.167  12.115 -0.3842  2.8610  0.8497
  577TMC3    H1 8561   0.815   1.478  11.818  2.1418 -0.8386 -1.2072
  577TMC3    H2 8562   0.823   1.075  11.696 -3.0600 -0.3966 -0.8361
  577TMC3    C7 8563   0.818   1.313  11.602  0.7570 -0.1770 -0.0767
  577TMC3    C8 8564   0.853   0.967  11.942 -0.2463 -0.0080 -0.4046
  577TMC3    O1 8565   0.873   1.232  11.531 -0.1262 -0.0940  0.0376
  577TMC3    O2 8566   0.828   0.923  12.050  0.5255 -0.7183 -0.2586
  578MPD2     C 8567   2.645   1.039   0.724  0.4780  0.8815  0.2638
  578MPD2    C1 8568   2.716   0.943   0.659 -0.0314  0.9673 -0.4207
  578MPD2    C2 8569   2.843   0.917   0.696  0.4066 -0.1461 -0.1140
  578MPD2    C3 8570   2.903   0.992   0.793 -0.1117 -0.1003  0.1664
  578MPD2    C4 8571   2.832   1.088   0.860 -0.7718 -0.6107  0.1405
  578MPD2    C5 8572   2.703   1.110   0.824  0.2792 -0.1081 -0.0635
  578MPD2     H 8573   2.902   0.844   0.642  2.0080  0.4022  0.8902
  578MPD2    H1 8574   2.879   1.151   0.935  1.4862 -0.9947 -0.9651
  578MPD2    H2 8575   2.542   1.064   0.702  0.7710  2.2420  0.4532
  578MPD2    H3 8576   2.647   1.189   0.873  0.4986 -0.0547  0.1029
  578MPD2     N 8577   3.039   0.964   0.820 -0.3060  0.5747 -0.5282
  578MPD2    H5 8578   3.073   0.886   0.764 -1.9189  0.2170 -1.0346
  578MPD2    N1 8579   2.651   0.867   0.560 -0.5805 -0.5274 -0.1896
  578MPD2    H7 8580   2.578   0.901   0.499 -1.8324  0.1141  1.6895
  579TMC3    C1 8581   3.255   0.975   0.915 -0.0115 -1.4937 -0.3811
  579TMC3    C2 8582   3.341   1.066   0.956  0.0637  0.7235  0.4983
  579TMC3    C3 8583   3.473   1.029   0.960  0.3901  0.2174  0.2124
  579TMC3    C4 8584   3.284   0.844   0.883 -0.1636 -0.3637  0.4305
  579TMC3    C5 8585   3.415   0.811   0.869  0.2374 -0.0474 -0.0315
  579TMC3    C6 8586   3.508   0.901   0.912 -0.6916 -1.1270  0.1574
  579TMC3     C 8587   3.118   1.021   0.912 -0.6962 -0.3685 -0.2757
  579TMC3     O 8588   3.081   1.113   0.987  0.0118  0.1820  0.1529
  579TMC3     H 8589   3.317   1.168   0.985 -1.1599  0.7438 -0.5868
  579TMC3    H1 8590   3.198   0.791   0.845  0.4566 -2.4908  1.9692
  579TMC3    H2 8591   3.613   0.876   0.898 -0.3194  1.3697 -1.4849
  579TMC3    C7 8592   3.446   0.676   0.822 -0.2214  0.0950  0.4935
  579TMC3    C8 8593   3.562   1.115   1.029  0.1315  0.1323  0.0193
  579TMC3    O1 8594   3.562   0.637   0.814 -0.0881  0.1775 -0.3161
  579TMC3    O2 8595   3.513   1.220   1.070  0.5332  0.1751 -0.0293
  580TMC3    C1 8596   3.113   0.194  12.223  0.9617  0.5193 -0.3898
  580TMC3    C2 8597   3.050   0.173  12.104 -0.1228  0.6468 -0.2878
  580TMC3    C3 8598   3.108   0.097  12.003 -0.0835  0.1238  0.2599
  580TMC3    C4 8599   3.204   0.102  12.264 -0.3147  0.3175 -0.2575
  580TMC3    C5 8600   3.252   0.016  12.167 -0.0671 -0.3612  0.9430
  580TMC3    C6 8601   3.214   0.020  12.038  0.1248 -0.4104 -0.1683
  580TMC3     C 8602   3.161   0.336  12.237 -0.2709 -0.0138  0.5162
  580TMC3     O 8603   3.217   0.354  12.342 -0.1303  0.0982 -0.6218
  580TMC3     H 8604   2.970   0.244  12.085  1.1615  1.7473 -1.6266
  580TMC3    H1 8605   3.259   0.104  12.358  0.0315  1.4294 -0.4856
  580TMC3    H2 8606   3.266   4.686  11.961  0.7761 -0.5304  0.3571
  580TMC3    C7 8607   3.366   4.647  12.199  0.3507 -0.7019 -0.3690
  580TMC3    C8 8608   3.129   0.172  11.884  0.0568 -0.7933  0.3027
  580TMC3    O1 8609   3.437   4.667  12.297  0.3037  0.0553  0.5764
  580TMC3    O2 8610   3.040   0.248  11.856 -0.7313 -0.4978  0.6124
  581MPD2     C 8611   0.870   4.547  15.066  0.3483  0.7710  0.8182
  581MPD2    C1 8612   0.928   4.660  15.011 -0.0444  0.3411 -0.1397
  581MPD2    C2 8613   0.856   0.039  14.951 -0.3963 -0.0809 -0.5254
  581MPD2    C3 8614   0.719   0.027  14.930 -0.3697  0.3070 -0.4222
  581MPD2    C4 8615   0.661   4.632  14.978  0.0955  0.5310 -0.3344
  581MPD2    C5 8616   0.735   4.538  15.050  0.3694 -0.0238  0.2031
  581MPD2     H 8617   0.899   0.128  14.908  0.7455  0.0065  0.8004
  581MPD2    H1 8618   0.553   4.622  14.966 -0.1330  1.3945  1.0363
  581MPD2    H2 8619   0.918   4.462  15.113 -0.0024 -0.4061 -0.9550
  581MPD2    H3 8620   0.687   4.454  15.100  0.3949 -1.2194 -1.8126
  581MPD2     N 8621   0.657   0.122  14.848 -0.0327  0.4843  0.1702
  581MPD2    H5 8622   0.720   0.188  14.804  1.0098 -0.3250  0.4486
  581MPD2    N1 8623   1.068   4.666  15.023  0.3885  0.2269  0.1961
  581MPD2    H7 8624   1.113   4.592  15.075  1.0246  1.9173  2.0211
  582TMC3    C1 8625   1.287   0.018  15.047  0.5193 -0.0622 -0.3594
  582TMC3    C2 8626   1.342   0.116  15.119  0.5949 -0.4821  0.1007
  582TMC3    C3 8627   1.450   0.090  15.200 -0.5688  0.2511 -0.2770
  582TMC3    C4 8628   1.318   4.607  15.076  0.0047  0.3730 -0.3431
  582TMC3    C5 8629   1.406   4.582  15.177  0.2169  0.2148  0.8765
  582TMC3    C6 8630   1.482   4.682  15.234  0.2446 -0.3171  0.1706
  582TMC3     C 8631   1.154   0.049  14.988  0.2689 -0.4044  0.2961
  582TMC3     O 8632   1.137   0.170  14.977 -0.4252 -0.1423  0.7347
  582TMC3     H 8633   1.317   0.219  15.097  0.0508 -1.0438 -1.9182
  582TMC3    H1 8634   1.275   4.524  15.021 -0.8938  1.5389 -1.4109
  582TMC3    H2 8635   1.532   4.658  15.327 -1.8639  0.4203  1.4878
  582TMC3    C7 8636   1.333   4.505  15.276 -0.2243  0.5013 -0.1763
  582TMC3    C8 8637   1.461   0.168  15.316  0.2432  0.3817  0.2042
  582TMC3    O1 8638   1.342   4.384  15.288  0.2825  0.0452  0.0135
  582TMC3    O2 8639   1.360   0.170  15.384 -0.6939  0.0487 -0.1968
  583MPD2     C 8640   1.007   1.387  16.600  0.2025  0.2695  0.5260
  583MPD2    C1 8641   1.016   1.522  16.567  0.4335 -0.2545  0.0249
  583MPD2    C2 8642   0.938   1.603  16.645 -0.2840 -0.0097  0.5334
  583MPD2    C3 8643   0.868   1.560  16.755 -0.0783 -0.0540 -0.1941
  583MPD2    C4 8644   0.876   1.432  16.788  0.0245  0.3158 -0.3336
  583MPD2    C5 8645   0.953   1.346  16.715  0.6204 -0.9906  0.1743
  583MPD2     H 8646   0.920   1.706  16.617  1.6792  0.6115  1.4676
  583MPD2    H1 8647   0.816   1.383  16.864  0.0945  0.7521 -0.0039
  583MPD2    H2 8648   1.069   1.307  16.561  0.7450  0.2683  1.3737
  583MPD2    H3 8649   0.971   1.243  16.740 -0.3345 -0.3962  3.3194
  583MPD2     N 8650   0.802   1.653  16.834 -0.2087  0.1871 -0.2209
  583MPD2    H5 8651   0.818   1.748  16.803 -0.4656  0.0430 -0.7825
  583MPD2    N1 8652   1.099   1.565  16.461 -0.0571  0.4968 -1.0192
  583MPD2    H7 8653   1.113   1.664  16.442 -1.6075  0.9768  0.4161
  584TMC3    C1 8654   0.697   1.753  17.036 -0.9341  0.3179 -0.4819
  584TMC3    C2 8655   0.749   1.873  16.990 -0.0005  1.0419  0.1907
  584TMC3    C3 8656   0.693   1.992  17.047  0.2513 -0.0375  0.2039
  584TMC3    C4 8657   0.611   1.743  17.139  0.0521 -0.3801 -0.1466
  584TMC3    C5 8658   0.560   1.859  17.192 -0.5437  1.1118 -0.3566
  584TMC3    C6 8659   0.603   1.983  17.152  0.2261  0.2008  0.1004
  584TMC3     C 8660   0.727   1.632  16.954  0.1327 -0.0379  0.5118
  584TMC3     O 8661   0.698   1.528  17.004  0.1600 -0.2494 -0.1137
  584TMC3     H 8662   0.806   1.891  16.899  0.4771 -0.7107  0.1584
  584TMC3    H1 8663   0.555   1.653  17.162 -0.0008 -0.2430  0.2646
  584TMC3    H2 8664   0.567   2.072  17.202 -1.4423  0.2767 -1.2256
  584TMC3    C7 8665   0.473   1.847  17.307 -0.2021 -0.1592 -0.9350
  584TMC3    C8 8666   0.732   2.121  16.984 -0.4974  0.1858 -0.1452
  584TMC3    O1 8667   0.481   1.744  17.364  0.2133  0.0084  0.1418
  584TMC3    O2 8668   0.739   2.122  16.868  0.0046  0.5355 -0.1396
  585MPD2     C 8669   0.193   1.044  17.609  0.3098  0.3984  1.0212
  585MPD2    C1 8670   0.313   1.000  17.652 -0.1494  0.0672  0.0145
  585MPD2    C2 8671   0.361   0.877  17.607 -0.3549  0.4296  0.4339
  585MPD2    C3 8672   0.277   0.798  17.527 -0.0345  0.2659 -0.4087
  585MPD2    C4 8673   0.150   0.847  17.497  0.0967 -0.3660 -0.1531
  585MPD2    C5 8674   0.102   0.961  17.549  0.0263 -0.4701  0.5361
  585MPD2     H 8675   0.461   0.841  17.629  0.4435  2.5930  0.3618
  585MPD2    H1 8676   0.088   0.779  17.441  0.0532  0.7374 -1.4438
  585MPD2    H2 8677   0.160   1.136  17.657 -1.1336 -0.3787  1.5198
  585MPD2    H3 8678   0.005   0.996  17.514  0.1087  0.2706  1.0540
  585MPD2     N 8679   0.305   0.670  17.478  0.1171 -0.5851  0.2908
  585MPD2    H5 8680   0.242   0.629  17.410  0.1583 -2.1566  1.1911
  585MPD2    N1 8681   0.378   1.082   0.062 -0.1783  0.4327 -0.2352
  585MPD2    H7 8682   0.326   1.166   0.083 -0.6705 -0.1970  1.0993
  586TMC3    C1 8683   0.430   0.468  17.435 -0.9098 -0.0356 -0.2641
  586TMC3    C2 8684   0.544   0.401  17.383 -0.1473  0.1900 -0.9150
  586TMC3    C3 8685   0.529   0.266  17.356 -0.5497 -0.2540 -0.5922
  586TMC3    C4 8686   0.311   0.405  17.454 -0.2291  0.9232  0.0591
  586TMC3    C5 8687   0.302   0.278  17.413  0.2333 -0.1363  0.6297
  586TMC3    C6 8688   0.407   0.202  17.368 -0.8469  0.1221  0.4181
  586TMC3     C 8689   0.431   0.600  17.493  0.1058 -0.0403 -0.0889
  586TMC3     O 8690   0.539   0.624  17.543 -0.1752  0.6842 -0.4666
  586TMC3     H 8691   0.642   0.442  17.363  0.5188 -1.1018 -0.2617
  586TMC3    H1 8692   0.226   0.452  17.502 -0.4035  2.4828 -1.7749
  586TMC3    H2 8693   0.394   0.095  17.361  1.2870 -0.1290  0.3853
  586TMC3    C7 8694   0.186   0.192  17.464  0.1944  0.4024 -0.2786
  586TMC3    C8 8695   0.647   0.182  17.369 -0.4051  0.0915  0.2895
  586TMC3    O1 8696   0.161   0.090  17.395  0.4048 -0.1204 -0.2522
  586TMC3    O2 8697   0.619   0.067  17.401 -0.5647 -0.0320 -0.0555
  587TMC3    C1 8698   2.999   4.342  15.926  0.3169  0.7109 -0.1000
  587TMC3    C2 8699   2.920   4.448  15.887  0.2019 -0.2364  0.3801
  587TMC3    C3 8700   2.949   4.506  15.761  0.9117 -0.9229  0.2576
  587TMC3    C4 8701   3.104   4.303  15.858 -0.4579  1.2062  0.1867
  587TMC3    C5 8702   3.131   4.379  15.739  0.8703 -0.9504 -0.0229
  587TMC3    C6 8703   3.046   4.464  15.678 -0.0079 -0.3840  0.4952
  587TMC3     C 8704   2.941   4.235  16.005  0.8537 -0.3587  0.3527
  587TMC3     O 8705   3.004   4.132  16.027 -0.7960 -0.0689  0.0613
  587TMC3     H 8706   2.845   4.500  15.944 -1.4816 -1.9121 -0.2981
  587TMC3    H1 8707   3.154   4.211  15.888 -0.4396  1.0701 -0.2698
  587TMC3    H2 8708   3.079   4.516  15.589  1.7634 -2.0209  0.2105
  587TMC3    C7 8709   3.255   4.358  15.667  0.5659  0.1346  0.8361
  587TMC3    C8 8710   2.874   4.620  15.715  0.3514  0.3201 -0.1323
  587TMC3    O1 8711   3.271   4.414  15.558  1.2607  0.0535  0.4860
  587TMC3    O2 8712   2.926   4.684  15.622  0.5978  0.0072 -0.0641
  588TMC3    C1 8713   0.260   2.288   9.015 -0.0489 -0.7169 -0.4106
  588TMC3    C2 8714   0.294   2.170   8.959  0.2066 -0.3831 -0.5112
  588TMC3    C3 8715   0.376   2.092   9.035  0.0965 -1.0584  0.1960
  588TMC3    C4 8716   0.302   2.336   9.138  0.5585  0.1699 -0.6456
  588TMC3    C5 8717   0.398   2.260   9.202 -0.3791 -0.0287 -0.1557
  588TMC3    C6 8718   0.435   2.135   9.155 -0.8237 -0.2855 -0.3806
  588TMC3     C 8719   0.149   2.363   8.956 -1.1213  0.3577 -0.1300
  588TMC3     O 8720   0.072   2.309   8.883  0.0759 -0.1336  0.1935
  588TMC3     H 8721   0.246   2.132   8.870 -2.7148  0.1374  0.8174
  588TMC3    H1 8722   0.249   2.419   9.183  1.5023  0.4643 -0.0664
  588TMC3    H2 8723   0.504   2.078   9.216 -0.6476  0.2043 -0.1248
  588TMC3    C7 8724   0.441   2.302   9.338 -0.8781  0.4762  0.1579
  588TMC3    C8 8725   0.366   1.947   9.022  0.1493 -0.2103  0.1194
  588TMC3    O1 8726   0.475   2.221   9.423  0.2084  0.0999  0.2709
  588TMC3    O2 8727   0.337   1.900   8.909  0.3947  0.0587 -0.2576
  589TMC3    C1 8728   3.463   4.043   1.089  0.5300 -0.2263 -0.2375
  589TMC3    C2 8729   3.519   4.134   1.170 -0.2984  0.0674 -0.2285
  589TMC3    C3 8730   3.652   4.115   1.200 -0.7251  0.3916  0.6261
  589TMC3    C4 8731   3.528   3.926   1.049 -0.0284 -0.2487  0.3033
  589TMC3    C5 8732   3.653   3.901   1.104  0.3463 -0.5598  0.7954
  589TMC3    C6 8733   3.725   3.997   1.176  0.4011  0.0208 -0.2437
  589TMC3     C 8734   3.318   4.033   1.075  0.3641 -0.3508  0.5474
  589TMC3     O 8735   3.268   3.942   1.011  0.0147  0.0013  0.2423
  589TMC3     H 8736   3.479   4.233   1.192 -1.5947 -0.2625 -1.0468
  589TMC3    H1 8737   3.480   3.861   0.977  1.3064 -0.7651 -0.1026
  589TMC3    H2 8738   3.815   3.967   1.229 -0.1317 -0.1102  0.5924
  589TMC3    C7 8739   3.720   3.778   1.061 -1.1248 -0.5174 -0.1760
  589TMC3    C8 8740   3.724   4.227   1.261  0.2205  0.9143  0.8227
  589TMC3    O1 8741   3.639   3.690   1.029  0.0661  0.0510  0.4028
  589TMC3    O2 8742   3.656   4.303   1.323 -0.0705 -0.0943 -0.3073
  590MPD2     C 8743   3.424   2.342  16.815  0.0245 -0.0563  0.1330
  590MPD2    C1 8744   3.375   2.448  16.752  0.1521  0.2125 -0.1121
  590MPD2    C2 8745   3.457   2.509  16.654  0.1382 -0.1593  0.1361
  590MPD2    C3 8746   3.580   2.460  16.621 -0.4083  0.2420 -0.4324
  590MPD2    C4 8747   3.634   2.360  16.703 -1.0549 -0.3812  0.3848
  590MPD2    C5 8748   3.556   2.296  16.801 -0.0791 -0.0136 -0.0600
  590MPD2     H 8749   3.422   2.602  16.612  1.6413 -0.2069 -1.2215
  590MPD2    H1 8750   3.736   2.327  16.690 -0.2888  1.4792  1.7820
  590MPD2    H2 8751   3.363   2.292  16.890 -0.4565  0.3071 -0.0204
  590MPD2    H3 8752   3.602   2.213  16.854 -0.2952 -0.8700 -1.2037
  590MPD2     N 8753   3.642   2.528  16.507 -0.5468  0.5499 -0.1498
  590MPD2    H5 8754   3.602   2.611  16.465  1.3225  1.2568 -0.5206
  590MPD2    N1 8755   3.247   2.492  16.785 -0.0796 -0.2768  0.1290
  590MPD2    H7 8756   3.199   2.448  16.862 -0.1261  3.1332  2.0484
  591TMC3    C1 8757   3.796   2.578  16.319  0.0324  0.3895  0.4760
  591TMC3    C2 8758   3.922   2.563  16.260  0.1585  0.4173  0.0942
  591TMC3    C3 8759   3.944   2.648  16.150 -0.0979 -0.1344  0.0144
  591TMC3    C4 8760   3.696   2.658  16.266  0.5802 -0.3764 -0.3133
  591TMC3    C5 8761   3.722   2.730  16.158  0.0227  0.5538  0.3182
  591TMC3    C6 8762   3.845   2.726  16.099  0.4703 -0.1696  0.1237
  591TMC3     C 8763   3.757   2.490  16.432 -0.2447 -0.2522 -0.5445
  591TMC3     O 8764   3.840   2.399  16.451 -0.0872 -0.6893  0.2904
  591TMC3     H 8765   3.986   2.479  16.285 -1.7423 -0.6583  1.3442
  591TMC3    H1 8766   3.594   2.650  16.302  1.0883 -1.7568  0.7989
  591TMC3    H2 8767   3.855   2.763  15.997  0.2546 -0.8646 -0.1549
  591TMC3    C7 8768   3.618   2.819  16.106  0.0028  0.4216 -0.8936
  591TMC3    C8 8769   4.065   2.627  16.074  0.3332 -0.6521  0.5289
  591TMC3    O1 8770   3.502   2.791  16.139 -0.4704  0.3432 -0.5973
  591TMC3    O2 8771   4.127   2.526  16.097  0.5799  0.1484  0.3501
  592MPD2     C 8772   4.140   0.117  11.216  0.3146  0.5380 -0.1775
  592MPD2    C1 8773   4.219   0.111  11.328  0.6208 -0.0184 -0.2505
  592MPD2    C2 8774   4.185   0.011  11.418  0.0954 -0.3880 -0.2800
  592MPD2    C3 8775   4.077   4.641  11.399 -0.3789 -0.1144  0.2748
  592MPD2    C4 8776   4.006   4.651  11.283  0.6971  0.3904  0.5581
  592MPD2    C5 8777   4.042   0.032  11.195 -0.0171  0.7323 -0.0168
  592MPD2     H 8778   4.243   0.001  11.509 -0.0198  0.7026 -0.0949
  592MPD2    H1 8779   3.920   4.588  11.267  0.3277  1.0700 -0.1379
  592MPD2    H2 8780   4.168   0.188  11.139 -0.2987  2.3205  1.2293
  592MPD2    H3 8781   3.985   0.047  11.103 -0.1037 -0.0196 -0.0911
  592MPD2     N 8782   4.059   4.535  11.495  0.0532 -0.2395 -0.1844
  592MPD2    H5 8783   4.119   4.536  11.576 -0.9048 -1.9731  0.5397
  592MPD2    N1 8784   4.321   0.207  11.349  0.7035 -0.0016 -0.1162
  592MPD2    H7 8785   4.336   0.276  11.277  0.6513  1.0675  0.8967
  593TMC3    C1 8786   4.497   0.341  11.453 -0.1734  0.7353 -0.2728
  593TMC3    C2 8787   4.514   0.400  11.576  0.0961 -0.2197  0.0409
  593TMC3    C3 8788   4.525   0.530  11.587 -0.1684 -0.7021  0.1108
  593TMC3    C4 8789   4.500   0.417  11.341 -0.0868  0.0502  0.0710
  593TMC3    C5 8790   4.515   0.549  11.359 -0.1187 -0.3208 -0.1196
  593TMC3    C6 8791   4.529   0.609  11.480 -0.2433  0.5120  0.3063
  593TMC3     C 8792   4.413   0.217  11.456  0.1542 -0.0797 -0.0127
  593TMC3     O 8793   4.415   0.162  11.564 -0.6137  0.2608 -0.2873
  593TMC3     H 8794   4.512   0.347  11.670 -0.0638  0.2948  0.3261
  593TMC3    H1 8795   4.508   0.367  11.246  1.6883  0.8267 -0.1816
  593TMC3    H2 8796   4.551   0.715  11.488 -1.1099  0.5109  2.5665
  593TMC3    C7 8797   4.562   0.629  11.245 -0.6764 -0.0606  0.1901
  593TMC3    C8 8798   4.591   0.589  11.705 -0.1710  0.1166  0.4214
  593TMC3    O1 8799   4.641   0.718  11.274  0.0394  0.0840 -0.0501
  593TMC3    O2 8800   4.574   0.710  11.735  0.1369  0.6629 -0.3917
  594MPD2     C 8801   2.696   2.967  14.375  0.4737 -0.1405  0.3011
  594MPD2    C1 8802   2.589   3.036  14.324  0.2660 -0.4781 -0.6449
  594MPD2    C2 8803   2.618   3.137  14.235 -0.0868 -0.2605  0.2294
  594MPD2    C3 8804   2.742   3.196  14.224  0.3613 -0.0549  0.0879
  594MPD2    C4 8805   2.841   3.145  14.303  0.0126  0.4297 -0.8789
  594MPD2    C5 8806   2.821   3.026  14.369 -0.0715  0.1742  0.4913
  594MPD2     H 8807   2.536   3.176  14.176  1.6493  0.7982 -1.4642
  594MPD2    H1 8808   2.939   3.189  14.293  1.6170 -2.5847  1.5629
  594MPD2    H2 8809   2.678   2.878  14.435 -1.2935  0.5249  0.7775
  594MPD2    H3 8810   2.906   2.975  14.413  0.5550  1.3749  0.6715
  594MPD2     N 8811   2.772   3.300  14.133  0.1748 -0.4058 -0.2074
  594MPD2    H5 8812   2.873   3.312  14.133 -0.0227  1.3101 -0.6907
  594MPD2    N1 8813   2.461   2.975  14.340 -0.5425  0.3068 -0.1630
  594MPD2    H7 8814   2.463   2.899  14.408  0.9042  0.6354  0.1779
  595TMC3    C1 8815   2.961   3.592  13.992 -0.1668 -0.0353  0.6630
  595TMC3    C2 8816   2.897   3.471  13.997 -0.4322 -0.2627 -0.2756
  595TMC3    C3 8817   2.763   3.470  13.983 -0.6264 -0.1030 -0.4027
  595TMC3    C4 8818   2.891   3.709  13.991  0.5209  0.7756  0.0629
  595TMC3    C5 8819   2.760   3.706  13.988  0.3057  0.3237  0.8068
  595TMC3    C6 8820   2.691   3.584  13.975  0.3028  0.4185  0.3392
  595TMC3     C 8821   3.085   3.608  14.062 -0.6586  0.1425  0.6579
  595TMC3     O 8822   3.109   3.720  14.101 -0.6939  0.0852  0.5925
  595TMC3     H 8823   2.952   3.382  13.971  1.7260  0.4027  2.0435
  595TMC3    H1 8824   2.952   3.799  13.989 -1.7254  2.3067 -0.0151
  595TMC3    H2 8825   2.582   3.583  13.974  0.3057  0.0727  0.5146
  595TMC3    C7 8826   2.717   3.796  14.099 -1.1033 -0.5323 -0.3979
  595TMC3    C8 8827   2.695   3.361  14.046  0.7522 -0.7135  0.6528
  595TMC3    O1 8828   2.598   3.824  14.109  0.1016 -0.8116 -0.1501
  595TMC3    O2 8829   2.580   3.333  14.019  0.3812  0.2650 -0.5706
  596MPD2     C 8830   1.702   1.396  16.695 -0.2973 -0.8890  0.4675
  596MPD2    C1 8831   1.717   1.518  16.632 -0.4277 -0.0231 -0.3445
  596MPD2    C2 8832   1.757   1.511  16.495 -0.0525  0.1642  0.1512
  596MPD2    C3 8833   1.766   1.389  16.427  0.0153  0.7594  0.3832
  596MPD2    C4 8834   1.752   1.271  16.494 -0.2888 -0.4253  0.4499
  596MPD2    C5 8835   1.716   1.277  16.630  0.0558 -0.2316 -0.3933
  596MPD2     H 8836   1.754   1.604  16.439  2.2547  0.7435  0.9907
  596MPD2    H1 8837   1.755   1.174  16.446 -4.5080  0.6945 -2.0700
  596MPD2    H2 8838   1.675   1.387  16.800 -2.2900 -1.8653 -0.1245
  596MPD2    H3 8839   1.695   1.189  16.688 -0.2427  0.0265 -0.1101
  596MPD2     N 8840   1.787   1.376  16.288 -0.2574  0.2081 -0.4941
  596MPD2    H5 8841   1.778   1.286  16.244  0.4741  0.1133 -0.4592
  596MPD2    N1 8842   1.693   1.641  16.699  0.1754 -0.6631 -0.4749
  596MPD2    H7 8843   1.714   1.726  16.648 -0.6767  0.9052  1.7644
  597TMC3    C1 8844   1.617   1.793  16.861  0.3439  0.0272  0.3226
  597TMC3    C2 8845   1.674   1.895  16.801  0.1172  0.2688  0.3126
  597TMC3    C3 8846   1.621   2.022  16.820  0.2103 -0.1888  0.4617
  597TMC3    C4 8847   1.510   1.816  16.940 -0.3751 -0.3132  0.3300
  597TMC3    C5 8848   1.454   1.940  16.958  0.0157  0.3585 -0.7092
  597TMC3    C6 8849   1.511   2.048  16.892 -0.2774  0.1379  0.4111
  597TMC3     C 8850   1.643   1.658  16.829 -0.2332 -0.3567  0.3737
  597TMC3     O 8851   1.583   1.572  16.895  0.3949 -0.1863  0.4066
  597TMC3     H 8852   1.764   1.873  16.745 -0.5978 -2.0155  0.0875
  597TMC3    H1 8853   1.472   1.731  16.996 -1.4686  1.2084  1.8770
  597TMC3    H2 8854   1.456   2.141  16.884  1.0829  1.0721  1.6791
  597TMC3    C7 8855   1.374   1.967  17.071  0.4420 -0.7062 -0.0963
  597TMC3    C8 8856   1.679   2.135  16.757 -0.7038 -0.5719 -0.0390
  597TMC3    O1 8857   1.312   1.873  17.117 -0.4167 -0.5315 -0.0609
  597TMC3    O2 8858   1.614   2.233  16.732  0.2073 -0.1906 -0.0451
  598TMC3    C1 8859   0.058   3.220  15.356 -0.6723 -0.5931 -0.4215
  598TMC3    C2 8860   4.664   3.154  15.391 -0.0803 -0.1373 -0.1681
  598TMC3    C3 8861   4.561   3.143  15.301  0.1300  0.2795 -0.4810
  598TMC3    C4 8862   0.062   3.302  15.245 -0.2807  0.0290  0.2209
  598TMC3    C5 8863   4.680   3.291  15.151 -0.4070 -0.6037  0.8177
  598TMC3    C6 8864   4.567   3.212  15.181 -0.1263  0.2629 -0.0814
  598TMC3     C 8865   0.191   3.190  15.420  0.1945 -0.0963  0.1265
  598TMC3     O 8866   0.280   3.273  15.398  0.5478  0.4572  0.3067
  598TMC3     H 8867   4.659   3.095  15.481 -0.7673  1.7440  1.0277
  598TMC3    H1 8868   0.157   3.352  15.228 -1.0049  0.4822 -2.5926
  598TMC3    H2 8869   4.492   3.205  15.103 -1.7868 -1.9564  1.7070
  598TMC3    C7 8870   4.710   3.320  15.011  0.1701  0.3033  0.5471
  598TMC3    C8 8871   4.445   3.069  15.341  0.7242  0.7298 -0.0040
  598TMC3    O1 8872   4.642   3.258  14.932 -0.1074  0.0525  0.2250
  598TMC3    O2 8873   4.439   3.051  15.463  0.0075 -0.0398 -0.0537
  599MPD2     C 8874   0.293   0.632  16.640  0.0094  0.6282  0.1915
  599MPD2    C1 8875   0.265   0.577  16.518 -0.6923 -0.3368  0.3108
  599MPD2    C2 8876   0.132   0.575  16.476 -0.1933  0.2115 -0.8929
  599MPD2    C3 8877   0.032   0.624  16.553 -0.0921  0.0396 -0.3146
  599MPD2    C4 8878   0.061   0.684  16.677 -0.5189  0.2165  0.1800
  599MPD2    C5 8879   0.191   0.678  16.719 -0.5121  0.3778 -0.0196
  599MPD2     H 8880   0.108   0.540  16.377 -0.6539 -1.3709 -0.2219
  599MPD2    H1 8881   4.700   0.721  16.738  0.5526  0.9545  1.1753
  599MPD2    H2 8882   0.396   0.640  16.674 -0.2012  2.3059  0.4694
  599MPD2    H3 8883   0.212   0.711  16.820  0.0744  0.0288 -0.0275
  599MPD2     N 8884   4.612   0.613  16.524 -0.0142  0.1106  0.2131
  599MPD2    H5 8885   4.541   0.667  16.573 -0.3393 -2.7133  2.8984
  599MPD2    N1 8886   0.368   0.531  16.438 -0.0878 -0.1867 -0.3609
  599MPD2    H7 8887   0.463   0.545  16.471 -0.5990  0.8013  0.6965
  600TMC3    C1 8888   4.421   0.554  16.383 -0.3782  0.8325 -0.1250
  600TMC3    C2 8889   4.349   0.448  16.333  1.0093 -0.3632  0.3106
  600TMC3    C3 8890   4.228   0.469  16.273 -0.0863 -0.1730 -0.5844
  600TMC3    C4 8891   4.361   0.679  16.386  0.4946 -0.1333  0.8632
  600TMC3    C5 8892   4.235   0.693  16.331 -0.2204  0.6670  0.3886
  600TMC3    C6 8893   4.166   0.592  16.276 -0.0192 -0.5868  0.6917
  600TMC3     C 8894   4.559   0.532  16.424 -0.3736 -0.1133 -0.5731
  600TMC3     O 8895   4.608   0.427  16.383  0.0313 -0.3587 -0.1655
  600TMC3     H 8896   4.385   0.346  16.326  0.0402 -0.6679 -0.2834
  600TMC3    H1 8897   4.415   0.751  16.446 -1.5816  2.6570 -0.6243
  600TMC3    H2 8898   4.062   0.606  16.247  0.7537 -0.8462 -2.2350
  600TMC3    C7 8899   4.164   0.812  16.380 -0.2365 -0.2376  0.1280
  600TMC3    C8 8900   4.172   0.354  16.209  0.3270  0.0153 -0.2199
  600TMC3    O1 8901   4.046   0.794  16.405 -0.2955 -0.0551  0.3209
  600TMC3    O2 8902   4.197   0.250  16.268 -0.1346 -0.1646  0.4568
  601MPD2     C 8903   2.718   3.358   0.119  0.3990 -0.8195 -0.6001
  601MPD2    C1 8904   2.580   3.341   0.104 -0.4011  0.0351  0.1271
  601MPD2    C2 8905   2.506   3.278   0.198  0.3096 -1.1747 -0.3136
  601MPD2    C3 8906   2.565   3.209   0.300 -0.5011  0.3528  0.1011
  601MPD2    C4 8907   2.702   3.218   0.317  0.7755  0.4381  0.2585
  601MPD2    C5 8908   2.773   3.297   0.227 -0.0195 -0.3987 -0.1305
  601MPD2     H 8909   2.399   3.275   0.185  0.3683 -2.2374 -0.5594
  601MPD2    H1 8910   2.757   3.175   0.400 -1.0428  0.0517  1.2573
  601MPD2    H2 8911   2.776   3.412   0.044  0.8688  0.3082  0.5874
  601MPD2    H3 8912   2.879   3.307   0.245 -0.0740 -1.9925  1.1157
  601MPD2     N 8913   2.505   3.116   0.382  0.0589 -0.5752  0.5098
  601MPD2    H5 8914   2.556   3.073   0.459 -0.3770 -0.3513  0.9270
  601MPD2    N1 8915   2.513   3.384  17.674 -0.7292  0.9412  0.2244
  601MPD2    H7 8916   2.412   3.375  17.673 -0.4682 -2.4957  3.5030
  602TMC3    C1 8917   2.469   3.462  17.459 -0.1637  0.2042  0.4098
  602TMC3    C2 8918   2.503   3.457  17.323  0.3675  0.3796 -0.7139
  602TMC3    C3 8919   2.417   3.510  17.233 -0.4189 -0.1967  0.1048
  602TMC3    C4 8920   2.359   3.532  17.509 -0.4643  0.8227  0.1748
  602TMC3    C5 8921   2.285   3.599  17.413  0.0970  0.4455 -0.0696
  602TMC3    C6 8922   2.307   3.582  17.274 -0.9643  0.3660 -0.7362
  602TMC3     C 8923   2.569   3.418  17.556  0.2302  0.4485  0.4072
  602TMC3     O 8924   2.682   3.448  17.519  0.3930 -1.1251 -0.2610
  602TMC3     H 8925   2.587   3.395  17.294 -0.8700 -1.1711 -0.9824
  602TMC3    H1 8926   2.342   3.558  17.612  1.7530 -1.7479  1.1976
  602TMC3    H2 8927   2.238   3.625  17.202 -0.6340 -0.2317 -1.4208
  602TMC3    C7 8928   2.213   3.723  17.458 -0.3804  0.1344  0.0084
  602TMC3    C8 8929   2.467   3.524  17.099  0.4818  0.5864 -0.2289
  602TMC3    O1 8930   2.165   3.732  17.568  0.1258  0.0904 -0.5517
  602TMC3    O2 8931   2.545   3.433  17.064 -0.6277 -0.2205  0.1928
  603TMC3    C1 8932   0.871   4.132  10.303  0.2125  0.0536  0.4258
  603TMC3    C2 8933   0.924   4.117  10.426  0.0027  0.3818  0.2218
  603TMC3    C3 8934   0.958   4.230  10.485  0.6234  0.1456 -0.2128
  603TMC3    C4 8935   0.870   4.251  10.235 -0.0850  0.7931  0.4150
  603TMC3    C5 8936   0.915   4.363  10.296  0.4266 -0.3979  0.3681
  603TMC3    C6 8937   0.975   4.353  10.418 -0.3126  0.1582  0.3018
  603TMC3     C 8938   0.856   4.012  10.217 -0.3130 -0.7857  0.1357
  603TMC3     O 8939   0.808   4.021  10.106  0.0001 -0.0509 -0.0180
  603TMC3     H 8940   0.920   4.027  10.485 -0.4396  1.3370  1.6378
  603TMC3    H1 8941   0.826   4.260  10.136  1.4545  0.1082 -0.3259
  603TMC3    H2 8942   1.003   4.445  10.469 -0.2892  0.6631 -0.6080
  603TMC3    C7 8943   0.905   4.489  10.232 -0.4327  0.1185 -0.4198
  603TMC3    C8 8944   0.992   4.207  10.627 -0.5913  0.3591 -0.2676
  603TMC3    O1 8945   0.978   4.571  10.280  0.1968  0.1794 -0.1404
  603TMC3    O2 8946   0.974   4.098  10.682 -0.0706 -0.6565 -0.1619
  604MPD2     C 8947   1.223   3.031  16.389 -0.2712  0.3810  0.2107
  604MPD2    C1 8948   1.106   2.954  16.364  1.3910 -0.0196  0.2256
  604MPD2    C2 8949   1.094   2.857  16.263  0.5102 -0.3909  0.4263
  604MPD2    C3 8950   1.206   2.822  16.194 -0.6255  0.2446  0.4938
  604MPD2    C4 8951   1.325   2.883  16.225 -0.1530  0.0250 -0.6013
  604MPD2    C5 8952   1.331   2.992  16.313  0.4998 -0.4339 -0.4000
  604MPD2     H 8953   1.000   2.810  16.239  2.2991 -3.1594 -1.2032
  604MPD2    H1 8954   1.414   2.865  16.166  1.2127  0.7063  1.2486
  604MPD2    H2 8955   1.234   3.110  16.463 -0.6864  0.6199  0.0196
  604MPD2    H3 8956   1.425   3.042  16.335  0.0412 -0.5982  1.9538
  604MPD2     N 8957   1.189   2.730  16.091 -0.7154  0.5274 -0.6612
  604MPD2    H5 8958   1.093   2.696  16.092 -1.8730  3.8478  1.3629
  604MPD2    N1 8959   0.991   2.995  16.432 -0.1714  0.3577 -0.6620
  604MPD2    H7 8960   1.002   3.077  16.491  0.2664  0.5727 -1.0415
  605TMC3    C1 8961   0.772   3.026  16.505  0.0567  0.2501 -0.9346
  605TMC3    C2 8962   0.827   3.112  16.593 -0.0032 -0.0084  0.0110
  605TMC3    C3 8963   0.753   3.202  16.657  0.0736 -0.1900  0.4532
  605TMC3    C4 8964   0.639   3.025  16.471  0.5778 -0.3913 -0.1950
  605TMC3    C5 8965   0.565   3.122  16.540 -0.1277 -0.2168 -0.2589
  605TMC3    C6 8966   0.621   3.209  16.629  0.1729  0.0649  0.3730
  605TMC3     C 8967   0.862   2.938  16.432 -0.5170 -0.4027  0.6278
  605TMC3     O 8968   0.806   2.849  16.368  0.6420 -0.5564 -0.3086
  605TMC3     H 8969   0.929   3.099  16.627 -0.2189  0.7920  0.9714
  605TMC3    H1 8970   0.609   2.973  16.381 -1.5098  2.0109 -0.9186
  605TMC3    H2 8971   0.564   3.279  16.688  1.6478 -0.9860  3.0202
  605TMC3    C7 8972   0.421   3.117  16.544  0.0138 -0.2523  0.3354
  605TMC3    C8 8973   0.827   3.271  16.762  0.3410  0.4391 -0.8677
  605TMC3    O1 8974   0.366   3.222  16.582 -0.3240  0.1555  0.1536
  605TMC3    O2 8975   0.934   3.220  16.797  0.0983  0.4763 -0.3756
  606TMC3    C1 8976   1.552   1.784  17.351 -0.1747  0.2828  0.6329
  606TMC3    C2 8977   1.583   1.808  17.486  0.2410  0.4888  0.5920
  606TMC3    C3 8978   1.577   1.706  17.575 -0.5429 -0.2178  0.0219
  606TMC3    C4 8979   1.523   1.657  17.300 -0.1965 -0.2860  0.0381
  606TMC3    C5 8980   1.528   1.558  17.390  0.7062  0.0748 -0.2161
  606TMC3    C6 8981   1.543   1.579  17.525 -0.1019  0.8492 -0.1209
  606TMC3     C 8982   1.640   1.841  17.256  0.1364  0.3815  0.5964
  606TMC3     O 8983   1.697   1.776  17.172  0.7044 -0.1391  0.3981
  606TMC3     H 8984   1.634   1.900  17.513  0.5032  0.6645 -0.5210
  606TMC3    H1 8985   1.510   1.632  17.195  1.8416 -2.0724  0.2158
  606TMC3    H2 8986   1.534   1.489  17.584 -1.8998  1.5934  0.7292
  606TMC3    C7 8987   1.570   1.428  17.348  0.7650  0.4176 -0.0117
  606TMC3    C8 8988   1.642   1.711   0.023 -0.2101 -0.3352  0.0844
  606TMC3    O1 8989   1.548   1.328  17.412  0.3267 -0.5744 -0.5042
  606TMC3    O2 8990   1.605   1.622   0.096  0.2983 -0.8577  0.5951
  607MPD2     C 8991   4.400   4.283  10.767 -0.0695  0.5749  0.0490
  607MPD2    C1 8992   4.374   4.338  10.892 -0.8428 -0.0641  0.1579
  607MPD2    C2 8993   4.322   4.261  10.991 -0.5940  0.2866 -0.4470
  607MPD2    C3 8994   4.313   4.125  10.986 -0.5072 -0.0576 -0.0158
  607MPD2    C4 8995   4.348   4.068  10.868  0.4371  0.2050 -0.3798
  607MPD2    C5 8996   4.381   4.145  10.759 -0.1589  0.2597  0.0873
  607MPD2     H 8997   4.303   4.300  11.090  1.1370 -0.7959  0.3237
  607MPD2    H1 8998   4.333   3.961  10.851  0.0737 -0.0748  1.7054
  607MPD2    H2 8999   4.444   4.333  10.682 -2.8914  0.8783 -1.2037
  607MPD2    H3 9000   4.377   4.101  10.660  0.6871 -1.0569  0.6346
  607MPD2     N 9001   4.263   4.057  11.103 -0.1790  0.0397  0.0528
  607MPD2    H5 9002   4.246   4.114  11.186  0.5851 -0.5192  0.5959
  607MPD2    N1 9003   4.404   4.473  10.922  0.2640  0.1327 -0.0736
  607MPD2    H7 9004   4.383   4.498  11.018 -0.0040  0.1154 -0.1271
  608TMC3    C1 9005   4.531   4.657  10.946  0.0338  0.9100 -0.8908
  608TMC3    C2 9006   4.543   4.615  11.078  0.2266 -0.4146  0.7195
  608TMC3    C3 9007   4.613   4.699  11.161  0.0975 -1.2658  0.1264
  608TMC3    C4 9008   4.583   0.048  10.893 -0.0911  0.5002  0.6493
  608TMC3    C5 9009   4.656   0.124  10.976 -0.1168  0.0723 -0.0327
  608TMC3    C6 9010   4.666   0.098  11.114  0.6746  0.3354  0.0709
  608TMC3     C 9011   4.489   4.555  10.854  0.1464  0.7075  0.2322
  608TMC3     O 9012   4.531   4.537  10.738  0.0038  0.2167  0.1399
  608TMC3     H 9013   4.519   4.515  11.112  1.4516 -1.3793 -1.2341
  608TMC3    H1 9014   4.572   0.071  10.788 -3.3050 -2.6782  0.2541
  608TMC3    H2 9015   0.022   0.144  11.176  0.1952 -0.7308  1.4393
  608TMC3    C7 9016   0.016   0.227  10.917 -0.5972 -0.5450  0.4966
  608TMC3    C8 9017   4.609   4.677  11.301 -1.3025  0.5977 -0.7744
  608TMC3    O1 9018   0.038   0.210  10.794  0.0773 -0.7678 -0.5487
  608TMC3    O2 9019   4.692   0.014  11.370  0.8717 -0.0237  0.0750
  609TMC3    C1 9020   2.810   3.414   9.125  0.7913 -0.4665  0.4767
  609TMC3    C2 9021   2.705   3.397   9.043  0.8494 -0.3317  0.8718
  609TMC3    C3 9022   2.722   3.329   8.929 -0.2071 -0.0945  0.6988
  609TMC3    C4 9023   2.933   3.363   9.091  0.5564  0.2352  0.0629
  609TMC3    C5 9024   2.948   3.298   8.975  0.5890 -0.2805 -0.4454
  609TMC3    C6 9025   2.841   3.275   8.893  0.2793  0.4227 -0.0452
  609TMC3     C 9026   2.787   3.431   9.267  0.3397 -0.3025 -0.1085
  609TMC3     O 9027   2.867   3.368   9.337  0.4229 -0.6674  0.3506
  609TMC3     H 9028   2.607   3.430   9.077  0.3305  1.0329 -1.9333
  609TMC3    H1 9029   3.014   3.389   9.157  0.0544  0.4962  0.5760
  609TMC3    H2 9030   2.853   3.220   8.800 -1.4365 -1.6440  0.9452
  609TMC3    C7 9031   3.085   3.239   8.963  0.2498 -0.2569  0.5396
  609TMC3    C8 9032   2.610   3.314   8.839 -0.5160  0.4846  0.2818
  609TMC3    O1 9033   3.174   3.269   9.041 -0.1389  0.0249 -0.5061
  609TMC3    O2 9034   2.627   3.231   8.749 -0.3516  0.3903 -0.4329
  610TMC3    C1 9035   4.642   4.170  12.091  0.3624  0.5524 -0.9265
  610TMC3    C2 9036   4.704   4.164  11.972  0.1490  0.7965 -0.8138
  610TMC3    C3 9037   0.114   4.201  11.981  0.0607  0.0815  0.1116
  610TMC3    C4 9038   4.699   4.194  12.207  0.0615  0.1543 -0.2668
  610TMC3    C5 9039   0.116   4.212  12.213 -0.1491 -0.4186  0.1450
  610TMC3    C6 9040   0.188   4.208  12.098  0.3610 -0.0077 -0.3264
  610TMC3     C 9041   4.497   4.147  12.079  1.2066 -0.1596 -0.2618
  610TMC3     O 9042   4.434   4.223  12.006 -0.1571 -0.2398 -0.0138
  610TMC3     H 9043   4.647   4.152  11.881 -3.4625 -0.8308  1.6666
  610TMC3    H1 9044   4.629   4.195  12.290  3.0874 -3.2302  2.3173
  610TMC3    H2 9045   0.290   4.247  12.095  0.5053 -0.1099  2.8851
  610TMC3    C7 9046   0.187   4.186  12.332  0.0119 -0.0990  0.6448
  610TMC3    C8 9047   0.181   4.261  11.870  0.0791 -1.2170  1.0142
  610TMC3    O1 9048   0.286   4.118  12.323  0.0159 -0.2504  0.6615
  610TMC3    O2 9049   0.271   4.339  11.893  0.1292  0.7572 -0.1055
  611MPD2     C 9050   4.249   4.638   9.780  1.0032 -0.0909  0.3197
  611MPD2    C1 9051   4.327   4.530   9.825  0.5938  0.1503 -0.3084
  611MPD2    C2 9052   4.459   4.530   9.786  0.1788  0.4807 -0.0747
  611MPD2    C3 9053   4.504   4.632   9.701  0.4436 -0.8855  0.4634
  611MPD2    C4 9054   4.425   0.012   9.661  0.5868  0.3488 -0.7318
  611MPD2    C5 9055   4.292   0.015   9.692 -0.3754  0.3212  0.3694
  611MPD2     H 9056   4.527   4.448   9.809 -0.2480  0.2102  0.2080
  611MPD2    H1 9057   4.459   0.093   9.596  0.5762  2.0811  1.4262
  611MPD2    H2 9058   4.148   4.652   9.818  0.1347 -1.1209 -1.5968
  611MPD2    H3 9059   4.236   0.103   9.665 -0.1239  0.0403 -1.0569
  611MPD2     N 9060   4.636   4.629   9.648  0.3977 -0.3508  0.6549
  611MPD2    H5 9061   4.658   4.689   9.569  0.5108 -1.7995 -0.3924
  611MPD2    N1 9062   4.276   4.434   9.919 -0.5056  0.0372  0.5879
  611MPD2    H7 9063   4.182   4.450   9.953 -0.4597  2.3725 -0.4226
  612TMC3    C1 9064   0.138   4.595   9.630 -0.2844 -0.0573  0.2183
  612TMC3    C2 9065   0.259   4.581   9.691  0.0638  0.2916  0.0367
  612TMC3    C3 9066   0.365   4.646   9.625 -0.9554  0.7517  0.7722
  612TMC3    C4 9067   0.122   4.639   9.499 -0.3976 -0.3906  0.3666
  612TMC3    C5 9068   0.232   4.696   9.445  0.0490 -1.0017  0.6614
  612TMC3    C6 9069   0.355   4.703   9.500 -0.2031  0.1983  0.5440
  612TMC3     C 9070   0.020   4.560   9.705  0.3221  0.0369 -0.2591
  612TMC3     O 9071   0.021   4.491   9.806 -0.4874  0.3884 -0.3439
  612TMC3     H 9072   0.265   4.549   9.794 -1.0554 -1.4774 -0.4557
  612TMC3    H1 9073   0.035   4.630   9.436  0.0828 -0.0978 -0.3295
  612TMC3    H2 9074   0.436   0.037   9.454 -2.1924  0.7869 -2.2328
  612TMC3    C7 9075   0.234   0.017   9.304  0.1000  0.4943 -0.4519
  612TMC3    C8 9076   0.458   0.001   9.702  0.6260  0.6116 -0.0001
  612TMC3    O1 9077   0.332   4.702   9.246 -0.1792 -0.2258  0.0123
  612TMC3    O2 9078   0.475   0.115   9.664 -0.8075 -0.3520  0.2468
  613MPD2     C 9079   3.151   1.597  16.555 -0.5354  0.1358 -0.0848
  613MPD2    C1 9080   3.093   1.657  16.446  0.6657  0.2069 -0.4152
  613MPD2    C2 9081   3.012   1.574  16.367 -0.5145  0.2027  0.4274
  613MPD2    C3 9082   3.007   1.440  16.400  0.0790  0.0840  0.1033
  613MPD2    C4 9083   3.069   1.388  16.510 -0.5776  0.1509  0.3508
  613MPD2    C5 9084   3.131   1.467  16.595  0.0221  0.5607 -0.1750
  613MPD2     H 9085   2.959   1.607  16.278 -0.9461  3.5241  1.8937
  613MPD2    H1 9086   3.066   1.281  16.528 -0.3541  0.1892  0.6172
  613MPD2    H2 9087   3.218   1.656  16.618 -1.9514  0.7810  0.8205
  613MPD2    H3 9088   3.174   1.423  16.685  1.5949  0.9732 -0.7235
  613MPD2     N 9089   2.932   1.343  16.328  0.1420 -0.1293  0.1118
  613MPD2    H5 9090   2.930   1.247  16.361  1.0259 -0.5793 -1.1321
  613MPD2    N1 9091   3.123   1.790  16.405 -0.3009 -0.3597 -0.1132
  613MPD2    H7 9092   3.209   1.830  16.441 -0.7133 -1.0608  1.6469
  614TMC3    C1 9093   3.159   1.905  16.204  0.3029  0.6934  0.6580
  614TMC3    C2 9094   3.206   1.779  16.156 -0.1966 -0.5706  0.0357
  614TMC3    C3 9095   3.192   1.759  16.024  0.6067  0.8861 -0.3570
  614TMC3    C4 9096   3.100   1.996  16.117 -0.3476  0.9327 -0.6448
  614TMC3    C5 9097   3.094   1.969  15.984 -0.6244 -0.1301  0.2073
  614TMC3    C6 9098   3.134   1.846  15.929 -0.1680  0.0235 -0.3834
  614TMC3     C 9099   3.067   1.859  16.304 -0.3370  0.3962  0.0060
  614TMC3     O 9100   2.946   1.867  16.280  0.4576 -0.6676  0.0927
  614TMC3     H 9101   3.254   1.706  16.222  2.3934  1.1281  0.0328
  614TMC3    H1 9102   3.052   2.083  16.160 -0.6848 -0.2727  1.4114
  614TMC3    H2 9103   3.100   1.816  15.831  2.3653 -1.7003 -0.7138
  614TMC3    C7 9104   3.010   2.063  15.914  0.2727 -0.0858 -0.0384
  614TMC3    C8 9105   3.187   1.623  15.984  0.0957 -0.5769  0.1813
  614TMC3    O1 9106   2.929   2.125  15.984  0.6515 -0.5079 -0.2682
  614TMC3    O2 9107   3.143   1.548  16.069  0.1529 -0.4250 -0.5386
  615MPD2     C 9108   2.412   2.940  16.528 -0.2946 -0.2820  0.2886
  615MPD2    C1 9109   2.536   2.963  16.469  0.3423 -0.2609  0.0784
  615MPD2    C2 9110   2.537   3.016  16.334 -0.6056  0.0104  1.0984
  615MPD2    C3 9111   2.422   3.045  16.263 -0.3657  0.2016 -0.2252
  615MPD2    C4 9112   2.303   3.019  16.323 -0.2360 -0.5773  0.4177
  615MPD2    C5 9113   2.301   2.958  16.449 -0.5898 -0.1639 -0.0719
  615MPD2     H 9114   2.637   3.043  16.300  0.5856 -2.7199  2.4356
  615MPD2    H1 9115   2.207   3.030  16.272 -0.1889 -0.2233  0.4067
  615MPD2    H2 9116   2.397   2.907  16.631 -1.3805  0.0552  0.2384
  615MPD2    H3 9117   2.203   2.921  16.479 -1.2248  1.5227 -0.0322
  615MPD2     N 9118   2.429   3.099  16.136 -0.5743  0.4156 -0.7220
  615MPD2    H5 9119   2.343   3.113  16.085  0.0078  1.2253 -1.4923
  615MPD2    N1 9120   2.659   2.954  16.543  0.5453 -0.3284  0.1042
  615MPD2    H7 9121   2.743   2.965  16.488  2.0293 -0.0613  2.3994
  616TMC3    C1 9122   2.803   2.897  16.734  0.8059 -0.1952  0.2370
  616TMC3    C2 9123   2.915   2.938  16.666 -0.0665  0.3544  0.3834
  616TMC3    C3 9124   3.035   2.935  16.730  0.0350  0.2087 -0.6201
  616TMC3    C4 9125   2.813   2.848  16.857 -0.2559 -0.4748 -0.6842
  616TMC3    C5 9126   2.932   2.828  16.913 -0.3345  0.4947 -0.3371
  616TMC3    C6 9127   3.046   2.877  16.851  0.3978  0.4627  0.3932
  616TMC3     C 9128   2.667   2.916  16.679 -0.2616  0.1493 -1.2851
  616TMC3     O 9129   2.576   2.926  16.761 -0.0793 -0.3295  0.0810
  616TMC3     H 9130   2.902   3.003  16.579 -1.1783  1.0613  1.0784
  616TMC3    H1 9131   2.720   2.814  16.902  0.2370  0.1721  0.7939
  616TMC3    H2 9132   3.142   2.877  16.903  0.2549 -0.5037  0.6601
  616TMC3    C7 9133   2.926   2.767  17.043 -0.0389  0.1608 -0.3355
  616TMC3    C8 9134   3.149   2.998  16.665  0.2016 -0.1544  0.4401
  616TMC3    O1 9135   2.819   2.781  17.101  0.6483  0.0833 -0.2486
  616TMC3    O2 9136   3.233   3.022  16.753 -0.2542 -0.4230 -0.2408
  617MPD2     C 9137   0.679   1.577  13.561 -0.4786 -0.5940 -0.2432
  617MPD2    C1 9138   0.729   1.472  13.638 -0.2788 -0.0814  0.0835
  617MPD2    C2 9139   0.643   1.394  13.707 -0.5082 -0.2924 -0.2294
  617MPD2    C3 9140   0.506   1.420  13.701  1.3107 -0.2301 -0.5092
  617MPD2    C4 9141   0.463   1.523  13.621  0.5095  0.4768 -0.3060
  617MPD2    C5 9142   0.552   1.607  13.558  0.7931  0.3016  0.5240
  617MPD2     H 9143   0.676   1.307  13.763  0.5457  1.0082  1.1519
  617MPD2    H1 9144   0.364   1.565  13.631  0.7026  0.9920 -0.5356
  617MPD2    H2 9145   0.740   1.646  13.503 -0.1684  0.3485  1.1984
  617MPD2    H3 9146   0.519   1.694  13.503 -0.7986 -1.2607 -1.0069
  617MPD2     N 9147   0.413   1.342  13.776  0.0628 -0.5796 -0.0134
  617MPD2    H5 9148   0.315   1.362  13.757 -0.2958 -1.2365  1.1196
  617MPD2    N1 9149   0.869   1.450  13.629 -0.0477  0.3772  0.9343
  617MPD2    H7 9150   0.931   1.494  13.561  0.7713  0.6200  1.8429
  618TMC3    C1 9151   1.084   1.355  13.660 -0.6437  1.2738  0.3304
  618TMC3    C2 9152   1.145   1.236  13.635  0.1539 -0.7299  0.7703
  618TMC3    C3 9153   1.270   1.239  13.585 -0.1575 -1.1562 -0.1678
  618TMC3    C4 9154   1.143   1.476  13.641  0.3597  0.1154 -0.2307
  618TMC3    C5 9155   1.269   1.477  13.589 -0.1190  0.4206 -0.0834
  618TMC3    C6 9156   1.335   1.359  13.555  0.9109  0.3160  0.3788
  618TMC3     C 9157   0.941   1.354  13.693  0.3395 -0.3051 -0.3199
  618TMC3     O 9158   0.903   1.263  13.764 -0.1075 -0.0118 -0.1799
  618TMC3     H 9159   1.086   1.146  13.649  0.5230 -1.0114  0.5403
  618TMC3    H1 9160   1.096   1.571  13.666 -1.0003 -0.5085 -0.4047
  618TMC3    H2 9161   1.421   1.358  13.490 -0.1453  2.8961 -1.0363
  618TMC3    C7 9162   1.339   1.599  13.610  0.2661 -0.7276  0.7910
  618TMC3    C8 9163   1.302   1.122  13.501  0.4390  0.0897 -0.4357
  618TMC3    O1 9164   1.309   1.660  13.714 -0.5709  0.5269 -0.1336
  618TMC3    O2 9165   1.215   1.067  13.435  0.3561 -0.5340  0.9064
  619MPD2     C 9166   0.798   2.123  13.517  0.1166  0.1607 -0.1773
  619MPD2    C1 9167   0.798   2.260  13.522  0.4058 -0.6206  0.2187
  619MPD2    C2 9168   0.738   2.319  13.626  0.1615  0.5735  0.3636
  619MPD2    C3 9169   0.695   2.247  13.739 -0.0674 -0.5066  0.2566
  619MPD2    C4 9170   0.701   2.115  13.742  0.0409  0.9265  0.8517
  619MPD2    C5 9171   0.757   2.054  13.630 -0.0465 -0.5764 -0.0288
  619MPD2     H 9172   0.734   2.427  13.616  0.6660  0.4024 -1.6065
  619MPD2    H1 9173   0.672   2.061  13.831  1.0131  0.6502  0.9982
  619MPD2    H2 9174   0.857   2.073  13.441  2.0561  0.4710  1.1202
  619MPD2    H3 9175   0.755   1.946  13.622 -0.7678 -0.6322  0.9294
  619MPD2     N 9176   0.643   2.313  13.849 -0.4164  0.5298 -0.0225
  619MPD2    H5 9177   0.631   2.250  13.927  0.6452  1.6224  1.0328
  619MPD2    N1 9178   0.856   2.339  13.430  0.8766 -0.1909  0.2948
  619MPD2    H7 9179   0.839   2.438  13.448  1.8969  0.2418 -1.1214
  620TMC3    C1 9180   0.980   2.405  13.239  0.4090 -0.1637 -0.0242
  620TMC3    C2 9181   0.910   2.520  13.246  0.6363 -0.3711 -0.0678
  620TMC3    C3 9182   0.965   2.635  13.199  0.4097 -0.2031  0.0800
  620TMC3    C4 9183   1.111   2.404  13.201 -0.1720 -0.1321  0.3925
  620TMC3    C5 9184   1.156   2.520  13.150 -0.1816  0.2741  0.8114
  620TMC3    C6 9185   1.088   2.635  13.151  0.0637  0.3514 -0.3030
  620TMC3     C 9186   0.923   2.296  13.313  0.3611 -0.0411  0.0179
  620TMC3     O 9187   0.948   2.185  13.275 -0.0560  0.3107  0.3669
  620TMC3     H 9188   0.803   2.505  13.243  0.2568  2.0050  1.7658
  620TMC3    H1 9189   1.171   2.315  13.213  1.3260  0.7088 -0.8992
  620TMC3    H2 9190   1.129   2.722  13.102 -1.9792  0.2467 -2.1922
  620TMC3    C7 9191   1.295   2.531  13.120  0.0684 -0.1199  0.2444
  620TMC3    C8 9192   0.938   2.751  13.269  0.6865 -0.9050 -0.0519
  620TMC3    O1 9193   1.336   2.627  13.050 -0.4614 -0.2605  0.0971
  620TMC3    O2 9194   1.018   2.836  13.268 -0.5767 -0.2609 -0.4029
  621MPD2     C 9195   2.751   1.762  10.340  0.0378  0.3199  0.1001
  621MPD2    C1 9196   2.791   1.781  10.210  1.1570  0.3801 -0.0899
  621MPD2    C2 9197   2.880   1.886  10.185 -0.0836  0.2463  0.2931
  621MPD2    C3 9198   2.937   1.965  10.282 -0.1463 -0.0761 -0.2431
  621MPD2    C4 9199   2.876   1.961  10.405 -0.3770 -0.5439  0.2855
  621MPD2    C5 9200   2.789   1.860  10.434  0.0268  0.1019 -0.5318
  621MPD2     H 9201   2.915   1.897  10.083 -0.7875  2.5322  0.2760
  621MPD2    H1 9202   2.903   2.032  10.483 -1.6679 -0.9219  1.0675
  621MPD2    H2 9203   2.690   1.677  10.369 -0.7356  0.3702 -1.3565
  621MPD2    H3 9204   2.753   1.849  10.536 -0.8693  3.2581 -0.4919
  621MPD2     N 9205   3.042   2.056  10.246  0.8716 -0.1466  0.3756
  621MPD2    H5 9206   3.086   2.066  10.156 -1.3122  0.2649 -0.6608
  621MPD2    N1 9207   2.744   1.691  10.105  0.2094 -0.4206  0.4710
  621MPD2    H7 9208   2.791   1.709  10.017  0.8378 -3.1615  0.2453
  622TMC3    C1 9209   2.642   1.513  10.002  0.1548 -0.4419 -0.6040
  622TMC3    C2 9210   2.590   1.388  10.023 -0.2586 -0.1476 -0.1013
  622TMC3    C3 9211   2.510   1.334   9.929  0.6193  0.1673 -0.3363
  622TMC3    C4 9212   2.645   1.572   9.878  0.3834 -0.0490  0.9345
  622TMC3    C5 9213   2.567   1.508   9.779 -0.5539  0.4250 -0.1492
  622TMC3    C6 9214   2.512   1.386   9.803  0.1378 -0.6206 -1.0159
  622TMC3     C 9215   2.645   1.594  10.112 -0.0535  0.7117  0.2290
  622TMC3     O 9216   2.560   1.584  10.199  0.0955 -0.4028  0.8872
  622TMC3     H 9217   2.588   1.346  10.122 -1.3293  0.5660  0.1889
  622TMC3    H1 9218   2.676   1.676   9.868 -2.7231  0.6144 -1.7082
  622TMC3    H2 9219   2.454   1.337   9.726  0.5445 -4.2024  0.9808
  622TMC3    C7 9220   2.482   1.589   9.691 -0.4026 -0.3418  0.7183
  622TMC3    C8 9221   2.424   1.219   9.969  0.2557 -0.2287  0.3856
  622TMC3    O1 9222   2.387   1.546   9.633  0.4623 -0.9243 -0.2317
  622TMC3    O2 9223   2.478   1.139  10.040 -0.4367 -0.6339 -0.7211
  623MPD2     C 9224   1.403   3.418  16.172  0.0245 -0.0473  0.4113
  623MPD2    C1 9225   1.305   3.428  16.272  0.0979  0.4581  0.0377
  623MPD2    C2 9226   1.332   3.496  16.389  0.3774 -0.2926 -0.0980
  623MPD2    C3 9227   1.453   3.556  16.413 -0.5132 -0.5749  0.4472
  623MPD2    C4 9228   1.544   3.551  16.312  0.1924 -0.3916  0.1433
  623MPD2    C5 9229   1.527   3.478  16.193  0.0412  0.1583 -0.2183
  623MPD2     H 9230   1.262   3.488  16.470  0.1021  1.0830 -0.2028
  623MPD2    H1 9231   1.644   3.583  16.337  0.3730 -0.6737 -0.2168
  623MPD2    H2 9232   1.382   3.369  16.078 -1.4855 -1.0619  1.2682
  623MPD2    H3 9233   1.606   3.476  16.120 -1.7980 -3.0192 -2.0938
  623MPD2     N 9234   1.474   3.607  16.542 -0.3852 -0.3169  0.3038
  623MPD2    H5 9235   1.390   3.606  16.598 -1.2682  1.4475 -0.9590
  623MPD2    N1 9236   1.181   3.359  16.269 -0.0344  0.5198 -0.7627
  623MPD2    H7 9237   1.124   3.368  16.352 -0.1715  0.2242 -0.8264
  624TMC3    C1 9238   1.643   3.455  16.904  0.0826  0.8761  0.1392
  624TMC3    C2 9239   1.515   3.442  16.959  0.3552  0.1441  1.0362
  624TMC3    C3 9240   1.418   3.522  16.895 -0.3093 -0.8803 -0.1256
  624TMC3    C4 9241   1.670   3.538  16.798 -0.4270  0.1368 -0.2744
  624TMC3    C5 9242   1.569   3.620  16.748  0.1594 -0.3991  0.1830
  624TMC3    C6 9243   1.442   3.607  16.791  0.0962 -0.2649 -0.0443
  624TMC3     C 9244   1.746   3.375  16.955  0.4087 -1.1506  0.4617
  624TMC3     O 9245   1.728   3.323  17.064  0.6065  0.0887 -0.3987
  624TMC3     H 9246   1.492   3.362  17.029  0.0305  1.7053  2.6890
  624TMC3    H1 9247   1.770   3.555  16.758 -1.3030  1.3787 -1.9423
  624TMC3    H2 9248   1.366   3.675  16.753  0.4358 -1.0757 -2.1527
  624TMC3    C7 9249   1.592   3.645  16.604  0.1104  0.0360  0.0596
  624TMC3    C8 9250   1.276   3.481  16.913  0.1701 -0.2504 -0.3124
  624TMC3    O1 9251   1.709   3.667  16.564  0.3453  0.6432 -0.2582
  624TMC3    O2 9252   1.249   3.359  16.925 -0.2734  0.7284 -0.1935
  625MPD2     C 9253   1.519   3.653   0.312 -0.1363 -0.9638 -0.3269
  625MPD2    C1 9254   1.586   3.764   0.363 -0.2554  0.6644  0.1037
  625MPD2    C2 9255   1.653   3.744   0.482  0.4060 -0.4150 -0.6114
  625MPD2    C3 9256   1.628   3.633   0.556  0.3035  0.0008 -0.7685
  625MPD2    C4 9257   1.540   3.532   0.517 -0.2693 -0.0327  0.2759
  625MPD2    C5 9258   1.496   3.541   0.387 -0.3061  0.1302  0.8548
  625MPD2     H 9259   1.700   3.829   0.529  0.5689  0.2488 -1.9807
  625MPD2    H1 9260   1.516   3.443   0.574 -1.1101  1.6942  2.6085
  625MPD2    H2 9261   1.475   3.658   0.213  0.8060  0.8562 -0.6553
  625MPD2    H3 9262   1.418   3.472   0.357 -0.1399  0.5142 -0.4381
  625MPD2     N 9263   1.704   3.628   0.673 -0.0393  0.3468  0.2562
  625MPD2    H5 9264   1.749   3.715   0.701  0.1009 -0.0993  1.4100
  625MPD2    N1 9265   1.595   3.886   0.303  0.0430  0.2655  0.0997
  625MPD2    H7 9266   1.636   3.964   0.354 -1.2942  0.2747  1.1825
  626TMC3    C1 9267   1.501   4.068   0.218 -0.5893 -0.8652  0.1356
  626TMC3    C2 9268   1.427   4.126   0.118  0.3420  0.1232 -0.2630
  626TMC3    C3 9269   1.362   4.236   0.159  0.2888 -0.5743  0.0041
  626TMC3    C4 9270   1.505   4.112   0.351 -0.6310 -0.1985 -0.0828
  626TMC3    C5 9271   1.429   4.225   0.381 -0.4579 -0.1974 -0.0951
  626TMC3    C6 9272   1.365   4.288   0.283  0.3203  1.0192  0.2437
  626TMC3     C 9273   1.511   3.928   0.205 -1.1670  0.2486  0.0631
  626TMC3     O 9274   1.425   3.868   0.138  0.1276 -0.1492 -0.3979
  626TMC3     H 9275   1.426   4.088   0.017  1.3777  2.0879 -1.0119
  626TMC3    H1 9276   1.541   4.063   0.441  2.7477  0.0582 -1.3083
  626TMC3    H2 9277   1.292   4.365   0.309  2.2542  2.4287  1.5595
  626TMC3    C7 9278   1.383   4.235   0.518 -0.0985 -0.9539  0.4899
  626TMC3    C8 9279   1.319   4.326   0.053 -0.0351  0.0473 -0.0253
  626TMC3    O1 9280   1.397   4.134   0.589 -0.0138 -0.3640 -0.1409
  626TMC3    O2 9281   1.356   4.311  17.626  0.1487  0.0639 -0.5111
  627MPD2     C 9282   4.683   0.077  14.372  0.1866 -0.0669  0.1754
  627MPD2    C1 9283   0.020   0.041  14.489  0.5683 -0.9282  0.1268
  627MPD2    C2 9284   4.703   4.646  14.556 -0.3541  0.0792 -0.1616
  627MPD2    C3 9285   4.604   4.565  14.504  0.6647  1.1424  0.1817
  627MPD2    C4 9286   4.549   4.603  14.383 -0.3541  0.0612 -0.1117
  627MPD2    C5 9287   4.587   4.719  14.324  0.7273  0.3317 -0.3180
  627MPD2     H 9288   0.024   4.627  14.654 -0.7484 -1.1498 -0.2261
  627MPD2    H1 9289   4.467   4.548  14.339  1.0240 -2.6628  0.7595
  627MPD2    H2 9290   4.702   0.166  14.314  1.0384  0.2139  0.8811
  627MPD2    H3 9291   4.543   0.028  14.229 -1.1030  1.0170  0.7561
  627MPD2     N 9292   4.542   4.465  14.575  0.0168  0.0179 -0.0612
  627MPD2    H5 9293   4.552   4.464  14.676 -1.0520  0.1566  0.0442
  627MPD2    N1 9294   0.130   0.114  14.547 -0.3418 -0.2282  0.1133
  627MPD2    H7 9295   0.160   0.076  14.636 -0.2757 -1.0462 -0.2623
  628TMC3    C1 9296   0.300   0.263  14.584  0.0908  0.3073 -0.6475
  628TMC3    C2 9297   0.375   0.162  14.636  0.5704  0.5811  0.4774
  628TMC3    C3 9298   0.491   0.193  14.700  0.5781 -0.5200  0.3057
  628TMC3    C4 9299   0.325   0.394  14.610  0.1004 -0.7162  0.1659
  628TMC3    C5 9300   0.451   0.422  14.651  0.3290  0.2671 -0.3376
  628TMC3    C6 9301   0.537   0.328  14.706  0.1928  0.3326 -0.0344
  628TMC3     C 9302   0.189   0.229  14.508 -0.1281  0.9673  0.1151
  628TMC3     O 9303   0.140   0.320  14.444  0.8743 -0.2171 -0.6146
  628TMC3     H 9304   0.344   0.060  14.618 -2.8786  1.6600  0.3553
  628TMC3    H1 9305   0.258   0.467  14.566 -1.1645 -1.2799  1.1690
  628TMC3    H2 9306   0.624   0.359  14.763  0.0062  0.7901  0.0026
  628TMC3    C7 9307   0.487   0.567  14.664  0.5921 -0.0934 -0.0817
  628TMC3    C8 9308   0.524   0.113  14.817  0.0205  0.5934  0.3496
  628TMC3    O1 9309   0.578   0.588  14.744 -0.2778  0.5298 -0.0720
  628TMC3    O2 9310   0.436   0.046  14.865 -0.2308 -0.4109 -0.0338
  629MPD2     C 9311   3.389   3.275  16.313 -0.3773 -0.1308 -0.5610
  629MPD2    C1 9312   3.429   3.236  16.440 -0.2182  0.5053  0.5693
  629MPD2    C2 9313   3.347   3.143  16.504  0.1159 -0.4233  0.4377
  629MPD2    C3 9314   3.227   3.099  16.455  0.1782 -0.0811 -0.0313
  629MPD2    C4 9315   3.182   3.154  16.333 -0.1205  0.3604 -0.9187
  629MPD2    C5 9316   3.269   3.228  16.265  0.8176  0.1468 -0.4259
  629MPD2     H 9317   3.382   3.099  16.597  0.7578  0.9595  0.8588
  629MPD2    H1 9318   3.081   3.150  16.294 -0.2283 -0.6966 -0.5080
  629MPD2    H2 9319   3.464   3.324  16.251  0.3777 -0.3370  0.1914
  629MPD2    H3 9320   3.233   3.263  16.168  1.9281 -0.5184 -1.0839
  629MPD2     N 9321   3.141   3.024  16.534 -0.0745 -0.3482  0.2803
  629MPD2    H5 9322   3.054   3.002  16.487  0.9714 -0.6286 -1.4954
  629MPD2    N1 9323   3.548   3.292  16.499 -0.0089  0.2799  0.3134
  629MPD2    H7 9324   3.611   3.340  16.436  1.1122 -0.8159  0.6017
  630TMC3    C1 9325   3.707   3.351  16.672  0.4145 -0.8170 -0.0752
  630TMC3    C2 9326   3.751   3.461  16.604 -0.0603 -0.3376 -0.4117
  630TMC3    C3 9327   3.858   3.519  16.658  0.2134  0.2583 -0.5385
  630TMC3    C4 9328   3.759   3.316  16.797 -0.0989 -0.7681  0.2148
  630TMC3    C5 9329   3.857   3.393  16.850 -0.1290 -0.4205 -0.6520
  630TMC3    C6 9330   3.914   3.490  16.774  0.5285 -0.4875  0.5382
  630TMC3     C 9331   3.580   3.286  16.635 -0.5680 -0.0404  0.5994
  630TMC3     O 9332   3.526   3.233  16.731  0.7187  0.5359  0.4376
  630TMC3     H 9333   3.700   3.496  16.514  0.9099  1.9646 -0.0596
  630TMC3    H1 9334   3.696   3.253  16.859 -0.4916 -0.8625 -0.2864
  630TMC3    H2 9335   3.997   3.547  16.815 -0.0517  0.6382  0.1768
  630TMC3    C7 9336   3.920   3.339  16.975  0.6380  0.5291  0.1560
  630TMC3    C8 9337   3.929   3.623  16.581  0.7276  0.1033  0.1300
  630TMC3    O1 9338   3.857   3.248  17.030 -0.0434  0.2850  0.4117
  630TMC3    O2 9339   4.008   3.694  16.646 -0.3438  0.4534 -0.0010
  631MPD2     C 9340   1.711   3.166  15.555 -0.2089 -0.3798  0.6030
  631MPD2    C1 9341   1.789   3.264  15.502 -0.0671 -0.1907  0.4276
  631MPD2    C2 9342   1.917   3.282  15.533  0.3815 -0.7927  0.0080
  631MPD2    C3 9343   1.974   3.196  15.622 -0.5656  0.4443  0.2015
  631MPD2    C4 9344   1.898   3.089  15.673  0.0302 -0.3858 -0.7589
  631MPD2    C5 9345   1.764   3.074  15.645 -0.2811 -0.0096  0.3495
  631MPD2     H 9346   1.974   3.363  15.489 -1.6253  0.3591 -0.4378
  631MPD2    H1 9347   1.934   3.019  15.747 -3.0644  0.0314  1.1141
  631MPD2    H2 9348   1.611   3.142  15.519  0.4764 -0.4030 -1.2633
  631MPD2    H3 9349   1.700   2.999  15.690  0.7640 -1.2655 -0.2869
  631MPD2     N 9350   2.106   3.228  15.668 -0.3144  0.5726  0.3646
  631MPD2    H5 9351   2.144   3.312  15.624  1.0091 -0.0574  0.2946
  631MPD2    N1 9352   1.735   3.330  15.391 -0.0622  0.3249  0.4276
  631MPD2    H7 9353   1.647   3.293  15.357 -1.4946  2.0973  2.2406
  632TMC3    C1 9354   1.692   3.484  15.231 -0.5186 -0.5778  0.4624
  632TMC3    C2 9355   1.570   3.520  15.277  0.4564 -0.1884  0.4798
  632TMC3    C3 9356   1.496   3.611  15.199 -0.6192 -0.6314 -0.9612
  632TMC3    C4 9357   1.737   3.534  15.114  0.5098  0.1036 -1.1966
  632TMC3    C5 9358   1.659   3.618  15.036 -0.7124  0.2403 -0.2763
  632TMC3    C6 9359   1.537   3.657  15.077  0.1664  0.1080  0.0686
  632TMC3     C 9360   1.789   3.433  15.319 -1.1180  0.1752  0.1570
  632TMC3     O 9361   1.902   3.474  15.305 -0.1224 -0.0438  0.0661
  632TMC3     H 9362   1.540   3.490  15.377 -0.2986 -2.0702 -0.3316
  632TMC3    H1 9363   1.837   3.501  15.087  1.0770  1.1802 -0.3822
  632TMC3    H2 9364   1.483   3.733  15.021 -0.1654 -1.0058 -1.1193
  632TMC3    C7 9365   1.716   3.662  14.908 -0.6130  0.3784  0.1066
  632TMC3    C8 9366   1.366   3.661  15.265  0.0829  0.1187 -0.3887
  632TMC3    O1 9367   1.632   3.696  14.824 -0.1431 -0.1893  0.3034
  632TMC3    O2 9368   1.320   3.588  15.354 -0.1084  0.5001 -0.2215
  633MPD2     C 9369   1.253   1.251  17.316 -0.1594 -0.3471  0.7453
  633MPD2    C1 9370   1.301   1.181  17.202 -0.2415 -0.7047  0.4661
  633MPD2    C2 9371   1.353   1.054  17.217 -0.7109 -0.7508 -0.5428
  633MPD2    C3 9372   1.363   0.995  17.339  0.2087  0.1050  0.7011
  633MPD2    C4 9373   1.311   1.064  17.450 -0.2805 -0.0158 -0.2250
  633MPD2    C5 9374   1.265   1.197  17.439 -0.1760 -0.3297 -1.1977
  633MPD2     H 9375   1.391   0.998  17.132 -0.1275  1.1652 -1.5368
  633MPD2    H1 9376   1.307   1.015  17.546 -3.1452 -1.7149 -1.1960
  633MPD2    H2 9377   1.208   1.350  17.307 -0.6564 -0.6610 -0.2478
  633MPD2    H3 9378   1.220   1.245  17.525  1.0524  1.9612 -1.8373
  633MPD2     N 9379   1.429   0.873  17.363 -0.5636 -0.5397 -0.0117
  633MPD2    H5 9380   1.451   0.856  17.461  1.3314 -0.6142 -0.4510
  633MPD2    N1 9381   1.304   1.235  17.073 -0.4321  0.2434  0.0924
  633MPD2    H7 9382   1.337   1.166  17.007 -0.7193  1.1885 -1.0330
  634TMC3    C1 9383   1.274   1.391  16.897  0.5659  1.0398 -0.2650
  634TMC3    C2 9384   1.289   1.289  16.805  0.5124 -0.2024 -0.1413
  634TMC3    C3 9385   1.330   1.332  16.679  0.1770  0.2735 -0.2267
  634TMC3    C4 9386   1.276   1.525  16.875  0.8709 -0.2469 -0.8453
  634TMC3    C5 9387   1.312   1.560  16.746  0.1252 -0.3349 -0.0170
  634TMC3    C6 9388   1.339   1.465  16.648  0.0876 -0.0489 -0.0553
  634TMC3     C 9389   1.261   1.361  17.039  0.0399 -0.4281 -0.0676
  634TMC3     O 9390   1.224   1.456  17.109 -0.0463  0.5752 -0.2669
  634TMC3     H 9391   1.264   1.186  16.824  1.2747 -0.5410 -0.9660
  634TMC3    H1 9392   1.280   1.607  16.947  1.0987 -1.0374  0.0402
  634TMC3    H2 9393   1.352   1.504  16.547 -3.1917 -2.7765 -1.5569
  634TMC3    C7 9394   1.313   1.700  16.708  0.3453 -0.2719 -0.8876
  634TMC3    C8 9395   1.362   1.222  16.584  0.6025 -0.2276 -0.3983
  634TMC3    O1 9396   1.362   1.734  16.601  0.7327 -0.0537  0.0852
  634TMC3    O2 9397   1.376   1.108  16.628 -0.0111  0.8390 -0.7077
  635TMC3    C1 9398   1.607   2.466  17.608  0.8871  0.0053  0.1530
  635TMC3    C2 9399   1.573   2.336  17.568  0.6433  0.0860 -0.7610
  635TMC3    C3 9400   1.457   2.282  17.619 -0.5294 -0.2387 -0.1625
  635TMC3    C4 9401   1.516   2.545  17.684 -0.1849 -0.3325  0.0774
  635TMC3    C5 9402   1.401   2.484   0.041 -0.4712  0.1675 -0.5812
  635TMC3    C6 9403   1.374   2.356   0.013 -0.2972 -0.3310 -0.3914
  635TMC3     C 9404   1.746   2.511  17.624  0.1925 -0.3413 -0.6159
  635TMC3     O 9405   1.756   2.629  17.664  0.4329  0.5950 -0.8689
  635TMC3     H 9406   1.640   2.279  17.506 -0.2417 -3.0684  1.1916
  635TMC3    H1 9407   1.526   2.652  17.673  1.4073 -0.3007  1.7608
  635TMC3    H2 9408   1.279   2.313   0.043  0.0114 -1.5987 -1.2239
  635TMC3    C7 9409   1.324   2.546   0.135  0.1442 -0.3871  0.3604
  635TMC3    C8 9410   1.420   2.152  17.560  0.7356  0.5119 -0.1777
  635TMC3    O1 9411   1.214   2.493   0.150  0.6128 -0.1698 -0.4479
  635TMC3    O2 9412   1.485   2.110  17.464 -0.0779  0.2394  0.5420
  636MPD2     C 9413   2.653   1.835  15.700 -0.4368 -0.2617 -0.5670
  636MPD2    C1 9414   2.667   1.827  15.841 -0.7462 -0.2472 -0.5554
  636MPD2    C2 9415   2.724   1.713  15.892  0.0285 -0.1518 -0.6368
  636MPD2    C3 9416   2.774   1.614  15.810  0.9622 -0.2641  0.1180
  636MPD2    C4 9417   2.754   1.627  15.674 -0.6894 -0.9398 -0.3058
  636MPD2    C5 9418   2.698   1.736  15.613  0.4657  0.0833  0.1173
  636MPD2     H 9419   2.743   1.709  15.999 -3.7371  0.9081  0.0585
  636MPD2    H1 9420   2.792   1.559  15.599 -0.5275 -0.3076 -0.8039
  636MPD2    H2 9421   2.619   1.921  15.644  0.4220  0.4436 -0.0099
  636MPD2    H3 9422   2.677   1.732  15.507 -2.2133  0.2017  0.6471
  636MPD2     N 9423   2.818   1.490  15.867 -0.2187  0.3210 -0.2340
  636MPD2    H5 9424   2.834   1.485  15.967  0.9878 -1.0437 -0.4928
  636MPD2    N1 9425   2.629   1.935  15.927  0.1491  0.6013 -0.3098
  636MPD2    H7 9426   2.652   1.922  16.025 -0.5955 -0.0079 -0.2112
  637TMC3    C1 9427   2.830   1.261  15.888 -0.1986  0.5474  0.2016
  637TMC3    C2 9428   2.789   1.301  16.013  0.5010  0.3353 -0.0451
  637TMC3    C3 9429   2.857   1.252  16.118  0.5811 -0.1165 -0.8413
  637TMC3    C4 9430   2.939   1.177  15.875  0.0392 -0.8574  0.0224
  637TMC3    C5 9431   3.016   1.147  15.987  0.1513 -0.1899 -0.8051
  637TMC3    C6 9432   2.968   1.171  16.111 -0.1047  0.0148  0.1058
  637TMC3     C 9433   2.828   1.375  15.798 -0.9138  0.3296 -0.5853
  637TMC3     O 9434   2.804   1.356  15.678 -0.3798 -0.0154 -0.6582
  637TMC3     H 9435   2.694   1.348  16.032  0.6072 -0.3992  2.3515
  637TMC3    H1 9436   2.964   1.150  15.773  0.2478  3.4826 -1.0840
  637TMC3    H2 9437   3.029   1.146  16.198  1.6501  0.1560 -1.0736
  637TMC3    C7 9438   3.143   1.075  15.967 -0.0702 -0.1680  0.2495
  637TMC3    C8 9439   2.875   1.369  16.207 -0.1398 -0.0746 -0.4908
  637TMC3    O1 9440   3.160   0.989  16.051  0.3681 -0.5067  0.8772
  637TMC3    O2 9441   2.840   1.475  16.159 -0.2623 -0.0455 -0.0606
  638MPD2     C 9442   2.420   0.714  14.653  0.2877  0.2231  0.0217
  638MPD2    C1 9443   2.439   0.580  14.616  0.2849  0.1394  0.7857
  638MPD2    C2 9444   2.393   0.484  14.706 -0.3738 -0.6494  0.0993
  638MPD2    C3 9445   2.315   0.515  14.813  0.0407 -0.3047 -0.1118
  638MPD2    C4 9446   2.294   0.646  14.846 -0.2285  0.5503  0.0265
  638MPD2    C5 9447   2.342   0.737  14.762 -0.1091 -0.9746  0.3628
  638MPD2     H 9448   2.427   0.384  14.684  2.7629  1.0064 -2.6159
  638MPD2    H1 9449   2.233   0.669  14.933  0.6246  1.5462  0.3673
  638MPD2    H2 9450   2.437   0.796  14.583  0.4225  0.5922  0.4849
  638MPD2    H3 9451   2.308   0.837  14.789  1.3251 -0.7102  1.2067
  638MPD2     N 9452   2.275   0.407  14.895  0.0525 -0.2155 -0.0032
  638MPD2    H5 9453   2.305   0.314  14.866  2.6377  0.8216 -0.6486
  638MPD2    N1 9454   2.493   0.551  14.488 -0.2367  0.5035 -0.6084
  638MPD2    H7 9455   2.533   0.629  14.436 -0.0396  1.3204  0.7482
  639TMC3    C1 9456   2.169   0.275  15.067 -0.2097  0.2769  0.1081
  639TMC3    C2 9457   2.047   0.249  15.119  0.5827 -0.2811 -0.1158
  639TMC3    C3 9458   2.026   0.119  15.149 -0.4882 -0.0725 -0.2621
  639TMC3    C4 9459   2.277   0.193  15.069  0.1563 -0.0303 -0.0396
  639TMC3    C5 9460   2.253   0.069  15.122  0.3409 -0.2735 -0.7117
  639TMC3    C6 9461   2.126   0.028  15.152  0.0167 -0.0436 -0.4530
  639TMC3     C 9462   2.192   0.409  15.007  0.2132  0.0975  0.1679
  639TMC3     O 9463   2.145   0.502  15.066  0.0274  0.3233  0.6695
  639TMC3     H 9464   1.965   0.320  15.114 -0.1474 -1.0653  0.7688
  639TMC3    H1 9465   2.374   0.218  15.028  0.4907 -3.6092 -1.4683
  639TMC3    H2 9466   2.096   4.656  15.199 -2.0278  1.3412  1.0310
  639TMC3    C7 9467   2.347   4.680  15.110 -0.1934 -0.3158 -0.0201
  639TMC3    C8 9468   1.895   0.071  15.107 -0.1188  0.0932 -0.3208
  639TMC3    O1 9469   2.289   4.572  15.109 -0.1393 -1.1480 -0.2849
  639TMC3    O2 9470   1.790   0.124  15.141 -0.4001 -0.4495 -0.1831
  640MPD2     C 9471   3.065   3.530   9.870  0.4163 -0.5028 -0.0544
  640MPD2    C1 9472   3.128   3.648   9.900  0.5723  0.1961  0.7908
  640MPD2    C2 9473   3.055   3.760   9.932 -0.0864 -0.1306 -0.5345
  640MPD2    C3 9474   2.920   3.757   9.908  0.4342 -0.4664  0.1419
  640MPD2    C4 9475   2.859   3.639   9.879  0.2521  0.0937  0.4317
  640MPD2    C5 9476   2.931   3.526   9.863 -0.3285  0.3695 -0.0328
  640MPD2     H 9477   3.110   3.849   9.959 -1.4044  0.2733  0.7803
  640MPD2    H1 9478   2.753   3.623   9.865  0.4420 -0.4697 -0.3787
  640MPD2    H2 9479   3.137   3.453   9.844  0.9990  0.4018 -1.1645
  640MPD2    H3 9480   2.874   3.436   9.845  0.3986  0.0696 -0.8372
  640MPD2     N 9481   2.835   3.877   9.912  0.2442  0.5490  0.2166
  640MPD2    H5 9482   2.737   3.865   9.892  0.7005 -0.1016 -1.7097
  640MPD2    N1 9483   3.269   3.642   9.892 -0.0290 -0.5660 -0.0211
  640MPD2    H7 9484   3.317   3.574   9.834 -0.0465 -1.0449  0.5256
  641TMC3    C1 9485   3.466   3.749   9.867 -0.2628  0.2368 -0.3612
  641TMC3    C2 9486   3.517   3.637   9.805  0.2100 -0.5393 -0.6034
  641TMC3    C3 9487   3.617   3.657   9.710 -0.4140  0.0273 -0.7120
  641TMC3    C4 9488   3.500   3.875   9.819 -0.2067  0.0053 -0.0617
  641TMC3    C5 9489   3.584   3.889   9.713 -0.0325  0.0011  0.1177
  641TMC3    C6 9490   3.637   3.777   9.650 -0.3268 -0.2424 -0.1934
  641TMC3     C 9491   3.345   3.746   9.942  0.4965 -0.3530 -0.3679
  641TMC3     O 9492   3.324   3.833  10.024 -0.1907 -0.0221  0.1626
  641TMC3     H 9493   3.486   3.543   9.848 -0.2340  0.0567  0.4057
  641TMC3    H1 9494   3.466   3.965   9.868 -0.6994 -0.6886  0.8851
  641TMC3    H2 9495   3.708   3.783   9.568  0.7032 -0.1768  0.6873
  641TMC3    C7 9496   3.619   4.026   9.660 -0.0433 -0.0956 -0.9291
  641TMC3    C8 9497   3.681   3.541   9.666  0.3739  0.5388 -0.0514
  641TMC3    O1 9498   3.564   4.126   9.717  0.0256 -0.4770  0.4181
  641TMC3    O2 9499   3.718   3.539   9.549  0.4172 -0.1511  0.1824
  642TMC3    C1 9500   4.538   0.467  12.109  0.0906 -0.3095  0.4550
  642TMC3    C2 9501   4.610   0.460  12.230 -0.4491 -1.0250  0.3243
  642TMC3    C3 9502   4.632   0.332  12.282  0.9406 -0.4402 -0.0662
  642TMC3    C4 9503   4.488   0.348  12.052  0.0758 -0.4296 -0.1659
  642TMC3    C5 9504   4.507   0.229  12.109  0.0250 -0.4507 -0.0577
  642TMC3    C6 9505   4.577   0.216  12.225 -0.4911 -0.3322  0.2779
  642TMC3     C 9506   4.440   0.574  12.087 -0.6077 -0.5088 -0.0329
  642TMC3     O 9507   4.396   0.586  11.973 -0.3964 -0.7818  0.0819
  642TMC3     H 9508   4.661   0.549  12.266 -2.3094 -0.0547  0.5390
  642TMC3    H1 9509   4.421   0.352  11.967 -0.1668  0.0124  0.0474
  642TMC3    H2 9510   4.601   0.121  12.272 -3.0068 -1.7517 -1.3155
  642TMC3    C7 9511   4.399   0.135  12.086 -0.3874  0.3625 -0.2882
  642TMC3    C8 9512   4.712   0.313  12.402  0.0921 -1.0552 -0.4919
  642TMC3    O1 9513   4.365   0.125  11.968  0.0816 -0.7024 -0.0321
  642TMC3    O2 9514   0.039   0.199  12.423 -0.2852  0.3758 -0.4098
  643TMC3    C1 9515   2.947   4.397  17.656 -0.2233  0.1840 -0.5284
  643TMC3    C2 9516   2.839   4.476  17.618 -0.4283 -0.0933  0.2428
  643TMC3    C3 9517   2.758   4.429  17.516  0.2919 -0.4577  0.3321
  643TMC3    C4 9518   2.969   4.272  17.602 -0.3813 -0.2474 -0.2488
  643TMC3    C5 9519   2.891   4.231  17.503  1.1616  0.2111 -0.2882
  643TMC3    C6 9520   2.786   4.304  17.454 -0.6985 -0.2092 -0.7695
  643TMC3     C 9521   3.066   4.470   0.003 -0.0002  0.4487  0.0569
  643TMC3     O 9522   3.052   4.584  17.649 -0.3712 -0.1147 -0.3325
  643TMC3     H 9523   2.826   4.578  17.653 -1.3709 -0.0226 -0.3225
  643TMC3    H1 9524   3.052   4.208  17.630 -0.2372  0.4029  0.8315
  643TMC3    H2 9525   2.735   4.267  17.366 -2.9542 -3.3442  1.8223
  643TMC3    C7 9526   2.972   4.174  17.401 -0.3504 -0.0816 -0.6271
  643TMC3    C8 9527   2.704   4.531  17.431  1.1884 -0.2344  0.3621
  643TMC3    O1 9528   2.988   4.246  17.301 -0.6874  0.5463  0.2370
  643TMC3    O2 9529   2.675   4.645  17.470 -0.3405 -0.2508  0.5323
  644MPD2     C 9530   3.713   0.238   9.519  0.1759 -0.6888  0.9160
  644MPD2    C1 9531   3.663   0.114   9.550 -0.7458 -0.0257  0.3998
  644MPD2    C2 9532   3.529   0.096   9.562  0.7878 -0.4094 -0.1547
  644MPD2    C3 9533   3.445   0.200   9.555 -0.1512  0.6774 -0.5090
  644MPD2    C4 9534   3.500   0.328   9.529 -0.4809  0.1559  0.1232
  644MPD2    C5 9535   3.634   0.347   9.527 -0.0788 -0.5283 -0.2945
  644MPD2     H 9536   3.480   4.721   9.570 -0.9683  0.2225 -3.1899
  644MPD2    H1 9537   3.431   0.412   9.525 -0.0163  0.5735  0.7151
  644MPD2    H2 9538   3.820   0.251   9.506  0.0280  1.7345  2.1964
  644MPD2    H3 9539   3.676   0.445   9.508  0.8838 -0.4632  2.1464
  644MPD2     N 9540   3.306   0.174   9.554  0.2819  0.0212 -0.5051
  644MPD2    H5 9541   3.274   0.079   9.567 -1.5373  0.5107 -1.3765
  644MPD2    N1 9542   3.756   0.013   9.554  0.1826 -0.2603 -0.1395
  644MPD2    H7 9543   3.855   0.035   9.556 -0.3767  2.1061  1.0670
  645TMC3    C1 9544   3.068   0.215   9.524  0.5238  0.3511  0.2041
  645TMC3    C2 9545   2.983   0.293   9.451 -0.4348  0.4063  0.4723
  645TMC3    C3 9546   2.870   0.239   9.396  0.9104 -0.3996  0.1317
  645TMC3    C4 9547   3.041   0.083   9.529 -0.0419 -0.1419 -0.0234
  645TMC3    C5 9548   2.922   0.034   9.474  0.2517 -0.1514 -0.2872
  645TMC3    C6 9549   2.837   0.109   9.402  0.5515  0.2387  0.4226
  645TMC3     C 9550   3.204   0.269   9.522  0.3002 -0.4771 -0.2899
  645TMC3     O 9551   3.224   0.389   9.514  0.3620 -0.1836  0.2408
  645TMC3     H 9552   2.988   0.401   9.445  1.3270  0.3171  0.2668
  645TMC3    H1 9553   3.105   0.018   9.588  0.1897 -0.7134 -0.8942
  645TMC3    H2 9554   2.759   0.057   9.347  2.6074 -0.7591 -1.5568
  645TMC3    C7 9555   2.889   4.615   9.503 -0.2890 -0.4902  0.0595
  645TMC3    C8 9556   2.812   0.317   9.291  0.2488 -0.1329 -0.5099
  645TMC3    O1 9557   2.783   4.577   9.456 -0.2740  0.9137  0.7597
  645TMC3    O2 9558   2.881   0.398   9.234  0.4438 -0.7630  0.2106
  646MPD2     C 9559   2.399   3.769  14.488 -0.2146  0.1802 -0.0157
  646MPD2    C1 9560   2.332   3.815  14.598 -0.1317 -0.6340 -0.1719
  646MPD2    C2 9561   2.231   3.910  14.590 -0.2531 -0.6121 -0.1829
  646MPD2    C3 9562   2.187   3.950  14.467  0.7102 -0.1000  0.0096
  646MPD2    C4 9563   2.262   3.912  14.359 -0.2846  0.0265 -0.2696
  646MPD2    C5 9564   2.357   3.819  14.367  0.0136  0.0151 -0.2263
  646MPD2     H 9565   2.186   3.956  14.677  1.2672 -2.4995  1.5780
  646MPD2    H1 9566   2.232   3.933  14.257  1.8053  0.7684 -0.7368
  646MPD2    H2 9567   2.486   3.706  14.498  1.0812  1.8328 -0.9135
  646MPD2    H3 9568   2.419   3.788  14.284 -1.5338  0.2684 -1.4718
  646MPD2     N 9569   2.076   4.038  14.457  0.6354 -1.1401  0.2061
  646MPD2    H5 9570   2.019   4.042  14.541 -0.6617 -1.3020 -0.6533
  646MPD2    N1 9571   2.392   3.767  14.714 -0.6030 -0.6497  0.4120
  646MPD2    H7 9572   2.473   3.706  14.707 -0.4030 -0.2532 -0.6686
  647TMC3    C1 9573   2.453   3.766  14.941 -0.0805 -0.4095  0.7019
  647TMC3    C2 9574   2.399   3.719  15.060  0.9695 -0.3823 -0.4308
  647TMC3    C3 9575   2.492   3.673  15.146 -0.5185  0.3513  0.6036
  647TMC3    C4 9576   2.589   3.757  14.905  0.4015 -0.1234 -0.5468
  647TMC3    C5 9577   2.677   3.710  15.006  0.5414 -0.1753 -0.0386
  647TMC3    C6 9578   2.634   3.676  15.132 -0.1257  0.9917 -0.0989
  647TMC3     C 9579   2.348   3.800  14.843  0.5397 -0.6255  0.3007
  647TMC3     O 9580   2.247   3.852  14.884 -0.1921 -0.0496  0.6242
  647TMC3     H 9581   2.291   3.715  15.067  0.9099 -1.0785 -1.5927
  647TMC3    H1 9582   2.621   3.786  14.806  2.8244 -1.6356 -0.1972
  647TMC3    H2 9583   2.691   3.622  15.207  0.4294 -0.4379 -1.5391
  647TMC3    C7 9584   2.815   3.679  14.966 -0.1051 -0.4530 -0.6793
  647TMC3    C8 9585   2.445   3.576  15.245 -0.0514  0.1837 -0.1583
  647TMC3    O1 9586   2.898   3.680  15.054 -0.6900 -0.2754 -0.2262
  647TMC3    O2 9587   2.514   3.562  15.345 -0.1920  0.6123  0.0236
  648TMC3    C1 9588   1.856   1.450  16.073  0.7027  0.6079 -0.5097
  648TMC3    C2 9589   1.854   1.330  16.017 -0.6033 -0.4212 -0.4200
  648TMC3    C3 9590   1.870   1.324  15.879  0.2045  0.1471 -0.1873
  648TMC3    C4 9591   1.877   1.563  15.999  0.2316 -0.0617  0.4408
  648TMC3    C5 9592   1.888   1.555  15.864  0.3723 -0.1488  0.0931
  648TMC3    C6 9593   1.895   1.439  15.803 -0.1903  0.2310  0.0793
  648TMC3     C 9594   1.844   1.477  16.217  0.7887  0.0483 -0.3762
  648TMC3     O 9595   1.882   1.588  16.252 -0.1812  0.0257 -0.5427
  648TMC3     H 9596   1.820   1.240  16.068  0.9666  0.4659  2.1537
  648TMC3    H1 9597   1.889   1.660  16.047 -2.0497 -0.6311  2.2084
  648TMC3    H2 9598   1.883   1.435  15.695  1.5955 -1.2467 -0.0557
  648TMC3    C7 9599   1.839   1.667  15.791 -0.4326  0.4707  0.6436
  648TMC3    C8 9600   1.834   1.205  15.803  0.3649 -0.2278 -0.5278
  648TMC3    O1 9601   1.880   1.682  15.680 -0.3588  0.7454 -0.0858
  648TMC3    O2 9602   1.735   1.144  15.844 -0.5194  0.5986  0.1928
  649TMC3    C1 9603   0.441   2.986  13.087  0.1820  0.5161 -0.6356
  649TMC3    C2 9604   0.536   3.082  13.109 -0.0012 -0.0389 -0.2786
  649TMC3    C3 9605   0.609   3.067  13.225  0.3520 -0.2249  0.2686
  649TMC3    C4 9606   0.419   2.877  13.166 -1.1874  0.3478 -0.8958
  649TMC3    C5 9607   0.493   2.876  13.281 -0.9269  0.4251 -0.1202
  649TMC3    C6 9608   0.580   2.973  13.319  0.6334  0.4181 -0.7712
  649TMC3     C 9609   0.377   2.982  12.955 -0.1461 -0.6380 -0.1091
  649TMC3     O 9610   0.297   3.062  12.915  0.0398  0.2103  0.2632
  649TMC3     H 9611   0.549   3.176  13.057 -0.0365  0.2861  0.2949
  649TMC3    H1 9612   0.339   2.810  13.137 -0.4938 -0.8012 -0.1590
  649TMC3    H2 9613   0.629   2.971  13.416  0.7355 -1.8728 -0.8828
  649TMC3    C7 9614   0.434   2.809  13.393 -0.5431  0.0413 -0.6250
  649TMC3    C8 9615   0.690   3.182  13.256  0.0766  0.1852 -0.4744
  649TMC3    O1 9616   0.435   2.862  13.501 -0.0206 -0.2692 -0.1052
  649TMC3    O2 9617   0.764   3.230  13.168  0.3965  0.5401  0.6943
  650TMC3    C1 9618   4.039   4.117  12.635  0.6099  0.3807 -0.6223
  650TMC3    C2 9619   4.025   4.240  12.698  0.4214  0.9647 -0.3137
  650TMC3    C3 9620   3.974   4.346  12.624  0.0550  0.6091  0.7762
  650TMC3    C4 9621   3.978   4.095  12.507 -0.0564 -0.8379 -0.2298
  650TMC3    C5 9622   3.918   4.201  12.446  0.4609 -0.2434 -0.4647
  650TMC3    C6 9623   3.928   4.324  12.499  0.3817  0.3506  0.2938
  650TMC3     C 9624   4.061   4.007  12.731  0.0340 -0.4080 -0.0863
  650TMC3     O 9625   4.066   4.039  12.848  0.1358  0.1981 -0.3063
  650TMC3     H 9626   4.064   4.253  12.799  0.8137 -4.3952  0.1925
  650TMC3    H1 9627   3.999   4.006  12.448  4.5330 -0.6601  1.1218
  650TMC3    H2 9628   3.912   4.415  12.442  1.2299  0.6050  0.4608
  650TMC3    C7 9629   3.828   4.182  12.336 -0.3062  0.2233  0.2075
  650TMC3    C8 9630   3.955   4.479  12.679 -0.5805  0.3890 -0.6970
  650TMC3    O1 9631   3.815   4.062  12.301 -0.1764 -0.6996  0.1462
  650TMC3    O2 9632   3.944   4.567  12.593  0.2789  0.2100  1.0067
  651MPD2     C 9633   2.439   1.230  10.402  0.0285 -0.3487 -0.1856
  651MPD2    C1 9634   2.409   1.309  10.507  0.2059 -0.1525  0.1630
  651MPD2    C2 9635   2.514   1.380  10.558  0.2372  0.6361 -0.4769
  651MPD2    C3 9636   2.638   1.371  10.507  0.5594  0.1312  0.0290
  651MPD2    C4 9637   2.665   1.289  10.402 -0.4909 -0.0767  0.8808
  651MPD2    C5 9638   2.562   1.222  10.349 -0.0752  0.6638  0.2529
  651MPD2     H 9639   2.483   1.443  10.640  3.4144 -0.8141  1.8480
  651MPD2    H1 9640   2.760   1.293  10.350 -0.4808  0.4531  0.9441
  651MPD2    H2 9641   2.361   1.175  10.351 -0.4696 -0.8183  1.0684
  651MPD2    H3 9642   2.585   1.151  10.270 -1.6134 -0.9156  1.2014
  651MPD2     N 9643   2.741   1.448  10.569  0.2057  0.4613 -0.3145
  651MPD2    H5 9644   2.707   1.504  10.646 -0.5994  0.6741 -0.8284
  651MPD2    N1 9645   2.282   1.336  10.551  0.4592 -0.5448  0.6488
  651MPD2    H7 9646   2.272   1.423  10.601  2.9201  0.0152  0.1895
  652TMC3    C1 9647   3.062   1.760  10.536 -0.2554 -0.0793  0.4741
  652TMC3    C2 9648   3.024   1.631  10.499  0.4626  0.8418  0.2730
  652TMC3    C3 9649   2.933   1.570  10.580  0.4902  0.0846  0.4620
  652TMC3    C4 9650   3.024   1.810  10.658  0.0222 -0.7386  0.0090
  652TMC3    C5 9651   2.939   1.742  10.736  0.3868  0.6044  0.0633
  652TMC3    C6 9652   2.892   1.620  10.698 -0.7824 -0.2138 -0.2224
  652TMC3     C 9653   3.198   1.793  10.513  0.2768  0.1102  0.5309
  652TMC3     O 9654   3.256   1.817  10.618 -0.0727  0.3365  0.6877
  652TMC3     H 9655   3.057   1.590  10.404  0.5326  0.2992  0.5277
  652TMC3    H1 9656   3.060   1.907  10.692  1.1091 -1.5727  1.2479
  652TMC3    H2 9657   2.828   1.568  10.769 -1.1851  1.4207  0.5941
  652TMC3    C7 9658   2.952   1.748  10.879  0.3090 -0.3181 -0.4060
  652TMC3    C8 9659   2.872   1.452  10.533  0.8751 -0.0627  0.2622
  652TMC3    O1 9660   2.875   1.701  10.959  0.3884  0.1737 -0.0255
  652TMC3    O2 9661   2.932   1.384  10.449  0.3556 -0.2458 -0.7894
  653MPD2     C 9662   0.855   1.442  17.562  0.5306 -0.1375  0.0810
  653MPD2    C1 9663   0.823   1.538  17.463  0.3667 -0.2115 -0.2422
  653MPD2    C2 9664   0.814   1.486  17.330  0.3115  0.0628 -0.4654
  653MPD2    C3 9665   0.829   1.348  17.303 -0.7038 -0.6232 -0.1808
  653MPD2    C4 9666   0.874   1.267  17.404 -1.0478  0.3360 -0.0187
  653MPD2    C5 9667   0.893   1.320  17.532  0.6644  0.6308 -0.4241
  653MPD2     H 9668   0.785   1.560  17.256 -0.5265  1.9973  1.7847
  653MPD2    H1 9669   0.909   1.166  17.389 -0.3346  0.3788  1.4208
  653MPD2    H2 9670   0.861   1.464  17.668  0.5407  0.3449 -0.0205
  653MPD2    H3 9671   0.933   1.263  17.615 -1.0498  1.6608  1.1110
  653MPD2     N 9672   0.820   1.303  17.173 -0.5022  0.2644  0.1530
  653MPD2    H5 9673   0.771   1.374  17.119  0.7069 -0.0987 -1.4187
  653MPD2    N1 9674   0.800   1.675  17.494  0.0034 -0.7687  0.6307
  653MPD2    H7 9675   0.794   1.730  17.409  1.7465 -1.6202 -0.0433
  654TMC3    C1 9676   0.778   1.145  17.000  0.3526  0.0688 -0.6948
  654TMC3    C2 9677   0.645   1.177  16.992 -0.6463  0.9423 -0.4233
  654TMC3    C3 9678   0.559   1.105  16.914  0.5234  0.4202  0.3441
  654TMC3    C4 9679   0.817   1.029  16.940 -0.0934 -0.4669  0.5739
  654TMC3    C5 9680   0.729   0.962  16.859 -0.2463  0.3918  0.5640
  654TMC3    C6 9681   0.599   0.994  16.838  0.1203 -0.1184  0.3501
  654TMC3     C 9682   0.846   1.176  17.125  0.4420  0.1794 -0.6530
  654TMC3     O 9683   0.919   1.088  17.171 -0.0895 -0.6155  0.0586
  654TMC3     H 9684   0.606   1.256  17.056 -1.3915  1.5234 -1.5973
  654TMC3    H1 9685   0.921   1.000  16.955  0.3551  1.0006  0.3010
  654TMC3    H2 9686   0.535   0.956  16.759 -3.2796  0.2124  2.9561
  654TMC3    C7 9687   0.784   0.847  16.783 -0.3520 -0.0892  0.2356
  654TMC3    C8 9688   0.417   1.119  16.934 -0.5893  0.4015 -0.3193
  654TMC3    O1 9689   0.764   0.848  16.664  0.0341  0.2869  0.5510
  654TMC3    O2 9690   0.386   1.234  16.946  0.1733 -0.4157  0.1341
  655MPD2     C 9691   2.394   1.576  15.560  0.6819  0.4042  0.2438
  655MPD2    C1 9692   2.336   1.686  15.502  0.0369  0.3003  0.0420
  655MPD2    C2 9693   2.336   1.706  15.361  0.0365 -0.3447  0.2888
  655MPD2    C3 9694   2.406   1.606  15.283 -0.0828  0.6100  0.4133
  655MPD2    C4 9695   2.474   1.503  15.346  0.4222  0.0183 -0.0305
  655MPD2    C5 9696   2.461   1.489  15.482  0.3590  0.2818 -0.5694
  655MPD2     H 9697   2.290   1.799  15.328 -0.5243 -0.3460  1.0551
  655MPD2    H1 9698   2.529   1.429  15.290 -0.3060 -1.0394  0.6604
  655MPD2    H2 9699   2.410   1.564  15.667 -0.5944 -0.0425  0.3867
  655MPD2    H3 9700   2.521   1.407  15.523  0.4564 -0.1343 -1.5412
  655MPD2     N 9701   2.400   1.605  15.140 -0.5558  0.3031 -0.5887
  655MPD2    H5 9702   2.457   1.539  15.089 -1.7179  0.7543 -2.4951
  655MPD2    N1 9703   2.279   1.790  15.584 -0.4591 -0.1781  0.0621
  655MPD2    H7 9704   2.223   1.852  15.526 -1.6030 -0.3772  0.9464
  656TMC3    C1 9705   2.204   1.913  15.774  0.0679  0.5858  0.4179
  656TMC3    C2 9706   2.154   1.892  15.893 -0.4062 -0.3646 -0.2388
  656TMC3    C3 9707   2.064   1.987  15.946 -0.0066 -0.1707  0.3320
  656TMC3    C4 9708   2.178   2.021  15.700 -0.0912  0.1743 -0.0689
  656TMC3    C5 9709   2.082   2.107  15.739 -0.2591  0.0529  0.0420
  656TMC3    C6 9710   2.021   2.095  15.868  0.0313  0.4310  0.0480
  656TMC3     C 9711   2.279   1.806  15.724 -0.4938  0.0081 -0.4167
  656TMC3     O 9712   2.315   1.728  15.813 -0.3763  0.3134  0.1482
  656TMC3     H 9713   2.193   1.814  15.957  0.8065 -1.2848 -2.0808
  656TMC3    H1 9714   2.234   2.027  15.607 -1.7981  1.4945 -1.0089
  656TMC3    H2 9715   1.949   2.168  15.904 -3.2268 -0.5668 -4.3294
  656TMC3    C7 9716   2.039   2.209  15.638  0.1871  0.3930  0.3113
  656TMC3    C8 9717   2.008   1.965  16.076 -0.2368 -0.5484  0.4253
  656TMC3    O1 9718   2.103   2.225  15.537 -0.4929  0.6840  0.0426
  656TMC3    O2 9719   2.014   1.852  16.113  0.0638  0.3669 -0.6092
  657TMC3    C1 9720   1.214   1.329  14.595 -0.7193  0.1614 -0.1741
  657TMC3    C2 9721   1.195   1.282  14.720  0.4500  0.2870  0.5846
  657TMC3    C3 9722   1.106   1.349  14.802  0.7202  0.2101 -0.8176
  657TMC3    C4 9723   1.159   1.446  14.559 -0.5137  0.4121 -0.2233
  657TMC3    C5 9724   1.081   1.511  14.648 -0.1442  0.2261 -0.1309
  657TMC3    C6 9725   1.047   1.463  14.768 -0.2758  0.3818 -0.3604
  657TMC3     C 9726   1.282   1.262  14.489  0.1052  0.1063  0.0644
  657TMC3     O 9727   1.302   1.326  14.383  0.0235  0.0451  0.0929
  657TMC3     H 9728   1.243   1.192  14.757 -2.3981 -1.1623  0.7820
  657TMC3    H1 9729   1.175   1.495  14.464  0.5297 -2.0417 -1.3208
  657TMC3    H2 9730   0.981   1.508  14.841 -3.1929 -0.3744 -2.4854
  657TMC3    C7 9731   1.017   1.624  14.600  0.2996  0.0311  0.1301
  657TMC3    C8 9732   1.082   1.312  14.939 -0.3907 -0.6542 -0.1482
  657TMC3    O1 9733   1.000   1.646  14.478  0.1198 -0.2941 -0.1279
  657TMC3    O2 9734   1.002   1.376  15.001  0.2072 -0.9115 -0.2269
  658MPD2     C 9735   2.361   1.158  14.444 -0.2453 -0.1457 -0.3587
  658MPD2    C1 9736   2.433   1.261  14.496 -0.1462  0.5451 -0.0539
  658MPD2    C2 9737   2.557   1.287  14.434  0.7198 -0.0433  0.0543
  658MPD2    C3 9738   2.589   1.229  14.315  0.6563 -0.1726 -0.4359
  658MPD2    C4 9739   2.515   1.124  14.267 -0.7075  0.6282  0.3580
  658MPD2    C5 9740   2.406   1.088  14.334  0.7033 -0.5505  0.2674
  658MPD2     H 9741   2.622   1.362  14.478  0.5510  0.1573 -0.0367
  658MPD2    H1 9742   2.546   1.066  14.180 -0.4226  0.8008  0.3458
  658MPD2    H2 9743   2.264   1.129  14.484 -0.8403  1.8137 -0.3689
  658MPD2    H3 9744   2.350   1.001  14.302  1.8402 -0.9234 -0.6782
  658MPD2     N 9745   2.695   1.289  14.239  0.7377 -0.2690 -0.2849
  658MPD2    H5 9746   2.742   1.359  14.295  1.6460  0.0650 -1.4604
  658MPD2    N1 9747   2.365   1.336  14.589  0.1572 -0.4516 -0.2451
  658MPD2    H7 9748   2.271   1.306  14.611 -0.1213  0.9176  0.4147
  659TMC3    C1 9749   2.322   1.484  14.761 -0.7422 -0.0265 -0.2670
  659TMC3    C2 9750   2.360   1.531  14.879  0.0286  0.2579 -1.2058
  659TMC3    C3 9751   2.307   1.643  14.924 -0.0658 -0.4184 -0.1817
  659TMC3    C4 9752   2.198   1.524  14.704  0.2577 -0.2770 -0.4874
  659TMC3    C5 9753   2.147   1.645  14.749 -0.7983  0.2202 -0.9907
  659TMC3    C6 9754   2.205   1.713  14.857 -0.8324  0.1635  0.3417
  659TMC3     C 9755   2.419   1.432  14.667  0.2058  0.3525 -0.1240
  659TMC3     O 9756   2.535   1.456  14.691  0.4082  0.2943  0.0130
  659TMC3     H 9757   2.454   1.498  14.922 -1.8222 -1.7047  1.3421
  659TMC3    H1 9758   2.162   1.486  14.609  0.6612  0.7391 -1.0505
  659TMC3    H2 9759   2.152   1.802  14.889  0.4464  0.8079  0.6630
  659TMC3    C7 9760   2.001   1.670  14.735 -0.1407  0.3948  0.1441
  659TMC3    C8 9761   2.318   1.680  15.065  0.2714 -0.4120 -0.2633
  659TMC3    O1 9762   1.959   1.757  14.811  0.5446 -0.2914  0.0768
  659TMC3    O2 9763   2.244   1.770  15.103 -0.4811  0.0327  0.0121
  660MPD2     C 9764   0.764   4.665  12.780  0.9802 -0.4016 -0.0031
  660MPD2    C1 9765   0.636   4.702  12.751 -0.0957 -0.5661 -0.1681
  660MPD2    C2 9766   0.542   4.692  12.842  0.1400  0.1320 -0.3244
  660MPD2    C3 9767   0.571   4.640  12.965 -0.5525  0.6373  0.1721
  660MPD2    C4 9768   0.698   4.593  12.997 -1.1517  0.3321  0.4399
  660MPD2    C5 9769   0.793   4.594  12.899  0.7235 -0.5532 -0.3867
  660MPD2     H 9770   0.445   0.011  12.814 -0.1170  1.7872  2.9751
  660MPD2    H1 9771   0.715   4.535  13.087  0.7209  0.1928 -0.0037
  660MPD2    H2 9772   0.828   4.674  12.693  0.7158  1.1805 -0.0417
  660MPD2    H3 9773   0.887   4.542  12.919  1.6533  1.0855 -0.4996
  660MPD2     N 9774   0.476   4.636  13.065 -0.1023  0.1545  0.0750
  660MPD2    H5 9775   0.500   4.569  13.138 -1.6697 -1.5930 -1.0129
  660MPD2    N1 9776   0.618   0.033  12.620  0.3779 -0.4231  0.0444
  660MPD2    H7 9777   0.702   0.038  12.562  1.5681  1.2714  1.9396
  661TMC3    C1 9778   0.504   0.105  12.420 -0.1502 -0.1979  0.0983
  661TMC3    C2 9779   0.610   0.073  12.339 -0.5576 -0.0200 -0.2421
  661TMC3    C3 9780   0.600   0.113  12.210  0.3909 -0.1333  0.4439
  661TMC3    C4 9781   0.397   0.171  12.368  0.2243 -0.8343 -0.6716
  661TMC3    C5 9782   0.394   0.207  12.232 -0.2506 -0.8084 -0.3541
  661TMC3    C6 9783   0.491   0.169  12.148  0.3232 -0.5399 -0.4968
  661TMC3     C 9784   0.492   0.061  12.565  0.2783  0.0816  0.1012
  661TMC3     O 9785   0.382   0.073  12.612 -0.7240 -0.6397  0.3368
  661TMC3     H 9786   0.692   0.012  12.376  0.0783  1.2419  0.4325
  661TMC3    H1 9787   0.324   0.211  12.438 -0.5854 -3.4588 -0.0049
  661TMC3    H2 9788   0.499   0.201  12.044  0.0213 -0.3090 -0.4489
  661TMC3    C7 9789   0.316   0.326  12.217 -0.3640 -0.7614 -0.0480
  661TMC3    C8 9790   0.728   0.129  12.137  0.0939  0.3182 -0.1441
  661TMC3    O1 9791   0.294   0.384  12.320  0.4261 -0.0464  0.0526
  661TMC3    O2 9792   0.733   0.119  12.015 -0.1880  0.4570  0.0757
  662MPD2     C 9793   1.035   4.696  17.112  0.0725  0.6127 -0.6156
  662MPD2    C1 9794   0.965   4.654  17.226  0.1845  0.5514  0.0161
  662MPD2    C2 9795   0.879   0.021  17.284  0.2748 -0.0850  0.2261
  662MPD2    C3 9796   0.853   0.144  17.228 -0.4219 -0.0615  0.1730
  662MPD2    C4 9797   0.930   0.191  17.121  0.1281 -0.7361  0.4310
  662MPD2    C5 9798   1.014   0.097  17.060  0.3912 -0.0586  0.7958
  662MPD2     H 9799   0.850   0.003  17.387 -2.5238 -0.4659 -0.6313
  662MPD2    H1 9800   0.924   0.288  17.073 -1.7065 -1.2924 -0.4250
  662MPD2    H2 9801   1.109   4.636  17.062  1.8878  1.0077  1.5756
  662MPD2    H3 9802   1.066   0.123  16.969  0.5897  1.7262  1.4299
  662MPD2     N 9803   0.754   0.226  17.293 -0.4560 -0.0807  0.2388
  662MPD2    H5 9804   0.752   0.321  17.258 -1.0687 -0.9498 -2.0570
  662MPD2    N1 9805   0.979   4.532  17.291  0.0435  0.8214 -0.5327
  662MPD2    H7 9806   0.910   4.515  17.363  1.1983  1.0807  0.6281
  663TMC3    C1 9807   1.049   4.324  17.357 -0.2133 -0.6992 -0.6599
  663TMC3    C2 9808   0.980   4.341  17.476  0.1584 -0.3132 -0.0452
  663TMC3    C3 9809   0.991   4.238  17.568  0.0901 -0.7178 -0.5853
  663TMC3    C4 9810   1.094   4.199  17.317  0.1978  0.1040  0.0540
  663TMC3    C5 9811   1.064   4.094  17.403 -0.8763  0.2742 -0.9813
  663TMC3    C6 9812   1.024   4.112  17.531  0.1825  0.2665  0.6776
  663TMC3     C 9813   1.059   4.429  17.261  0.7338 -0.2562 -0.0490
  663TMC3     O 9814   1.135   4.411  17.163 -0.4235 -0.3076  0.1428
  663TMC3     H 9815   0.979   4.444  17.507  2.7780 -0.3848  0.3100
  663TMC3    H1 9816   1.143   4.183  17.222  1.0456 -1.6279  0.7690
  663TMC3    H2 9817   1.027   4.034  17.607 -2.4339 -0.9160 -0.4515
  663TMC3    C7 9818   1.088   3.963  17.347 -0.0605 -0.1695 -0.5134
  663TMC3    C8 9819   0.927   4.249   0.012  0.0869  0.0148  0.1723
  663TMC3    O1 9820   1.170   3.955  17.255 -0.0537 -0.2803  0.0828
  663TMC3    O2 9821   0.953   4.161   0.096  0.6092 -0.2861 -0.1587
  664MPD2     C 9822   3.301   2.964  17.528  0.3592  0.3155 -0.3736
  664MPD2    C1 9823   3.414   2.984  17.592 -0.0264 -0.1225  0.7778
  664MPD2    C2 9824   3.432   2.910   0.023  0.1350  0.4090 -0.3418
  664MPD2    C3 9825   3.334   2.835   0.083 -0.1175 -0.4188  0.2758
  664MPD2    C4 9826   3.213   2.825   0.019  0.4149 -0.3655  0.6525
  664MPD2    C5 9827   3.199   2.892  17.586  0.3507 -0.3794 -0.1258
  664MPD2     H 9828   3.522   2.928   0.080  0.0559  0.4320 -0.2239
  664MPD2    H1 9829   3.127   2.772   0.059 -0.2713 -0.4001 -0.8696
  664MPD2    H2 9830   3.272   3.022  17.442 -0.5446  1.2464  0.5571
  664MPD2    H3 9831   3.109   2.875  17.527 -1.0090 -0.0609  1.8230
  664MPD2     N 9832   3.360   2.771   0.203 -0.2805 -0.4065  0.1359
  664MPD2    H5 9833   3.459   2.753   0.221 -0.4440  0.6721  2.0838
  664MPD2    N1 9834   3.515   3.072  17.549 -0.4049 -0.6975  0.3369
  664MPD2    H7 9835   3.602   3.067  17.601  0.7372  1.6778 -1.3559
  665TMC3    C1 9836   3.327   2.688   0.423  0.5178  0.8552 -0.1721
  665TMC3    C2 9837   3.229   2.635   0.510  0.0660  0.4643  0.5659
  665TMC3    C3 9838   3.240   2.678   0.639  0.0135  0.4120  0.0995
  665TMC3    C4 9839   3.421   2.780   0.462  0.5813  0.8241  0.3816
  665TMC3    C5 9840   3.417   2.833   0.589 -0.2004 -0.2469 -0.5012
  665TMC3    C6 9841   3.330   2.779   0.682  0.1179  0.8916  0.4419
  665TMC3     C 9842   3.267   2.723   0.291 -0.0346  0.0107 -0.2000
  665TMC3     O 9843   3.145   2.704   0.283 -0.0512 -0.0197 -0.2850
  665TMC3     H 9844   3.143   2.579   0.474  0.2581 -2.2561  4.3828
  665TMC3    H1 9845   3.497   2.824   0.398 -0.9881 -0.6261 -2.5118
  665TMC3    H2 9846   3.340   2.804   0.787  1.1115 -0.2658  0.6324
  665TMC3    C7 9847   3.519   2.927   0.623 -0.4811  0.5825  0.3955
  665TMC3    C8 9848   3.125   2.659   0.726  0.0012 -0.6547 -0.6018
  665TMC3    O1 9849   3.624   2.924   0.556  0.0795  0.4087 -0.5576
  665TMC3    O2 9850   3.137   2.697   0.842  0.4501  0.8797 -0.0375
  666TMC3    C1 9851   3.218   2.196  10.289  0.4237 -0.2107  0.3940
  666TMC3    C2 9852   3.315   2.199  10.387 -0.6707 -0.2644 -0.4677
  666TMC3    C3 9853   3.397   2.306  10.389  0.1525 -0.7500  0.2294
  666TMC3    C4 9854   3.188   2.303  10.209  0.5601 -0.0752 -0.1125
  666TMC3    C5 9855   3.266   2.416  10.226 -0.4797 -0.5177  0.9998
  666TMC3    C6 9856   3.370   2.418  10.313 -0.4081 -0.2302  0.1194
  666TMC3     C 9857   3.112   2.122  10.343  0.3685 -0.1109  0.0060
  666TMC3     O 9858   3.113   2.110  10.464 -0.5695  0.3081  0.0558
  666TMC3     H 9859   3.349   2.109  10.437 -1.2720 -0.3247 -0.1629
  666TMC3    H1 9860   3.090   2.303  10.164  1.0566  1.4276 -1.1948
  666TMC3    H2 9861   3.413   2.516  10.331 -0.5424 -0.1115 -0.1940
  666TMC3    C7 9862   3.205   2.542  10.193  0.1866  0.3618  0.1555
  666TMC3    C8 9863   3.532   2.292  10.456 -0.0576  1.0050 -0.3063
  666TMC3    O1 9864   3.195   2.625  10.283 -0.7643  0.2170 -0.5249
  666TMC3    O2 9865   3.558   2.185  10.507  0.4278 -0.0553  0.1574
  667MPD2     C 9866   3.800   2.804  14.806  0.1455  0.3191 -0.5613
  667MPD2    C1 9867   3.709   2.899  14.854 -0.3360 -0.3694  0.0210
  667MPD2    C2 9868   3.580   2.902  14.800  0.2899  0.5842 -0.3212
  667MPD2    C3 9869   3.542   2.814  14.702  0.3166 -0.3528  0.1661
  667MPD2    C4 9870   3.636   2.727  14.649 -1.3662 -0.3774  0.0185
  667MPD2    C5 9871   3.756   2.719  14.704  0.4814 -0.0799 -0.8779
  667MPD2     H 9872   3.515   2.976  14.844  0.1076  1.0148 -1.3383
  667MPD2    H1 9873   3.599   2.667  14.567  2.2682 -3.0646  0.3400
  667MPD2    H2 9874   3.899   2.786  14.844 -0.1120 -0.7748 -0.4002
  667MPD2    H3 9875   3.818   2.634  14.676 -0.3470 -2.0393  3.2289
  667MPD2     N 9876   3.415   2.814  14.639 -0.2659 -0.7433  0.3682
  667MPD2    H5 9877   3.402   2.740  14.571 -2.9916 -2.5728  2.8660
  667MPD2    N1 9878   3.742   2.979  14.966 -0.5315 -0.3190  0.0559
  667MPD2    H7 9879   3.666   3.001  15.030 -1.5148 -1.9018 -0.5613
  668TMC3    C1 9880   3.883   3.059  15.139 -0.1264 -0.6070 -0.3876
  668TMC3    C2 9881   3.997   3.121  15.178  0.1076 -0.5892 -0.7394
  668TMC3    C3 9882   4.018   3.151  15.315 -0.4587  0.6095  0.5307
  668TMC3    C4 9883   3.792   3.020  15.236  0.4221  0.0960  0.1450
  668TMC3    C5 9884   3.804   3.063  15.363  0.4140  0.7545 -0.1655
  668TMC3    C6 9885   3.919   3.122  15.408 -0.0101  0.2568  0.5532
  668TMC3     C 9886   3.872   3.008  15.001 -0.2810  0.1934 -0.0577
  668TMC3     O 9887   3.973   2.993  14.935  0.1265  0.3315 -0.1980
  668TMC3     H 9888   4.074   3.138  15.104  1.1473 -2.0209  0.0166
  668TMC3    H1 9889   3.717   2.944  15.214  0.1685  0.2563  0.4542
  668TMC3    H2 9890   3.919   3.151  15.512  1.6523  1.3451  0.2492
  668TMC3    C7 9891   3.701   3.024  15.463  0.2231 -1.1746 -0.0585
  668TMC3    C8 9892   4.111   3.251  15.354  0.0581  0.6638 -0.4261
  668TMC3    O1 9893   3.736   3.015  15.581 -0.4236  0.3486  0.1891
  668TMC3    O2 9894   4.133   3.256  15.474 -0.2964  0.3449 -0.0450
  669TMC3    C1 9895   2.117   2.894  14.538 -0.0514  0.2330  0.2923
  669TMC3    C2 9896   1.994   2.887  14.478  0.3032  0.4952 -0.8166
  669TMC3    C3 9897   2.005   2.894  14.341 -0.6288  0.0352  0.1350
  669TMC3    C4 9898   2.238   2.923  14.479  0.2720 -0.3882 -0.4271
  669TMC3    C5 9899   2.235   2.932  14.343 -0.2690 -0.5082  0.6229
  669TMC3    C6 9900   2.122   2.914  14.273 -0.4598 -0.9196  0.0652
  669TMC3     C 9901   2.108   2.864  14.686  0.4553 -0.2387 -0.0812
  669TMC3     O 9902   1.995   2.851  14.736 -0.0751  0.0666  0.1981
  669TMC3     H 9903   1.902   2.881  14.534 -0.5149  0.8303 -2.1130
  669TMC3    H1 9904   2.332   2.938  14.529  1.1080  1.0216 -2.4039
  669TMC3    H2 9905   2.120   2.912  14.165 -0.2147  1.9835 -0.0020
  669TMC3    C7 9906   2.339   3.007  14.281  0.5568 -0.1834 -0.3036
  669TMC3    C8 9907   1.892   2.890  14.253 -0.6593  0.5467 -0.7184
  669TMC3    O1 9908   2.330   3.068  14.176  0.1666 -0.8196  0.1485
  669TMC3    O2 9909   1.901   2.939  14.143  0.0348  0.0198 -0.0737
  670MPD2     C 9910   0.449   1.083  13.418 -0.3320 -0.7705  0.7587
  670MPD2    C1 9911   0.565   1.143  13.449  0.4527  0.0354  0.1156
  670MPD2    C2 9912   0.628   1.116  13.564 -0.4576 -0.1327  0.0488
  670MPD2    C3 9913   0.572   1.034  13.656  0.4910 -0.2128  0.3671
  670MPD2    C4 9914   0.450   0.973  13.624  0.2411 -0.0015  0.2673
  670MPD2    C5 9915   0.394   0.997  13.503 -0.1841  0.1162  0.3576
  670MPD2     H 9916   0.728   1.157  13.573 -1.3177  2.1026 -0.5552
  670MPD2    H1 9917   0.397   0.899  13.682  0.2403 -0.5437 -0.4106
  670MPD2    H2 9918   0.397   1.105  13.326 -3.0706 -1.2589  2.2053
  670MPD2    H3 9919   0.307   0.944  13.465  0.2163  0.9620 -1.7048
  670MPD2     N 9920   0.636   1.000  13.781 -0.1628 -0.3910 -0.4087
  670MPD2    H5 9921   0.731   1.035  13.787  0.0150 -0.8711 -0.4134
  670MPD2    N1 9922   0.637   1.233  13.366 -0.0037 -0.1337 -0.3833
  670MPD2    H7 9923   0.729   1.267  13.394  0.3058 -0.9754 -0.3741
  671TMC3    C1 9924   0.661   0.915  14.006  0.2301  0.1302 -0.1352
  671TMC3    C2 9925   0.784   0.867  13.963  0.3750  0.4052  0.0015
  671TMC3    C3 9926   0.815   0.741  14.000 -0.4794 -0.1808  0.5409
  671TMC3    C4 9927   0.590   0.853  14.111  0.0431  0.3576 -0.8334
  671TMC3    C5 9928   0.642   0.733  14.154 -0.3933 -0.1647 -0.1282
  671TMC3    C6 9929   0.752   0.670  14.101 -0.1693 -0.8952  0.0407
  671TMC3     C 9930   0.573   0.946  13.895  0.5351  0.3869 -0.0329
  671TMC3     O 9931   0.456   0.923  13.909  0.1552  0.0211 -0.0712
  671TMC3     H 9932   0.828   0.904  13.871  0.4638 -2.3017 -1.0373
  671TMC3    H1 9933   0.488   0.884  14.130  0.7395  2.3167 -0.2787
  671TMC3    H2 9934   0.785   0.573  14.136 -0.2075 -0.9757 -0.1457
  671TMC3    C7 9935   0.537   0.642  14.192  0.1890  0.3078 -0.2758
  671TMC3    C8 9936   0.908   0.664  13.915 -0.4624 -0.1587  0.6991
  671TMC3    O1 9937   0.419   0.670  14.171 -0.8039 -0.1743  0.0860
  671TMC3    O2 9938   0.903   0.544  13.940  0.6362  0.1921  0.4052
  672MPD2     C 9939   0.719   0.976   0.504 -0.0295 -0.7835 -0.0501
  672MPD2    C1 9940   0.741   1.091   0.566 -0.3503  0.0152  0.7089
  672MPD2    C2 9941   0.646   1.139   0.659 -0.4263  0.1482 -0.1287
  672MPD2    C3 9942   0.534   1.058   0.690 -0.5449 -0.2220 -0.2535
  672MPD2    C4 9943   0.510   0.954   0.603 -0.8923 -0.2441  0.0420
  672MPD2    C5 9944   0.606   0.909   0.517  0.2868  0.1058  0.0660
  672MPD2     H 9945   0.668   1.223   0.724 -0.2404 -0.0149  0.0189
  672MPD2    H1 9946   0.418   0.896   0.606 -1.7698  1.2332  1.4880
  672MPD2    H2 9947   0.797   0.930   0.445 -0.5352 -0.7676 -0.7225
  672MPD2    H3 9948   0.600   0.823   0.452 -1.8776  1.6967 -1.8727
  672MPD2     N 9949   0.442   1.086   0.794  1.1806 -0.1049  0.2486
  672MPD2    H5 9950   0.372   1.019   0.823  0.0859  1.9189  2.2072
  672MPD2    N1 9951   0.869   1.162   0.554  0.8456 -0.0562 -0.2386
  672MPD2    H7 9952   0.871   1.240   0.620 -2.3519  0.6346 -0.9600
  673TMC3    C1 9953   1.077   1.244   0.495  0.3599 -0.0633 -0.3228
  673TMC3    C2 9954   1.207   1.208   0.472  0.1139  0.4075 -0.8722
  673TMC3    C3 9955   1.303   1.304   0.496  0.2695  0.7077 -0.0314
  673TMC3    C4 9956   1.034   1.359   0.548 -0.0312 -0.2403 -0.2534
  673TMC3    C5 9957   1.135   1.454   0.566 -1.2364  0.1746 -0.0139
  673TMC3    C6 9958   1.264   1.428   0.536  0.2396 -0.3120  0.2995
  673TMC3     C 9959   0.986   1.130   0.491  0.3216 -0.2670 -0.3332
  673TMC3     O 9960   1.023   1.034   0.424 -0.5176  0.4564 -0.3752
  673TMC3     H 9961   1.234   1.109   0.437  1.0359  0.3299  0.0601
  673TMC3    H1 9962   0.929   1.388   0.545 -0.2108 -0.9706 -1.1477
  673TMC3    H2 9963   1.336   1.509   0.550  1.1771 -1.1968  0.5950
  673TMC3    C7 9964   1.097   1.594   0.597  0.2370 -0.2607  0.2200
  673TMC3    C8 9965   1.418   1.261   0.567  0.9747  0.4079  0.1321
  673TMC3    O1 9966   1.186   1.676   0.615  0.0831  0.1427  0.4132
  673TMC3    O2 9967   1.522   1.307   0.521 -0.4637 -0.3338 -0.0751
  674MPD2     C 9968   1.297   1.471   0.156 -0.0533  0.4606 -0.1009
  674MPD2    C1 9969   1.268   1.340   0.129  0.4526 -0.0754 -0.3687
  674MPD2    C2 9970   1.141   1.293   0.140  0.7578  0.6213  0.4903
  674MPD2    C3 9971   1.040   1.382   0.173  0.8322  0.2369 -0.3349
  674MPD2    C4 9972   1.064   1.519   0.178 -0.1652  0.1179 -0.2382
  674MPD2    C5 9973   1.195   1.557   0.179 -0.9172 -0.0485 -0.4390
  674MPD2     H 9974   1.124   1.187   0.126  2.1784  0.2539  1.5915
  674MPD2    H1 9975   0.988   1.592   0.205 -1.3703 -1.7523  1.4015
  674MPD2    H2 9976   1.399   1.505   0.137 -1.4283  4.7311  0.1720
  674MPD2    H3 9977   1.226   1.661   0.174 -2.2870  0.3212 -1.2157
  674MPD2     N 9978   0.917   1.319   0.208 -0.0320 -0.1326  0.3942
  674MPD2    H5 9979   0.907   1.221   0.183  0.4030  0.3578 -1.6867
  674MPD2    N1 9980   1.378   1.249   0.102  0.4454  0.5896 -0.0750
  674MPD2    H7 9981   1.465   1.300   0.105 -0.0226  1.3926  0.0014
  675TMC3    C1 9982   1.512   1.051   0.095 -0.5068  0.5110  0.6611
  675TMC3    C2 9983   1.547   0.933   0.162 -0.8287  0.9582 -0.1328
  675TMC3    C3 9984   1.675   0.880   0.142 -0.1571  0.4435  0.7091
  675TMC3    C4 9985   1.589   1.104  17.682 -0.1487 -0.1336  0.4089
  675TMC3    C5 9986   1.710   1.047  17.660  0.0305  0.0069 -0.2277
  675TMC3    C6 9987   1.759   0.949   0.055  0.4449  0.5264  0.5162
  675TMC3     C 9988   1.379   1.111   0.113  0.3096 -0.3580 -0.3756
  675TMC3     O 9989   1.292   1.033   0.150  0.1340  0.2781  0.2381
  675TMC3     H 9990   1.466   0.879   0.210 -0.0857 -0.0999 -0.0784
  675TMC3    H1 9991   1.568   1.189  17.618 -1.5109 -1.3206 -0.7262
  675TMC3    H2 9992   1.861   0.915   0.037  0.7200  1.4474  0.3532
  675TMC3    C7 9993   1.788   1.092  17.553 -0.9304 -0.0326  0.4162
  675TMC3    C8 9994   1.711   0.749   0.193  0.2091 -0.0853 -0.6429
  675TMC3    O1 9995   1.837   1.006  17.474  0.6101  0.3909 -0.1456
  675TMC3    O2 9996   1.796   0.693   0.130  0.1704 -0.3746  0.1528
  676MPD2     C 9997   3.603   4.142  10.940  0.0472  0.2086 -0.2453
  676MPD2    C1 9998   3.594   4.043  11.036  0.1303  0.1457 -0.0354
  676MPD2    C2 9999   3.599   3.909  10.993 -0.0390  0.0273 -0.4547
  676MPD2    C310000   3.627   3.873  10.856  0.5470  0.3570 -0.1206
  676MPD2    C410001   3.640   3.974  10.770 -0.0974  0.4194  0.5401
  676MPD2    C510002   3.617   4.100  10.809 -0.0644 -0.0365 -0.2437
  676MPD2     H10003   3.585   3.827  11.062 -2.3398  0.6832 -0.1431
  676MPD2    H110004   3.651   3.959  10.663  2.1772  0.8725  0.7191
  676MPD2    H210005   3.599   4.249  10.956  1.1637  0.0455  1.2448
  676MPD2    H310006   3.638   4.180  10.740 -3.5354  0.5713 -0.6099
  676MPD2     N10007   3.628   3.747  10.813 -0.7265  0.5540 -0.0040
  676MPD2    H510008   3.615   3.742  10.712  1.5813  2.0363 -0.3869
  676MPD2    N110009   3.561   4.062  11.170  0.1545  0.4477 -0.4582
  676MPD2    H710010   3.538   3.982  11.230 -0.5860 -0.3817 -1.8514
  677TMC3    C110011   3.471   4.184  11.350 -0.3178 -0.0096  0.0380
  677TMC3    C210012   3.367   4.096  11.375  0.8732  0.6597  0.8344
  677TMC3    C310013   3.302   4.093  11.492  0.6534 -0.1107 -0.6815
  677TMC3    C410014   3.506   4.278  11.443 -0.1458 -0.4097  0.4899
  677TMC3    C510015   3.425   4.286  11.558 -0.2664  0.5185 -0.3929
  677TMC3    C610016   3.329   4.194  11.583  0.4132 -0.0924 -0.3896
  677TMC3     C10017   3.554   4.186  11.226  0.0565  0.0534 -0.5857
  677TMC3     O10018   3.609   4.289  11.194 -0.7627  0.7749  0.2132
  677TMC3     H10019   3.343   4.022  11.299  0.5359  0.5345  1.0630
  677TMC3    H110020   3.593   4.339  11.422 -0.7675  0.4612  0.4325
  677TMC3    H210021   3.277   4.212  11.676 -0.7627  2.3489 -1.5067
  677TMC3    C710022   3.475   4.378  11.659 -0.0126 -0.5966 -0.2383
  677TMC3    C810023   3.227   3.968  11.522 -0.9321 -0.3651 -0.0285
  677TMC3    O110024   3.429   4.360  11.774  0.7478  0.1325  0.4726
  677TMC3    O210025   3.157   3.924  11.427  0.0892 -0.3921 -1.2276
  678MPD2     C10026   4.139   4.511   1.389  0.1485 -1.5592  0.3395
  678MPD2    C110027   4.168   4.435   1.278  0.3789 -0.4142 -0.2680
  678MPD2    C210028   4.080   4.343   1.223 -0.5737 -0.2586  0.1611
  678MPD2    C310029   3.953   4.330   1.274  0.1464  0.1296  0.1740
  678MPD2    C410030   3.927   4.404   1.387  0.0275 -0.4921 -0.0701
  678MPD2    C510031   4.018   4.496   1.443 -0.5795 -0.3640 -0.0164
  678MPD2     H10032   4.123   4.277   1.148 -0.4374  1.0940 -0.9404
  678MPD2    H110033   3.836   4.401   1.446 -2.0217  2.3911 -3.1569
  678MPD2    H210034   4.202   4.590   1.429 -0.8975  0.6130 -2.2553
  678MPD2    H310035   3.990   4.556   1.529 -0.5643 -1.4539  0.7588
  678MPD2     N10036   3.859   4.235   1.223  0.4873 -0.2040  0.0431
  678MPD2    H510037   3.887   4.171   1.150 -1.0252 -2.1736  1.1810
  678MPD2    N110038   4.289   4.454   1.213 -0.2457 -0.2740 -0.0239
  678MPD2    H710039   4.308   4.400   1.129  2.1396 -0.2046  0.4734
  679TMC3    C110040   4.606   4.515   0.965 -0.2357 -0.0595  0.1986
  679TMC3    C210041   4.526   4.476   1.073 -0.3140  0.8811 -0.6032
  679TMC3    C310042   4.471   4.581   1.142 -0.3291 -0.6634 -0.1204
  679TMC3    C410043   4.652   4.641   0.947  0.9057  0.3904 -0.2776
  679TMC3    C510044   4.607   0.022   1.024 -0.1203 -0.2232  0.3097
  679TMC3    C610045   4.509   4.718   1.120  0.0963 -0.0872 -0.2365
  679TMC3     C10046   4.664   4.402   0.891  0.1038  0.4143 -0.8952
  679TMC3     O10047   4.591   4.303   0.891  0.3744  0.2481 -0.1950
  679TMC3     H10048   4.503   4.372   1.092 -0.4440  1.1089  0.4633
  679TMC3    H110049   4.706   4.663   0.856  0.7908 -0.0101 -0.4431
  679TMC3    H210050   4.470   0.067   1.193 -0.6442 -1.2360  0.4695
  679TMC3    C710051   4.651   0.157   1.017 -0.0886  0.1607  0.0358
  679TMC3    C810052   4.384   4.549   1.247  1.1088  0.4555 -0.3955
  679TMC3    O110053   4.599   0.238   1.088 -0.4626  0.3476 -0.5044
  679TMC3    O210054   4.391   4.634   1.334  0.1379  0.0450 -0.1876
  680MPD2     C10055   4.618   3.213  13.662  0.6713 -0.0238 -0.7500
  680MPD2    C110056   4.664   3.193  13.791  0.1102  1.1957  0.0203
  680MPD2    C210057   0.043   3.269  13.839 -0.1954 -0.6907  0.3405
  680MPD2    C310058   0.110   3.356  13.756  0.0810 -0.8286 -0.4518
  680MPD2    C410059   0.062   3.387  13.634 -0.7625 -0.4902  0.4582
  680MPD2    C510060   4.684   3.306  13.588  0.5345  0.0605 -0.6715
  680MPD2     H10061   0.081   3.244  13.937  0.5379  0.1815  0.2694
  680MPD2    H110062   0.090   3.466  13.567  0.0307 -1.1377  0.0296
  680MPD2    H210063   4.537   3.156  13.618 -2.0209 -0.5552  4.9197
  680MPD2    H310064   4.656   3.305  13.484  0.2126 -0.8557 -0.5746
  680MPD2     N10065   0.226   3.432  13.792  0.5736 -0.0974 -0.3835
  680MPD2    H510066   0.268   3.490  13.719 -2.6602  2.0822 -0.5182
  680MPD2    N110067   4.609   3.091  13.877  0.5941 -0.2003  0.2303
  680MPD2    H710068   4.642   3.091  13.973 -1.7037  0.1014  1.0164
  681TMC3    C110069   4.540   2.871  13.921  0.1590  0.2470 -0.5434
  681TMC3    C210070   4.581   2.888  14.048  0.2674 -0.2295  0.2144
  681TMC3    C310071   4.646   2.782  14.108 -0.4533 -1.1416  0.0474
  681TMC3    C410072   4.553   2.754  13.853 -0.5049 -0.0903  0.1158
  681TMC3    C510073   4.630   2.665  13.913  0.3190 -0.4132  0.1472
  681TMC3    C610074   4.686   2.673  14.040 -0.4969 -0.0540  0.0217
  681TMC3     C10075   4.529   2.988  13.835  0.0385  0.1861 -0.0299
  681TMC3     O10076   4.494   2.966  13.716 -0.4492 -0.0350  0.4148
  681TMC3     H10077   4.564   2.982  14.099 -1.6729  0.2451 -1.3082
  681TMC3    H110078   4.520   2.739  13.750  2.3094  1.0355 -0.9525
  681TMC3    H210079   0.044   2.608  14.076 -0.1817 -0.0084 -0.5836
  681TMC3    C710080   4.698   2.574  13.819  0.7902  0.3166  0.4230
  681TMC3    C810081   4.629   2.762  14.251  0.3936 -0.4760  0.2560
  681TMC3    O110082   4.709   2.458  13.857 -0.7279 -0.1337 -0.5267
  681TMC3    O210083   4.520   2.791  14.300 -0.2425 -0.0052 -0.3490
  682MPD2     C10084   2.914   3.786  10.428  0.1429  0.3692  0.4274
  682MPD2    C110085   2.862   3.671  10.490  0.8110 -0.9283  1.1863
  682MPD2    C210086   2.818   3.687  10.619 -0.1366  0.4077  0.3381
  682MPD2    C310087   2.840   3.805  10.688 -0.1655  0.1238 -0.1285
  682MPD2    C410088   2.875   3.923  10.625 -0.0476  0.5156 -0.4139
  682MPD2    C510089   2.910   3.908  10.491 -0.0981  0.6218 -0.5510
  682MPD2     H10090   2.780   3.596  10.665  1.0335  0.5075  1.4902
  682MPD2    H110091   2.897   4.014  10.680 -0.4173  0.4369 -0.1391
  682MPD2    H210092   2.950   3.777  10.326  0.1181 -1.4093  0.5701
  682MPD2    H310093   2.953   3.989  10.434  2.4089  0.6074  1.3304
  682MPD2     N10094   2.805   3.800  10.826 -0.0453 -0.0067  0.4484
  682MPD2    H510095   2.762   3.712  10.852 -2.2050  1.1799  0.8924
  682MPD2    N110096   2.869   3.539  10.442 -0.7076  0.5509 -0.0615
  682MPD2    H710097   2.827   3.474  10.508 -0.1639  0.6999  0.4340
  683TMC3    C110098   2.786   3.789  11.269 -0.0253 -0.0223  0.3435
  683TMC3    C210099   2.839   3.661  11.268  0.1227  0.2763  0.2126
  683TMC3    C310100   2.899   3.624  11.146  0.0333  0.6301  0.2634
  683TMC3    C410101   2.789   3.869  11.160  0.7802 -0.0602  0.0486
  683TMC3    C510102   2.845   3.821  11.047 -0.4975 -0.4793  0.3707
  683TMC3    C610103   2.896   3.695  11.034 -0.4301  0.3544 -0.3723
  683TMC3     C10104   2.754   3.837  11.397  1.2947  0.0217 -0.4891
  683TMC3     O10105   2.763   3.957  11.419  0.3650 -0.4112 -0.7131
  683TMC3     H10106   2.853   3.600  11.357 -2.6128  0.4721  0.7687
  683TMC3    H110107   2.737   3.964  11.158  1.3403  0.3112  2.4069
  683TMC3    H210108   2.953   3.655  10.951  0.6893 -1.6377  1.3392
  683TMC3    C710109   2.831   3.893  10.924  0.0138 -0.3406 -0.2571
  683TMC3    C810110   2.960   3.496  11.127 -0.6277 -0.2663  0.5685
  683TMC3    O110111   2.854   4.012  10.919 -0.3266 -0.2700  0.7878
  683TMC3    O210112   2.951   3.442  11.018 -0.7460 -0.0828 -0.3497
  684MPD2     C10113   0.832   3.777  16.539  0.0949  0.1062 -0.4881
  684MPD2    C110114   0.872   3.770  16.412  0.0737 -0.1313 -0.6026
  684MPD2    C210115   0.941   3.871  16.356  0.3314  0.0807  0.3982
  684MPD2    C310116   0.975   3.987  16.421 -0.3541 -0.1785  0.1421
  684MPD2    C410117   0.927   4.004  16.549 -0.3877 -0.3521 -0.1228
  684MPD2    C510118   0.854   3.897  16.602  0.5171 -0.2696 -0.3028
  684MPD2     H10119   0.971   3.869  16.251  0.1362  0.1269  0.3406
  684MPD2    H110120   0.937   4.092  16.612  1.3199 -0.4648 -0.2257
  684MPD2    H210121   0.786   3.696  16.595 -0.4578 -0.1510 -1.3047
  684MPD2    H310122   0.815   3.903  16.703 -0.8087 -0.4823 -0.7915
  684MPD2     N10123   1.041   4.093  16.363  0.2641  0.3729 -0.3626
  684MPD2    H510124   1.081   4.159  16.428  1.0506  0.4054 -0.8750
  684MPD2    N110125   0.853   3.662  16.324  0.0518 -0.0488  0.0002
  684MPD2    H710126   0.907   3.669  16.238 -0.7566  1.9703 -0.3340
  685TMC3    C110127   0.823   3.443  16.257 -0.2776  0.5093 -0.6808
  685TMC3    C210128   0.738   3.335  16.254 -0.4279  0.7989 -0.4883
  685TMC3    C310129   0.783   3.226  16.186 -0.1929  0.3895 -0.6827
  685TMC3    C410130   0.944   3.434  16.199 -0.7665  0.0730 -0.1989
  685TMC3    C510131   0.989   3.310  16.156  0.1831 -0.1907  0.1034
  685TMC3    C610132   0.911   3.207  16.145 -0.2722  0.1239  0.2280
  685TMC3     C10133   0.797   3.543  16.361 -0.5727  0.0501  0.1583
  685TMC3     O10134   0.733   3.516  16.462 -0.3148 -0.4739 -0.3269
  685TMC3     H10135   0.645   3.333  16.310  0.6995 -0.8862  1.3154
  685TMC3    H110136   1.018   3.512  16.213 -0.3977 -0.2248 -0.4770
  685TMC3    H210137   0.942   3.108  16.113  0.4879  0.4044  0.1007
  685TMC3    C710138   1.134   3.291  16.161  0.5847  0.1656  0.2392
  685TMC3    C810139   0.688   3.131  16.142 -0.7517 -0.3113 -0.5672
  685TMC3    O110140   1.187   3.225  16.072 -1.2022  0.6875  0.2384
  685TMC3    O210141   0.733   3.016  16.129 -0.2620 -0.0788  0.1330
  686MPD2     C10142   2.071   3.675  15.578  0.2224 -0.6879 -0.0219
  686MPD2    C110143   2.102   3.594  15.692  0.1216  0.2270  0.7870
  686MPD2    C210144   2.234   3.573  15.730  0.2648  0.1600 -0.1072
  686MPD2    C310145   2.334   3.616  15.649 -0.8878 -0.0368 -0.1214
  686MPD2    C410146   2.304   3.689  15.533 -0.0365 -0.8271 -0.1281
  686MPD2    C510147   2.172   3.714  15.493 -0.4973 -0.6066  0.3740
  686MPD2     H10148   2.256   3.524  15.824 -1.5324  0.0600  0.2675
  686MPD2    H110149   2.381   3.728  15.467 -0.4863  0.3131  0.0248
  686MPD2    H210150   1.968   3.694  15.551  0.3389 -1.0365 -0.7067
  686MPD2    H310151   2.159   3.762  15.396  1.2856 -1.8104 -0.4821
  686MPD2     N10152   2.467   3.580  15.656 -0.8030 -0.4884  0.3562
  686MPD2    H510153   2.529   3.634  15.597 -0.1868 -2.5635 -0.8884
  686MPD2    N110154   1.989   3.552  15.765 -0.5121 -1.0177  0.0560
  686MPD2    H710155   1.904   3.589  15.724  0.5441  0.7261 -0.5577
  687TMC3    C110156   2.471   3.375  15.797  0.4675  0.5566  0.1015
  687TMC3    C210157   2.369   3.315  15.736  0.0151 -0.0642 -0.1587
  687TMC3    C310158   2.316   3.200  15.787 -0.6536  0.8657 -0.1059
  687TMC3    C410159   2.546   3.301  15.891  0.0915  0.2303 -0.1450
  687TMC3    C510160   2.493   3.186  15.944  0.2257 -0.6043  0.1762
  687TMC3    C610161   2.374   3.137  15.890  0.1801  0.5180  0.2797
  687TMC3     C10162   2.537   3.499  15.746  0.3810 -0.0871 -0.4538
  687TMC3     O10163   2.658   3.507  15.766  0.3692  0.5530 -0.1203
  687TMC3     H10164   2.325   3.365  15.651  2.5104  0.6119 -1.0705
  687TMC3    H110165   2.625   3.343  15.952 -0.1286  0.1449  0.1968
  687TMC3    H210166   2.323   3.049  15.928  0.2773  0.8840  1.2728
  687TMC3    C710167   2.537   3.134  16.058  0.0879 -0.1191 -0.3475
  687TMC3    C810168   2.181   3.149  15.753  0.0959 -0.2153  0.0643
  687TMC3    O110169   2.659   3.124  16.078 -0.1527  0.2067 -0.4762
  687TMC3    O210170   2.146   3.043  15.814  0.0448 -0.3317  0.0283
  688MPD2     C10171   1.137   2.316  17.365 -0.7759  0.4933  0.5009
  688MPD2    C110172   1.099   2.189  17.335  0.4124  0.3830  0.0987
  688MPD2    C210173   1.169   2.115  17.238  0.1856  0.9162 -0.4313
  688MPD2    C310174   1.281   2.172  17.183 -0.5863  0.6924  0.1453
  688MPD2    C410175   1.312   2.302  17.196 -0.6392  0.4027 -0.9473
  688MPD2    C510176   1.238   2.376  17.290 -0.1782 -0.3950  0.4288
  688MPD2     H10177   1.148   2.011  17.215 -2.1827  1.2684  0.1533
  688MPD2    H110178   1.392   2.350  17.140 -2.2500  3.2642 -0.7791
  688MPD2    H210179   1.084   2.377  17.437 -2.1152 -1.1463  0.9178
  688MPD2    H310180   1.262   2.481  17.306 -2.3106  0.2382 -0.4891
  688MPD2     N10181   1.361   2.104  17.091 -0.6775  0.0097  0.3339
  688MPD2    H510182   1.416   2.167  17.034 -0.8891  0.3483  0.5003
  688MPD2    N110183   1.002   2.114  17.412  0.2301  0.0042  0.3225
  688MPD2    H710184   0.982   2.019  17.384  1.5274 -0.3862  0.7417
  689TMC3    C110185   0.855   2.076  17.590  0.2494 -0.1141  0.4690
  689TMC3    C210186   0.789   2.131   0.005 -0.3538  0.5058  0.6904
  689TMC3    C310187   0.697   2.046   0.072 -0.0488  0.5700  0.2155
  689TMC3    C410188   0.841   1.949  17.555 -0.0500 -0.2482 -0.2501
  689TMC3    C510189   0.748   1.870  17.614  0.7089 -0.1760  0.1113
  689TMC3    C610190   0.676   1.914   0.034  1.0836  0.0270 -0.8570
  689TMC3     C10191   0.940   2.168  17.519 -0.3488 -0.0627  0.2766
  689TMC3     O10192   0.941   2.278  17.568 -0.3789  0.5639 -0.9121
  689TMC3     H10193   0.789   2.238   0.026 -0.2526  0.8317 -0.9715
  689TMC3    H110194   0.899   1.901  17.476  0.9509 -0.6242  0.7137
  689TMC3    H210195   0.608   1.854   0.093  2.7677 -0.8657  0.1844
  689TMC3    C710196   0.784   1.729  17.617  0.0352  0.7106 -0.3164
  689TMC3    C810197   0.651   2.079   0.205 -0.5574 -0.2868  0.1076
  689TMC3    O110198   0.788   1.669   0.037 -0.4040  0.0477 -0.0385
  689TMC3    O210199   0.545   2.035   0.238  0.0119  0.1631 -0.3980
  690MPD2     C10200   3.016   4.241  15.401  0.8325  0.3450 -0.1742
  690MPD2    C110201   3.102   4.142  15.443  0.8299 -0.8442 -0.1297
  690MPD2    C210202   3.230   4.131  15.392  0.0177 -1.1486 -0.2516
  690MPD2    C310203   3.268   4.217  15.289  0.7964 -0.2241  0.3394
  690MPD2    C410204   3.177   4.312  15.241  0.0694 -0.3955  0.0303
  690MPD2    C510205   3.055   4.325  15.303  0.7914  0.0839  0.9566
  690MPD2     H10206   3.292   4.052  15.434  0.4577 -1.0485 -0.7140
  690MPD2    H110207   3.188   4.376  15.154 -0.3660  0.4414  0.5892
  690MPD2    H210208   2.912   4.242  15.433  0.9426  1.2497  0.1510
  690MPD2    H310209   2.982   4.388  15.253 -0.8773 -2.5260  0.1063
  690MPD2     N10210   3.393   4.198  15.239  0.1682 -0.2403  0.2473
  690MPD2    H510211   3.448   4.131  15.293 -0.0077 -0.9617 -0.4692
  690MPD2    N110212   3.070   4.048  15.546 -0.0952  0.1384  0.4650
  690MPD2    H710213   3.138   3.973  15.547  0.8838  1.0312  0.6341
  691TMC3    C110214   2.948   3.945  15.721 -0.3525  1.2391  0.0170
  691TMC3    C210215   2.845   3.959  15.810 -0.7962  0.4477  0.9615
  691TMC3    C310216   2.800   3.850  15.876  0.3805 -0.0385 -0.1262
  691TMC3    C410217   3.010   3.827  15.706  0.0194 -0.0106 -0.2864
  691TMC3    C510218   2.967   3.726  15.782  0.2289 -0.7309  0.3343
  691TMC3    C610219   2.858   3.723  15.867  0.0844  0.2817 -0.2939
  691TMC3     C10220   2.965   4.056  15.629 -0.1467  0.2976  1.3210
  691TMC3     O10221   2.878   4.138  15.641  0.0418  0.2170  0.1642
  691TMC3     H10222   2.803   4.058  15.820  2.3663  1.7006  1.9244
  691TMC3    H110223   3.097   3.829  15.642  0.7687  0.4386  0.7415
  691TMC3    H210224   2.825   3.639  15.927  2.3564 -0.7192 -0.4296
  691TMC3    C710225   3.028   3.600  15.754 -0.1139  0.0018  0.2663
  691TMC3    C810226   2.664   3.852  15.925 -0.0343 -0.1080 -0.0889
  691TMC3    O110227   3.143   3.603  15.710  0.7370 -0.3229  0.2520
  691TMC3    O210228   2.619   3.751  15.972  0.1103  0.0802  0.2807
  692TMC3    C110229   0.497   0.438  16.254 -0.1813 -0.4742 -0.6070
  692TMC3    C210230   0.609   0.471  16.326  0.1988  0.4419  0.4086
  692TMC3    C310231   0.728   0.439  16.260  0.1972  0.2868 -0.2139
  692TMC3    C410232   0.490   0.368  16.135  0.3500  0.3432 -0.2607
  692TMC3    C510233   0.608   0.337  16.079  0.2658  1.5806 -0.1792
  692TMC3    C610234   0.725   0.367  16.149 -0.0388 -0.5822  0.6796
  692TMC3     C10235   0.360   0.470  16.309 -0.4874 -0.3933 -0.2448
  692TMC3     O10236   0.263   0.444  16.237  0.3465 -0.2717  0.1366
  692TMC3     H10237   0.614   0.561  16.386 -1.2589  0.0058  1.1900
  692TMC3    H110238   0.400   0.339  16.081 -0.1799  2.3476 -0.4747
  692TMC3    H210239   0.822   0.356  16.103 -1.1437 -0.9743 -1.5446
  692TMC3    C710240   0.616   0.239  15.964  0.1899 -0.4254 -0.3375
  692TMC3    C810241   0.820   0.378  16.352 -0.4221  0.3695  0.0606
  692TMC3    O110242   0.509   0.218  15.905  0.1399 -0.7435  0.4827
  692TMC3    O210243   0.902   0.302  16.300 -0.6366  0.6089 -0.1551
  693MPD2     C10244   0.014   3.332  10.165  0.2272 -0.1808  0.1830
  693MPD2    C110245   4.705   3.291  10.294 -0.5815  0.4290  0.2310
  693MPD2    C210246   0.061   3.195  10.356  0.3555  0.8611  0.1528
  693MPD2    C310247   0.176   3.141  10.297  0.0598  0.0594  0.1142
  693MPD2    C410248   0.197   3.178  10.169 -0.0137  0.4923  0.7093
  693MPD2    C510249   0.116   3.266  10.105 -0.2874  0.5347 -0.6059
  693MPD2     H10250   0.028   3.148  10.448  2.9272  2.4185  1.8495
  693MPD2    H110251   0.285   3.144  10.117 -1.2094  0.4925 -1.3222
  693MPD2    H210252   4.668   3.401  10.115 -0.4162 -1.3798 -0.6013
  693MPD2    H310253   0.135   3.283   9.999  0.1206  0.2644 -0.5749
  693MPD2     N10254   0.268   3.050  10.355 -0.1810 -0.0415 -0.1342
  693MPD2    H510255   0.345   3.011  10.302 -1.1149 -0.0889 -1.4529
  693MPD2    N110256   4.592   3.337  10.372 -0.2055  0.2463  0.4994
  693MPD2    H710257   4.588   3.283  10.458 -0.5280 -0.1289  0.2508
  694TMC3    C110258   4.369   3.396  10.424 -0.8132 -0.2669 -0.4646
  694TMC3    C210259   4.276   3.322  10.368 -0.1085  0.2326 -0.6375
  694TMC3    C310260   4.194   3.246  10.450 -0.0093  0.2901  0.0824
  694TMC3    C410261   4.399   3.390  10.555  0.5566 -0.2000 -0.2033
  694TMC3    C510262   4.303   3.329  10.637  0.2272 -0.0533  0.7358
  694TMC3    C610263   4.203   3.252  10.586  0.0758 -0.4780 -0.4847
  694TMC3     C10264   4.485   3.420  10.338  0.6345 -0.4428 -0.7160
  694TMC3     O10265   4.459   3.459  10.223  0.1417 -0.3798  0.1723
  694TMC3     H10266   4.265   3.317  10.260  3.2862  0.1120 -0.9801
  694TMC3    H110267   4.469   3.460  10.599  0.6151 -1.1880  1.2645
  694TMC3    H210268   4.128   3.206  10.650 -0.0822  1.8399  0.9840
  694TMC3    C710269   4.317   3.328  10.784 -0.3254  0.3499  0.2154
  694TMC3    C810270   4.128   3.132  10.386 -0.5588 -0.3816  0.4262
  694TMC3    O110271   4.377   3.424  10.836 -0.3912 -0.1246  0.0551
  694TMC3    O210272   4.086   3.048  10.464  0.1198  0.0678  0.4775
  695MPD2     C10273   0.599   4.453  13.665 -0.6567  0.2447 -0.4394
  695MPD2    C110274   0.620   4.582  13.642  0.5346  0.1412  0.3283
  695MPD2    C210275   0.517   4.674  13.661 -0.0921  0.4559  0.2028
  695MPD2    C310276   0.387   4.638  13.697 -0.0367 -0.7255  0.9310
  695MPD2    C410277   0.367   4.505  13.723 -0.6499 -0.0677 -0.3760
  695MPD2    C510278   0.469   4.423  13.705  0.2025 -0.0723  0.3162
  695MPD2     H10279   0.532   0.060  13.652 -0.3395  0.3031 -2.1350
  695MPD2    H110280   0.272   4.461  13.751 -0.4929 -0.5886 -0.6744
  695MPD2    H210281   0.674   4.376  13.661 -0.2769  0.6757 -1.6507
  695MPD2    H310282   0.453   4.317  13.721 -1.3894 -0.2594 -2.6383
  695MPD2     N10283   0.285   0.019  13.710  0.2482 -0.1433  0.4286
  695MPD2    H510284   0.317   0.112  13.687  2.4773 -1.3184 -1.2788
  695MPD2    N110285   0.745   4.638  13.602  0.0468 -0.2725 -0.4281
  695MPD2    H710286   0.756   0.017  13.616 -2.5737 -0.2167  1.1209
  696TMC3    C110287   0.092   0.129  13.786  0.3083  0.3204  0.4533
  696TMC3    C210288   0.076   0.150  13.920 -0.4075 -0.0125 -0.2055
  696TMC3    C310289   0.039   0.278  13.952  0.1469 -0.2600  0.3845
  696TMC3    C410290   0.082   0.223  13.689  0.5891 -1.0497  0.2084
  696TMC3    C510291   0.035   0.347  13.727 -0.3574  0.3887  0.3085
  696TMC3    C610292   0.013   0.376  13.862 -0.1508  0.3344  0.3554
  696TMC3     C10293   0.154   4.718  13.761 -0.1330  0.5239 -0.0355
  696TMC3     O10294   0.108   4.628  13.827 -0.3319  0.1567  0.0029
  696TMC3     H10295   0.064   0.071  13.993  1.6819  1.9364  2.2145
  696TMC3    H110296   0.110   0.201  13.586  0.5250  1.4544 -0.3326
  696TMC3    H210297   4.703   0.469  13.908 -0.3784  0.8909 -0.9572
  696TMC3    C710298   0.039   0.444  13.623  0.3630  0.1415  0.2098
  696TMC3    C810299   0.121   0.330  14.060 -0.1786 -0.0759  0.1009
  696TMC3    O110300   0.058   0.406  13.506 -0.5294  0.3925  0.1399
  696TMC3    O210301   0.133   0.450  14.081  0.4406  0.2298 -0.2400
  697MPD2     C10302   4.719   1.934  15.864 -0.2267 -0.3126  0.0062
  697MPD2    C110303   0.043   1.895  15.737 -0.1184  0.8766 -0.6119
  697MPD2    C210304   0.072   1.994  15.649  0.2216  0.1334 -0.7988
  697MPD2    C310305   0.074   2.133  15.680  0.8205  0.7384  0.5099
  697MPD2    C410306   0.037   2.168  15.809  0.5150 -0.2592 -0.5403
  697MPD2    C510307   4.711   2.067  15.895  0.4752  0.1908  0.0237
  697MPD2     H10308   0.113   1.973  15.551 -0.8422 -0.9159 -1.0120
  697MPD2    H110309   0.027   2.272  15.839 -1.7198 -0.5827 -0.1502
  697MPD2    H210310   4.682   1.858  15.932 -0.2727 -0.1709  0.1413
  697MPD2    H310311   4.662   2.106  15.984 -1.2024  1.8473 -1.6202
  697MPD2     N10312   0.111   2.225  15.574  0.3213 -0.6168  0.2760
  697MPD2    H510313   0.146   2.184  15.488 -0.2141  1.8276 -1.1154
  697MPD2    N110314   0.055   1.759  15.685  0.9936 -0.0410 -0.2907
  697MPD2    H710315   0.067   1.743  15.585 -0.5600 -2.3025 -0.1092
  698TMC3    C110316   0.125   2.425  15.456  0.7843 -1.0291  0.6293
  698TMC3    C210317   0.155   2.561  15.453 -0.2048  0.1774 -0.2376
  698TMC3    C310318   0.216   2.608  15.345 -0.2476 -0.0939  0.7654
  698TMC3    C410319   0.167   2.338  15.354  0.3187 -0.1307 -0.2304
  698TMC3    C510320   0.228   2.398  15.246 -0.0688 -0.0887  0.6268
  698TMC3    C610321   0.250   2.532  15.239 -0.2024  0.3933  0.4234
  698TMC3     C10322   0.101   2.363  15.586 -0.0635 -0.4122  1.3564
  698TMC3     O10323   0.095   2.425  15.689 -0.2575 -0.3320 -0.2080
  698TMC3     H10324   0.129   2.628  15.535  0.0081 -2.8822  2.3420
  698TMC3    H110325   0.178   2.231  15.362 -0.9130 -0.4046 -2.0729
  698TMC3    H210326   0.264   2.578  15.142  0.8997  1.3860  1.0489
  698TMC3    C710327   0.226   2.307  15.135  0.3567 -0.3186 -0.0119
  698TMC3    C810328   0.175   2.738  15.307  0.8180  0.4746 -0.4020
  698TMC3    O110329   0.137   2.218  15.125 -0.1724  0.8006 -0.1021
  698TMC3    O210330   0.057   2.769  15.325  0.0571  0.3521 -0.1462
  699TMC3    C110331   0.285   4.696  13.184 -0.4584 -0.7805 -0.1153
  699TMC3    C210332   0.280   4.582  13.254  0.1219  0.5428 -0.2467
  699TMC3    C310333   0.175   4.567  13.343  0.3695 -0.2089 -0.2944
  699TMC3    C410334   0.196   0.081  13.204 -0.3932  0.5287  0.2477
  699TMC3    C510335   0.097   0.057  13.298  0.1410 -0.2783 -0.4082
  699TMC3    C610336   0.086   4.665  13.375  0.8759 -0.3239  0.5124
  699TMC3     C10337   0.378   0.001  13.077  0.6323 -0.3344 -0.1002
  699TMC3     O10338   0.369   0.106  13.016 -0.1606 -0.5509  0.5132
  699TMC3     H10339   0.351   4.507  13.222 -0.4514 -0.6620  1.2631
  699TMC3    H110340   0.186   0.160  13.131  1.0327  0.8047  0.3449
  699TMC3    H210341   0.001   4.650  13.441  0.6703 -0.1588  0.2814
  699TMC3    C710342   4.710   0.150  13.322  0.6266 -0.1254 -0.2374
  699TMC3    C810343   0.163   4.439  13.413  0.3945 -0.6982  0.2814
  699TMC3    O110344   4.639   0.140  13.423  0.1085 -0.6977  0.0066
  699TMC3    O210345   0.060   4.418  13.475 -0.1967 -0.1154  0.0138
  700TMC3    C110346   3.703   2.313  17.357 -0.3884 -0.7475  0.1292
  700TMC3    C210347   3.681   2.176  17.340  0.1019  0.7039 -0.0027
  700TMC3    C310348   3.756   2.086  17.417  0.6354 -0.2620 -0.2852
  700TMC3    C410349   3.791   2.354  17.453  0.3260 -0.0029  0.1946
  700TMC3    C510350   3.860   2.264  17.529  0.4757  0.2096  0.2781
  700TMC3    C610351   3.846   2.131  17.511 -0.1384  0.7648 -0.0368
  700TMC3     C10352   3.679   2.399  17.247  0.3139  0.4093  0.0414
  700TMC3     O10353   3.597   2.365  17.160 -0.3663 -0.1355 -0.5038
  700TMC3     H10354   3.637   2.139  17.248  0.6187  0.8936 -0.3241
  700TMC3    H110355   3.807   2.460  17.469  1.3078 -0.3021  1.1764
  700TMC3    H210356   3.892   2.061  17.580 -0.4958 -1.3414 -1.9039
  700TMC3    C710357   3.969   2.314  17.612 -0.5896 -0.3919 -0.6486
  700TMC3    C810358   3.813   1.970  17.346 -0.3116  0.4284 -0.9826
  700TMC3    O110359   3.980   2.432  17.623 -0.5326  0.0469 -0.5377
  700TMC3    O210360   3.935   1.965  17.338 -0.3817 -0.5185 -0.0330
  701TMC3    C110361   4.029   1.117  15.397 -0.1548 -0.1158  0.4197
  701TMC3    C210362   4.061   1.073  15.274  0.8738  0.2281 -0.4593
  701TMC3    C310363   4.150   1.148  15.211  0.5418  0.2215 -0.2926
  701TMC3    C410364   4.102   1.217  15.462 -0.4897  0.0216 -0.1610
  701TMC3    C510365   4.208   1.274  15.398 -0.5258 -0.8582  0.3568
  701TMC3    C610366   4.232   1.240  15.273  0.0447 -1.0764  0.5477
  701TMC3     C10367   3.914   1.051  15.461  0.4873 -0.0545 -0.3436
  701TMC3     O10368   3.871   0.953  15.405 -0.7735  0.4019 -0.6946
  701TMC3     H10369   3.994   1.006  15.222  0.7342  0.8664 -1.1222
  701TMC3    H110370   4.075   1.236  15.565  1.2981  0.4317  0.2291
  701TMC3    H210371   4.317   1.280  15.220 -0.5010 -0.1939  0.3381
  701TMC3    C710372   4.270   1.393  15.443 -0.3315 -0.0423 -0.8043
  701TMC3    C810373   4.180   1.103  15.075 -0.2651  0.7320  0.0414
  701TMC3    O110374   4.340   1.448  15.357 -0.0400  0.0500 -0.1874
  701TMC3    O210375   4.300   1.087  15.058  0.4872  0.8387 -0.0783
  702MPD2     C10376   3.946   3.453  10.250  0.6126  0.2070 -0.6500
  702MPD2    C110377   3.876   3.554  10.310  0.4792  0.0902  0.1727
  702MPD2    C210378   3.908   3.688  10.283  0.2101  0.0783  0.1347
  702MPD2    C310379   4.010   3.723  10.190 -0.0635  0.0439 -0.2272
  702MPD2    C410380   4.080   3.614  10.134  0.1651  0.0379 -0.3629
  702MPD2    C510381   4.042   3.488  10.158 -0.4840  0.0839  0.0940
  702MPD2     H10382   3.850   3.764  10.334  1.0591  0.2816  0.8111
  702MPD2    H110383   4.138   3.627  10.043 -0.2191  3.8889 -0.0430
  702MPD2    H210384   3.922   3.348  10.264  0.0276  0.6210  1.3793
  702MPD2    H310385   4.079   3.417  10.085  0.9782 -0.5092  1.4157
  702MPD2     N10386   4.030   3.859  10.165 -0.7474 -0.1846  0.2371
  702MPD2    H510387   3.981   3.919  10.230 -0.5331  0.4955 -0.2293
  702MPD2    N110388   3.769   3.529  10.403 -0.1166  0.3186 -0.2673
  702MPD2    H710389   3.740   3.613  10.453  2.6716  0.5736  0.9100
  703TMC3    C110390   4.149   4.055  10.110 -0.0482  0.4256  0.1155
  703TMC3    C210391   4.055   4.119  10.190  0.1292  0.3616 -0.0271
  703TMC3    C310392   4.063   4.257  10.193  0.1993  0.8334 -0.0378
  703TMC3    C410393   4.258   4.116  10.057  0.3715  0.2964 -0.0034
  703TMC3    C510394   4.256   4.253  10.052 -0.1365  0.4377 -0.5354
  703TMC3    C610395   4.164   4.323  10.121 -0.1848 -0.6167  0.0075
  703TMC3     C10396   4.128   3.910  10.091 -0.1762  0.9738  0.2438
  703TMC3     O10397   4.226   3.855  10.039  0.1198 -0.3381  0.4183
  703TMC3     H10398   3.983   4.069  10.253 -0.0788  1.0783  0.2975
  703TMC3    H110399   4.335   4.066   9.999 -0.8297 -1.2991 -0.2530
  703TMC3    H210400   4.179   4.429  10.140 -1.1046 -0.1529 -1.8454
  703TMC3    C710401   4.340   4.325   9.964 -0.6059  0.1456 -0.7662
  703TMC3    C810402   3.972   4.331  10.276 -0.5345 -0.3608 -0.3721
  703TMC3    O110403   4.432   4.261   9.912 -0.0278 -0.0511  0.3924
  703TMC3    O210404   3.983   4.453  10.266 -0.0865 -0.6863 -0.2186
  704TMC3    C110405   1.140   1.677  11.948 -0.0619 -0.5210 -0.1448
  704TMC3    C210406   1.198   1.781  12.017  0.6841 -0.5443  0.3304
  704TMC3    C310407   1.268   1.749  12.129 -0.2385 -0.5870 -0.4638
  704TMC3    C410408   1.163   1.542  11.975  0.4924 -0.3677  0.7500
  704TMC3    C510409   1.236   1.510  12.079 -0.0829 -0.1188 -0.2407
  704TMC3    C610410   1.285   1.613  12.167  0.3203 -0.3619  1.1131
  704TMC3     C10411   1.082   1.700  11.823 -0.4004 -0.6160 -0.3217
  704TMC3     O10412   0.984   1.640  11.781  0.1418 -0.0046  0.6311
  704TMC3     H10413   1.180   1.882  11.982 -1.0374 -0.9077  0.1772
  704TMC3    H110414   1.147   1.470  11.896  0.9660 -0.0973  0.4050
  704TMC3    H210415   1.366   1.594  12.236  0.6752  1.9002  1.2889
  704TMC3    C710416   1.332   1.400  12.048  0.4276  0.6888  0.4695
  704TMC3    C810417   1.360   1.845  12.190  0.0157 -0.5622 -1.1133
  704TMC3    O110418   1.444   1.435  12.004 -0.0449 -0.5311  0.4885
  704TMC3    O210419   1.398   1.925  12.107 -0.0934  0.4986 -0.0197
  705MPD2     C10420   1.234   4.578  16.570  0.0909 -0.0153 -0.2675
  705MPD2    C110421   1.171   4.594  16.453 -0.3020 -1.0850 -0.4979
  705MPD2    C210422   1.054   4.523  16.429 -0.8535  0.1630 -0.3789
  705MPD2    C310423   1.002   4.446  16.526 -0.5263  0.2271 -0.5967
  705MPD2    C410424   1.076   4.428  16.641 -0.0271 -0.0765  0.2227
  705MPD2    C510425   1.201   4.483  16.660  0.3777 -0.3525  0.2046
  705MPD2     H10426   0.995   4.530  16.338 -0.5079  3.2535 -0.3398
  705MPD2    H110427   1.037   4.364  16.720 -0.1294  0.7853  0.8730
  705MPD2    H210428   1.320   4.633  16.604  0.6712  0.0072 -1.7414
  705MPD2    H310429   1.249   4.476  16.757  1.8871 -0.5468 -0.5616
  705MPD2     N10430   0.872   4.408  16.534 -0.7261 -0.4448  0.0131
  705MPD2    H510431   0.839   4.374  16.624  2.1721 -0.6713  1.0091
  705MPD2    N110432   1.211   4.698  16.362 -0.5926  0.4833 -0.7038
  705MPD2    H710433   1.153   4.706  16.279  0.6049 -2.0783 -1.8144
  706TMC3    C110434   1.409   0.169  16.041  0.3452 -0.4645 -0.5450
  706TMC3    C210435   1.298   0.241  16.003  0.0016  0.1399 -0.0995
  706TMC3    C310436   1.209   0.270  16.101 -0.1153 -0.1413 -0.3765
  706TMC3    C410437   1.428   0.122  16.168 -0.4396  0.0841 -0.8505
  706TMC3    C510438   1.330   0.145  16.261  0.6486  0.9017 -0.2772
  706TMC3    C610439   1.215   0.206  16.223 -0.1097 -0.1829 -0.0962
  706TMC3     C10440   1.525   0.171  15.952 -0.1606  0.0658  0.0682
  706TMC3     O10441   1.629   0.151  16.009 -0.1070  0.2776  0.1358
  706TMC3     H10442   1.299   0.295  15.909 -1.6317 -1.3340 -0.9544
  706TMC3    H110443   1.521   0.079  16.202 -2.2595 -3.1125  0.0989
  706TMC3    H210444   1.138   0.219  16.298 -0.1761 -1.0843 -0.0011
  706TMC3    C710445   1.327   0.047  16.369 -0.0359 -0.3942  0.1999
  706TMC3    C810446   1.135   0.392  16.095  0.5091  0.5580 -0.2610
  706TMC3    O110447   1.434   0.025  16.432  0.9210  0.5981  0.1248
  706TMC3    O210448   1.046   0.390  16.016 -0.1611  0.5554  0.1591
  707TMC3    C110449   1.983   3.423   1.499  0.0037  0.3412  0.3591
  707TMC3    C210450   1.965   3.290   1.479 -0.0947  0.0348 -0.1699
  707TMC3    C310451   1.850   3.253   1.410  1.1096 -0.3305  0.2645
  707TMC3    C410452   1.896   3.516   1.450  0.0131 -0.0073 -0.0010
  707TMC3    C510453   1.786   3.469   1.385 -1.1046  0.4512  0.1444
  707TMC3    C610454   1.761   3.337   1.366 -0.3587  0.5294  0.1763
  707TMC3     C10455   2.128   3.461   1.514  0.1190 -0.6998 -0.9842
  707TMC3     O10456   2.201   3.365   1.494 -0.1700 -0.1859  0.3680
  707TMC3     H10457   2.033   3.218   1.524  1.3602  0.2284 -2.0611
  707TMC3    H110458   1.922   3.621   1.449  0.0405  0.0037  1.3322
  707TMC3    H210459   1.670   3.301   1.320 -0.3800  0.8418 -0.0205
  707TMC3    C710460   1.674   3.549   1.413 -1.0132  0.1044  0.6130
  707TMC3    C810461   1.823   3.114   1.381 -0.8277  0.0951  1.1552
  707TMC3    O110462   1.582   3.499   1.474  0.2575 -0.2124 -0.2619
  707TMC3    O210463   1.717   3.080   1.332  0.1627 -0.0459  0.0974
  708MPD2     C10464   4.238   2.653  13.960 -0.1764 -0.5232 -0.2323
  708MPD2    C110465   4.183   2.780  13.935  0.1665  0.3298 -0.0684
  708MPD2    C210466   4.095   2.833  14.036 -0.2601  0.2599  0.0285
  708MPD2    C310467   4.074   2.755  14.149 -0.0510 -0.5120 -0.3881
  708MPD2    C410468   4.131   2.629  14.160 -0.0195 -0.1246 -0.4694
  708MPD2    C510469   4.207   2.573  14.062 -0.1088  0.1931  0.5666
  708MPD2     H10470   4.040   2.926  14.031 -0.5867  0.0688  0.0343
  708MPD2    H110471   4.119   2.560  14.243 -0.4742  0.8403  0.2631
  708MPD2    H210472   4.301   2.598  13.891 -0.6631 -1.2663 -0.0945
  708MPD2    H310473   4.240   2.471  14.074 -0.7605 -0.0938 -0.0907
  708MPD2     N10474   3.968   2.797  14.238  0.3765 -0.1717  0.2234
  708MPD2    H510475   3.943   2.895  14.239  0.3913 -0.1858  1.9390
  708MPD2    N110476   4.218   2.848  13.815  0.2475 -0.2213  0.4533
  708MPD2    H710477   4.247   2.792  13.736  1.5161 -0.8912  1.4130
  709TMC3    C110478   4.174   3.022  13.650 -0.2540  0.7748  0.5332
  709TMC3    C210479   4.193   2.930  13.556 -0.0186  0.6125 -0.0625
  709TMC3    C310480   4.119   2.933  13.443  0.0170  0.2348 -0.3993
  709TMC3    C410481   4.074   3.112  13.633 -0.0867  0.1353  0.3855
  709TMC3    C510482   3.991   3.091  13.535 -0.0460 -0.3155  0.0786
  709TMC3    C610483   4.008   3.017  13.431  0.6669  1.2141 -0.7873
  709TMC3     C10484   4.178   2.976  13.790 -0.3986  0.2589  0.5391
  709TMC3     O10485   4.140   3.056  13.879  0.0406 -0.2038 -0.1900
  709TMC3     H10486   4.281   2.867  13.565 -0.6550  0.0686  2.1951
  709TMC3    H110487   4.043   3.185  13.706 -0.1364 -0.0635  0.5609
  709TMC3    H210488   3.941   3.026  13.347 -0.2350  1.6046 -0.0333
  709TMC3    C710489   3.851   3.093  13.575 -0.1772 -0.4912 -0.3728
  709TMC3    C810490   4.127   2.828  13.347 -0.4866  0.2754 -0.8818
  709TMC3    O110491   3.764   3.081  13.491 -0.1007 -0.1904 -0.1486
  709TMC3    O210492   4.164   2.715  13.385 -0.0635  0.2136  0.1597
  710TMC3    C110493   0.420   0.358   0.277 -0.4010 -0.0657 -0.2233
  710TMC3    C210494   0.470   0.245   0.232 -0.1825  0.3212  0.5089
  710TMC3    C310495   0.552   0.172   0.323 -0.4185  0.2629  0.1044
  710TMC3    C410496   0.433   0.388   0.413  0.2459 -0.3954 -0.1957
  710TMC3    C510497   0.492   0.293   0.497  0.7890  0.2675 -0.1184
  710TMC3    C610498   0.551   0.179   0.460 -0.0211  0.0638 -0.4475
  710TMC3     C10499   0.326   0.420   0.190  0.7711  0.0627  0.0126
  710TMC3     O10500   0.332   0.432   0.065  0.0246 -0.8238 -0.5946
  710TMC3     H10501   0.469   0.218   0.127 -0.0247  1.7272  0.1565
  710TMC3    H110502   0.390   0.481   0.448  0.6088 -0.3591  0.1552
  710TMC3    H210503   0.615   0.118   0.523 -0.2214 -0.9569 -1.2278
  710TMC3    C710504   0.437   0.292   0.631  0.3260  0.5884 -0.1999
  710TMC3    C810505   0.622   0.061   0.258  0.6579  0.5952 -0.1531
  710TMC3    O110506   0.475   0.202   0.703  0.3798  0.5887  0.5217
  710TMC3    O210507   0.650   0.082   0.139  0.5557  0.0929 -0.0701
  711TMC3    C110508   4.665   0.944  14.775  0.3046  0.5999 -0.7720
  711TMC3    C210509   4.674   1.037  14.873 -0.2848 -0.3756  0.3243
  711TMC3    C310510   0.071   1.047  14.940 -0.1743  0.6749 -0.3380
  711TMC3    C410511   0.058   0.881  14.723  1.1852 -0.4542  0.4335
  711TMC3    C510512   0.172   0.898  14.789 -0.0793  0.2649 -0.3860
  711TMC3    C610513   0.174   0.978  14.897 -0.2522 -0.1662 -0.7412
  711TMC3     C10514   4.548   0.857  14.791  1.2969 -0.7522  0.7886
  711TMC3     O10515   4.530   0.787  14.692  0.5642  0.3738 -0.4310
  711TMC3     H10516   4.585   1.089  14.906 -1.3890 -2.5737  0.8090
  711TMC3    H110517   0.051   0.813  14.638 -2.9304 -0.1157  0.4972
  711TMC3    H210518   0.267   0.972  14.953 -0.8866 -1.5816  0.1512
  711TMC3    C710519   0.228   0.770  14.834 -0.8554  0.1012 -0.3009
  711TMC3    C810520   0.052   1.030  15.084 -0.2650 -1.0052  0.4750
  711TMC3    O110521   0.320   0.764  14.915  0.8281 -0.2355  0.3295
  711TMC3    O210522   4.654   1.023  15.114 -0.0486  0.0751  0.7972
  712MPD2     C10523   1.187   2.563  13.643 -0.0672 -0.6877  0.0402
  712MPD2    C110524   1.149   2.449  13.710 -0.0881  0.1201  0.8454
  712MPD2    C210525   1.075   2.455  13.829 -0.8999 -0.5598 -0.4561
  712MPD2    C310526   1.046   2.575  13.879  0.1400 -0.2097  0.4852
  712MPD2    C410527   1.072   2.688  13.811 -0.3065  0.0315  0.2783
  712MPD2    C510528   1.143   2.686  13.687 -0.0729 -0.3047 -0.1441
  712MPD2     H10529   1.037   2.364  13.873  0.7326  0.0468  2.2104
  712MPD2    H110530   1.026   2.784  13.830 -0.2644  0.5031 -1.9948
  712MPD2    H210531   1.223   2.561  13.540  0.3405  0.1447  0.1669
  712MPD2    H310532   1.155   2.777  13.629  1.4859  1.0137  2.2247
  712MPD2     N10533   0.956   2.598  13.986 -0.3856 -1.0371 -0.1654
  712MPD2    H510534   0.912   2.689  13.997  0.8092 -0.5388  0.4556
  712MPD2    N110535   1.175   2.323  13.668 -0.3651 -0.0174 -0.0694
  712MPD2    H710536   1.162   2.251  13.738  0.4638 -1.3297 -1.2593
  713TMC3    C110537   0.790   2.535  14.135  0.9392  0.2893 -0.0622
  713TMC3    C210538   0.701   2.444  14.085  0.4949 -0.7112  0.6644
  713TMC3    C310539   0.597   2.483  13.999 -0.1040 -0.4420  0.3469
  713TMC3    C410540   0.772   2.669  14.128  0.5886  0.6177 -0.2594
  713TMC3    C510541   0.655   2.708  14.067  0.7932 -0.0550 -0.2202
  713TMC3    C610542   0.573   2.618  14.010  0.0178  0.4336  0.0192
  713TMC3     C10543   0.918   2.497  14.076  0.3838  0.0978  0.5499
  713TMC3     O10544   0.965   2.387  14.100 -0.0078 -0.2986 -0.5014
  713TMC3     H10545   0.735   2.342  14.080  1.0374 -0.3510 -2.9419
  713TMC3    H110546   0.848   2.736  14.167 -0.7531  1.6384  0.5947
  713TMC3    H210547   0.493   2.657  13.947  0.0754 -0.4424 -0.5926
  713TMC3    C710548   0.626   2.849  14.050 -0.6664  0.2048  0.0125
  713TMC3    C810549   0.607   2.444  13.856  0.3136 -0.5579 -1.0091
  713TMC3    O110550   0.699   2.912  14.121 -0.1339  0.2520  0.1887
  713TMC3    O210551   0.603   2.533  13.774 -0.0839 -0.3830 -0.3616
  714MPD2     C10552   2.877   4.647   0.938  1.0982  1.0648 -0.0426
  714MPD2    C110553   2.897   0.056   0.968  0.3631  0.4568 -0.3204
  714MPD2    C210554   2.783   0.133   1.001  0.0496 -0.6770 -0.0716
  714MPD2    C310555   2.651   0.083   0.983  0.2087  0.5225 -0.1677
  714MPD2    C410556   2.638   4.671   0.947 -0.0007  0.2104 -0.2276
  714MPD2    C510557   2.750   4.592   0.946  0.1266  0.2157  0.1646
  714MPD2     H10558   2.807   0.236   1.025 -1.9303 -0.8973  2.8608
  714MPD2    H110559   2.542   4.626   0.929 -0.3413  0.6615  0.4669
  714MPD2    H210560   2.951   4.575   0.907 -1.5365 -1.2150 -1.0472
  714MPD2    H310561   2.734   4.489   0.916 -0.0049 -0.0607  1.2060
  714MPD2     N10562   2.536   0.154   1.009 -0.1053 -0.2656  0.5062
  714MPD2    H510563   2.446   0.108   0.999  0.3886 -0.6685 -2.0082
  714MPD2    N110564   3.030   0.102   0.982 -0.1667  1.1336 -0.4135
  714MPD2    H710565   3.105   0.038   0.957 -0.8953  0.1110  0.0258
  715TMC3    C110566   3.211   0.245   1.034 -0.7503  0.3283  0.7321
  715TMC3    C210567   3.297   0.167   0.962 -0.3758  0.3244  0.3749
  715TMC3    C310568   3.430   0.190   0.985 -0.6765  0.2274 -0.3272
  715TMC3    C410569   3.245   0.351   1.112  0.0381 -0.2725  0.6562
  715TMC3    C510570   3.379   0.384   1.121 -1.0225  0.6091 -0.4975
  715TMC3    C610571   3.478   0.295   1.073 -0.2225  0.6637 -0.0929
  715TMC3     C10572   3.071   0.236   0.999  0.1546 -0.4658 -1.1562
  715TMC3     O10573   3.009   0.340   0.991  0.2484 -0.4498 -0.0145
  715TMC3     H10574   3.273   0.088   0.892  1.8657 -0.8014  0.8993
  715TMC3    H110575   3.171   0.399   1.175 -1.1880 -0.7483 -0.4514
  715TMC3    H210576   3.585   0.307   1.089 -0.0437 -0.6882 -0.2643
  715TMC3    C710577   3.411   0.519   1.156  0.8163  0.1684 -0.4763
  715TMC3    C810578   3.515   0.103   0.914  0.3632  0.4947 -0.0805
  715TMC3    O110579   3.533   0.547   1.161 -0.5034 -0.4534 -0.3619
  715TMC3    O210580   3.470   4.712   0.886  0.1387  0.4365 -0.0798
  716MPD2     C10581   3.764   3.254   9.876  0.6301 -0.2990 -0.1168
  716MPD2    C110582   3.754   3.326   9.761  0.0914 -0.0375  0.3439
  716MPD2    C210583   3.767   3.265   9.641  0.6909 -0.1802  0.0379
  716MPD2    C310584   3.808   3.131   9.636  0.0825 -0.9547  0.2893
  716MPD2    C410585   3.838   3.063   9.750  0.2168  0.4254  0.1781
  716MPD2    C510586   3.806   3.126   9.870  0.3292 -0.1605  0.0508
  716MPD2     H10587   3.738   3.319   9.551 -0.8615  2.5448  2.1495
  716MPD2    H110588   3.881   2.964   9.751  0.1255  0.3735 -0.9268
  716MPD2    H210589   3.755   3.299   9.974  0.9122  2.8046 -1.5110
  716MPD2    H310590   3.826   3.070   9.961 -1.3585  1.3447  1.3514
  716MPD2     N10591   3.812   3.071   9.508 -0.0448 -0.1264 -0.7699
  716MPD2    H510592   3.743   3.113   9.447  0.2525  2.6487  0.7958
  716MPD2    N110593   3.714   3.457   9.775 -0.3136 -0.0712  0.5190
  716MPD2    H710594   3.699   3.487   9.870 -1.5758 -2.3356  1.0428
  717TMC3    C110595   3.793   2.897   9.353  0.0009 -0.3734 -0.8182
  717TMC3    C210596   3.680   2.942   9.292  0.0347 -1.1693  0.3886
  717TMC3    C310597   3.623   2.881   9.176 -0.2267 -0.9848  0.1574
  717TMC3    C410598   3.848   2.780   9.301 -0.0061 -0.1881 -0.1091
  717TMC3    C510599   3.790   2.722   9.192 -0.1406  0.3797 -0.5344
  717TMC3    C610600   3.673   2.764   9.132 -0.5774 -0.0842  0.6385
  717TMC3     C10601   3.848   2.943   9.474 -0.0711 -0.8210 -0.4617
  717TMC3     O10602   3.922   2.866   9.534  0.1533 -0.1418  0.0923
  717TMC3     H10603   3.631   3.027   9.339  0.1378 -0.6900 -0.3638
  717TMC3    H110604   3.945   2.751   9.339 -0.0739 -2.2951 -1.5305
  717TMC3    H210605   3.642   2.712   9.042 -0.5205 -0.3669  0.7820
  717TMC3    C710606   3.812   2.582   9.174 -0.9333  0.0775 -0.5780
  717TMC3    C810607   3.518   2.952   9.105  0.7827  0.2603 -0.6130
  717TMC3    O110608   3.720   2.517   9.129  0.0507  0.1212  0.4600
  717TMC3    O210609   3.457   3.031   9.175 -0.5018 -0.2105  0.6903
  718MPD2     C10610   3.632   2.282  12.220  0.1764  0.1948  0.1170
  718MPD2    C110611   3.540   2.278  12.117 -0.1445 -0.5959  0.4128
  718MPD2    C210612   3.408   2.267  12.152  0.0935 -0.0748 -0.1797
  718MPD2    C310613   3.364   2.240  12.279 -0.0597 -0.1576  0.1523
  718MPD2    C410614   3.459   2.232  12.382 -0.7741  0.7246 -0.3037
  718MPD2    C510615   3.589   2.263  12.346  0.3903 -0.0600 -0.2937
  718MPD2     H10616   3.336   2.274  12.072 -0.1501  2.7514  0.2845
  718MPD2    H110617   3.423   2.211  12.482 -0.3767 -2.8220 -0.9325
  718MPD2    H210618   3.734   2.311  12.197 -0.8259  1.8624 -2.2501
  718MPD2    H310619   3.663   2.266  12.426  1.2202  1.9263 -1.1389
  718MPD2     N10620   3.223   2.237  12.303  0.1488  0.1555 -0.3905
  718MPD2    H510621   3.169   2.228  12.217  1.1622  0.9409 -1.1180
  718MPD2    N110622   3.570   2.314  11.983 -0.0891  0.6465  0.1816
  718MPD2    H710623   3.492   2.323  11.918 -0.1266 -2.2725 -0.2116
  719TMC3    C110624   3.691   2.390  11.802 -0.1988  0.2852  1.7749
  719TMC3    C210625   3.564   2.402  11.755  0.4480  0.4237  0.7656
  719TMC3    C310626   3.505   2.525  11.745 -0.2723  0.2151  0.6679
  719TMC3    C410627   3.772   2.495  11.807 -0.0027 -0.1285  0.3504
  719TMC3    C510628   3.717   2.615  11.791 -0.5663  0.2820  0.3097
  719TMC3    C610629   3.581   2.637  11.763  0.1102 -0.6807  0.3202
  719TMC3     C10630   3.701   2.333  11.936  0.0688 -0.4139  0.5875
  719TMC3     O10631   3.813   2.329  11.986 -0.9341  0.8934 -0.0493
  719TMC3     H10632   3.514   2.306  11.747  0.7085  0.3769 -0.3329
  719TMC3    H110633   3.878   2.490  11.827  0.6141 -1.4589 -3.4467
  719TMC3    H210634   3.548   2.737  11.741  0.0731 -0.1218  2.8786
  719TMC3    C710635   3.793   2.727  11.837  0.1444  0.2331 -0.4759
  719TMC3    C810636   3.369   2.513  11.797 -0.7199 -0.9472  0.3770
  719TMC3    O110637   3.913   2.710  11.847 -0.0517  0.3271 -0.3229
  719TMC3    O210638   3.340   2.398  11.842  0.1941  0.0783  0.3699
  720MPD2     C10639   1.111   3.880  13.817 -0.4176 -0.3789  0.2248
  720MPD2    C110640   1.214   3.875  13.721  0.1714  0.2603  0.1667
  720MPD2    C210641   1.340   3.835  13.755 -0.2223  0.3897 -0.1952
  720MPD2    C310642   1.372   3.787  13.879 -0.2298 -0.1118 -0.1730
  720MPD2    C410643   1.272   3.785  13.971  0.0258  0.6480  0.4633
  720MPD2    C510644   1.150   3.837  13.938  0.2257 -0.3965 -0.2633
  720MPD2     H10645   1.423   3.846  13.685  1.3260 -2.8006  1.1092
  720MPD2    H110646   1.285   3.758  14.075 -0.0873 -1.9764 -0.1916
  720MPD2    H210647   1.009   3.910  13.798 -0.3950  0.3339  1.2513
  720MPD2    H310648   1.075   3.837  14.016 -0.9025  1.3993 -1.3614
  720MPD2     N10649   1.502   3.746  13.901  0.2890 -0.7053 -0.6423
  720MPD2    H510650   1.573   3.773  13.833 -0.0271  2.9892  0.4601
  720MPD2    N110651   1.186   3.933  13.595 -0.2678 -0.2893 -0.4019
  720MPD2    H710652   1.100   3.986  13.585  0.2294  0.5691 -0.1149
  721TMC3    C110653   1.686   3.723  14.044  0.2847  0.5749  0.2868
  721TMC3    C210654   1.749   3.648  14.142 -0.7743  0.1595  0.3514
  721TMC3    C310655   1.878   3.688  14.176 -0.0202  0.6353  0.2679
  721TMC3    C410656   1.745   3.828  13.976 -0.6070 -1.0373 -0.9710
  721TMC3    C510657   1.878   3.844  14.005  0.6405 -0.0870 -0.5173
  721TMC3    C610658   1.948   3.774  14.095  0.3981 -0.2245  0.3740
  721TMC3     C10659   1.546   3.693  14.018  0.0662 -0.1520 -0.0681
  721TMC3     O10660   1.484   3.638  14.111 -0.1232 -0.3403  0.1675
  721TMC3     H10661   1.696   3.563  14.183 -0.4218 -0.7870 -1.1434
  721TMC3    H110662   1.695   3.906  13.919  1.7720 -0.3851 -2.1530
  721TMC3    H210663   2.051   3.802  14.114  0.9578 -2.4954  0.6913
  721TMC3    C710664   1.964   3.923  13.914  0.1693  1.4327  0.6427
  721TMC3    C810665   1.955   3.625  14.278 -0.0746 -0.6281 -0.7659
  721TMC3    O110666   2.081   3.936  13.942  0.3303 -0.3827 -0.1116
  721TMC3    O210667   2.073   3.606  14.254  0.7412 -0.3163  0.5271
  722MPD2     C10668   0.033   2.736  13.178  0.0011 -0.5011 -0.1244
  722MPD2    C110669   0.051   2.847  13.094  0.1855 -0.3730  0.0642
  722MPD2    C210670   0.056   2.814  12.958 -0.0161 -0.2346  0.5535
  722MPD2    C310671   0.022   2.693  12.897 -0.0052  0.3334  0.5224
  722MPD2    C410672   4.715   2.590  12.983  0.2551 -0.3787 -0.7216
  722MPD2    C510673   4.719   2.612  13.123  0.1069  0.2281 -0.0418
  722MPD2     H10674   0.077   2.893  12.886  0.8115 -1.5714 -0.6769
  722MPD2    H110675   4.696   2.490  12.947 -0.1629 -0.8994  0.9318
  722MPD2    H210676   0.035   2.747  13.286  1.1064  2.3581 -0.4353
  722MPD2    H310677   4.706   2.523  13.185  1.0386 -0.4455 -0.8193
  722MPD2     N10678   0.014   2.693  12.753  0.8466 -0.3207 -0.0764
  722MPD2    H510679   0.022   2.781  12.703 -1.2130 -1.1656 -1.8825
  722MPD2    N110680   0.089   2.975  13.135 -0.3168  0.1068 -0.5341
  722MPD2    H710681   0.135   3.035  13.067 -0.5410 -0.0693 -0.8394
  723TMC3    C110682   0.011   2.596  12.543 -0.4662 -0.2666 -0.3223
  723TMC3    C210683   0.010   2.491  12.465  0.5404  0.5470  0.6606
  723TMC3    C310684   4.685   2.507  12.338  0.0157 -0.6877 -0.6346
  723TMC3    C410685   4.675   2.718  12.498 -0.0207 -0.0378 -0.2639
  723TMC3    C510686   4.634   2.727  12.371  0.6287 -0.4584 -0.2413
  723TMC3    C610687   4.646   2.624  12.279 -0.6674  0.2816 -0.3564
  723TMC3     C10688   0.029   2.576  12.688  0.0758  0.2742 -0.5108
  723TMC3     O10689   0.050   2.464  12.732 -0.5714 -0.1088  0.4413
  723TMC3     H10690   0.042   2.395  12.505  0.2544 -0.5518 -1.7802
  723TMC3    H110691   4.680   2.806  12.562 -0.8467 -0.9790  1.1036
  723TMC3    H210692   4.599   2.635  12.181 -2.0490  1.0021  0.3881
  723TMC3    C710693   4.574   2.841  12.310  0.3608 -0.7090 -0.9612
  723TMC3    C810694   0.003   2.406  12.244 -0.4981  0.2467 -0.0988
  723TMC3    O110695   4.585   2.853  12.190 -0.4352 -0.1369  0.1465
  723TMC3    O210696   0.044   2.433  12.133 -0.0152 -0.1827 -0.4205
  724TMC3    C110697   0.848   0.768  10.047 -0.4533 -0.2329 -0.5404
  724TMC3    C210698   0.804   0.774   9.916  1.1843 -0.4393 -0.3193
  724TMC3    C310699   0.876   0.830   9.818 -0.1661  0.3904 -0.4327
  724TMC3    C410700   0.959   0.839  10.086  0.3750 -0.0726 -0.3365
  724TMC3    C510701   1.028   0.908   9.992  0.0214 -0.5610 -0.1951
  724TMC3    C610702   0.988   0.903   9.857 -0.0182  0.1626 -0.3089
  724TMC3     C10703   0.786   0.677  10.139 -0.5937 -0.2083  0.0265
  724TMC3     O10704   0.726   0.575  10.097  0.3103  0.5107 -0.6157
  724TMC3     H10705   0.718   0.710   9.897  1.6840 -1.5311  1.0543
  724TMC3    H110706   1.002   0.820  10.184  1.5285  1.3062 -0.5743
  724TMC3    H210707   1.042   0.956   9.779  1.3002 -0.9697 -0.1561
  724TMC3    C710708   1.118   1.007  10.025 -0.8979  1.3903  0.1418
  724TMC3    C810709   0.806   0.852   9.695  0.3137 -0.0909 -0.0111
  724TMC3    O110710   1.179   1.058   9.931 -0.1182  0.4439  0.0700
  724TMC3    O210711   0.701   0.788   9.679 -0.3736  0.1393  0.1147
  725TMC3    C110712   2.189   4.104  13.154 -0.0499 -0.3183  0.2664
  725TMC3    C210713   2.064   4.153  13.127  0.7220  0.7653 -0.2305
  725TMC3    C310714   1.960   4.066  13.120  0.1690  0.1295 -0.4503
  725TMC3    C410715   2.216   3.967  13.158 -0.5773 -0.2657 -0.0345
  725TMC3    C510716   2.106   3.890  13.160  0.2047 -0.5300  0.4493
  725TMC3    C610717   1.980   3.940  13.150 -0.1721 -0.1766 -0.5511
  725TMC3     C10718   2.289   4.208  13.113  0.0751 -0.0375 -0.2734
  725TMC3     O10719   2.257   4.324  13.141 -0.0952  0.5872  0.4683
  725TMC3     H10720   2.042   4.257  13.107  1.3345  0.8330 -0.5406
  725TMC3    H110721   2.314   3.926  13.180  0.2566  1.3540 -0.6687
  725TMC3    H210722   1.906   3.861  13.139  1.1867 -1.6086  0.5791
  725TMC3    C710723   2.128   3.769  13.091  0.4365  1.1568  0.2008
  725TMC3    C810724   1.871   4.102  13.014  0.3298  0.4188  0.3212
  725TMC3    O110725   2.072   3.749  12.983  0.1234  0.4163  0.5186
  725TMC3    O210726   1.763   4.042  13.003 -0.4576 -0.3538  0.0333
  726MPD2     C10727   0.086   0.811  10.129  0.4448  0.3105  0.0823
  726MPD2    C110728   0.073   0.915  10.221  0.9989  0.3340  0.1426
  726MPD2    C210729   4.693   0.903  10.318 -0.6528  0.5121  0.9415
  726MPD2    C310730   4.613   0.789  10.321 -0.1224  0.0634 -0.2378
  726MPD2    C410731   4.639   0.685  10.240 -0.7039  0.2900 -0.5957
  726MPD2    C510732   0.013   0.696  10.145 -0.0271  0.1637  0.0817
  726MPD2     H10733   4.678   0.993  10.375  1.8641  1.1664  0.5621
  726MPD2    H110734   4.589   0.589  10.239 -2.1571  1.0096  2.1742
  726MPD2    H210735   0.166   0.794  10.058 -1.2731 -1.6626 -1.3756
  726MPD2    H310736   0.036   0.608  10.085 -2.9207 -1.4196  1.3411
  726MPD2     N10737   4.511   0.780  10.418 -0.0268  0.6340 -0.3500
  726MPD2    H510738   4.436   0.713  10.401 -1.1858  1.9606 -0.4785
  726MPD2    N110739   0.163   1.023  10.210 -0.1223 -1.0598 -0.8430
  726MPD2    H710740   0.153   1.087  10.288  0.3220 -2.0189 -0.0040
  727TMC3    C110741   0.293   1.190  10.092 -0.1878 -0.4865  1.0402
  727TMC3    C210742   0.345   1.247  10.206  0.5930 -0.4520 -0.5878
  727TMC3    C310743   0.416   1.360  10.190  0.4570  0.0993 -0.7501
  727TMC3    C410744   0.316   1.248   9.967  0.0555  0.0424  0.2275
  727TMC3    C510745   0.387   1.362   9.957 -0.0110  1.1429  0.7207
  727TMC3    C610746   0.439   1.415  10.071 -0.2656 -0.2967  0.5908
  727TMC3     C10747   0.226   1.064  10.090 -0.4046  0.4954 -0.1432
  727TMC3     O10748   0.215   1.005   9.985 -0.1497 -0.2472 -0.1630
  727TMC3     H10749   0.334   1.204  10.304  0.4689  2.4102  0.6449
  727TMC3    H110750   0.270   1.208   9.877 -2.0870 -0.7497  1.6746
  727TMC3    H210751   0.509   1.496  10.053 -1.1783  0.3325 -0.1261
  727TMC3    C710752   0.386   1.454   9.843  0.0062 -0.3569  0.2677
  727TMC3    C810753   0.519   1.394  10.295 -0.4428 -0.4120 -0.5730
  727TMC3    O110754   0.383   1.576   9.861 -0.5701  0.2101 -0.0057
  727TMC3    O210755   0.582   1.493  10.265 -0.1496  0.3665 -0.0979
  728TMC3    C110756   3.568   4.193  15.099 -0.6961  0.2292  0.4859
  728TMC3    C210757   3.642   4.158  15.211 -0.8233 -1.1910 -0.0644
  728TMC3    C310758   3.768   4.106  15.185  0.7504  0.5670 -0.3992
  728TMC3    C410759   3.610   4.177  14.975 -0.2791  0.1300 -0.0228
  728TMC3    C510760   3.737   4.140  14.956  0.0573 -0.4041  0.6463
  728TMC3    C610761   3.824   4.107  15.057  0.0351  0.1533  0.1185
  728TMC3     C10762   3.443   4.255  15.128  0.0118  0.1718 -0.0607
  728TMC3     O10763   3.389   4.317  15.041 -0.0597  0.4747  0.3250
  728TMC3     H10764   3.600   4.145  15.310 -0.6958 -0.5177  0.0759
  728TMC3    H110765   3.538   4.211  14.901  2.4221 -0.0175 -2.7553
  728TMC3    H210766   3.920   4.071  15.023  0.3037  2.3323 -1.4205
  728TMC3    C710767   3.787   4.166  14.816  0.2474  0.5524 -0.0763
  728TMC3    C810768   3.831   4.062  15.308 -1.0567 -0.0474  0.4340
  728TMC3    O110769   3.708   4.167  14.721  0.3865 -0.0239 -0.0012
  728TMC3    O210770   3.767   4.015  15.401 -0.3146 -0.2279  0.1731
  729MPD2     C10771   1.452   0.744  16.579  0.3868 -0.1807 -0.2794
  729MPD2    C110772   1.556   0.654  16.610  0.5512  0.7341 -0.1270
  729MPD2    C210773   1.574   0.588  16.730 -0.0924 -0.0266  0.0845
  729MPD2    C310774   1.490   0.614  16.838 -0.3008 -0.5421 -0.7776
  729MPD2    C410775   1.392   0.707  16.817  0.4277  0.2347 -0.0340
  729MPD2    C510776   1.374   0.769  16.689  0.0129 -0.0510 -0.7670
  729MPD2     H10777   1.659   0.523  16.748  0.5282  0.2807 -1.7704
  729MPD2    H110778   1.330   0.745  16.897  0.8834 -0.4263  0.6340
  729MPD2    H210779   1.439   0.799  16.487  0.4958  1.6545  0.7922
  729MPD2    H310780   1.292   0.839  16.680 -1.2271 -1.0095  2.8233
  729MPD2     N10781   1.523   0.582  16.971  0.0629  0.3076  0.4186
  729MPD2    H510782   1.473   0.633  17.043 -0.3564 -0.0703  0.3966
  729MPD2    N110783   1.646   0.646  16.505 -0.0481  0.1452  0.5039
  729MPD2    H710784   1.630   0.700  16.420 -0.3249 -1.2715 -0.3403
  730TMC3    C110785   1.666   0.556  17.149  0.0697 -0.1100  0.2323
  730TMC3    C210786   1.779   0.626  17.161 -0.6052  0.1505 -0.1181
  730TMC3    C310787   1.776   0.738  17.232  0.2913 -0.1302 -0.1543
  730TMC3    C410788   1.560   0.586  17.229 -0.2357 -0.6213 -0.8847
  730TMC3    C510789   1.553   0.690  17.313  0.1325 -0.4348  0.2802
  730TMC3    C610790   1.675   0.759  17.326 -0.5185 -0.1587  0.2945
  730TMC3     C10791   1.632   0.511  17.017 -0.4616  0.1254 -0.4164
  730TMC3     O10792   1.723   0.452  16.955  0.7261  0.7978 -0.1893
  730TMC3     H10793   1.856   0.620  17.084 -0.9749 -1.0612 -0.3825
  730TMC3    H110794   1.466   0.532  17.216 -0.9499  0.3850  0.1208
  730TMC3    H210795   1.684   0.839  17.398 -2.8183  2.0160 -1.8189
  730TMC3    C710796   1.454   0.777  17.270  0.1893  0.0182 -0.2518
  730TMC3    C810797   1.813   0.856  17.152 -0.1080 -0.2628  0.1054
  730TMC3    O110798   1.426   0.762  17.153  0.3350  0.8561  0.6668
  730TMC3    O210799   1.852   0.835  17.041  0.2723  0.4989 -0.2069
  731MPD2     C10800   1.648   4.059  12.208  0.5955  0.5339 -0.4493
  731MPD2    C110801   1.583   3.943  12.169 -0.1522  0.4114 -0.1759
  731MPD2    C210802   1.514   3.874  12.269 -0.6820 -0.6831 -0.9543
  731MPD2    C310803   1.518   3.911  12.406 -0.0960  0.2851 -0.1817
  731MPD2    C410804   1.575   4.028  12.436  0.4291 -0.6291 -0.5146
  731MPD2    C510805   1.645   4.096  12.334  0.4013 -0.1208  0.1074
  731MPD2     H10806   1.474   3.774  12.259 -2.3766  0.1903 -2.8493
  731MPD2    H110807   1.590   4.066  12.536 -1.7296 -0.6242 -0.1880
  731MPD2    H210808   1.689   4.127  12.134  0.8674  0.7337 -0.1166
  731MPD2    H310809   1.701   4.183  12.367  2.1806 -0.6844 -1.4613
  731MPD2     N10810   1.467   3.822  12.505 -0.3642  0.4676  0.0881
  731MPD2    H510811   1.439   3.729  12.473 -1.5735  1.0709 -0.5950
  731MPD2    N110812   1.586   3.897  12.039  0.0052 -0.5711  0.6769
  731MPD2    H710813   1.665   3.925  11.983 -1.6708  1.5591 -0.6441
  732TMC3    C110814   1.564   3.741  11.863 -0.6492  0.0821 -0.5262
  732TMC3    C210815   1.482   3.683  11.770  0.5173  0.3774 -0.4471
  732TMC3    C310816   1.524   3.612  11.668 -0.2395 -0.1432 -0.0779
  732TMC3    C410817   1.694   3.707  11.859 -0.9043  0.0545  0.7448
  732TMC3    C510818   1.742   3.641  11.743 -0.5547 -0.1871  0.0162
  732TMC3    C610819   1.657   3.598  11.645 -0.5615  0.6878  0.4361
  732TMC3     C10820   1.510   3.790  11.989  0.4895  0.3344 -0.0820
  732TMC3     O10821   1.409   3.743  12.034  0.3483  0.2963  0.1586
  732TMC3     H10822   1.376   3.700  11.786  0.8190  0.3322  1.5294
  732TMC3    H110823   1.753   3.738  11.945 -1.1458  3.1100 -0.1900
  732TMC3    H210824   1.701   3.533  11.571 -2.2882 -0.0713  0.0857
  732TMC3    C710825   1.877   3.587  11.733  0.3174  0.2420 -0.1145
  732TMC3    C810826   1.441   3.531  11.577  0.4962 -0.2506  0.4801
  732TMC3    O110827   1.918   3.571  11.614 -0.3349 -0.7126  0.6685
  732TMC3    O210828   1.495   3.479  11.477 -0.8287 -0.0247 -0.3947
  733TMC3    C110829   2.812   2.331  12.513  0.3277  0.4846 -0.1325
  733TMC3    C210830   2.939   2.281  12.525  0.4566 -0.5403  0.0476
  733TMC3    C310831   3.011   2.262  12.408  0.0310  0.5133  0.0299
  733TMC3    C410832   2.758   2.368  12.395 -0.7176 -0.0949 -0.3257
  733TMC3    C510833   2.845   2.369  12.287  1.2571  0.7981 -0.3259
  733TMC3    C610834   2.965   2.302  12.290  0.1789 -0.6207  0.0457
  733TMC3     C10835   2.712   2.342  12.626 -0.0129 -0.2332  0.7288
  733TMC3     O10836   2.625   2.427  12.613 -0.1971  0.0568 -0.3599
  733TMC3     H10837   2.968   2.242  12.622  0.3488  1.0573  0.7248
  733TMC3    H110838   2.660   2.408  12.368 -0.4398  0.4691 -0.5123
  733TMC3    H210839   3.027   2.281  12.204 -1.3544 -2.7683 -0.5276
  733TMC3    C710840   2.839   2.491  12.201  0.5071  0.5047  0.1656
  733TMC3    C810841   3.154   2.237  12.420 -0.0899 -0.2266 -0.7848
  733TMC3    O110842   2.731   2.537  12.169  0.6209 -0.0864 -0.2201
  733TMC3    O210843   3.195   2.240  12.534  0.1197  0.1775 -0.3717
  734MPD2     C10844   4.471   4.358  11.680 -0.1293 -0.1173  0.1071
  734MPD2    C110845   4.389   4.335  11.569  0.0311  0.5901 -0.2082
  734MPD2    C210846   4.405   4.414  11.458  0.0058  0.9144 -0.1827
  734MPD2    C310847   4.491   4.524  11.463  0.6258 -0.6296 -0.3914
  734MPD2    C410848   4.562   4.558  11.579 -0.0318  0.4341 -0.5632
  734MPD2    C510849   4.545   4.473  11.684  0.7641  0.1827  0.1307
  734MPD2     H10850   4.338   4.406  11.373  1.3587  0.4740 -1.1929
  734MPD2    H110851   4.621   4.649  11.584  1.6269 -0.7395  1.0847
  734MPD2    H210852   4.464   4.297  11.769  1.1583 -0.2126  0.1452
  734MPD2    H310853   4.594   4.492  11.778  0.3869 -1.0731  0.5841
  734MPD2     N10854   4.503   4.592  11.337 -0.3347 -0.0921 -0.0465
  734MPD2    H510855   4.431   4.560  11.272 -0.0519  1.7130 -1.2464
  734MPD2    N110856   4.307   4.216  11.568 -0.7518 -0.0344  0.2581
  734MPD2    H710857   4.303   4.173  11.659 -2.2694 -1.3958 -0.4654
  735TMC3    C110858   4.237   4.015  11.461  0.3041  0.3928 -0.2732
  735TMC3    C210859   4.179   3.966  11.340  0.8715  0.3627  0.1213
  735TMC3    C310860   4.249   3.882  11.258  0.8002  0.5211  0.0504
  735TMC3    C410861   4.353   3.957  11.507  0.7504  0.0803  0.7708
  735TMC3    C510862   4.418   3.873  11.428 -0.4569 -0.2862 -0.2438
  735TMC3    C610863   4.375   3.843  11.303 -0.6720  0.0960  0.2343
  735TMC3     C10864   4.241   4.161  11.459 -0.0524  0.1923  0.3572
  735TMC3     O10865   4.231   4.211  11.347 -0.2421 -0.1985 -0.0570
  735TMC3     H10866   4.088   4.011  11.303  0.4134 -1.3353 -0.8106
  735TMC3    H110867   4.395   4.003  11.596 -2.0370  1.1782  1.5145
  735TMC3    H210868   4.433   3.771  11.247  0.8273  0.8778  0.7816
  735TMC3    C710869   4.558   3.877  11.439  0.0986  0.2675 -0.0472
  735TMC3    C810870   4.257   3.924  11.122 -0.1523 -0.5166  0.1191
  735TMC3    O110871   4.629   3.916  11.343  0.7227 -0.2684  0.3387
  735TMC3    O210872   4.274   3.832  11.041 -0.5586 -0.6921  0.2612
  736MPD2     C10873   0.031   3.860  11.759  0.2307 -0.4675  0.0414
  736MPD2    C110874   0.008   3.865  11.622 -0.1692  0.0171 -0.8598
  736MPD2    C210875   0.121   3.889  11.545 -0.2043  0.2771 -0.4281
  736MPD2    C310876   0.248   3.903  11.597  0.7171 -1.1140 -0.0061
  736MPD2    C410877   0.263   3.891  11.730  0.2226 -0.8868  0.2773
  736MPD2    C510878   0.155   3.873  11.812  0.3614 -0.3887  0.0755
  736MPD2     H10879   0.117   3.908  11.438  0.9435  1.1597 -0.3084
  736MPD2    H110880   0.360   3.904  11.778 -0.2692 -2.0723  1.6040
  736MPD2    H210881   4.669   3.837  11.825 -1.6108  1.2455 -1.7127
  736MPD2    H310882   0.162   3.862  11.919  0.0693  0.4932  0.1883
  736MPD2     N10883   0.362   3.918  11.511 -0.6044 -0.2201 -0.1511
  736MPD2    H510884   0.343   3.914  11.411  0.6349  0.3242 -0.4005
  736MPD2    N110885   4.596   3.856  11.570 -0.0892  0.2023 -0.2450
  736MPD2    H710886   4.516   3.844  11.631 -1.0014  2.4426 -1.0084
  737TMC3    C110887   0.579   3.980  11.419 -0.3889 -0.0137 -0.4344
  737TMC3    C210888   0.669   4.080  11.402 -0.5994 -0.1938 -0.3828
  737TMC3    C310889   0.735   4.084  11.280 -0.5049 -0.3794  0.0888
  737TMC3    C410890   0.576   3.872  11.331 -0.1880 -0.0612  0.2978
  737TMC3    C510891   0.662   3.878  11.226 -0.4324  0.2688  0.1353
  737TMC3    C610892   0.741   3.978  11.193  0.6227 -0.3285 -0.2142
  737TMC3     C10893   0.492   3.965  11.533 -0.0586  0.1730  0.0698
  737TMC3     O10894   0.536   4.009  11.643 -0.0826  0.4813 -0.1300
  737TMC3     H10895   0.672   4.164  11.470 -1.3851 -0.9729  0.6149
  737TMC3    H110896   0.515   3.785  11.351 -0.6358 -0.1371 -1.4104
  737TMC3    H210897   0.806   3.972  11.107  1.1106  0.5318  0.0951
  737TMC3    C710898   0.682   3.754  11.157  0.9982  0.0995  0.2856
  737TMC3    C810899   0.799   4.204  11.236  0.0133  0.4310 -0.3089
  737TMC3    O110900   0.589   3.680  11.178  0.4586  0.4220 -0.1612
  737TMC3    O210901   0.803   4.289  11.321 -0.4046 -0.0374  0.5586
  738MPD2     C10902   0.168   2.961  15.120  0.2171 -0.2655  0.2706
  738MPD2    C110903   0.279   2.921  15.187  0.2443  0.9790  0.7171
  738MPD2    C210904   0.399   2.984  15.165 -0.8925  0.0432 -0.1464
  738MPD2    C310905   0.401   3.083  15.071  0.6492  0.3090 -0.3385
  738MPD2    C410906   0.293   3.111  14.992  0.5046 -0.0230 -0.1182
  738MPD2    C510907   0.175   3.049  15.018  0.2313  0.1946  0.1042
  738MPD2     H10908   0.483   2.952  15.225 -0.4227 -0.6392 -1.1755
  738MPD2    H110909   0.287   3.200  14.930  0.2434 -0.7707 -1.1537
  738MPD2    H210910   0.073   2.913  15.141  0.6752 -1.1590  0.3090
  738MPD2    H310911   0.088   3.068  14.956 -0.2528  0.1138  0.7702
  738MPD2     N10912   0.519   3.160  15.039 -0.1506 -0.0478 -0.1009
  738MPD2    H510913   0.508   3.210  14.952 -1.7451 -0.9195 -0.3884
  738MPD2    N110914   0.285   2.797  15.257  0.0404 -0.4195 -0.3637
  738MPD2    H710915   0.376   2.759  15.277  0.8606  0.6311 -2.0785
  739TMC3    C110916   0.736   3.250  15.042 -0.5503 -1.0158  0.5644
  739TMC3    C210917   0.728   3.273  14.913  0.0641  0.8730  0.1012
  739TMC3    C310918   0.835   3.320  14.841 -0.1874  1.4055 -0.0151
  739TMC3    C410919   0.860   3.254  15.106  0.2347  0.1865  0.1666
  739TMC3    C510920   0.968   3.303  15.043  0.1327  0.1612  0.7235
  739TMC3    C610921   0.959   3.339  14.904  0.1545  0.8725  0.5582
  739TMC3     C10922   0.631   3.180  15.114  0.0065  0.0774 -0.0717
  739TMC3     O10923   0.649   3.137  15.227 -0.0386  0.3420 -0.0247
  739TMC3     H10924   0.642   3.259  14.849 -0.4294  0.1013  0.9322
  739TMC3    H110925   0.869   3.242  15.214  0.5539  1.1753  0.2578
  739TMC3    H210926   1.047   3.355  14.843 -0.9644 -0.9220 -1.5431
  739TMC3    C710927   1.097   3.308  15.109 -0.6095 -0.1198 -0.1539
  739TMC3    C810928   0.811   3.359  14.701 -0.3655 -0.2234  0.2147
  739TMC3    O110929   1.097   3.254  15.216  0.3121  0.0246  0.3964
  739TMC3    O210930   0.709   3.321  14.642 -0.1499  0.0019 -0.0947
  740TMC3    C110931   1.185   4.213  13.999 -0.0273  0.9719  0.2411
  740TMC3    C210932   1.254   4.184  14.119  0.0831 -0.7246 -0.2129
  740TMC3    C310933   1.383   4.138  14.099 -0.7435 -0.0891 -0.2894
  740TMC3    C410934   1.258   4.227  13.879  0.0892 -0.3075 -0.2359
  740TMC3    C510935   1.386   4.201  13.875  0.1439 -0.2542 -0.3963
  740TMC3    C610936   1.456   4.143  13.979  0.2935  0.4193  0.5027
  740TMC3     C10937   1.052   4.270  14.012 -0.1061  0.1633 -0.1866
  740TMC3     O10938   1.024   4.340  13.923  0.5215 -0.4392  0.1866
  740TMC3     H10939   1.211   4.203  14.216  2.8574 -2.0720  1.2835
  740TMC3    H110940   1.194   4.247  13.794  0.0287  0.0531 -0.1066
  740TMC3    H210941   1.562   4.118  13.974 -0.5472 -3.4113  1.8055
  740TMC3    C710942   1.456   4.178  13.749 -0.3799 -0.9493 -0.6416
  740TMC3    C810943   1.469   4.113  14.214 -0.7583 -0.6556  0.0199
  740TMC3    O110944   1.559   4.114  13.753 -0.0835  0.1314 -0.2222
  740TMC3    O210945   1.569   4.043  14.197  0.0842  0.2550  0.1780
  741TMC3    C110946   0.495   3.776  14.376 -0.3896  0.2272  0.0315
  741TMC3    C210947   0.421   3.666  14.366 -0.6943 -0.2400 -0.4968
  741TMC3    C310948   0.446   3.574  14.465  0.2342 -0.5638  0.5539
  741TMC3    C410949   0.602   3.789  14.455 -0.4719 -0.5727  0.5108
  741TMC3    C510950   0.620   3.702  14.559 -0.1698 -0.3726  0.4637
  741TMC3    C610951   0.542   3.592  14.559 -0.0964 -0.3199  0.7045
  741TMC3     C10952   0.488   3.870  14.276  0.7353  0.0440 -0.8679
  741TMC3     O10953   0.586   3.868  14.207 -0.2084 -0.7260 -0.6184
  741TMC3     H10954   0.342   3.655  14.293 -1.0909  0.2813 -0.1535
  741TMC3    H110955   0.656   3.882  14.444 -0.4475 -0.7328 -0.7194
  741TMC3    H210956   0.560   3.515  14.634  1.3982 -0.9173 -0.2611
  741TMC3    C710957   0.716   3.729  14.666 -0.0316 -0.0531 -0.7387
  741TMC3    C810958   0.376   3.447  14.454 -0.5461  0.1099 -0.3404
  741TMC3    O110959   0.808   3.808  14.648  0.0395 -0.2536 -0.1412
  741TMC3    O210960   0.276   3.439  14.377 -0.6495  0.0885  0.7431
  742TMC3    C110961   0.408   1.847  15.394 -0.0633  0.3414  0.2591
  742TMC3    C210962   0.338   1.858  15.278  0.5673  0.4843 -0.3727
  742TMC3    C310963   0.383   1.789  15.174  0.1264 -0.2553 -0.1979
  742TMC3    C410964   0.509   1.759  15.407 -0.4883 -0.9995 -0.7480
  742TMC3    C510965   0.543   1.673  15.302  0.1545  0.2901  0.2591
  742TMC3    C610966   0.490   1.703  15.177 -0.2759  0.9239 -0.2010
  742TMC3     C10967   0.393   1.961  15.491 -0.1759  1.1191 -0.0152
  742TMC3     O10968   0.318   2.048  15.455 -0.5099  0.2146  0.4254
  742TMC3     H10969   0.257   1.930  15.269 -0.3038 -0.3045  1.1146
  742TMC3    H110970   0.552   1.738  15.505  2.7116  0.2775 -1.8630
  742TMC3    H210971   0.519   1.640  15.094  0.1821 -1.9362  2.1587
  742TMC3    C710972   0.677   1.617  15.303  0.6381 -0.0440 -0.4833
  742TMC3    C810973   0.299   1.779  15.053  0.0896  0.6615 -0.5940
  742TMC3    O110974   0.746   1.622  15.203 -0.5615 -1.0564  0.9185
  742TMC3    O210975   0.367   1.749  14.952  0.5224  0.4576  0.6397
  743MPD2     C10976   2.610   3.298   1.700 -0.2251 -0.1918 -1.2028
  743MPD2    C110977   2.712   3.217   1.660 -0.4527  0.1500  0.1729
  743MPD2    C210978   2.838   3.235   1.708  0.4683 -0.3803 -0.3723
  743MPD2    C310979   2.875   3.343   1.792 -0.6837  0.0776  0.7740
  743MPD2    C410980   2.770   3.420   1.836  0.6320 -0.7380 -1.1746
  743MPD2    C510981   2.642   3.395   1.796 -0.6591  0.4131  0.3406
  743MPD2     H10982   2.917   3.166   1.682  0.4779  0.3933 -2.4386
  743MPD2    H110983   2.778   3.505   1.903 -0.5211 -1.2163 -0.4519
  743MPD2    H210984   2.508   3.275   1.671  0.1376 -2.7126 -0.4714
  743MPD2    H310985   2.559   3.450   1.839  0.8405  2.7402  0.2747
  743MPD2     N10986   3.010   3.348   1.830  0.2458  0.0189 -0.1165
  743MPD2    H510987   3.080   3.287   1.788  1.1594  0.1038  1.2848
  743MPD2    N110988   2.672   3.112   1.574  0.5801 -0.2884  0.0260
  743MPD2    H710989   2.571   3.106   1.564  0.7350 -0.9309 -1.0985
  744TMC3    C110990   2.699   2.917   1.433  0.0878  0.0800 -0.3387
  744TMC3    C210991   2.579   2.873   1.475  0.2849 -0.5282 -0.3072
  744TMC3    C310992   2.511   2.784   1.394  0.5204  0.2216 -0.6992
  744TMC3    C410993   2.759   2.874   1.316  0.7365 -0.1740 -0.4072
  744TMC3    C510994   2.686   2.781   1.241 -0.3851 -0.2560  0.1233
  744TMC3    C610995   2.564   2.733   1.280  0.4379  0.4152  0.0731
  744TMC3     C10996   2.758   3.026   1.510  0.3257 -0.1617  0.7974
  744TMC3     O10997   2.875   3.042   1.491  0.3991 -0.0685 -0.8144
  744TMC3     H10998   2.547   2.894   1.577  0.0182 -0.0397 -0.4901
  744TMC3    H110999   2.849   2.923   1.280  0.9420 -0.8060 -0.7663
  744TMC3    H211000   2.512   2.655   1.225 -1.0761  0.8203  0.9217
  744TMC3    C711001   2.750   2.736   1.119  0.4392  0.2438 -0.7691
  744TMC3    C811002   2.374   2.771   1.438 -0.1968 -0.0830  0.7412
  744TMC3    O111003   2.870   2.749   1.118 -0.4754 -0.3237 -0.2022
  744TMC3    O211004   2.352   2.826   1.541 -0.0657 -0.0692 -0.2861
  745TMC3    C111005   1.231   2.148  13.519 -0.4193  0.1149 -0.2781
  745TMC3    C211006   1.133   2.083  13.588 -0.0974  0.6333  0.6787
  745TMC3    C311007   1.096   1.967  13.526 -0.2103  0.5907 -0.4456
  745TMC3    C411008   1.291   2.103  13.408  0.2662  0.3591 -0.4660
  745TMC3    C511009   1.248   1.986  13.351  0.6818  0.2763 -0.4328
  745TMC3    C611010   1.146   1.914  13.411 -1.0563  0.5218 -0.5427
  745TMC3     C11011   1.231   2.286  13.542  0.1278 -0.8343  0.0100
  745TMC3     O11012   1.259   2.351  13.448  0.2475 -0.1075 -0.3546
  745TMC3     H11013   1.072   2.115  13.672 -2.6520 -1.1163 -0.4956
  745TMC3    H111014   1.366   2.166  13.362  0.4654  1.1393  0.9271
  745TMC3    H211015   1.113   1.824  13.361  0.8746  0.5792 -1.9242
  745TMC3    C711016   1.282   1.968  13.212  0.6184  0.4007  0.2821
  745TMC3    C811017   1.050   1.859  13.615  0.5827  0.0146  0.2640
  745TMC3    O111018   1.201   1.913  13.139  0.3990  0.2427  0.0398
  745TMC3    O211019   0.997   1.762  13.560  0.1215 -0.1785 -0.0108
  746TMC3    C111020   3.611   3.516  10.797 -0.2358  0.4789  0.0136
  746TMC3    C211021   3.668   3.518  10.670 -0.1386 -0.2669 -0.4218
  746TMC3    C311022   3.664   3.417  10.580 -0.6345  0.5728  0.1951
  746TMC3    C411023   3.548   3.402  10.843 -0.4641 -0.2692 -0.2965
  746TMC3    C511024   3.551   3.300  10.752  0.3163  0.2190 -0.2357
  746TMC3    C611025   3.604   3.304  10.624  0.1419 -0.1321  0.6427
  746TMC3     C11026   3.621   3.628  10.885  1.2396 -0.2808 -0.1309
  746TMC3     O11027   3.630   3.614  11.006  0.0913  0.0713  0.2733
  746TMC3     H11028   3.739   3.598  10.656 -0.2075 -0.5959 -2.5247
  746TMC3    H111029   3.489   3.395  10.933 -0.3501 -1.4016 -0.3150
  746TMC3    H211030   3.600   3.208  10.575 -1.4832  0.7388 -0.9227
  746TMC3    C711031   3.497   3.170  10.799  0.8882  0.2161 -0.6052
  746TMC3    C811032   3.751   3.407  10.465  0.1793  0.5195 -0.4831
  746TMC3    O111033   3.435   3.096  10.724 -0.1026 -0.2495 -0.3736
  746TMC3    O211034   3.817   3.301  10.461  0.5159  0.0409  0.1247
  747TMC3    C111035   1.390   3.538  10.407 -0.4719 -0.2123  0.2627
  747TMC3    C211036   1.274   3.491  10.465  0.5459  0.9022  0.0610
  747TMC3    C311037   1.261   3.518  10.601  0.7278 -0.0734 -0.3207
  747TMC3    C411038   1.499   3.589  10.471 -0.1665 -0.2524  0.5140
  747TMC3    C511039   1.484   3.610  10.605 -0.2695 -0.0798  0.7755
  747TMC3    C611040   1.364   3.581  10.667 -0.0039 -0.1492  0.0295
  747TMC3     C11041   1.370   3.608  10.279 -1.1006  0.2702 -0.0150
  747TMC3     O11042   1.435   3.713  10.260  0.0430 -0.3451 -0.0182
  747TMC3     H11043   1.194   3.445  10.408  0.8026  1.1334 -0.4851
  747TMC3    H111044   1.580   3.624  10.409  0.5058 -0.5047  1.2423
  747TMC3    H211045   1.360   3.589  10.775 -1.4324 -0.8825  0.0322
  747TMC3    C711046   1.584   3.671  10.690  0.1380 -0.3395 -0.4469
  747TMC3    C811047   1.134   3.473  10.655 -0.2411  0.1001 -0.0880
  747TMC3    O111048   1.550   3.707  10.797  0.2719  0.0925 -0.5736
  747TMC3    O211049   1.072   3.396  10.585 -1.1600 -0.8322 -0.0732
  748MPD2     C11050   1.708   4.113   1.655  0.5280  0.2142 -0.4716
  748MPD2    C111051   1.787   3.997   1.649  0.6620  0.3482 -0.5161
  748MPD2    C211052   1.903   4.007   1.574 -0.2225  0.6778 -0.0046
  748MPD2    C311053   1.950   4.122   1.518 -0.9127 -0.0273 -0.2941
  748MPD2    C411054   1.873   4.238   1.539 -0.2888  0.3879 -1.0497
  748MPD2    C511055   1.754   4.230   1.604 -0.3121  0.1757  0.0779
  748MPD2     H11056   1.957   3.917   1.548 -1.8066 -0.0874 -0.6832
  748MPD2    H111057   1.898   4.334   1.494 -0.7798 -1.0899 -4.5004
  748MPD2    H211058   1.614   4.118   1.709  0.7849 -0.8186  0.0817
  748MPD2    H311059   1.696   4.322   1.601  1.3144  1.3197  4.3907
  748MPD2     N11060   2.072   4.122   1.443  0.2802  0.1590  0.5770
  748MPD2    H511061   2.112   4.029   1.434  0.8548  0.2491  2.4173
  748MPD2    N111062   1.740   3.871   1.701 -0.0654 -0.2658  0.2931
  748MPD2    H711063   1.653   3.870   1.753  0.2680 -0.7352  0.8418
  749TMC3    C111064   2.235   4.171   1.299  0.7869  0.0790  0.1406
  749TMC3    C211065   2.322   4.081   1.361 -0.2084 -0.0976  0.2812
  749TMC3    C311066   2.432   4.040   1.295  0.0992  0.4626 -0.2584
  749TMC3    C411067   2.242   4.202   1.172  0.3182  0.2552 -0.2600
  749TMC3    C511068   2.352   4.158   1.104 -0.2527 -0.0305 -0.4622
  749TMC3    C611069   2.450   4.085   1.164  1.0429 -0.3653  0.1427
  749TMC3     C11070   2.127   4.224   1.382  0.0716  0.5371  0.3176
  749TMC3     O11071   2.095   4.343   1.366  0.3475  0.0894 -0.6334
  749TMC3     H11072   2.306   4.055   1.464  3.8342  2.3381  1.5284
  749TMC3    H111073   2.177   4.272   1.121  2.3923  1.1085 -1.7615
  749TMC3    H211074   2.543   4.062   1.112  1.2247 -0.5607  0.5500
  749TMC3    C711075   2.381   4.211   0.969 -0.1126  0.3932 -0.4161
  749TMC3    C811076   2.543   4.034   1.383  0.1617  0.5858 -0.1747
  749TMC3    O111077   2.315   4.308   0.935 -0.0035 -0.3095 -0.7660
  749TMC3    O211078   2.528   4.098   1.490  0.5151  0.2236  0.1864
  750MPD2     C11079   3.740   0.849  11.242  0.2975 -1.0640 -0.0308
  750MPD2    C111080   3.631   0.771  11.270 -0.0481  0.2947 -0.5582
  750MPD2    C211081   3.635   0.637  11.231 -0.2839  0.9155  0.0877
  750MPD2    C311082   3.740   0.586  11.155 -0.6245 -0.9556  0.3803
  750MPD2    C411083   3.840   0.671  11.120  0.0558  0.5419 -0.7788
  750MPD2    C511084   3.840   0.803  11.161  0.0467 -0.2157  0.1329
  750MPD2     H11085   3.561   0.568  11.271  0.9954 -0.7685 -0.4628
  750MPD2    H111086   3.915   0.637  11.049 -0.6996 -0.7068 -0.9683
  750MPD2    H211087   3.750   0.953  11.271  0.4071 -1.6182  1.9776
  750MPD2    H311088   3.921   0.867  11.130 -3.2607  2.1842 -3.5613
  750MPD2     N11089   3.744   0.459  11.100  0.6052 -0.4267  0.5945
  750MPD2    H511090   3.819   0.445  11.034  1.1837 -0.3961  1.2379
  750MPD2    N111091   3.520   0.821  11.342 -0.1301  0.1332 -0.1502
  750MPD2    H711092   3.528   0.917  11.374  1.1488  0.1551 -0.5405
  751TMC3    C111093   3.695   0.229  11.054 -0.8681 -0.5397  0.3059
  751TMC3    C211094   3.598   0.130  11.062 -0.0560  0.5635 -0.0157
  751TMC3    C311095   3.607   0.031  10.972 -0.3483 -0.2380  0.5026
  751TMC3    C411096   3.807   0.216  10.975  0.3444  0.6789  0.5445
  751TMC3    C511097   3.812   0.105  10.896  0.0920 -0.3840  1.3127
  751TMC3    C611098   3.715   0.015  10.886 -0.3061  0.0901 -0.2584
  751TMC3     C11099   3.665   0.348  11.127  0.5707 -0.8681 -0.0100
  751TMC3     O11100   3.574   0.342  11.207  0.0482 -0.2556  0.2140
  751TMC3     H11101   3.513   0.143  11.129 -1.1233  0.7321 -1.4204
  751TMC3    H111102   3.889   0.287  10.975  1.1020 -0.1817 -2.0508
  751TMC3    H211103   3.717   4.649  10.823 -0.5169 -0.5367  0.6052
  751TMC3    C711104   3.928   0.085  10.818  0.2454 -0.5353 -0.5221
  751TMC3    C811105   3.531   4.633  10.992  0.1111  0.2776 -0.5945
  751TMC3    O111106   4.012   0.176  10.825  0.1020 -0.2557  0.4345
  751TMC3    O211107   3.546   4.536  10.919 -0.0449  0.3282  0.1825
  752TMC3    C111108   2.563   0.790  17.157  0.0958 -0.3335 -0.3405
  752TMC3    C211109   2.649   0.759  17.261 -0.4611  0.0291 -0.4726
  752TMC3    C311110   2.610   0.669  17.357  0.3462 -0.0232  0.5693
  752TMC3    C411111   2.443   0.728  17.151 -0.2645 -0.5827 -0.0632
  752TMC3    C511112   2.412   0.637  17.245 -0.4915 -0.3193  0.6045
  752TMC3    C611113   2.492   0.598  17.347 -0.2899  0.3764  0.2093
  752TMC3     C11114   2.602   0.819  17.018 -0.0165 -0.1401  0.3290
  752TMC3     O11115   2.715   0.860  16.999 -0.5564 -0.3815  0.3631
  752TMC3     H11116   2.750   0.799  17.262  1.1129 -3.9818  1.8386
  752TMC3    H111117   2.359   0.782  17.109  1.2505 -0.0864 -2.4686
  752TMC3    H211118   2.473   0.516  17.415 -1.5043  0.1763 -0.3761
  752TMC3    C711119   2.288   0.567  17.215  0.2338  0.4239 -0.2280
  752TMC3    C811120   2.681   0.644  17.483  0.2432  0.1005 -0.0533
  752TMC3    O111121   2.242   0.587  17.101  0.0944  0.0899 -0.3550
  752TMC3    O211122   2.670   0.533  17.542 -0.1472  0.3122  0.4880
  753TMC3    C111123   4.577   1.921  13.335 -0.5132 -0.5069  0.2548
  753TMC3    C211124   4.515   1.885  13.452  0.0981  0.1151 -0.6655
  753TMC3    C311125   4.515   1.750  13.479 -0.1470  0.2681  0.9665
  753TMC3    C411126   4.615   1.829  13.238  0.2436  0.2660  0.5197
  753TMC3    C511127   4.610   1.695  13.266 -0.1252 -0.5555  0.0587
  753TMC3    C611128   4.565   1.658  13.390  0.4675  0.8155 -0.1987
  753TMC3     C11129   4.549   2.053  13.288 -0.3311  0.6765 -0.4271
  753TMC3     O11130   4.550   2.070  13.167  0.4265 -0.4246  0.3547
  753TMC3     H11131   4.470   1.955  13.522 -0.8093 -1.0347 -0.1057
  753TMC3    H111132   4.633   1.865  13.137 -0.3509  1.7634  0.9528
  753TMC3    H211133   4.552   1.553  13.412 -0.3305  1.0138  0.2626
  753TMC3    C711134   4.627   1.592  13.165  0.6497  0.3281 -0.0836
  753TMC3    C811135   4.438   1.698  13.589 -0.1661 -0.5335 -0.2198
  753TMC3    O111136   4.585   1.478  13.188 -0.4597 -0.3989 -0.0550
  753TMC3    O211137   4.376   1.596  13.578 -0.4772 -0.7106  0.6498
  754MPD2     C11138   3.346   0.194  12.784 -0.3886 -0.0715 -0.0661
  754MPD2    C111139   3.276   0.076  12.790 -0.0645  0.4847 -0.0495
  754MPD2    C211140   3.149   0.067  12.745  0.3758  0.5531  0.1406
  754MPD2    C311141   3.077   0.188  12.723  0.1536 -0.8599 -0.6182
  754MPD2    C411142   3.145   0.303  12.710 -0.8841  0.4312  0.1748
  754MPD2    C511143   3.278   0.303  12.742 -0.4346  0.5270  0.5517
  754MPD2     H11144   3.089   4.698  12.758 -0.4452  0.9421 -0.9852
  754MPD2    H111145   3.093   0.396  12.691 -0.3121 -0.0636 -3.8147
  754MPD2    H211146   3.453   0.205  12.794 -0.3370  0.3237 -1.0131
  754MPD2    H311147   3.324   0.400  12.728 -0.1942  0.4093  0.5199
  754MPD2     N11148   2.932   0.192  12.706 -0.5274  0.2423  0.5598
  754MPD2    H511149   2.897   0.286  12.690 -1.8355 -0.4654 -0.7610
  754MPD2    N111150   3.353   4.689  12.831 -0.3197  0.2356  0.0468
  754MPD2    H711151   3.445   4.701  12.873  0.4742  0.8292 -1.8882
  755MPD2     C11152   2.455   0.845  12.965  0.7556  0.6489 -0.4608
  755MPD2    C111153   2.445   0.756  13.075  0.3423 -0.1209 -0.3451
  755MPD2    C211154   2.492   0.630  13.049  0.0256  0.2927  0.6344
  755MPD2    C311155   2.559   0.598  12.940  0.1645  0.0809 -0.6219
  755MPD2    C411156   2.577   0.685  12.842  0.1114 -0.4697  0.2405
  755MPD2    C511157   2.529   0.811  12.854 -0.1853 -0.1549  0.1358
  755MPD2     H11158   2.489   0.562  13.133  1.1207 -1.2733 -0.5823
  755MPD2    H111159   2.634   0.667  12.752 -1.8467  1.1253 -1.3121
  755MPD2    H211160   2.426   0.949  12.969 -2.7330 -0.3774  0.6624
  755MPD2    H311161   2.542   0.878  12.770 -2.8927 -2.3228 -1.9791
  755MPD2     N11162   2.607   0.468  12.918  0.2311  0.1500  0.4232
  755MPD2    H511163   2.655   0.456  12.829 -0.4847 -0.4974  0.1104
  755MPD2    N111164   2.382   0.792  13.195 -0.0634  0.7423 -0.2067
  755MPD2    H711165   2.403   0.723  13.266 -0.7121  2.3666  1.5802
  756MPD2     C11166   3.206   1.182   9.156  0.0389  1.4899 -0.1993
  756MPD2    C111167   3.190   1.114   9.272  0.0172 -0.0460 -0.0714
  756MPD2    C211168   3.063   1.075   9.305  0.3030 -0.4307 -0.1725
  756MPD2    C311169   2.953   1.096   9.226 -0.0313 -0.2963 -0.5963
  756MPD2    C411170   2.965   1.168   9.105 -0.0186 -0.6399  0.0292
  756MPD2    C511171   3.093   1.212   9.079 -0.3570 -0.2681 -0.6931
  756MPD2     H11172   3.042   1.037   9.404 -3.0225  2.5527  0.2566
  756MPD2    H111173   2.885   1.197   9.039  2.5414 -1.7489 -3.5748
  756MPD2    H211174   3.305   1.215   9.127  0.8358  0.9326  1.9171
  756MPD2    H311175   3.112   1.259   8.983 -1.2513 -2.3873 -1.8990
  756MPD2     N11176   2.832   1.033   9.270 -0.0477  0.7968  0.3668
  756MPD2    H511177   2.834   0.983   9.358 -0.3601 -1.0459 -0.6621
  756MPD2    N111178   3.287   1.088   9.368 -0.2388 -0.1802 -0.6573
  756MPD2    H711179   3.267   1.025   9.445  2.2390  1.6339  1.4772
  757MPD2     C11180   2.610   0.172   9.689  0.0621 -0.6316 -0.6780
  757MPD2    C111181   2.499   0.190   9.618 -0.4084 -0.3697  0.4011
  757MPD2    C211182   2.482   0.307   9.548 -0.4177 -0.1416 -0.2416
  757MPD2    C311183   2.583   0.406   9.540 -0.1893 -0.4224  0.1547
  757MPD2    C411184   2.701   0.387   9.614  0.7059  0.2174 -0.1327
  757MPD2    C511185   2.707   0.266   9.687 -0.2971 -0.3948 -0.8485
  757MPD2     H11186   2.386   0.322   9.500 -0.5631  0.5165  0.2654
  757MPD2    H111187   2.786   0.454   9.614  1.9909 -1.4256 -3.6124
  757MPD2    H211188   2.627   0.078   9.742 -0.5689 -0.0125  0.6032
  757MPD2    H311189   2.795   0.245   9.747  1.4606  3.5498 -2.0860
  757MPD2     N11190   2.553   0.522   9.458  0.6157 -0.3678  0.0672
  757MPD2    H511191   2.461   0.534   9.417  0.1284  2.1277  1.8813
  757MPD2    N111192   2.407   0.092   9.635  0.2127  0.4486 -0.9829
  757MPD2    H711193   2.428   0.008   9.688 -0.8043  1.0463  0.3804
  758MPD2     C11194   3.036   0.336  15.784  0.0009 -0.1879 -0.9953
  758MPD2    C111195   3.069   0.219  15.845 -0.3954 -0.6038 -0.2025
  758MPD2    C211196   2.980   0.154  15.932 -0.3255  0.7927  0.5647
  758MPD2    C311197   2.875   0.233  15.981  0.8809 -0.6715  0.1393
  758MPD2    C411198   2.858   0.359  15.935  0.3760  0.1063  0.3031
  758MPD2    C511199   2.921   0.398  15.825 -0.2777 -0.7370  0.5943
  758MPD2     H11200   3.010   0.062  15.980 -0.9554  1.0067  1.3876
  758MPD2    H111201   2.776   0.421  15.968  1.3095  0.7753  1.3448
  758MPD2    H211202   3.107   0.377  15.714  2.1501  0.8914  1.8103
  758MPD2    H311203   2.885   0.488  15.776 -0.5333 -1.5873 -0.7799
  758MPD2     N11204   2.786   0.187  16.079  0.1526  0.8871 -0.4254
  758MPD2    H511205   2.724   0.260  16.113  3.0360  3.7291 -1.2634
  758MPD2    N111206   3.189   0.153  15.810 -0.2026 -0.4454  1.0364
  758MPD2    H711207   3.244   0.214  15.751  1.2239 -1.3056  1.4482
  759MPD2     C11208   2.629   2.355   9.714 -0.2935 -1.0026  0.3728
  759MPD2    C111209   2.546   2.370   9.827  0.1332 -0.0089 -0.0767
  759MPD2    C211210   2.538   2.496   9.873  0.1932 -0.7929 -0.1012
  759MPD2    C311211   2.610   2.604   9.823 -0.4649  0.3357  0.4758
  759MPD2    C411212   2.706   2.589   9.724 -0.4091  0.2033  0.1441
  759MPD2    C511213   2.709   2.457   9.677  0.3682 -0.3748 -0.6162
  759MPD2     H11214   2.463   2.516   9.949  0.5420 -0.5069  0.1611
  759MPD2    H111215   2.792   2.652   9.703 -0.9688  0.5441 -1.1137
  759MPD2    H211216   2.639   2.257   9.668 -1.7506 -1.1251  0.3139
  759MPD2    H311217   2.794   2.434   9.614  1.3457 -2.6614  1.5413
  759MPD2     N11218   2.606   2.728   9.888  0.3208 -0.0942 -0.6314
  759MPD2    H511219   2.549   2.726   9.972 -3.8550 -1.0911 -3.4591
  759MPD2    N111220   2.471   2.264   9.883 -0.1900 -0.1007 -0.6675
  759MPD2    H711221   2.395   2.290   9.945 -1.7911 -2.0555 -1.8025
  760MPD2     C11222   1.908   0.277  11.891 -0.2972  0.1618  0.3600
  760MPD2    C111223   2.038   0.258  11.868  0.2749  0.4460 -0.0654
  760MPD2    C211224   2.110   0.149  11.917  0.2721  0.6533  0.2983
  760MPD2    C311225   2.046   0.049  11.986 -0.7623 -0.1815  0.2061
  760MPD2    C411226   1.909   0.066  12.002 -0.2308  0.1549  0.1978
  760MPD2    C511227   1.845   0.182  11.959 -0.0133 -0.1478 -0.1878
  760MPD2     H11228   2.218   0.147  11.905  0.2674  0.1265  0.3402
  760MPD2    H111229   1.848   4.718  12.060 -0.8024 -1.6893 -2.5755
  760MPD2    H211230   1.846   0.366  11.889 -1.2940 -0.5506 -0.9053
  760MPD2    H311231   1.742   0.196  11.990  0.1795 -0.6976  0.7049
  760MPD2     N11232   2.106   4.653  12.041  0.6862  0.1287  0.4626
  760MPD2    H511233   2.049   4.606  12.110  1.2189  0.9798  1.4877
  760MPD2    N111234   2.111   0.356  11.799 -0.0749 -0.0284  0.3993
  760MPD2    H711235   2.211   0.343  11.812 -0.0118 -0.9946 -1.0509
  761MPD2     C11236   3.166   4.347  11.207  0.3979 -0.0392 -0.3491
  761MPD2    C111237   3.208   4.356  11.070  0.4408  0.2034  0.0491
  761MPD2    C211238   3.300   4.452  11.041  0.0690 -0.6276  0.4709
  761MPD2    C311239   3.349   4.538  11.137 -0.2295  0.1174 -0.3598
  761MPD2    C411240   3.300   4.538  11.264  0.3740 -0.2785  0.4912
  761MPD2    C511241   3.209   4.444  11.295 -0.4809  0.2718 -0.4192
  761MPD2     H11242   3.337   4.455  10.939 -2.6437  5.2761 -0.3341
  761MPD2    H111243   3.340   4.598  11.345  0.4911 -0.6327  0.6950
  761MPD2    H211244   3.103   4.268  11.247 -3.4962  2.8045 -0.7402
  761MPD2    H311245   3.177   4.447  11.398 -0.6220  0.9671 -0.4852
  761MPD2     N11246   3.452   4.635  11.105 -0.4515  0.7154 -0.2973
  761MPD2    H511247   3.477   4.701  11.178 -2.3705  1.6563 -0.5163
  761MPD2    N111248   3.167   4.256  10.975  0.5347 -0.3996 -0.1685
  761MPD2    H711249   3.128   4.170  11.011  0.9642 -0.1185  0.9596
  762MPD2     C11250   3.567   4.402  10.575 -0.2654 -0.1844 -0.4696
  762MPD2    C111251   3.552   4.277  10.517  0.1468  0.5960 -0.7530
  762MPD2    C211252   3.659   4.228  10.441 -0.4972  0.2930  0.1251
  762MPD2    C311253   3.760   4.312  10.409  0.8420  0.3425  0.0863
  762MPD2    C411254   3.774   4.437  10.467  0.7789  0.0504  0.5911
  762MPD2    C511255   3.677   4.482  10.554  0.0678  0.4824  0.5096
  762MPD2     H11256   3.665   4.126  10.404  1.9665  0.9009 -1.1782
  762MPD2    H111257   3.861   4.499  10.449  0.3442  0.4168 -0.3118
  762MPD2    H211258   3.484   4.433  10.637  1.4150 -0.8678  2.1571
  762MPD2    H311259   3.678   4.580  10.599 -0.4051 -0.3182  2.2625
  762MPD2     N11260   3.859   4.263  10.318  0.2408 -0.7572  0.3761
  762MPD2    H511261   3.849   4.173  10.272 -1.4308 -0.2745 -0.2122
  762MPD2    N111262   3.434   4.204  10.543  0.2968 -0.3210  0.7810
  762MPD2    H711263   3.361   4.253  10.594 -0.2751 -0.4982  0.1306
  763MPD2     C11264   0.639   4.677  16.213 -0.0357  0.4202  0.0302
  763MPD2    C111265   0.498   4.684  16.205  0.0463  1.0848 -0.3080
  763MPD2    C211266   0.440   0.025  16.317 -0.9930 -0.0264 -0.6182
  763MPD2    C311267   0.511   0.077  16.425  0.0446  0.0910  0.0603
  763MPD2    C411268   0.648   0.062  16.426 -1.1606  1.1928  0.5781
  763MPD2    C511269   0.708   0.004  16.316  0.4334 -0.3985 -0.0342
  763MPD2     H11270   0.333   0.041  16.305 -0.7284  1.2603 -1.3461
  763MPD2    H111271   0.702   0.096  16.514 -0.5869 -1.1633  1.1418
  763MPD2    H211272   0.697   4.624  16.138  1.2998  0.2084  1.2089
  763MPD2    H311273   0.813   4.700  16.319  0.5713  0.0719 -1.0770
  763MPD2     N11274   0.455   0.136  16.538 -0.3675  0.2436  0.8455
  763MPD2    H511275   0.528   0.165  16.603  2.3411 -0.1348 -2.0556
  763MPD2    N111276   0.423   4.649  16.088 -0.2158 -0.3449 -0.4005
  763MPD2    H711277   0.328   4.684  16.079  0.6448  2.3433  1.0492
  764MPD2     C11278   2.190   0.943  17.139 -0.1961 -0.0458 -0.8281
  764MPD2    C111279   2.240   1.063  17.185  0.4236 -0.2623 -0.3172
  764MPD2    C211280   2.230   1.087  17.319  0.0371  0.2257 -0.5878
  764MPD2    C311281   2.171   1.004  17.407 -0.4659  0.1687 -0.9640
  764MPD2    C411282   2.109   0.891  17.358 -0.5124 -0.3147  0.0901
  764MPD2    C511283   2.120   0.858  17.225  0.5788 -0.3681  0.1820
  764MPD2     H11284   2.246   1.184  17.365 -1.1648  0.0880  0.1128
  764MPD2    H111285   2.043   0.829  17.418  1.0284  0.3972  2.5355
  764MPD2    H211286   2.191   0.913  17.035 -0.1715 -1.4862 -0.4173
  764MPD2    H311287   2.076   0.768  17.183  1.3417  0.6641 -2.8793
  764MPD2     N11288   2.173   1.040  17.543  0.4665  0.4643 -0.3983
  764MPD2    H511289   2.220   1.128  17.555 -0.7384  1.2389 -1.3258
  764MPD2    N111290   2.304   1.153  17.094  0.0035 -0.2051 -0.1534
  764MPD2    H711291   2.340   1.239  17.133  2.3365 -0.7338 -1.1330
  765MPD2     C11292   2.197   4.020  15.774  0.6218  0.3058  0.2173
  765MPD2    C111293   2.286   4.124  15.766  0.8088  0.3249  0.0380
  765MPD2    C211294   2.420   4.103  15.804  0.2692  0.0420  0.5785
  765MPD2    C311295   2.463   3.980  15.858 -0.7279 -0.3299  0.1957
  765MPD2    C411296   2.373   3.878  15.868 -0.1209  0.9707  0.5184
  765MPD2    C511297   2.242   3.903  15.838  0.1192  0.1720  0.5950
  765MPD2     H11298   2.497   4.179  15.793 -1.1486  1.3939  0.0437
  765MPD2    H111299   2.398   3.774  15.888 -1.4053  0.6408  0.4089
  765MPD2    H211300   2.091   4.042  15.768  1.4745  3.8790 -1.3943
  765MPD2    H311301   2.175   3.819  15.843  0.8299 -0.5029 -1.0349
  765MPD2     N11302   2.602   3.971  15.889  0.1900  0.2163 -0.3595
  765MPD2    H511303   2.667   4.042  15.855  0.3688  0.4977  0.5823
  765MPD2    N111304   2.234   4.247  15.713 -0.7408  0.3343  0.4537
  765MPD2    H711305   2.142   4.239  15.670  0.0460  1.0868 -1.3500
  766MPD2     C11306   1.808   4.429  15.213  0.6859  0.0511  0.0588
  766MPD2    C111307   1.942   4.422  15.243 -0.1496 -0.4083 -0.6713
  766MPD2    C211308   2.033   4.355  15.153 -0.0254 -0.2336  0.0263
  766MPD2    C311309   1.982   4.293  15.040 -0.3366  0.3977 -0.1984
  766MPD2    C411310   1.850   4.305  15.016  0.2478  0.1799  0.1210
  766MPD2    C511311   1.756   4.377  15.096  0.4171 -1.2494  0.2196
  766MPD2     H11312   2.139   4.363  15.174 -0.1981  1.9241  0.0676
  766MPD2    H111313   1.810   4.255  14.929  1.6815  0.5236 -0.7266
  766MPD2    H211314   1.735   4.473  15.279  0.0000 -1.1701  0.1229
  766MPD2    H311315   1.652   4.386  15.065  1.0092 -1.9772 -2.0281
  766MPD2     N11316   2.065   4.226  14.944 -1.1533  0.3916 -0.3500
  766MPD2    H511317   2.019   4.196  14.859 -1.6893  0.4076 -0.0704
  766MPD2    N111318   1.988   4.465  15.366  0.0818  0.0311 -0.6227
  766MPD2    H711319   2.083   4.433  15.381  0.2083  0.7639  0.2301
  767MPD2     C11320   1.674   4.668  14.937  0.4491  0.0474  0.2054
  767MPD2    C111321   1.809   4.651  14.915 -0.2546  0.6032  0.0846
  767MPD2    C211322   1.862   4.578  14.807 -0.3364  0.1706  0.0145
  767MPD2    C311323   1.775   4.526  14.714  0.2636  0.6012  0.1927
  767MPD2    C411324   1.640   4.526  14.749 -0.3969 -0.6230 -0.3776
  767MPD2    C511325   1.588   4.591  14.860  0.1642  0.0252  0.2420
  767MPD2     H11326   1.968   4.578  14.785 -0.7945  0.2882 -2.1879
  767MPD2    H111327   1.561   4.469  14.702 -0.7415 -0.8209  0.4415
  767MPD2    H211328   1.633   0.015  15.010 -0.0187  1.7727 -1.6436
  767MPD2    H311329   1.481   4.604  14.869 -0.1255 -0.2221 -2.7980
  767MPD2     N11330   1.815   4.459  14.597 -0.1317 -0.0826  0.4609
  767MPD2    H511331   1.913   4.434  14.592 -0.5150 -1.3765 -0.3243
  767MPD2    N111332   1.909   4.699  15.003 -0.6483  0.0728  0.3307
  767MPD2    H711333   2.006   4.687  14.977 -0.7752  1.5034 -0.8324
  768MPD2     C11334   3.380   2.665  10.559  0.3192 -0.0896  0.2329
  768MPD2    C111335   3.421   2.619  10.686 -0.5246 -0.3040  0.5118
  768MPD2    C211336   3.517   2.686  10.755 -0.0252 -0.3372 -0.7773
  768MPD2    C311337   3.593   2.791  10.698 -0.2977  0.0309 -0.1087
  768MPD2    C411338   3.560   2.821  10.565  0.0315  0.1031  0.4479
  768MPD2    C511339   3.461   2.760  10.501 -0.7199  0.6452  0.1874
  768MPD2     H11340   3.548   2.649  10.852  1.0984  1.8603 -0.2914
  768MPD2    H111341   3.613   2.901  10.516 -0.5683  1.1171  1.4673
  768MPD2    H211342   3.305   2.618  10.497 -2.0215  2.2367  1.3243
  768MPD2    H311343   3.433   2.815  10.412 -1.4139 -0.7296 -0.4586
  768MPD2     N11344   3.702   2.853  10.759  0.3793 -0.4201 -0.8466
  768MPD2    H511345   3.745   2.928  10.707  2.1783 -1.0877 -0.3225
  768MPD2    N111346   3.355   2.518  10.758 -1.1743  0.0790  0.1674
  768MPD2    H711347   3.387   2.507  10.854 -1.0850  1.9407  0.3538
  769MPD2     C11348   4.074   0.858  14.635  0.1387  0.3430  0.1811
  769MPD2    C111349   3.957   0.912  14.677 -0.9799  0.2269 -0.0850
  769MPD2    C211350   3.959   1.000  14.787  0.4046  0.1488 -0.1040
  769MPD2    C311351   4.072   1.009  14.867 -0.3704 -0.4702 -0.2778
  769MPD2    C411352   4.186   0.953  14.815 -0.0082 -0.1354 -0.4680
  769MPD2    C511353   4.186   0.877  14.701 -0.2998 -0.1915 -1.1608
  769MPD2     H11354   3.869   1.054  14.813  1.6093  2.3475 -0.4877
  769MPD2    H111355   4.280   0.963  14.867 -0.2239  2.2062 -0.5407
  769MPD2    H211356   4.078   0.777  14.562 -0.7185  0.6571 -0.2064
  769MPD2    H311357   4.273   0.818  14.675  0.5658 -0.3251  2.0585
  769MPD2     N11358   4.070   1.074  14.997  0.5721 -0.1817 -0.2971
  769MPD2    H511359   3.981   1.114  15.027  0.1369 -0.7462 -0.8412
  769MPD2    N111360   3.841   0.893  14.597 -0.2231 -0.0489 -0.1874
  769MPD2    H711361   3.854   0.836  14.513  1.1384  0.0822 -0.0499
  770MPD2     C11362   2.959   0.498  14.635 -0.9276  0.4215  0.0099
  770MPD2    C111363   3.091   0.449  14.651  0.0417 -0.2184  0.0491
  770MPD2    C211364   3.187   0.539  14.649  0.0504 -0.3924 -0.1117
  770MPD2    C311365   3.164   0.672  14.608 -0.7120 -0.1825  0.3824
  770MPD2    C411366   3.036   0.718  14.604 -0.2237  0.9678  0.2006
  770MPD2    C511367   2.934   0.632  14.614  0.0421  0.4410 -0.1001
  770MPD2     H11368   3.287   0.511  14.682  0.3240  0.0809 -0.5574
  770MPD2    H111369   3.014   0.824  14.591 -1.9075  0.3518 -1.8280
  770MPD2    H211370   2.880   0.423  14.630 -0.8082  0.2823  0.1981
  770MPD2    H311371   2.833   0.651  14.581  1.1367  2.3891 -2.2950
  770MPD2     N11372   3.273   0.764  14.595 -0.6739 -0.9030 -0.4044
  770MPD2    H511373   3.362   0.715  14.607  0.5677  2.3574  3.7260
  770MPD2    N111374   3.111   0.312  14.685 -0.0959 -1.0086 -0.0591
  770MPD2    H711375   3.035   0.245  14.678 -1.5746  0.6282  0.3122
  771MPD2     C11376   4.392   3.412  13.529 -0.0065  0.3990  0.0349
  771MPD2    C111377   4.467   3.529  13.512  0.4996 -0.7271 -0.0352
  771MPD2    C211378   4.510   3.563  13.384  0.4384 -0.7287  0.0831
  771MPD2    C311379   4.483   3.485  13.277 -0.1533 -0.0187  0.8039
  771MPD2    C411380   4.434   3.359  13.299 -0.4629 -0.0977 -0.5610
  771MPD2    C511381   4.381   3.323  13.423  0.0223  0.6122  0.2101
  771MPD2     H11382   4.554   3.662  13.383  0.4458 -0.7392 -0.4980
  771MPD2    H111383   4.404   3.287  13.224 -0.6479  0.7999 -1.3438
  771MPD2    H211384   4.352   3.384  13.627 -1.1670 -0.6896 -0.7422
  771MPD2    H311385   4.326   3.231  13.435  0.7136 -0.3065 -3.6832
  771MPD2     N11386   4.514   3.541  13.153 -0.8711 -1.0218 -0.2085
  771MPD2    H511387   4.531   3.641  13.148  0.4031 -1.1696  1.0437
  771MPD2    N111388   4.515   3.615  13.618  0.9115 -0.0915 -0.0382
  771MPD2    H711389   4.571   3.696  13.591 -2.8896  2.3104 -0.7692
  772MPD2     C11390   4.314   4.203  14.064 -0.7463  1.3997  0.4801
  772MPD2    C111391   4.279   4.073  14.040  0.2825  0.0539 -0.1270
  772MPD2    C211392   4.142   4.044  14.039  0.6858 -0.6892  0.4649
  772MPD2    C311393   4.046   4.135  14.070  0.4335  0.1102  0.4459
  772MPD2    C411394   4.087   4.263  14.098 -0.2501 -0.3162 -0.0433
  772MPD2    C511395   4.223   4.295  14.091  0.5413  0.7458  0.6832
  772MPD2     H11396   4.107   3.941  14.031 -1.2898  0.0339 -0.3792
  772MPD2    H111397   4.016   4.338  14.131  0.7841 -0.3295  2.2110
  772MPD2    H211398   4.420   4.225  14.074 -0.1067 -1.2648 -0.3895
  772MPD2    H311399   4.260   4.392  14.124 -0.3213  0.8816  1.2283
  772MPD2     N11400   3.910   4.104  14.078  0.4889 -0.2691  0.2809
  772MPD2    H511401   3.843   4.178  14.093  0.7620  0.2026 -0.8639
  772MPD2    N111402   4.366   3.966  14.007  0.3344 -0.3253  0.2691
  772MPD2    H711403   4.320   3.882  13.974 -1.3050 -0.0437  1.8358
  773MPD2     C11404   3.583   4.513  17.134 -0.3217  0.4790  0.6634
  773MPD2    C111405   3.463   4.448  17.112 -0.0056 -0.4858 -0.1531
  773MPD2    C211406   3.421   4.351  17.203  0.4310 -0.4455 -0.6336
  773MPD2    C311407   3.490   4.334  17.326  0.0015  1.3993 -0.2478
  773MPD2    C411408   3.607   4.405  17.348  0.1738  0.1777  0.1380
  773MPD2    C511409   3.654   4.486  17.249 -0.7173 -0.0102  0.3448
  773MPD2     H11410   3.319   4.315  17.196  0.1985  0.1717 -0.4518
  773MPD2    H111411   3.672   4.408  17.435 -1.7927  0.8616  1.5929
  773MPD2    H211412   3.617   4.589  17.064 -0.3260 -1.0028 -0.9432
  773MPD2    H311413   3.747   4.537  17.272 -0.4915  0.1753 -0.9970
  773MPD2     N11414   3.442   4.236  17.414  0.3239  0.6073  0.1868
  773MPD2    H511415   3.347   4.202  17.402  0.6876 -0.7568  1.1016
  773MPD2    N111416   3.380   4.480  16.999 -0.1284  0.2198  0.3667
  773MPD2    H711417   3.289   4.435  16.994  0.0377 -0.2985  2.0275
  774MPD2     C11418   2.835   3.900  13.009  0.4868  0.6139  0.4387
  774MPD2    C111419   2.874   3.942  13.129  0.3272  0.2363 -0.1192
  774MPD2    C211420   2.996   3.997  13.141 -0.0350  1.3086  0.8420
  774MPD2    C311421   3.085   4.017  13.035  0.1374  0.4428  0.4306
  774MPD2    C411422   3.041   3.969  12.912  0.0255  0.2565 -0.2078
  774MPD2    C511423   2.925   3.906  12.903 -0.0015 -0.2731  0.0934
  774MPD2     H11424   3.030   4.031  13.238  0.8526  0.4873  0.8237
  774MPD2    H111425   3.094   3.974  12.818 -0.9929  0.1093 -0.7839
  774MPD2    H211426   2.731   3.875  12.989  0.3389  0.9993  0.7131
  774MPD2    H311427   2.889   3.884  12.803 -0.8952  3.4799 -0.4209
  774MPD2     N11428   3.205   4.081  13.060  0.3567 -0.0457  0.2269
  774MPD2    H511429   3.222   4.109  13.156  0.3057 -0.4945  0.3641
  774MPD2    N111430   2.801   3.952  13.250 -0.2341  0.1655  0.0573
  774MPD2    H711431   2.853   3.999  13.325  1.2690 -1.2156 -0.1191
  775MPD2     C11432   4.198   0.884  15.529  0.0333  0.1434 -0.3382
  775MPD2    C111433   4.213   0.964  15.641  0.1110 -0.3621 -0.2688
  775MPD2    C211434   4.318   1.043  15.655 -0.2484 -0.3919  0.3730
  775MPD2    C311435   4.407   1.056  15.551 -0.4121  0.3179  0.0994
  775MPD2    C411436   4.399   0.977  15.438  0.2625 -0.6608 -0.2909
  775MPD2    C511437   4.297   0.888  15.431  0.6378 -0.2364 -0.0342
  775MPD2     H11438   4.325   1.104  15.744  1.8370  1.2124 -0.9141
  775MPD2    H111439   4.472   0.993  15.359 -0.3116 -1.2965 -0.9451
  775MPD2    H211440   4.127   0.803  15.514 -0.1697 -0.0219  1.4473
  775MPD2    H311441   4.293   0.827  15.342 -2.1410  0.9803 -0.7697
  775MPD2     N11442   4.521   1.135  15.565  0.2192 -0.2225 -0.1566
  775MPD2    H511443   4.556   1.159  15.473  1.6575 -2.3753 -0.1566
  775MPD2    N111444   4.112   0.947  15.744  0.1992 -0.0756 -0.2240
  775MPD2    H711445   4.046   0.870  15.751  1.1823 -1.0632 -1.9604
  776MPD2     C11446   3.506   1.458  11.684  0.2962 -0.1098  0.7426
  776MPD2    C111447   3.471   1.404  11.564 -0.2057 -0.0743  0.0669
  776MPD2    C211448   3.530   1.453  11.451  0.4086 -0.1273 -0.2219
  776MPD2    C311449   3.622   1.559  11.453  0.3387 -0.3387 -0.0955
  776MPD2    C411450   3.658   1.616  11.575  0.2626  0.1229 -0.0098
  776MPD2    C511451   3.600   1.564  11.689  0.1557  0.2367  0.1303
  776MPD2     H11452   3.523   1.408  11.352  1.3842 -0.4015 -0.1745
  776MPD2    H111453   3.731   1.696  11.581 -0.7152  1.0536 -0.4269
  776MPD2    H211454   3.476   1.402  11.772 -1.3779  1.4065  1.1442
  776MPD2    H311455   3.627   1.596  11.789  0.9608  0.1746 -0.0666
  776MPD2     N11456   3.680   1.605  11.335 -0.5385  0.1569  0.2436
  776MPD2    H511457   3.743   1.684  11.346 -0.4430  0.2938 -1.3675
  776MPD2    N111458   3.402   1.282  11.563  0.1805  0.4832 -0.4336
  776MPD2    H711459   3.371   1.249  11.654 -2.0837 -3.1675 -2.4975
  777MPD2     C11460   3.696   3.351   0.863  0.5956 -0.6866 -0.1263
  777MPD2    C111461   3.565   3.332   0.908 -0.1052 -0.3342  0.2088
  777MPD2    C211462   3.497   3.220   0.862 -0.2138  0.0865 -0.1539
  777MPD2    C311463   3.552   3.128   0.775  0.0708 -0.2955  0.7921
  777MPD2    C411464   3.686   3.147   0.747 -0.3788  0.5633  0.3121
  777MPD2    C511465   3.760   3.252   0.792  0.4682  0.2317 -0.8080
  777MPD2     H11466   3.394   3.201   0.888 -0.6717  0.7369 -1.5058
  777MPD2    H111467   3.748   3.080   0.689 -0.0724  1.6297 -0.5847
  777MPD2    H211468   3.741   3.443   0.897  2.4610 -1.7007  0.1256
  777MPD2    H311469   3.862   3.268   0.756  0.1828  0.2974 -1.5940
  777MPD2     N11470   3.480   3.016   0.727  0.3959  0.3015  0.5211
  777MPD2    H511471   3.388   3.001   0.766  0.5263  0.2429  0.8073
  777MPD2    N111472   3.515   3.427   0.995  0.3780 -0.3167  0.2278
  777MPD2    H711473   3.582   3.497   1.025  0.6932 -0.5128 -0.0172
  778MPD2     C11474   4.337   3.449  15.381  0.4072 -1.1924 -0.0844
  778MPD2    C111475   4.270   3.422  15.261 -0.4234  0.2213  0.0756
  778MPD2    C211476   4.321   3.485  15.144  0.0683  0.0711  0.0120
  778MPD2    C311477   4.423   3.574  15.152  0.0737  0.4550  0.7552
  778MPD2    C411478   4.493   3.596  15.273  0.3401  0.7913  0.0516
  778MPD2    C511479   4.446   3.532  15.384  0.0048  0.9907  0.5212
  778MPD2     H11480   4.272   3.453  15.053  2.5689 -1.1825 -0.8835
  778MPD2    H111481   4.581   3.658  15.271 -0.3238  1.8767  4.0885
  778MPD2    H211482   4.310   3.408  15.478  1.2997 -2.7492 -0.5072
  778MPD2    H311483   4.489   3.553  15.481 -1.2864  0.9889  1.0905
  778MPD2     N11484   4.476   3.634  15.034 -0.0609 -0.0019 -0.2350
  778MPD2    H511485   4.440   3.600  14.945  0.1658 -0.3652 -0.1888
  778MPD2    N111486   4.174   3.325  15.252 -0.5645 -0.2460  0.5231
  778MPD2    H711487   4.124   3.327  15.164 -1.1389 -0.7383  0.8333
  779MPD2     C11488   4.187   2.411  14.632  0.3729 -0.2116  0.0659
  779MPD2    C111489   4.283   2.422  14.526  0.4514  0.1333  0.3483
  779MPD2    C211490   4.309   2.544  14.469  0.0111 -0.6651 -0.1014
  779MPD2    C311491   4.237   2.655  14.510  0.6959 -0.3564  0.5887
  779MPD2    C411492   4.139   2.642  14.605 -0.5201  0.4282  0.4711
  779MPD2    C511493   4.105   2.520  14.664  0.0019 -0.1631 -1.0696
  779MPD2     H11494   4.383   2.558  14.391  2.9983 -2.7316  2.3884
  779MPD2    H111495   4.072   2.724  14.627 -1.9070 -0.7438  0.6015
  779MPD2    H211496   4.175   2.321  14.692  2.7429 -1.5910 -1.5045
  779MPD2    H311497   4.023   2.527  14.735  0.0509 -0.8010 -0.9473
  779MPD2     N11498   4.288   2.780  14.467  0.4061 -0.1755 -0.1866
  779MPD2    H511499   4.374   2.782  14.413  2.1189  1.5140  2.6444
  779MPD2    N111500   4.360   2.319  14.481  0.4838  0.0316 -0.1075
  779MPD2    H711501   4.421   2.328  14.400  1.3944  1.6987  0.7665
  780MPD2     C11502   3.497   1.964   0.030 -0.6388 -0.5465  0.2031
  780MPD2    C111503   3.425   1.873  17.642  0.1437  0.5750  0.0337
  780MPD2    C211504   3.491   1.771  17.575 -0.5375  0.1648 -0.9473
  780MPD2    C311505   3.629   1.753  17.596 -0.3371  0.4956 -0.3571
  780MPD2    C411506   3.705   1.844  17.676  0.0815  0.2635 -0.0658
  780MPD2    C511507   3.631   1.944   0.046 -0.4391  0.0191  0.3376
  780MPD2     H11508   3.439   1.696  17.517 -0.7902 -0.2517 -0.1914
  780MPD2    H111509   3.807   1.832   0.022  1.3873  2.5218 -3.4067
  780MPD2    H211510   3.452   2.046   0.086 -0.0344  0.5070 -0.8567
  780MPD2    H311511   3.690   2.015   0.103 -1.1645  1.2204 -0.3929
  780MPD2     N11512   3.685   1.638  17.530 -0.3487 -0.3603  0.4549
  780MPD2    H511513   3.633   1.593  17.456 -0.7995  0.1648  0.4620
  780MPD2    N111514   3.285   1.876  17.648  0.1043 -0.3800 -0.1652
  780MPD2    H711515   3.249   1.938   0.033 -0.2568 -0.3531 -0.3690
  781MPD2     C11516   1.312   3.888  11.557  0.1771  0.1795  0.1029
  781MPD2    C111517   1.392   3.976  11.619 -0.4425  0.6278  0.1912
  781MPD2    C211518   1.506   4.022  11.553 -0.3126  0.2499 -0.4539
  781MPD2    C311519   1.530   3.986  11.422 -0.2977 -0.1446 -0.1316
  781MPD2    C411520   1.440   3.895  11.362 -1.0569 -0.2277 -0.0599
  781MPD2    C511521   1.336   3.850  11.427 -0.5967 -0.5535 -0.3982
  781MPD2     H11522   1.572   4.086  11.611 -0.6869  0.6875 -0.5089
  781MPD2    H111523   1.453   3.851  11.264  0.3539 -0.3395  0.1716
  781MPD2    H211524   1.236   3.837  11.615 -0.2667  1.1710  0.3904
  781MPD2    H311525   1.278   3.765  11.393  0.0915 -1.2688  0.1977
  781MPD2     N11526   1.635   4.043  11.343 -0.3782  0.4195  0.5094
  781MPD2    H511527   1.624   4.030  11.243  0.9448 -1.3179  0.5895
  781MPD2    N111528   1.346   4.026  11.748  0.0602 -0.4723 -0.5850
  781MPD2    H711529   1.262   3.992  11.794  1.2037 -1.7166  0.5750
  782MPD2     C11530   3.876   0.414  10.150  0.1153 -0.0109 -0.4585
  782MPD2    C111531   4.007   0.423  10.135 -0.5957  0.9139 -0.0976
  782MPD2    C211532   4.073   0.526  10.203  0.9094 -0.0935 -0.1942
  782MPD2    C311533   4.006   0.608  10.286 -1.0064 -0.3432 -0.4806
  782MPD2    C411534   3.869   0.605  10.290  0.6134  0.4293 -0.7922
  782MPD2    C511535   3.804   0.505  10.225  0.1522 -0.2794  0.1303
  782MPD2     H11536   4.180   0.540  10.203  0.7278  1.2646  0.3021
  782MPD2    H111537   3.818   0.679  10.350  0.0108  0.5516 -1.4590
  782MPD2    H211538   3.823   0.330  10.107  0.4086 -0.3750 -0.1086
  782MPD2    H311539   3.696   0.495  10.222 -0.0674  2.4007 -0.4980
  782MPD2     N11540   4.085   0.702  10.357  0.3724 -0.3841 -0.2389
  782MPD2    H511541   4.184   0.678  10.361 -0.0927 -2.4924 -1.3930
  782MPD2    N111542   4.074   0.311  10.084  0.3684 -0.2931  0.4444
  782MPD2    H711543   4.020   0.225  10.093  2.3440 -1.5272  0.6190
  783MPD2     C11544   4.072   4.491  10.727  0.4693 -0.3602  0.1344
  783MPD2    C111545   4.049   4.625  10.711  0.3814 -0.3444  0.9639
  783MPD2    C211546   4.099   4.696  10.604  0.0259  0.6156  0.3200
  783MPD2    C311547   4.184   4.627  10.514  0.7007  0.3813 -0.3414
  783MPD2    C411548   4.207   4.495  10.537  0.2094  0.1845 -0.4518
  783MPD2    C511549   4.147   4.419  10.633 -0.2121 -0.0622 -0.2028
  783MPD2     H11550   4.080   0.081  10.594  0.1888  0.5461 -0.7822
  783MPD2    H111551   4.270   4.447  10.463  0.0296  0.3956 -0.7410
  783MPD2    H211552   4.043   4.434  10.814 -0.3366  2.1639  1.5156
  783MPD2    H311553   4.166   4.312  10.625 -0.6881 -0.1704  0.1555
  783MPD2     N11554   4.223   4.689  10.396 -0.4921  0.1744  0.5929
  783MPD2    H511555   4.197   0.066  10.395 -0.3764  0.2056  0.6047
  783MPD2    N111556   3.959   4.678  10.803 -0.2757 -0.2852 -0.1388
  783MPD2    H711557   3.896   4.609  10.843  0.4774  0.2767  2.0325
  784MPD2     C11558   1.594   0.899   0.880 -0.2785 -0.6374 -0.0861
  784MPD2    C111559   1.459   0.915   0.902 -0.0496  0.8387  0.5553
  784MPD2    C211560   1.396   1.019   0.836 -0.2995 -0.0719 -0.1326
  784MPD2    C311561   1.464   1.107   0.755  0.0470 -0.6796 -0.1856
  784MPD2    C411562   1.600   1.095   0.741  0.0775  0.7403  0.5269
  784MPD2    C511563   1.662   0.988   0.800 -0.2669 -0.1027  0.1022
  784MPD2     H11564   1.289   1.028   0.851 -0.4952 -0.9691 -0.9940
  784MPD2    H111565   1.662   1.163   0.683  1.6161  0.1395  1.4504
  784MPD2    H211566   1.658   0.834   0.939  1.3788  0.9562 -0.1143
  784MPD2    H311567   1.769   0.982   0.787 -0.5554  0.5031 -2.4254
  784MPD2     N11568   1.385   1.188   0.676 -0.0191  0.4695 -0.3260
  784MPD2    H511569   1.287   1.187   0.703  0.4149 -1.8184  1.1380
  784MPD2    N111570   1.386   0.845   1.003  0.3982  0.7159  0.4201
  784MPD2    H711571   1.297   0.888   1.025 -0.4114 -1.9368  2.3258
  785MPD2     C11572   1.881   2.833  10.000  0.1975  1.1823  0.2796
  785MPD2    C111573   1.773   2.797  10.080 -0.2056 -0.8013  0.7346
  785MPD2    C211574   1.674   2.717  10.023 -0.6290  0.3166 -0.6881
  785MPD2    C311575   1.675   2.703   9.888  0.4594  0.2279  0.8089
  785MPD2    C411576   1.783   2.725   9.812 -0.6226  0.4491  0.4734
  785MPD2    C511577   1.885   2.786   9.870  0.6490  0.4520  0.3029
  785MPD2     H11578   1.589   2.683  10.081  0.4444  0.7021  1.1106
  785MPD2    H111579   1.788   2.705   9.705 -0.6705 -0.1319  0.5808
  785MPD2    H211580   1.968   2.885  10.037 -0.7225  1.6488  1.7827
  785MPD2    H311581   1.969   2.821   9.811  1.2336  1.1523  1.5739
  785MPD2     N11582   1.549   2.652   9.842 -0.3536 -0.1356 -1.0226
  785MPD2    H511583   1.484   2.621   9.913  0.9347 -0.2894  0.0679
  785MPD2    N111584   1.757   2.832  10.216  0.4068 -0.5238  0.0143
  785MPD2    H711585   1.661   2.823  10.247  0.7875  1.3612  1.7257
  786MPD2     C11586   4.606   1.770  14.751  0.2924 -0.6164 -0.2034
  786MPD2    C111587   0.016   1.777  14.731 -0.0053 -0.0212  0.1740
  786MPD2    C211588   0.110   1.789  14.834  0.0884  1.0280 -0.4262
  786MPD2    C311589   0.075   1.803  14.963 -0.2674 -0.1219 -0.6575
  786MPD2    C411590   4.660   1.809  14.986  0.2645  0.5966 -0.1276
  786MPD2    C511591   4.567   1.797  14.885  0.1134  0.1558  0.0392
  786MPD2     H11592   0.215   1.785  14.810 -0.1565  0.6888 -1.4280
  786MPD2    H111593   4.615   1.825  15.083 -1.2727 -1.4571 -0.5058
  786MPD2    H211594   4.532   1.765  14.672 -0.2812 -2.8576  0.4609
  786MPD2    H311595   4.463   1.794  14.917  0.7468 -3.2110  1.7202
  786MPD2     N11596   0.165   1.812  15.066 -0.7211  0.4900  0.2392
  786MPD2    H511597   0.128   1.818  15.160  0.9662  1.2669  0.8476
  786MPD2    N111598   0.068   1.759  14.602  0.0921  0.5602 -0.7769
  786MPD2    H711599   0.168   1.770  14.589 -0.0486  2.2886 -0.3337
  787MPD2     C11600   0.579   1.570  14.708 -0.1598  0.5884  0.6963
  787MPD2    C111601   0.553   1.506  14.582 -0.0734  0.4752  0.4690
  787MPD2    C211602   0.638   1.395  14.550 -0.3312 -0.4157  0.1752
  787MPD2    C311603   0.731   1.342  14.637 -0.2963  0.2425 -0.0463
  787MPD2    C411604   0.736   1.402  14.762  0.0882 -0.2849 -0.1852
  787MPD2    C511605   0.672   1.517  14.796  0.3378  0.5993 -0.2282
  787MPD2     H11606   0.627   1.338  14.458 -2.9375  1.0316 -0.3908
  787MPD2    H111607   0.803   1.362  14.837 -0.1368  0.6214  0.5022
  787MPD2    H211608   0.544   1.670  14.729  2.3230  1.9977 -1.8305
  787MPD2    H311609   0.691   1.562  14.892  0.7874  0.0181 -0.0469
  787MPD2     N11610   0.808   1.226  14.609  0.0878 -0.1131 -0.6657
  787MPD2    H511611   0.816   1.203  14.510  0.6925 -0.2884 -0.5798
  787MPD2    N111612   0.443   1.531  14.509  0.5123  0.8238 -0.1772
  787MPD2    H711613   0.389   1.613  14.536  0.9459  1.6402 -1.7825
  788MPD2     C11614   1.899   4.087   1.129 -0.1651  0.3661 -0.0552
  788MPD2    C111615   1.947   4.015   1.019  0.6788 -0.2658 -0.2913
  788MPD2    C211616   1.982   4.082   0.904  0.3476 -0.0996 -0.1637
  788MPD2    C311617   1.973   4.217   0.901 -0.3323  0.0298 -0.8826
  788MPD2    C411618   1.924   4.295   1.006  0.0084 -0.2933  0.1317
  788MPD2    C511619   1.896   4.230   1.120  0.2171 -0.8184  0.1543
  788MPD2     H11620   2.026   4.022   0.825  1.3823 -0.0833  0.3932
  788MPD2    H111621   1.921   4.403   0.998 -0.8344 -0.3019  0.3732
  788MPD2    H211622   1.865   4.039   1.220  0.6241 -1.7575 -0.8853
  788MPD2    H311623   1.870   4.291   1.206 -3.1006 -2.4769  0.3105
  788MPD2     N11624   2.010   4.291   0.787  0.0393  0.3729  0.0105
  788MPD2    H511625   2.020   4.391   0.796  1.0025  0.1302  1.6779
  788MPD2    N111626   1.926   3.878   1.006 -0.5236 -0.0882 -0.2340
  788MPD2    H711627   1.944   3.850   0.910  0.8496  1.0814 -0.3320
  789MPD2     C11628   2.677   0.133  15.694 -0.6256 -0.1287  0.1703
  789MPD2    C111629   2.653   0.020  15.764 -0.8288  0.1732 -1.0233
  789MPD2    C211630   2.536   0.021  15.843  0.2960 -0.7204  0.0389
  789MPD2    C311631   2.466   0.140  15.870  0.7463 -0.1593  0.8862
  789MPD2    C411632   2.495   0.253  15.797  0.0641  0.4007 -0.8309
  789MPD2    C511633   2.599   0.242  15.706 -0.3604 -0.4277 -0.8959
  789MPD2     H11634   2.509   4.651  15.896  1.7027 -0.9424  0.3672
  789MPD2    H111635   2.453   0.346  15.834 -1.8802 -1.0096  0.5239
  789MPD2    H211636   2.757   0.138  15.621  0.4544  1.2511  1.4417
  789MPD2    H311637   2.632   0.328  15.648 -1.1935 -1.1559 -2.4559
  789MPD2     N11638   2.364   0.154  15.964 -0.2940  0.4251  0.5239
  789MPD2    H511639   2.318   0.243  15.955  0.1285  0.4875 -0.9551
  789MPD2    N111640   2.745   4.627  15.766  0.0475 -0.3760 -0.1644
  789MPD2    H711641   2.722   4.546  15.823  0.7161 -0.4139  0.0543
  790MPD2     C11642   3.369   1.693  13.521 -0.4642 -0.5207 -0.5493
  790MPD2    C111643   3.495   1.637  13.503  0.1956 -0.3873 -0.7904
  790MPD2    C211644   3.558   1.651  13.377  0.3787  0.0678  0.3265
  790MPD2    C311645   3.496   1.712  13.268  0.1033  0.1609  0.0965
  790MPD2    C411646   3.364   1.756  13.281  0.2698  0.3585 -0.1532
  790MPD2    C511647   3.312   1.754  13.409  0.2044 -0.6865 -0.3603
  790MPD2     H11648   3.657   1.609  13.364  0.1717 -0.2292 -0.2804
  790MPD2    H111649   3.305   1.811  13.209  0.2590 -1.9206 -1.8885
  790MPD2    H211650   3.312   1.692  13.613  0.5845 -0.9507  0.0959
  790MPD2    H311651   3.215   1.795  13.433  1.4602  1.6645  0.8330
  790MPD2     N11652   3.566   1.715  13.142  0.0738 -0.5706  0.1492
  790MPD2    H511653   3.663   1.686  13.141  0.5296  0.9458  0.9305
  790MPD2    N111654   3.547   1.565  13.619  0.1540 -0.0525  0.0868
  790MPD2    H711655   3.482   1.559  13.696  0.1837 -1.4989 -0.0055
  791MPD2     C11656   3.236   1.897  12.456  0.1617  0.1977  0.3285
  791MPD2    C111657   3.303   1.782  12.487  0.3121 -0.1498  0.2788
  791MPD2    C211658   3.242   1.657  12.476  0.4704 -0.6027 -0.1479
  791MPD2    C311659   3.103   1.649  12.449 -0.1912 -0.4548 -0.0794
  791MPD2    C411660   3.038   1.761  12.398  0.0392  0.2791 -0.1393
  791MPD2    C511661   3.107   1.882  12.411  0.6822 -0.8502 -0.5704
  791MPD2     H11662   3.295   1.565  12.501  0.1826 -0.6644  0.2334
  791MPD2    H111663   2.934   1.753  12.367  0.4302 -2.9651 -0.6477
  791MPD2    H211664   3.295   1.988  12.454 -0.9753  0.8865 -2.4155
  791MPD2    H311665   3.046   1.969  12.390  0.0473 -1.5290 -1.5494
  791MPD2     N11666   3.050   1.517  12.454  0.4211  0.0267  0.8064
  791MPD2    H511667   3.118   1.445  12.474  1.4009  0.1165 -2.1136
  791MPD2    N111668   3.433   1.796  12.552 -0.0517 -0.0434 -0.3085
  791MPD2    H711669   3.456   1.889  12.584 -1.1038 -0.3708  1.3993
  792MPD2     C11670   4.131   1.325  10.923 -0.4321 -0.2909  0.5162
  792MPD2    C111671   4.039   1.350  10.828 -0.2126  0.1827 -0.0981
  792MPD2    C211672   3.945   1.253  10.797  0.1565 -0.1158  0.4415
  792MPD2    C311673   3.935   1.135  10.868 -0.2412 -0.7816 -0.0451
  792MPD2    C411674   4.026   1.120  10.971  0.2545 -0.2279  0.6446
  792MPD2    C511675   4.124   1.211  10.995  0.4149 -0.1999  0.1338
  792MPD2     H11676   3.882   1.252  10.708 -1.4222 -0.3939  1.5616
  792MPD2    H111677   4.027   1.022  11.018 -0.3960 -0.1779  0.7659
  792MPD2    H211678   4.213   1.386  10.959  0.2134 -0.0646 -1.3237
  792MPD2    H311679   4.205   1.189  11.064  1.1097 -0.1015 -0.6445
  792MPD2     N11680   3.856   1.022  10.837  0.7129  0.0001  0.1466
  792MPD2    H511681   3.887   0.939  10.887  0.8723 -1.3895 -2.2941
  792MPD2    N111682   4.050   1.478  10.763 -0.4375 -0.2503  0.1023
  792MPD2    H711683   4.125   1.541  10.787  0.2826 -0.9440 -0.3060
  793MPD2     C11684   3.285   0.770  10.006  0.0995  0.4303  0.1294
  793MPD2    C111685   3.408   0.831  10.017  0.1908  0.5640 -0.2159
  793MPD2    C211686   3.470   0.842  10.133  0.2765 -0.0849 -0.3217
  793MPD2    C311687   3.418   0.786  10.247  0.2837  0.3945 -0.4304
  793MPD2    C411688   3.296   0.731  10.247  0.4122 -0.1762  0.0142
  793MPD2    C511689   3.232   0.716  10.127  0.0143 -0.5016 -0.0728
  793MPD2     H11690   3.567   0.890  10.130 -0.1715  1.0135  3.1924
  793MPD2    H111691   3.235   0.695  10.330 -1.3084  0.9040 -0.7754
  793MPD2    H211692   3.232   0.769   9.912 -2.0590 -0.8253  1.3527
  793MPD2    H311693   3.133   0.677  10.110 -1.1846  2.8171 -0.8094
  793MPD2     N11694   3.492   0.798  10.365 -0.3300 -0.4100 -0.4160
  793MPD2    H511695   3.568   0.865  10.365  1.0071 -1.9400  1.5442
  793MPD2    N111696   3.472   0.884   9.908 -0.0248  0.1467 -0.0682
  793MPD2    H711697   3.561   0.928   9.930  0.6588 -0.8797 -0.7606
  794MPD2     C11698   3.380   0.130  16.206 -0.1685  0.7733 -0.3200
  794MPD2    C111699   3.267   0.153  16.283 -0.0111  0.3003  0.6522
  794MPD2    C211700   3.191   0.264  16.241  0.6968  0.2484  0.2839
  794MPD2    C311701   3.233   0.332  16.120  0.3119 -0.3114 -0.1573
  794MPD2    C411702   3.341   0.299  16.046 -0.6305  0.1753 -0.3028
  794MPD2    C511703   3.415   0.193  16.092  0.1677  0.3473 -0.1060
  794MPD2     H11704   3.104   0.290  16.299  0.9405  2.7980 -0.4852
  794MPD2    H111705   3.375   0.355  15.960  0.6258 -0.9774 -0.5501
  794MPD2    H211706   3.449   0.049  16.228 -0.0424  1.1251  0.5590
  794MPD2    H311707   3.504   0.172  16.033 -0.2016 -0.8033 -0.2570
  794MPD2     N11708   3.173   0.456  16.083  0.0915 -0.2551 -0.0088
  794MPD2    H511709   3.223   0.502  16.008 -2.5937 -0.3977 -1.8972
  794MPD2    N111710   3.237   0.089  16.404 -0.0016  0.2112  0.4082
  794MPD2    H711711   3.154   0.114  16.457 -1.7212  0.2429 -2.3164
  795MPD2     C11712   0.539   3.257  13.784 -0.1346  0.2313 -0.0673
  795MPD2    C111713   0.479   3.152  13.717  0.1738 -0.3382 -0.2097
  795MPD2    C211714   0.480   3.033  13.780 -0.5243 -0.1335  0.3968
  795MPD2    C311715   0.532   3.014  13.904 -0.6690  0.3965 -0.3300
  795MPD2    C411716   0.582   3.121  13.976  0.0886 -0.2710 -0.1675
  795MPD2    C511717   0.580   3.244  13.913  0.2976  0.3914 -0.4439
  795MPD2     H11718   0.444   2.954  13.715 -2.0398  1.0460 -0.2133
  795MPD2    H111719   0.614   3.122  14.080 -0.7620  0.2737  0.0858
  795MPD2    H211720   0.549   3.356  13.742  0.1618  0.1748 -0.1348
  795MPD2    H311721   0.610   3.331  13.971 -2.4708  0.9430  0.1695
  795MPD2     N11722   0.539   2.881  13.949 -0.4170  0.3791 -0.0574
  795MPD2    H511723   0.488   2.809  13.901 -1.8744  0.9623  0.6272
  795MPD2    N111724   0.426   3.163  13.587  0.3370  0.4892 -0.7618
  795MPD2    H711725   0.372   3.087  13.547 -0.3651  0.5329  0.0942
  796MPD2     C11726   0.842   4.550  15.756  0.8319  0.6277 -0.3052
  796MPD2    C111727   0.911   4.587  15.869  1.2404  0.4303 -1.1707
  796MPD2    C211728   0.863   4.695  15.938  0.8137 -0.3958  0.8727
  796MPD2    C311729   0.758   0.052  15.890  0.7551  0.1307  0.4631
  796MPD2    C411730   0.687   0.016  15.774  0.0226  0.4726  0.2080
  796MPD2    C511731   0.727   4.622  15.712  0.2294  0.3601  0.3063
  796MPD2     H11732   0.901   4.713  16.038 -0.4739 -0.5304  1.3914
  796MPD2    H111733   0.603   0.076  15.742 -1.7930 -2.9708 -1.4992
  796MPD2    H211734   0.875   4.467  15.695 -0.9977 -1.0453  0.9794
  796MPD2    H311735   0.681   4.600  15.617 -1.2299 -0.8954  1.3116
  796MPD2     N11736   0.725   0.164  15.975  0.1161 -0.4237 -0.3065
  796MPD2    H511737   0.795   0.193  16.042 -0.6536 -1.0130  0.7508
  796MPD2    N111738   1.010   4.506  15.925 -0.6242 -0.2949  0.0024
  796MPD2    H711739   1.036   4.423  15.872 -1.4891 -0.8632  0.4685
  797MPD2     C11740   2.083   4.002  17.447  0.6229 -0.4350  0.0171
  797MPD2    C111741   2.143   3.941  17.346 -0.3033 -0.3183  0.3631
  797MPD2    C211742   2.155   4.007  17.222 -0.3277 -0.7666  0.5334
  797MPD2    C311743   2.112   4.137  17.201  0.1021  0.1162  0.6130
  797MPD2    C411744   2.036   4.193  17.303  0.8541 -0.0713 -0.2747
  797MPD2    C511745   2.021   4.120  17.422 -0.5131 -1.3094 -0.0797
  797MPD2     H11746   2.203   3.957  17.139 -3.0197 -1.2378 -0.7500
  797MPD2    H111747   1.995   4.293  17.294 -0.4786 -0.6099 -0.0639
  797MPD2    H211748   2.071   3.953  17.543 -1.1180 -1.0373 -0.4937
  797MPD2    H311749   1.972   4.171  17.504  2.4565  2.0787 -0.4049
  797MPD2     N11750   2.134   4.195  17.080  0.6152  0.7518 -0.1726
  797MPD2    H511751   2.195   4.149  17.014  1.2649  1.2585  0.0773
  797MPD2    N111752   2.213   3.820  17.355 -0.3306 -0.2496  0.3738
  797MPD2    H711753   2.262   3.795  17.269 -0.9767  0.4926 -0.2063
  798MPD2     C11754   2.542   3.811  16.692  0.5940  0.2772  0.0457
  798MPD2    C111755   2.435   3.864  16.758  0.4482 -0.7719  0.4769
  798MPD2    C211756   2.393   3.793  16.867  0.3789 -0.3447  0.0759
  798MPD2    C311757   2.454   3.678  16.901 -0.0058  1.2141  0.6912
  798MPD2    C411758   2.538   3.608  16.813 -0.1725  0.1551 -0.2527
  798MPD2    C511759   2.576   3.677  16.706  0.0432 -0.3812  0.5199
  798MPD2     H11760   2.320   3.836  16.935 -0.0917  0.5241 -1.0027
  798MPD2    H111761   2.575   3.507  16.829  0.0660  0.0057 -1.7284
  798MPD2    H211762   2.581   3.872  16.611  1.4850  2.1023  1.8591
  798MPD2    H311763   2.647   3.634  16.637 -0.6645  1.1857 -1.1657
  798MPD2     N11764   2.426   3.632  17.033 -0.2300 -0.4196  0.0824
  798MPD2    H511765   2.368   3.697  17.086  0.6033  1.8225 -1.7440
  798MPD2    N111766   2.396   3.997  16.728 -0.2289 -0.1958  0.8566
  798MPD2    H711767   2.422   4.042  16.641 -1.9991  1.0935  1.0002
  799MPD2     C11768   0.490   0.875  14.666 -0.3584  0.7337  0.3893
  799MPD2    C111769   0.424   0.793  14.566  0.8691  0.0233  0.0550
  799MPD2    C211770   0.365   0.862  14.459 -0.3249 -0.0212  0.3118
  799MPD2    C311771   0.385   0.998  14.444  0.3439 -0.5739 -0.2046
  799MPD2    C411772   0.446   1.075  14.543  0.2826 -0.5196  0.4128
  799MPD2    C511773   0.491   1.010  14.650 -0.0190  0.1410 -1.1649
  799MPD2     H11774   0.314   0.802  14.384 -0.1640  3.6332 -2.7068
  799MPD2    H111775   0.454   1.182  14.528  0.3082 -0.6264 -0.3433
  799MPD2    H211776   0.538   0.830  14.752  2.1552  1.2527 -0.7481
  799MPD2    H311777   0.533   1.071  14.729  1.3903 -2.3415 -0.0144
  799MPD2     N11778   0.326   1.076  14.343  0.1988  0.0646  0.2367
  799MPD2    H511779   0.332   1.177  14.334  1.8612 -0.0086  0.6081
  799MPD2    N111780   0.416   0.652  14.576 -0.2061 -0.3461 -0.4153
  799MPD2    H711781   0.361   0.603  14.505  3.3236 -1.0718 -2.6230
  800MPD2     C11782   0.945   1.649  14.063  0.0956 -0.4367 -0.3497
  800MPD2    C111783   1.014   1.769  14.084 -0.1660  0.3057  0.2118
  800MPD2    C211784   1.048   1.850  13.980  0.0906 -0.2795 -0.3573
  800MPD2    C311785   1.016   1.812  13.854  1.0048  0.3269  0.3163
  800MPD2    C411786   0.933   1.704  13.838 -0.0580 -0.4443 -0.0831
  800MPD2    C511787   0.894   1.628  13.943  0.0029  0.1663  0.2044
  800MPD2     H11788   1.113   1.936  13.996  0.7441 -0.8911  0.2934
  800MPD2    H111789   0.901   1.676  13.738 -0.3613 -2.1853  0.5093
  800MPD2    H211790   0.923   1.580  14.143 -2.1812  0.0869 -0.5136
  800MPD2    H311791   0.850   1.529  13.929 -1.9491  1.3454 -2.0368
  800MPD2     N11792   1.068   1.886  13.744  0.2896 -0.0402 -0.0714
  800MPD2    H511793   1.111   1.972  13.777 -0.6582 -0.0428  1.2077
  800MPD2    N111794   1.070   1.797  14.213  0.4513 -0.0684  0.1256
  800MPD2    H711795   1.074   1.719  14.278 -0.3646 -1.0567 -1.0142
  801MPD2     C11796   1.301   2.472  14.665  0.1317  0.5548 -0.7528
  801MPD2    C111797   1.198   2.392  14.640 -0.1769  0.1387  0.2329
  801MPD2    C211798   1.067   2.439  14.651 -0.2892  0.0485  0.5320
  801MPD2    C311799   1.045   2.570  14.686  0.0729  0.6813  0.0568
  801MPD2    C411800   1.161   2.655  14.704 -0.1306  0.1521 -0.3330
  801MPD2    C511801   1.285   2.606  14.697  0.0444  0.0355  0.0058
  801MPD2     H11802   0.985   2.371  14.632 -0.1355 -0.7154  2.6817
  801MPD2    H111803   1.159   2.760  14.730  0.4406  0.3686 -1.1804
  801MPD2    H211804   1.404   2.438  14.658 -0.5509 -1.9867  1.5007
  801MPD2    H311805   1.370   2.673  14.702  0.2004 -0.1971  0.4679
  801MPD2     N11806   0.920   2.632  14.695 -0.2767 -0.0105 -0.1857
  801MPD2    H511807   0.924   2.729  14.722 -3.0985  0.1608 -0.3731
  801MPD2    N111808   1.210   2.260  14.605 -0.0937  0.4985  0.0540
  801MPD2    H711809   1.120   2.216  14.596 -0.5594  1.6181 -0.8016
  802MPD2     C11810   0.464   1.700  16.733 -0.3772  0.0648 -0.3440
  802MPD2    C111811   0.450   1.831  16.779 -0.1777  0.7107  0.2935
  802MPD2    C211812   0.532   1.933  16.722 -0.0891 -0.4929  0.9178
  802MPD2    C311813   0.627   1.900  16.626 -0.1956  0.6353  0.2628
  802MPD2    C411814   0.628   1.774  16.571 -0.4881 -0.3338 -0.2042
  802MPD2    C511815   0.547   1.674  16.626 -0.3485  0.3813  0.4310
  802MPD2     H11816   0.511   2.036  16.749  0.0212 -0.3232  0.3422
  802MPD2    H111817   0.691   1.739  16.490  2.2060 -0.3548  1.8855
  802MPD2    H211818   0.386   1.629  16.756  1.8066 -1.5115  2.1571
  802MPD2    H311819   0.547   1.579  16.575 -2.3654  0.4472  0.3163
  802MPD2     N11820   0.711   2.008  16.588  0.2098  0.3111 -0.4946
  802MPD2    H511821   0.694   2.099  16.631 -0.7812  0.2559 -0.7659
  802MPD2    N111822   0.347   1.877  16.873 -0.1539 -0.0356  0.3166
  802MPD2    H711823   0.323   1.975  16.866 -0.0058 -0.0114  0.1604
  803MPD2     C11824   2.012   1.633  11.621 -0.2130 -0.1312 -0.5135
  803MPD2    C111825   2.056   1.600  11.745 -0.1007  0.0234 -0.7321
  803MPD2    C211826   2.063   1.472  11.785 -0.6347  0.0672  0.4379
  803MPD2    C311827   2.016   1.374  11.700 -0.3312  0.0277  0.9105
  803MPD2    C411828   1.959   1.408  11.580 -0.3555  0.4153 -0.0402
  803MPD2    C511829   1.954   1.537  11.536 -0.3454  0.4276 -0.0415
  803MPD2     H11830   2.125   1.452  11.871 -2.2596  1.1361  1.8599
  803MPD2    H111831   1.919   1.334  11.512 -1.4859 -0.1072  1.2071
  803MPD2    H211832   2.016   1.736  11.589  0.4810 -0.2181 -0.7253
  803MPD2    H311833   1.925   1.564  11.435  1.1837 -0.0538 -0.6137
  803MPD2     N11834   2.021   1.240  11.721 -0.1682 -0.0814 -0.0730
  803MPD2    H511835   1.959   1.175  11.674 -0.3166  0.2126 -0.2793
  803MPD2    N111836   2.103   1.694  11.832 -0.0384 -0.5890  0.2768
  803MPD2    H711837   2.169   1.661  11.902  1.3876  0.8219 -0.3951
  804MPD2     C11838   0.849   2.382  16.937 -0.0592 -0.0645  0.1737
  804MPD2    C111839   0.819   2.339  17.065 -0.1982  0.9985  0.3522
  804MPD2    C211840   0.856   2.411  17.177  0.0597 -0.0342 -0.2070
  804MPD2    C311841   0.903   2.537  17.170 -0.5016  0.0891  0.2238
  804MPD2    C411842   0.923   2.585  17.043 -0.4137 -0.0307  0.0393
  804MPD2    C511843   0.906   2.507  16.931 -0.0056 -0.0054 -0.0666
  804MPD2     H11844   0.827   2.371  17.274  1.2826  0.1657  0.2423
  804MPD2    H111845   0.946   2.688  17.019  1.9053 -0.4549  0.3881
  804MPD2    H211846   0.817   2.328  16.849 -3.2644  1.1236  0.6161
  804MPD2    H311847   0.924   2.543  16.830  2.4719 -1.3656 -0.1223
  804MPD2     N11848   0.936   2.615  17.286 -0.0086  0.3137 -0.4762
  804MPD2    H511849   0.908   2.577  17.376 -1.6656 -0.4729 -1.3252
  804MPD2    N111850   0.767   2.206  17.083 -0.0903  0.0620 -0.5868
  804MPD2    H711851   0.756   2.183  17.181  1.8593 -0.3772 -0.4663
  805MPD2     C11852   0.042   0.946  15.369 -0.0306 -0.4475 -0.5647
  805MPD2    C111853   0.153   1.014  15.310 -0.1360  0.0599 -0.3540
  805MPD2    C211854   0.266   1.026  15.394  0.2193  0.0591 -0.0357
  805MPD2    C311855   0.281   0.968  15.517  0.2145 -0.2933  0.6506
  805MPD2    C411856   0.162   0.909  15.578 -0.8645  0.2756  0.1555
  805MPD2    C511857   0.056   0.891  15.492  0.4807 -0.1989 -0.0400
  805MPD2     H11858   0.354   1.079  15.358 -0.5748  0.5807 -1.2164
  805MPD2    H111859   0.152   0.868  15.678 -0.5722 -2.0799 -0.7853
  805MPD2    H211860   4.665   0.930  15.326 -0.4097 -1.9421  0.8722
  805MPD2    H311861   4.691   0.840  15.534 -0.3251  2.4314  1.5126
  805MPD2     N11862   0.401   0.993  15.581 -0.3396 -0.8158  0.1689
  805MPD2    H511863   0.467   1.044  15.524 -1.9976 -1.8905 -2.7198
  805MPD2    N111864   0.161   1.040  15.168 -0.1489 -0.4468  0.3021
  805MPD2    H711865   0.253   1.067  15.133  0.8317 -2.7286  1.1283
  806MPD2     C11866   1.607   0.307   0.449 -0.0698  0.1108 -0.5685
  806MPD2    C111867   1.539   0.413   0.507 -0.3801  0.4047 -0.4975
  806MPD2    C211868   1.564   0.549   0.466 -0.3652 -0.1024 -0.2336
  806MPD2    C311869   1.648   0.573   0.359 -0.3586 -0.4113  0.4442
  806MPD2    C411870   1.700   0.462   0.296  0.1497  0.1003 -0.2374
  806MPD2    C511871   1.687   0.335   0.341 -0.2584 -0.4036  0.0181
  806MPD2     H11872   1.508   0.634   0.504  1.3783  1.3769 -0.9760
  806MPD2    H111873   1.752   0.477   0.202  2.2866  1.5137  1.1630
  806MPD2    H211874   1.591   0.207   0.487 -0.2944  0.3852  0.0653
  806MPD2    H311875   1.723   0.253   0.281 -0.6294 -0.5198 -0.0406
  806MPD2     N11876   1.647   0.705   0.306  0.4127 -0.5822 -0.1290
  806MPD2    H511877   1.587   0.771   0.355  1.5932 -0.9627  1.8285
  806MPD2    N111878   1.449   0.381   0.611  0.6435 -0.0603  0.6262
  806MPD2    H711879   1.455   0.282   0.631 -1.0043  0.0252  1.5438
  807MPD2     C11880   0.659   0.652   0.888 -0.1118  0.1292  0.5414
  807MPD2    C111881   0.694   0.527   0.935  0.3667 -0.2594  0.7807
  807MPD2    C211882   0.597   0.463   1.010 -0.4194  0.1507 -0.3822
  807MPD2    C311883   0.478   0.516   1.030 -0.0933 -0.3186 -0.0016
  807MPD2    C411884   0.436   0.632   0.972  0.1992 -0.2253 -0.0099
  807MPD2    C511885   0.528   0.698   0.890 -0.4422 -0.6557 -0.1339
  807MPD2     H11886   0.626   0.370   1.058  1.7901  0.0191 -1.9325
  807MPD2    H111887   0.338   0.672   0.994  0.1337  0.9033 -2.4095
  807MPD2    H211888   0.722   0.729   0.846  0.0329 -0.3059 -0.0517
  807MPD2    H311889   0.486   0.785   0.842 -0.1108 -0.3954  0.0480
  807MPD2     N11890   0.395   0.436   1.106  0.2868  0.1267 -0.6350
  807MPD2    H511891   0.431   0.347   1.139  0.7891 -0.2823 -2.2819
  807MPD2    N111892   0.829   0.480   0.926 -0.2130  0.2978  0.5868
  807MPD2    H711893   0.848   0.385   0.956 -1.5577  0.1008  0.8005
  808MPD2     C11894   1.709   1.638   9.029  0.3344 -0.1096  0.1390
  808MPD2    C111895   1.589   1.705   9.047  0.6253  0.7044  0.3138
  808MPD2    C211896   1.581   1.842   9.060  0.0108  0.5865  0.2126
  808MPD2    C311897   1.702   1.913   9.079  0.2182  0.7577 -0.8204
  808MPD2    C411898   1.821   1.849   9.066  0.0873  0.5261 -0.2556
  808MPD2    C511899   1.822   1.710   9.039 -0.4331 -0.5056 -0.1336
  808MPD2     H11900   1.485   1.890   9.052 -0.1565  0.3880  1.0375
  808MPD2    H111901   1.911   1.909   9.073 -0.6432  1.2450  2.5996
  808MPD2    H211902   1.709   1.530   9.019 -1.5098 -0.0355 -0.7383
  808MPD2    H311903   1.918   1.661   9.048 -0.0661  0.0121 -1.2605
  808MPD2     N11904   1.700   2.056   9.102  0.2114  0.0883 -0.1184
  808MPD2    H511905   1.790   2.102   9.112  1.5691 -2.6364  0.2264
  808MPD2    N111906   1.470   1.633   9.048 -0.6231 -0.0048  0.0355
  808MPD2    H711907   1.379   1.678   9.053  0.5682  2.1358  2.5252
  809MPD2     C11908   2.366   2.748   9.132  0.1262 -1.4600  0.8343
  809MPD2    C111909   2.341   2.612   9.112 -0.2579 -0.0112  0.0151
  809MPD2    C211910   2.212   2.564   9.102  0.1736  0.0092 -0.0701
  809MPD2    C311911   2.101   2.643   9.094  0.6743 -0.8214 -0.7768
  809MPD2    C411912   2.126   2.778   9.105  0.5881 -0.1026  0.0523
  809MPD2    C511913   2.253   2.826   9.126 -0.1744 -0.2152 -0.5682
  809MPD2     H11914   2.206   2.455   9.097  1.2308 -0.2080  2.9852
  809MPD2    H111915   2.045   2.851   9.110 -0.8373 -1.4984 -2.5060
  809MPD2    H211916   2.464   2.786   9.155  1.5832 -3.1705 -2.4826
  809MPD2    H311917   2.277   2.932   9.135 -1.9799  0.0722  0.7841
  809MPD2     N11918   1.969   2.588   9.100  0.8492  0.1209  0.6454
  809MPD2    H511919   1.895   2.657   9.109  0.8406  0.1513  0.3568
  809MPD2    N111920   2.441   2.512   9.122  0.0923 -0.1241  0.6466
  809MPD2    H711921   2.412   2.417   9.141  0.4247 -0.6815 -1.7022
  810MPD2     C11922   1.315   1.700   9.711  0.1733 -0.3053 -0.9176
  810MPD2    C111923   1.215   1.624   9.772  0.1448  0.8263 -0.2114
  810MPD2    C211924   1.199   1.650   9.913  0.7124  0.2401 -0.4051
  810MPD2    C311925   1.276   1.750   9.979 -0.1675  0.1867  0.4906
  810MPD2    C411926   1.380   1.807   9.915  0.8299 -0.2756 -0.6593
  810MPD2    C511927   1.395   1.782   9.783  0.1556  0.6540  0.2666
  810MPD2     H11928   1.133   1.581   9.964  2.4548 -0.6197  0.6993
  810MPD2    H111929   1.438   1.887   9.960  3.6703 -2.4087 -0.5222
  810MPD2    H211930   1.327   1.701   9.603  1.8507  0.5091 -0.7063
  810MPD2    H311931   1.479   1.833   9.737  0.0249  0.5349 -0.1038
  810MPD2     N11932   1.247   1.785  10.112 -0.0753  0.5229  0.3201
  810MPD2    H511933   1.325   1.825  10.163 -0.5998 -0.5064  1.9484
  810MPD2    N111934   1.140   1.533   9.695  0.2341 -0.4333 -0.7301
  810MPD2    H711935   1.161   1.542   9.596 -0.9861  3.3774 -0.6468
  811MPD2     C11936   0.469   1.464   9.150  0.6617 -0.1152  0.1551
  811MPD2    C111937   0.540   1.548   9.230 -0.4344 -0.3161  0.4681
  811MPD2    C211938   0.525   1.680   9.220  0.8523 -0.4701  0.1971
  811MPD2    C311939   0.435   1.734   9.129  0.4792 -0.5068  0.8191
  811MPD2    C411940   0.370   1.651   9.046 -0.0220 -0.5788 -0.0514
  811MPD2    C511941   0.383   1.516   9.056 -0.3656  0.5152 -0.6979
  811MPD2     H11942   0.576   1.738   9.297 -3.7186  1.0540  2.0540
  811MPD2    H111943   0.295   1.691   8.979 -0.0800 -0.5176  0.0497
  811MPD2    H211944   0.492   1.358   9.145  0.0977 -0.2764  0.9870
  811MPD2    H311945   0.319   1.439   9.015 -1.5198  1.2684 -0.3289
  811MPD2     N11946   0.417   1.877   9.123  0.5543  0.0854  0.1216
  811MPD2    H511947   0.459   1.925   9.202  0.2390 -0.5501  0.6726
  811MPD2    N111948   0.625   1.485   9.328  0.2561 -0.0357  0.6158
  811MPD2    H711949   0.628   1.384   9.340  0.0875 -0.1391 -0.2198
  812MPD2     C11950   4.058   1.559  12.227  0.3889 -0.2372 -0.2427
  812MPD2    C111951   4.176   1.489  12.202  0.2511  0.0912  0.0607
  812MPD2    C211952   4.175   1.360  12.266  0.3761  0.0959  0.2902
  812MPD2    C311953   4.071   1.314  12.348  0.0050 -0.1421  0.1714
  812MPD2    C411954   3.964   1.401  12.378  0.0919 -0.0508 -0.0777
  812MPD2    C511955   3.965   1.520  12.320  0.1478  0.1163 -0.5175
  812MPD2     H11956   4.261   1.295  12.259  0.6637  0.7409 -2.5513
  812MPD2    H111957   3.893   1.374  12.454  2.1145 -1.6086  1.2489
  812MPD2    H211958   4.051   1.653  12.172  1.2564 -0.2353 -0.3583
  812MPD2    H311959   3.886   1.592  12.341  0.4517  0.1772  0.4383
  812MPD2     N11960   4.088   1.187  12.401  0.1335  0.5734  0.6225
  812MPD2    H511961   4.177   1.142  12.385  0.0464  0.1864  1.2332
  812MPD2    N111962   4.272   1.535  12.112  0.2419 -1.1230 -0.7318
  812MPD2    H711963   4.260   1.629  12.077 -2.7528 -1.2922 -0.1100
  813MPD2     C11964   3.509   2.901  12.606 -0.2639  0.4765 -0.3537
  813MPD2    C111965   3.572   3.012  12.657 -0.0162  0.5056 -0.0510
  813MPD2    C211966   3.532   3.064  12.782  0.7596  0.0396 -0.6302
  813MPD2    C311967   3.435   2.991  12.857  0.0586  0.7455 -0.4044
  813MPD2    C411968   3.384   2.873  12.812 -0.6852 -0.0308 -0.8519
  813MPD2    C511969   3.426   2.831  12.690  1.0843 -0.5151 -0.5633
  813MPD2     H11970   3.567   3.157  12.825 -2.2291  0.4309  0.9477
  813MPD2    H111971   3.302   2.819  12.858  1.6511 -1.9684  1.0418
  813MPD2    H211972   3.523   2.874  12.502  0.9102 -1.4269  0.3030
  813MPD2    H311973   3.377   2.746  12.645 -2.2883 -0.7740  3.6304
  813MPD2     N11974   3.414   3.040  12.995 -0.3177 -0.5067 -0.2522
  813MPD2    H511975   3.473   3.117  13.026  0.6708 -0.9418 -1.0742
  813MPD2    N111976   3.673   3.079  12.583 -0.2434  0.0621  0.3347
  813MPD2    H711977   3.725   3.146  12.638 -0.8558 -0.7530  1.8972
  814MPD2     C11978   4.106   4.452  12.227 -0.1786 -0.2529 -0.4247
  814MPD2    C111979   4.145   4.500  12.099  0.2277 -1.0991 -0.2223
  814MPD2    C211980   4.239   4.602  12.093 -0.2654  0.5746  0.3546
  814MPD2    C311981   4.293   4.662  12.203  0.1123 -0.1569 -0.3810
  814MPD2    C411982   4.246   4.617  12.325  0.3849  0.0135  0.4487
  814MPD2    C511983   4.157   4.518  12.338 -0.4570  1.0464 -0.4223
  814MPD2     H11984   4.275   4.639  11.997  1.1909  2.0262  1.4698
  814MPD2    H111985   4.279   4.667  12.415 -0.8332 -3.6534  2.9291
  814MPD2    H211986   4.041   4.368  12.244 -1.2264  0.3255 -1.5555
  814MPD2    H311987   4.127   4.492  12.439  1.1153  0.9373  0.0177
  814MPD2     N11988   4.366   0.063  12.199 -0.1803 -0.0027 -0.3600
  814MPD2    H511989   4.396   0.091  12.292 -0.4739 -1.3221  0.1417
  814MPD2    N111990   4.101   4.447  11.977 -0.9018  0.0604 -0.1915
  814MPD2    H711991   4.140   4.483  11.891  1.2649  0.9165  1.1405
  815MPD2     C11992   4.714   3.503  11.169  0.7427  0.4275  0.2813
  815MPD2    C111993   4.716   3.363  11.174 -0.0884 -0.2240  0.0563
  815MPD2    C211994   4.694   3.298  11.291 -0.2359  0.6687 -0.5304
  815MPD2    C311995   4.666   3.368  11.403  0.2496  0.0081  0.6831
  815MPD2    C411996   4.672   3.503  11.405 -0.1509 -0.5890 -0.0438
  815MPD2    C511997   4.701   3.571  11.288 -0.1089  0.0575 -0.3890
  815MPD2     H11998   4.684   3.191  11.302 -1.1256  0.7752 -0.2652
  815MPD2    H111999   4.676   3.557  11.499  0.6589  0.1987 -0.5212
  815MPD2    H212000   0.008   3.559  11.077 -0.2710 -1.2322 -0.8929
  815MPD2    H312001   4.700   3.680  11.286  0.7902  0.0478 -1.2090
  815MPD2     N12002   4.641   3.284  11.513  0.0788 -0.7716 -0.7503
  815MPD2    H512003   4.638   3.187  11.486 -0.0802 -0.9003 -0.2659
  815MPD2    N112004   0.017   3.294  11.055 -0.4833  0.3378 -0.0157
  815MPD2    H712005   0.012   3.345  10.968 -0.1621  0.0117 -0.2261
  816MPD2     C12006   3.647   1.684  17.184 -0.7161  1.0805  1.1246
  816MPD2    C112007   3.748   1.764  17.223  0.2326 -0.2640 -0.1550
  816MPD2    C212008   3.874   1.726  17.200 -0.4040  0.1722 -0.2775
  816MPD2    C312009   3.899   1.607  17.141 -0.4650  0.5261  0.1514
  816MPD2    C412010   3.793   1.526  17.112 -0.0593  0.3125 -0.1012
  816MPD2    C512011   3.667   1.557  17.135 -0.2550  0.0701  0.5267
  816MPD2     H12012   3.960   1.788  17.221 -0.0012 -0.1488 -0.9945
  816MPD2    H112013   3.810   1.436  17.053 -0.1452 -1.6437  2.8834
  816MPD2    H212014   3.547   1.706  17.218 -0.1306  1.7887  2.4247
  816MPD2    H312015   3.585   1.491  17.108  0.0083  0.5150 -1.3683
  816MPD2     N12016   4.034   1.571  17.110  0.4901 -0.0129 -0.4727
  816MPD2    H512017   4.100   1.648  17.117 -1.3001  1.4766  0.0968
  816MPD2    N112018   3.717   1.879  17.301  0.4854  0.1592 -0.5382
  816MPD2    H712019   3.618   1.891  17.320  0.5213 -1.1805  0.5530
  817MPD2     C12020   3.917   3.700   9.859 -0.4346 -0.1057  0.1163
  817MPD2    C112021   3.998   3.719   9.753  0.4307 -0.1782  0.1410
  817MPD2    C212022   4.001   3.847   9.694 -0.3136  0.0888  0.8415
  817MPD2    C312023   3.943   3.952   9.760 -0.5535 -0.3280  0.2383
  817MPD2    C412024   3.867   3.929   9.881 -0.2899 -0.0039 -0.2832
  817MPD2    C512025   3.850   3.802   9.923 -0.7878 -0.1389 -0.3553
  817MPD2     H12026   4.061   3.855   9.604 -0.1616  0.9085  1.0087
  817MPD2    H112027   3.810   4.007   9.931  1.6929  0.8125  0.6919
  817MPD2    H212028   3.915   3.606   9.912 -2.6150 -0.3880 -0.4459
  817MPD2    H312029   3.784   3.768  10.003  0.3849  0.9320  1.0702
  817MPD2     N12030   3.956   4.078   9.707 -0.2714  0.2568 -0.1741
  817MPD2    H512031   3.990   4.087   9.612 -0.2880  0.8280 -0.1237
  817MPD2    N112032   4.056   3.604   9.690 -0.4563  0.3387 -0.2822
  817MPD2    H712033   4.084   3.612   9.593  2.2616  1.0969  0.5531
  818MPD2     C12034   2.994   2.869   9.855 -1.0866 -0.1070 -0.7454
  818MPD2    C112035   3.009   2.872   9.994  0.7370 -0.4977  0.1853
  818MPD2    C212036   3.066   2.764  10.060 -0.4366  0.5202 -0.2380
  818MPD2    C312037   3.115   2.658   9.996 -0.4225  0.4013 -0.4848
  818MPD2    C412038   3.099   2.658   9.861 -0.6557  0.0933 -0.2093
  818MPD2    C512039   3.035   2.752   9.791 -0.0773  0.2957 -0.3126
  818MPD2     H12040   3.074   2.782  10.167  2.2365 -0.6400 -0.2350
  818MPD2    H112041   3.133   2.570   9.807 -1.6060 -0.3197 -0.1374
  818MPD2    H212042   2.948   2.949   9.798  0.1295  0.1645 -1.3524
  818MPD2    H312043   3.018   2.741   9.684  2.2405 -0.1898 -0.6351
  818MPD2     N12044   3.171   2.546  10.061 -0.5628  0.2483 -0.2207
  818MPD2    H512045   3.210   2.474  10.002  0.5268  0.1512  0.6235
  818MPD2    N112046   2.957   2.980  10.076  0.2887  0.7186  0.2019
  818MPD2    H712047   2.968   2.970  10.177  1.0327  0.4258  0.0880
  819MPD2     C12048   0.736   0.820  15.466  0.4066  0.2391  0.4219
  819MPD2    C112049   0.775   0.690  15.492  0.1348 -0.0296 -0.0271
  819MPD2    C212050   0.886   0.666  15.571 -0.3455 -0.2191 -0.0639
  819MPD2    C312051   0.954   0.776  15.620  0.0743  0.4877  0.8572
  819MPD2    C412052   0.918   0.909  15.583  0.3315  0.0517  0.0523
  819MPD2    C512053   0.812   0.925  15.504  0.4518  0.2674 -0.2480
  819MPD2     H12054   0.923   0.566  15.593 -0.8727 -1.1915 -3.5240
  819MPD2    H112055   0.977   0.994  15.616 -1.4541  1.0684  0.6327
  819MPD2    H212056   0.645   0.838  15.410 -0.6697 -2.4553  1.3155
  819MPD2    H312057   0.779   1.023  15.473 -1.8310  0.2011  2.0324
  819MPD2     N12058   1.068   0.750  15.700 -0.8169  0.3854 -0.5837
  819MPD2    H512059   1.097   0.653  15.713 -1.0854  0.3851  0.0451
  819MPD2    N112060   0.692   0.588  15.438 -0.2348 -0.1976  0.0206
  819MPD2    H712061   0.605   0.615  15.393 -0.6951 -0.1696  0.9282
  820MPD2     C12062   0.012   0.472  14.854  0.5193  0.0070 -0.1632
  820MPD2    C112063   0.128   0.545  14.869 -0.5241 -0.4258  0.0782
  820MPD2    C212064   0.241   0.487  14.927 -0.0315 -0.3576  0.3335
  820MPD2    C312065   0.230   0.360  14.986  0.0096  0.2344 -0.2832
  820MPD2    C412066   0.120   0.285  14.973  0.1366  0.0490 -0.0522
  820MPD2    C512067   0.020   0.336  14.896 -0.0940  0.3696 -0.5371
  820MPD2     H12068   0.330   0.547  14.945 -0.2857 -0.1061  0.7627
  820MPD2    H112069   0.113   0.186  15.016  1.4102  0.9836  2.3266
  820MPD2    H212070   4.641   0.512  14.811  1.4441  1.8810 -0.3861
  820MPD2    H312071   4.652   0.274  14.888 -0.2636  0.5194  0.1676
  820MPD2     N12072   0.337   0.296  15.064 -0.0367  0.6140  0.8526
  820MPD2    H512073   0.304   0.212  15.111 -1.5098 -0.0881 -1.4358
  820MPD2    N112074   0.129   0.672  14.822 -0.3235 -0.9247 -0.1932
  820MPD2    H712075   0.037   0.703  14.792 -0.9136 -0.6799  1.8968
  821MPD2     C12076   1.343   2.070  12.928  0.4635  0.1388  0.5192
  821MPD2    C112077   1.421   2.088  13.040 -0.3103 -0.0348 -0.1580
  821MPD2    C212078   1.532   2.173  13.028  0.0998 -0.4806 -0.6310
  821MPD2    C312079   1.551   2.238  12.910 -0.1772 -0.1727 -0.1255
  821MPD2    C412080   1.470   2.214  12.803 -0.0388  0.0079  0.1089
  821MPD2    C512081   1.363   2.128  12.812  0.2572  0.4183  0.5814
  821MPD2     H12082   1.598   2.192  13.112  0.7522  0.1226 -1.2761
  821MPD2    H112083   1.483   2.268  12.710 -0.7346 -0.0493 -0.0210
  821MPD2    H212084   1.260   2.000  12.930  1.9198 -1.6920 -3.1248
  821MPD2    H312085   1.297   2.111  12.728 -1.6725 -4.1489  3.0444
  821MPD2     N12086   1.666   2.317  12.889 -0.2291 -0.3839  0.0541
  821MPD2    H512087   1.675   2.372  12.804 -0.0922  0.8384  0.8491
  821MPD2    N112088   1.389   2.038  13.170 -0.2500  0.3739 -0.4345
  821MPD2    H712089   1.454   2.067  13.243 -0.8736 -0.5616  0.4887
  822MPD2     C12090   1.702   1.923  15.706  0.4981  0.1625 -0.4797
  822MPD2    C112091   1.694   1.870  15.829  0.0651 -1.0965  0.0297
  822MPD2    C212092   1.614   1.937  15.925 -1.2412  0.1581 -1.3156
  822MPD2    C312093   1.560   2.061  15.903  0.3027 -0.2366  0.8879
  822MPD2    C412094   1.558   2.102  15.773  0.0043  0.1370 -0.4288
  822MPD2    C512095   1.632   2.038  15.675  0.3182  0.0313  0.1705
  822MPD2     H12096   1.604   1.906  16.029  0.6634  1.7426 -0.6653
  822MPD2    H112097   1.507   2.192  15.743  2.3443  1.2981 -0.8936
  822MPD2    H212098   1.756   1.876  15.624  0.2671 -0.2301 -0.4059
  822MPD2    H312099   1.632   2.071  15.571 -1.9312  0.4506  0.2982
  822MPD2     N12100   1.496   2.138  16.005  0.6314 -0.2428 -0.1344
  822MPD2    H512101   1.486   2.089  16.093  2.3229 -0.0593  0.1713
  822MPD2    N112102   1.752   1.745  15.866  0.0964  0.5545 -0.4413
  822MPD2    H712103   1.728   1.711  15.959  2.3698 -0.4540 -0.2080
  823MPD2     C12104   1.100   2.167  16.732  0.0517 -0.4183  0.0636
  823MPD2    C112105   1.191   2.115  16.639  1.0124 -0.0817  0.5006
  823MPD2    C212106   1.240   1.985  16.657  0.3475  0.3070  0.1258
  823MPD2    C312107   1.181   1.908  16.758 -0.5134  0.3264  0.3528
  823MPD2    C412108   1.082   1.954  16.838  0.5944  0.7218  0.3797
  823MPD2    C512109   1.063   2.090  16.835 -0.3620 -0.3335 -0.0958
  823MPD2     H12110   1.311   1.943  16.588  0.0314 -0.3518  0.1989
  823MPD2    H112111   1.025   1.914  16.921 -1.2139  0.8477 -0.7858
  823MPD2    H212112   1.069   2.270  16.718 -1.3608 -0.5761  1.9345
  823MPD2    H312113   0.994   2.140  16.902 -0.8997 -0.1238 -0.8048
  823MPD2     N12114   1.218   1.770  16.779  0.0505  0.2569 -1.0803
  823MPD2    H512115   1.169   1.717  16.851  1.6035  1.2032  0.6699
  823MPD2    N112116   1.243   2.201  16.540 -0.1307  0.4001 -0.2814
  823MPD2    H712117   1.229   2.301  16.551 -2.6834  0.1672 -1.4642
  824MPD2     C12118   1.821   0.995  15.593 -0.1548 -0.1281 -0.2269
  824MPD2    C112119   1.927   1.082  15.602  0.6568  0.1159 -0.6537
  824MPD2    C212120   2.035   1.051  15.524 -0.1390  0.1699 -1.0931
  824MPD2    C312121   2.056   0.943  15.443  0.4192  0.3772  0.5470
  824MPD2    C412122   1.953   0.850  15.449 -0.2676  0.0251 -0.5810
  824MPD2    C512123   1.833   0.880  15.521  0.2656 -0.1573 -0.2613
  824MPD2     H12124   2.118   1.121  15.519 -0.4967  0.6952  0.4805
  824MPD2    H112125   1.956   0.763  15.384 -0.0896  1.2544 -2.1852
  824MPD2    H212126   1.730   0.999  15.651  0.3177  1.0629  0.4402
  824MPD2    H312127   1.746   0.817  15.511  1.0465 -0.9494 -2.0333
  824MPD2     N12128   2.168   0.931  15.366  0.4668 -0.6017  0.2901
  824MPD2    H512129   2.234   1.006  15.382 -0.8250  1.1060 -2.3031
  824MPD2    N112130   1.926   1.184  15.702 -0.4095  0.1329  0.0570
  824MPD2    H712131   2.000   1.254  15.695 -0.0162 -0.2220  0.6600
  825MPD2     C12132   2.893   1.167  15.395 -0.5927  0.1375 -0.5226
  825MPD2    C112133   2.796   1.189  15.300 -0.0921  0.0821 -0.4515
  825MPD2    C212134   2.778   1.308  15.239 -0.4086  0.5825  0.5446
  825MPD2    C312135   2.856   1.418  15.269  0.6091  0.0762  0.0946
  825MPD2    C412136   2.959   1.399  15.359 -0.8410 -0.9606  0.0468
  825MPD2    C512137   2.971   1.279  15.423 -0.3780  0.4967 -0.7055
  825MPD2     H12138   2.699   1.323  15.166 -0.8637 -0.5292  0.8169
  825MPD2    H112139   3.028   1.478  15.386 -2.1790 -0.1818  1.1518
  825MPD2    H212140   2.906   1.068  15.436  0.6387 -0.1290 -1.5581
  825MPD2    H312141   3.057   1.275  15.489 -0.6803 -0.6548 -0.3839
  825MPD2     N12142   2.845   1.540  15.202  0.4337  0.5135 -0.2297
  825MPD2    H512143   2.908   1.614  15.231  1.7935 -0.9782  0.6614
  825MPD2    N112144   2.717   1.075  15.281  0.1862  0.4086  0.7891
  825MPD2    H712145   2.737   0.985  15.325 -0.7750 -0.2600 -0.1199
  826MPD2     C12146   2.933   0.830  13.724  0.2253 -0.0270  0.0050
  826MPD2    C112147   2.826   0.820  13.634 -0.0050 -0.0280 -0.1654
  826MPD2    C212148   2.708   0.888  13.664 -0.2498  0.4285  0.2776
  826MPD2    C312149   2.687   0.968  13.777 -0.3213 -0.2604 -0.2979
  826MPD2    C412150   2.798   0.972  13.864  0.4288  0.1483 -0.1854
  826MPD2    C512151   2.913   0.900  13.842  0.9788  0.0858  0.0246
  826MPD2     H12152   2.625   0.880  13.595  1.0609 -4.9379 -0.6765
  826MPD2    H112153   2.802   1.027  13.958 -0.0531 -0.5091  0.2162
  826MPD2    H212154   3.034   0.795  13.708 -0.0286 -0.3170 -0.9587
  826MPD2    H312155   2.993   0.909  13.915  1.7213 -0.4443 -0.7277
  826MPD2     N12156   2.565   1.029  13.821 -0.0520 -0.3890 -0.1650
  826MPD2    H512157   2.573   1.097  13.896 -0.0907  0.2236 -0.7185
  826MPD2    N112158   2.840   0.748  13.516  0.3152 -0.0350 -0.1849
  826MPD2    H712159   2.922   0.689  13.504 -0.3794 -1.0679  0.0975
  827MPD2     C12160   3.511   2.489   9.913  0.4822  0.5099  0.1417
  827MPD2    C112161   3.575   2.376   9.951  0.7937  0.6128 -0.4394
  827MPD2    C212162   3.537   2.259   9.882 -0.2990 -0.8792  0.4281
  827MPD2    C312163   3.432   2.267   9.790  0.5298  0.6462  0.1604
  827MPD2    C412164   3.383   2.385   9.741  0.1739 -0.0071  0.2847
  827MPD2    C512165   3.428   2.493   9.806 -0.0089  0.9542 -0.0032
  827MPD2     H12166   3.571   2.164   9.921 -0.8926 -0.7898  1.1722
  827MPD2    H112167   3.317   2.406   9.658  0.1792 -2.9357 -0.4566
  827MPD2    H212168   3.535   2.578   9.970 -0.7496 -0.0883  1.5676
  827MPD2    H312169   3.396   2.595   9.789  1.5144  1.3098 -0.6749
  827MPD2     N12170   3.394   2.138   9.739 -0.4281  0.4313  0.2581
  827MPD2    H512171   3.433   2.052   9.776  1.3468  1.2782  0.3668
  827MPD2    N112172   3.664   2.382  10.071 -0.2619 -0.6197  0.3136
  827MPD2    H712173   3.656   2.463  10.132 -0.9733 -0.7962  0.4550
  828MPD2     C12174   2.071   2.437  12.320 -0.4284  0.3538 -0.3190
  828MPD2    C112175   2.009   2.361  12.219  0.8429 -0.4704  0.3946
  828MPD2    C212176   2.075   2.323  12.107  0.2439 -0.8686  0.1324
  828MPD2    C312177   2.209   2.350  12.103 -0.0416  0.1969 -0.2907
  828MPD2    C412178   2.272   2.425  12.203 -0.0870 -0.3221 -0.1824
  828MPD2    C512179   2.198   2.465  12.310 -0.7581 -0.1134 -0.0291
  828MPD2     H12180   2.031   2.254  12.035 -0.8044 -0.0745  0.0016
  828MPD2    H112181   2.378   2.448  12.200 -0.3578  1.2027  1.6129
  828MPD2    H212182   2.031   2.478  12.413 -0.1362 -1.4786  0.6254
  828MPD2    H312183   2.239   2.529  12.387 -1.8569  1.1281 -0.4724
  828MPD2     N12184   2.287   2.301  11.993 -0.0878  0.5308  0.2143
  828MPD2    H512185   2.389   2.301  11.998 -0.0636 -1.9898 -0.2053
  828MPD2    N112186   1.874   2.326  12.230  0.4495 -0.6939 -0.2846
  828MPD2    H712187   1.826   2.296  12.146 -1.3316  1.4251 -0.0190
  829MPD2     C12188   1.054   2.245  11.712  0.3823  0.3346  0.0323
  829MPD2    C112189   1.165   2.329  11.696  0.8705 -0.6400 -0.4652
  829MPD2    C212190   1.268   2.319  11.793  0.0283  0.3565 -0.3917
  829MPD2    C312191   1.254   2.225  11.892 -0.0859 -0.1022  0.1265
  829MPD2    C412192   1.133   2.153  11.902 -0.4744 -0.2951 -0.4650
  829MPD2    C512193   1.031   2.164  11.818 -0.2029  0.1665  0.0416
  829MPD2     H12194   1.357   2.380  11.786  0.3919 -0.1769 -0.3437
  829MPD2    H112195   1.118   2.086  11.986  2.7427 -0.4436  0.0140
  829MPD2    H212196   0.989   2.238  11.626 -0.4432 -0.8649  0.7572
  829MPD2    H312197   0.943   2.103  11.834 -1.1502  0.9319 -2.2821
  829MPD2     N12198   1.352   2.207  11.994  0.2346  0.2461  0.0475
  829MPD2    H512199   1.336   2.137  12.065  1.7236  0.8037  0.9476
  829MPD2    N112200   1.180   2.403  11.575 -0.4360  0.4732  0.0480
  829MPD2    H712201   1.095   2.434  11.530 -1.1208 -2.2305 -0.5503
  830MPD2     C12202   1.847   0.506  15.570  0.6333 -0.1991  0.3534
  830MPD2    C112203   1.731   0.527  15.500  0.8392 -0.4484 -0.0912
  830MPD2    C212204   1.737   0.552  15.368 -0.3114  0.6681 -0.5377
  830MPD2    C312205   1.859   0.541  15.300 -0.4416 -0.4204 -1.2885
  830MPD2    C412206   1.971   0.513  15.363  1.2786 -0.3519 -0.0100
  830MPD2    C512207   1.968   0.498  15.506  0.3525 -0.6646 -0.3048
  830MPD2     H12208   1.648   0.578  15.312 -0.4791  0.3039 -0.4364
  830MPD2    H112209   2.069   0.510  15.317  0.9470 -0.4454 -0.6975
  830MPD2    H212210   1.861   0.504  15.678 -2.3461 -0.3614  0.7320
  830MPD2    H312211   2.062   0.473  15.555  0.4105  0.9582  0.4022
  830MPD2     N12212   1.874   0.566  15.169 -0.7448  0.0974 -0.3570
  830MPD2    H512213   1.966   0.548  15.131  0.1823  2.3339  0.8547
  830MPD2    N112214   1.614   0.528  15.579 -0.7089 -0.6303  0.0899
  830MPD2    H712215   1.631   0.505  15.676 -2.6576 -1.4654  0.2241
  831MPD2     C12216   1.770   2.150  16.290  0.6206 -0.9550 -0.5244
  831MPD2    C112217   1.828   2.039  16.227 -0.6406 -0.0794  0.3175
  831MPD2    C212218   1.759   1.919  16.236  0.2278  0.7601 -0.4432
  831MPD2    C312219   1.647   1.908  16.314 -0.2003  0.3248 -0.5750
  831MPD2    C412220   1.616   2.008  16.400  0.0551 -0.0944 -0.7256
  831MPD2    C512221   1.682   2.123  16.395  0.2363 -0.3895  0.0726
  831MPD2     H12222   1.786   1.839  16.169 -1.8878  0.0826 -0.4975
  831MPD2    H112223   1.531   1.997  16.468  0.4348  1.0002 -0.0718
  831MPD2    H212224   1.812   2.250  16.287 -0.6080 -0.3892  0.9634
  831MPD2    H312225   1.664   2.207  16.460 -0.1746 -1.6637  1.5974
  831MPD2     N12226   1.548   1.802  16.298  0.1635 -0.4747 -0.3075
  831MPD2    H512227   1.461   1.819  16.347 -0.0962 -0.3469 -0.8108
  831MPD2    N112228   1.930   2.068  16.128 -0.7404  0.1700 -0.3627
  831MPD2    H712229   1.946   2.165  16.103  1.5297 -0.1495 -0.1658
  832MPD2     C12230   0.336   2.894  17.263 -0.1157 -0.1256  0.1480
  832MPD2    C112231   0.265   3.014  17.284 -0.4194 -0.1108  0.2623
  832MPD2    C212232   0.132   3.021  17.237  0.3232  0.1559  0.5211
  832MPD2    C312233   0.071   2.905  17.182  0.1394  0.1969  0.1445
  832MPD2    C412234   0.143   2.788  17.172  0.0626 -0.1129 -0.0640
  832MPD2    C512235   0.268   2.782  17.223 -0.0653  0.3338 -0.1259
  832MPD2     H12236   0.072   3.111  17.238 -0.6450 -0.4907  0.4943
  832MPD2    H112237   0.098   2.695  17.141 -0.0934  0.0707 -0.3909
  832MPD2    H212238   0.438   2.890  17.300 -0.2328  2.6533  0.7982
  832MPD2    H312239   0.320   2.688  17.209 -0.6904 -0.2105  1.2348
  832MPD2     N12240   4.662   2.908  17.123 -0.0022  1.3311  0.2703
  832MPD2    H512241   4.626   2.821  17.087  0.0050  1.9095 -1.1287
  832MPD2    N112242   0.336   3.119  17.346  0.1704  0.7024  0.3622
  832MPD2    H712243   0.425   3.091  17.385 -0.3650 -2.3281 -0.5969
  833MPD2     C12244   2.312   4.509  12.638 -0.8930  0.0306 -0.5338
  833MPD2    C112245   2.371   4.581  12.541  0.0521 -0.0815  0.6517
  833MPD2    C212246   2.479   4.522  12.467  0.6464 -0.2258  0.4557
  833MPD2    C312247   2.522   4.395  12.491 -0.0198  0.7623  0.5129
  833MPD2    C412248   2.462   4.319  12.595  0.2550 -0.3955 -0.3413
  833MPD2    C512249   2.359   4.376  12.664 -0.2150 -0.5477  0.0447
  833MPD2     H12250   2.517   4.580  12.384 -0.8945  1.4126  0.8818
  833MPD2    H112251   2.490   4.215  12.610  1.2528 -0.0397  0.2482
  833MPD2    H212252   2.241   4.558  12.703  0.1132 -1.7627  1.9257
  833MPD2    H312253   2.327   4.327  12.755  0.1874 -0.1221  0.4177
  833MPD2     N12254   2.619   4.329  12.413  0.1831  0.3233 -0.6176
  833MPD2    H512255   2.643   4.236  12.446  0.5601  1.0999  1.2753
  833MPD2    N112256   2.327   4.718  12.522 -0.1196  0.6364  0.2453
  833MPD2    H712257   2.249   0.031  12.578  0.5936 -0.5627  1.9819
  834MPD2     C12258   2.649   3.641  11.691 -0.9191  0.0957 -0.4413
  834MPD2    C112259   2.676   3.757  11.622 -0.6244 -0.1595  0.5801
  834MPD2    C212260   2.698   3.880  11.694  0.1057  0.3891 -0.2233
  834MPD2    C312261   2.685   3.885  11.829 -0.5631  0.1132  0.4971
  834MPD2    C412262   2.652   3.768  11.896 -0.8387  0.1325 -0.2008
  834MPD2    C512263   2.652   3.649  11.829 -0.0682  0.2001 -0.5579
  834MPD2     H12264   2.725   3.974  11.647 -0.9462  0.5467 -0.5199
  834MPD2    H112265   2.646   3.771  12.004 -1.3304 -1.7448 -0.1834
  834MPD2    H212266   2.628   3.547  11.641 -0.7589 -0.5305  0.6699
  834MPD2    H312267   2.645   3.555  11.884  1.1272  0.3849 -0.0904
  834MPD2     N12268   2.704   4.009  11.887  0.0375 -0.5688 -0.1563
  834MPD2    H512269   2.725   4.084  11.822 -2.2094  0.5622  0.4018
  834MPD2    N112270   2.703   3.739  11.482 -0.1677 -0.5290  0.1661
  834MPD2    H712271   2.686   3.648  11.441  3.3682 -2.1733  2.4064
  835MPD2     C12272   3.075   2.120  11.037  0.4186 -0.1366 -0.7830
  835MPD2    C112273   2.948   2.171  11.054  0.5688 -0.4129 -0.8135
  835MPD2    C212274   2.921   2.227  11.175  0.6296  0.2464  0.2319
  835MPD2    C312275   3.024   2.248  11.271 -0.2187  0.3797  0.4736
  835MPD2    C412276   3.150   2.207  11.246 -0.3546 -0.3532 -0.2297
  835MPD2    C512277   3.173   2.136  11.131 -0.0574  0.0153  0.3116
  835MPD2     H12278   2.817   2.256  11.176  0.1595 -1.4509  1.0539
  835MPD2    H112279   3.233   2.222  11.315 -0.1712  0.7576 -0.6804
  835MPD2    H212280   3.108   2.059  10.954 -2.4889 -1.3319 -1.0669
  835MPD2    H312281   3.276   2.115  11.104 -0.1666  0.0143 -0.1110
  835MPD2     N12282   2.997   2.321  11.393 -0.1096 -0.4792 -0.6725
  835MPD2    H512283   3.076   2.333  11.456 -0.7812 -0.0829  0.0858
  835MPD2    N112284   2.847   2.174  10.961 -0.4589 -0.4574 -0.1642
  835MPD2    H712285   2.762   2.215  10.999 -0.2608 -0.7688  0.6223
  836MPD2     C12286   2.354   2.513  11.379 -0.4023  0.1643  0.0251
  836MPD2    C112287   2.377   2.542  11.504  0.4966 -0.1672  0.4082
  836MPD2    C212288   2.271   2.578  11.590  0.3780 -0.5985  0.0984
  836MPD2    C312289   2.146   2.605  11.539 -0.0338 -1.0327 -0.4477
  836MPD2    C412290   2.124   2.565  11.406 -0.3291  0.5733  0.1519
  836MPD2    C512291   2.229   2.530  11.329 -0.4138 -0.1046  0.4161
  836MPD2     H12292   2.294   2.581  11.696  1.8678 -0.5785 -0.2236
  836MPD2    H112293   2.023   2.581  11.371 -0.5289  0.0767  0.5020
  836MPD2    H212294   2.435   2.478  11.315 -1.7865 -1.4333 -0.8251
  836MPD2    H312295   2.217   2.525  11.221  1.7020 -0.2353  0.1780
  836MPD2     N12296   2.029   2.631  11.623  0.1969 -0.7115  0.7890
  836MPD2    H512297   1.936   2.614  11.589 -0.6724  0.7681  2.4173
  836MPD2    N112298   2.511   2.531  11.553  0.3338 -0.2969  0.5238
  836MPD2    H712299   2.582   2.538  11.481 -0.6253 -2.1887 -0.6343
  837MPD2     C12300   0.448   2.478   9.576  0.1537 -0.4390  0.4375
  837MPD2    C112301   0.405   2.515   9.457 -0.0869  0.7438 -0.3045
  837MPD2    C212302   0.355   2.647   9.429 -0.2475  0.6213 -0.3204
  837MPD2    C312303   0.343   2.742   9.532  0.7985  0.2956 -0.2890
  837MPD2    C412304   0.383   2.696   9.655  0.4163 -0.3780 -0.2894
  837MPD2    C512305   0.433   2.572   9.678 -0.4144  0.2598 -0.1006
  837MPD2     H12306   0.338   2.667   9.324 -0.4952 -0.1596 -0.4311
  837MPD2    H112307   0.386   2.759   9.743  1.1782  0.5414 -0.9660
  837MPD2    H212308   0.479   2.376   9.598 -2.1112 -1.3314 -0.5289
  837MPD2    H312309   0.453   2.549   9.782  1.4124 -0.3532 -0.5879
  837MPD2     N12310   0.275   2.855   9.498 -0.6087 -0.2653  0.8854
  837MPD2    H512311   0.244   2.869   9.402 -0.4529  0.2642  0.9136
  837MPD2    N112312   0.419   2.431   9.342 -0.8124  0.2701  0.3173
  837MPD2    H712313   0.403   2.476   9.252 -3.0763 -1.1354  0.0296
  838MPD2     C12314   3.442   0.479  11.621 -0.7776 -0.4090  0.8000
  838MPD2    C112315   3.518   0.415  11.719 -0.5376 -0.3505 -0.1874
  838MPD2    C212316   3.459   0.309  11.788  0.8867  0.0322  1.5229
  838MPD2    C312317   3.321   0.285  11.785 -0.0419  0.1647 -0.0188
  838MPD2    C412318   3.248   0.357  11.694  0.1215 -0.4600 -0.8996
  838MPD2    C512319   3.305   0.448  11.614 -0.4792  0.3739 -0.3854
  838MPD2     H12320   3.517   0.242  11.851 -0.0950 -1.7609  0.5266
  838MPD2    H112321   3.144   0.335  11.676 -0.4081  1.0413  0.3752
  838MPD2    H212322   3.469   0.560  11.554 -2.0795  1.0139  1.9705
  838MPD2    H312323   3.238   0.490  11.540 -0.7557  2.3860  0.9991
  838MPD2     N12324   3.262   0.183  11.867  0.1065 -0.0122  0.4721
  838MPD2    H512325   3.333   0.125  11.911 -1.0784 -0.8277  1.2948
  838MPD2    N112326   3.654   0.428  11.731 -0.1450  0.5470  0.1509
  838MPD2    H712327   3.709   0.357  11.779  0.9743  0.6410 -0.9838
  839MPD2     C12328   3.675   4.500  11.819  1.0123 -0.2741 -0.4786
  839MPD2    C112329   3.658   4.538  11.687 -0.4684 -0.2891 -0.6351
  839MPD2    C212330   3.734   4.642  11.626  0.1516  0.5410  0.0897
  839MPD2    C312331   3.823   4.708  11.709 -0.1069  0.5750 -0.5301
  839MPD2    C412332   3.849   4.662  11.837  0.2136  0.9438 -0.0397
  839MPD2    C512333   3.776   4.562  11.890  0.1542  0.6756  0.1508
  839MPD2     H12334   3.700   4.674  11.528  0.3030  2.7869  0.7568
  839MPD2    H112335   3.921   4.716  11.898 -1.6324  0.8746  2.2039
  839MPD2    H212336   3.615   4.423  11.866 -1.3117  1.6832 -0.2548
  839MPD2    H312337   3.799   4.531  11.992  3.7979  1.0073 -0.5588
  839MPD2     N12338   3.892   0.106  11.672  0.3056 -0.4337  0.4356
  839MPD2    H512339   3.948   0.146  11.746 -1.1026  1.5218  0.4565
  839MPD2    N112340   3.567   4.472  11.609 -0.1251  0.6423 -0.0467
  839MPD2    H712341   3.568   4.489  11.508  0.6533  0.9950  0.0259
  840MPD2     C12342   4.094   2.806   9.991 -0.5401  0.3820  0.0316
  840MPD2    C112343   4.090   2.778  10.122  0.0675 -0.7712  0.3283
  840MPD2    C212344   4.102   2.881  10.219  0.2673 -0.3752 -0.0273
  840MPD2    C312345   4.113   3.015  10.174  0.0367  0.4622  0.2421
  840MPD2    C412346   4.115   3.037  10.038  0.2523  0.0054  0.5534
  840MPD2    C512347   4.119   2.931   9.955  0.0147  0.2078  0.3518
  840MPD2     H12348   4.107   2.871  10.327  1.8307 -2.2885 -0.2646
  840MPD2    H112349   4.148   3.131   9.997  2.8242 -0.9239  0.4732
  840MPD2    H212350   4.096   2.726   9.918 -1.7040  0.0433  0.3681
  840MPD2    H312351   4.153   2.954   9.855  3.0181 -0.0246  1.3367
  840MPD2     N12352   4.134   3.131  10.255 -0.0545  0.1977  0.0999
  840MPD2    H512353   4.158   3.216  10.205 -1.2410  0.2601 -0.3659
  840MPD2    N112354   4.085   2.645  10.163  0.6257  0.0340  0.1919
  840MPD2    H712355   4.078   2.578  10.087 -0.2527 -0.1532  0.4407
  841MPD2     C12356   2.836   2.334  15.028  0.8127  0.1136 -0.0143
  841MPD2    C112357   2.911   2.295  14.922 -0.0415  0.0747 -0.1900
  841MPD2    C212358   2.940   2.386  14.823 -0.4567  0.7658  0.8454
  841MPD2    C312359   2.884   2.511  14.828  0.2446  0.7240  0.1071
  841MPD2    C412360   2.802   2.545  14.934 -0.1121  0.5684 -0.1841
  841MPD2    C512361   2.783   2.458  15.038 -0.1776  0.0445  0.7278
  841MPD2     H12362   3.004   2.356  14.741 -0.4418  0.6323  0.9071
  841MPD2    H112363   2.767   2.645  14.957 -2.6466  0.1535 -2.2579
  841MPD2    H212364   2.805   2.266  15.107  0.3355  1.9076  1.3354
  841MPD2    H312365   2.732   2.496  15.126  0.5846  0.2223  1.0845
  841MPD2     N12366   2.907   2.597  14.723  0.2441 -0.0382  0.3432
  841MPD2    H512367   2.981   2.564  14.663  0.0864  0.3073 -0.0430
  841MPD2    N112368   2.962   2.169  14.898  0.3329  0.5749  0.7877
  841MPD2    H712369   3.010   2.156  14.809  0.3421  0.0059  0.8712
  842MPD2     C12370   4.252   3.447  17.109 -0.3756 -0.0041 -0.5467
  842MPD2    C112371   4.131   3.385  17.109 -0.2047 -0.7267 -0.3363
  842MPD2    C212372   4.095   3.320  17.222  0.8980 -0.0729  0.2509
  842MPD2    C312373   4.156   3.347  17.343  0.3919 -0.3535 -0.0126
  842MPD2    C412374   4.280   3.405  17.340  0.0177  0.6154  0.0670
  842MPD2    C512375   4.328   3.457  17.222 -0.1314  0.9551 -0.0861
  842MPD2     H12376   4.009   3.256  17.209 -0.1710  1.8211 -1.9377
  842MPD2    H112377   4.340   3.423  17.429  0.6677  1.7244 -0.6124
  842MPD2    H212378   4.299   3.484  17.018  1.0972 -4.6341 -1.6656
  842MPD2    H312379   4.427   3.499  17.214 -0.3159  1.1390 -1.4705
  842MPD2     N12380   4.097   3.305  17.466 -0.2458 -0.1693  0.3080
  842MPD2    H512381   4.166   3.318  17.539 -0.3736  0.9653  0.2360
  842MPD2    N112382   4.047   3.389  16.996  0.2162  0.0011  0.3244
  842MPD2    H712383   4.086   3.445  16.920  2.2476  0.4538  1.6834
  843MPD2     C12384   1.181   3.173  17.279 -0.8628  0.3048  0.6558
  843MPD2    C112385   1.162   3.179  17.411 -0.5436  0.3861  0.5761
  843MPD2    C212386   1.277   3.213  17.492 -0.0421  0.1121 -0.8134
  843MPD2    C312387   1.395   3.258  17.425 -0.6689  0.4341  0.0625
  843MPD2    C412388   1.403   3.258  17.288 -0.0693  0.3741  0.1363
  843MPD2    C512389   1.293   3.210  17.221 -0.1871 -0.3141  0.0852
  843MPD2     H12390   1.264   3.208  17.600  1.1410 -2.5040 -0.8008
  843MPD2    H112391   1.497   3.284  17.241 -0.8801  2.0867 -0.5514
  843MPD2    H212392   1.104   3.140  17.210  0.5282 -0.3207 -0.6136
  843MPD2    H312393   1.308   3.203  17.114  2.0082  2.3806  0.2425
  843MPD2     N12394   1.504   3.329  17.494 -0.2154  0.2857  0.0573
  843MPD2    H512395   1.570   3.357  17.423 -0.8153  2.0825  0.2270
  843MPD2    N112396   1.035   3.136  17.460 -0.8799 -0.1987  0.1690
  843MPD2    H712397   0.965   3.101  17.395 -2.5807  1.3258  1.1708
  844MPD2     C12398   4.392   2.800  16.587  0.1523  0.3146  0.1343
  844MPD2    C112399   4.489   2.703  16.613  0.1125 -0.8195  0.3756
  844MPD2    C212400   4.613   2.742  16.659 -0.7842  0.2579  0.4832
  844MPD2    C312401   4.638   2.874  16.692 -0.2216 -0.1272 -0.4551
  844MPD2    C412402   4.543   2.973  16.659  0.1704  0.1703 -0.0260
  844MPD2    C512403   4.434   2.930  16.591  0.1858  0.6111  0.1379
  844MPD2     H12404   4.695   2.672  16.677 -1.1846 -0.7069 -1.4908
  844MPD2    H112405   4.553   3.079  16.682 -0.6119  0.7764 -2.4404
  844MPD2    H212406   4.288   2.790  16.558  0.4775  1.3035 -1.4262
  844MPD2    H312407   4.368   3.009  16.557 -0.3992 -0.7925 -1.9459
  844MPD2     N12408   0.044   2.902  16.748  0.1639  0.4151 -0.0645
  844MPD2    H512409   0.101   2.820  16.767  0.7601  0.8719  0.1037
  844MPD2    N112410   4.471   2.573  16.579 -0.0992  0.0453 -0.8038
  844MPD2    H712411   4.542   2.506  16.606  0.1579  1.0074  0.8923
  845MPD2     C12412   0.437   3.728  17.252  0.5219 -0.1086 -0.9419
  845MPD2    C112413   0.316   3.666  17.276 -0.1151  0.1471  0.0723
  845MPD2    C212414   0.284   3.540  17.213 -0.2412  0.6103 -0.8300
  845MPD2    C312415   0.384   3.477  17.135 -0.4577  0.3372  0.4924
  845MPD2    C412416   0.512   3.533  17.123 -0.4041 -0.4864  0.1008
  845MPD2    C512417   0.535   3.658  17.183 -0.3153 -0.4534  0.3351
  845MPD2     H12418   0.190   3.488  17.220 -0.5073  1.6262  2.8657
  845MPD2    H112419   0.590   3.479  17.070 -1.8775 -2.4110 -0.1047
  845MPD2    H212420   0.449   3.827  17.295  0.5658 -0.8466  0.7436
  845MPD2    H312421   0.635   3.699  17.184  0.5807 -2.6152 -0.5889
  845MPD2     N12422   0.346   3.353  17.074  0.5592 -1.0728 -0.0930
  845MPD2    H512423   0.246   3.342  17.063  0.6083 -2.0343  0.3631
  845MPD2    N112424   0.236   3.735  17.364 -0.0927  0.0679 -0.1907
  845MPD2    H712425   0.259   3.828  17.397 -0.2729 -0.8332  2.4559
  846MPD2     C12426   1.572   4.220  13.260 -0.1699  0.1094 -0.5353
  846MPD2    C112427   1.510   4.341  13.296  0.0796  1.0016  0.6939
  846MPD2    C212428   1.468   4.358  13.422  0.0304 -0.2328  0.3048
  846MPD2    C312429   1.476   4.252  13.515 -0.8532  0.0356  0.2073
  846MPD2    C412430   1.528   4.133  13.476 -0.1601 -0.5936 -0.0021
  846MPD2    C512431   1.582   4.114  13.354  0.0982  0.3017  0.0928
  846MPD2     H12432   1.423   4.455  13.441  1.7297  0.1387  2.5402
  846MPD2    H112433   1.536   4.043  13.537  0.8929 -0.4686  0.0335
  846MPD2    H212434   1.626   4.211  13.166  1.8956  1.1706  0.5718
  846MPD2    H312435   1.633   4.021  13.334 -2.4671 -0.9576 -0.6296
  846MPD2     N12436   1.418   4.262  13.643 -0.6062 -0.9542 -0.7426
  846MPD2    H512437   1.359   4.338  13.675  0.6261 -0.6514  0.7812
  846MPD2    N112438   1.516   4.459  13.216  0.6779  0.7774 -0.2423
  846MPD2    H712439   1.488   4.549  13.255 -0.3405 -0.0565  0.9282
  847MPD2     C12440   1.567   0.231  13.985 -0.2479 -0.0057 -0.1353
  847MPD2    C112441   1.660   0.328  14.020 -0.5667 -0.1347  0.3052
  847MPD2    C212442   1.759   0.290  14.112 -0.0195  0.1777  0.0779
  847MPD2    C312443   1.776   0.162  14.164  0.1299  0.8115  0.4089
  847MPD2    C412444   1.684   0.063  14.119 -0.4049  0.4323 -0.6619
  847MPD2    C512445   1.586   0.095  14.026 -0.0780 -0.6945 -0.1092
  847MPD2     H12446   1.809   0.374  14.159 -1.3313  1.3284 -0.5704
  847MPD2    H112447   1.693   4.680  14.148 -3.1926 -0.3250 -2.4426
  847MPD2    H212448   1.479   0.253  13.926  0.7386  0.5199 -1.4031
  847MPD2    H312449   1.515   0.029  13.978 -1.5796 -0.3782  1.6661
  847MPD2     N12450   1.874   0.141  14.261  0.6204 -0.1428 -0.0027
  847MPD2    H512451   1.932   0.222  14.281  0.2176  0.3176 -0.7149
  847MPD2    N112452   1.658   0.466  13.989 -0.2695  0.0597 -0.3494
  847MPD2    H712453   1.715   0.530  14.043 -1.3610 -0.2849  1.2167
  848MPD2     C12454   4.147   3.323  16.566 -0.6897  0.3586 -0.4267
  848MPD2    C112455   4.261   3.340  16.641  0.0680  0.0163 -0.5847
  848MPD2    C212456   4.352   3.430  16.586 -0.0017  0.4636  0.3583
  848MPD2    C312457   4.328   3.507  16.480 -0.1169  0.0948 -0.3953
  848MPD2    C412458   4.212   3.497  16.417  0.2686  0.4764  0.2576
  848MPD2    C512459   4.125   3.393  16.456 -0.4078  0.2952 -0.5428
  848MPD2     H12460   4.450   3.439  16.632 -1.0552  2.5853  2.1505
  848MPD2    H112461   4.188   3.552  16.326 -0.2770 -3.6890 -2.1327
  848MPD2    H212462   4.069   3.254  16.596 -1.5401  1.2050 -0.6878
  848MPD2    H312463   4.035   3.366  16.402 -0.2017 -0.3146 -0.5781
  848MPD2     N12464   4.417   3.603  16.424  0.1703 -0.6271  0.3564
  848MPD2    H512465   4.379   3.652  16.343  1.5835 -0.0617  0.0282
  848MPD2    N112466   4.292   3.264  16.755 -0.0927 -0.0153  0.6466
  848MPD2    H712467   4.376   3.291  16.805 -1.0640  2.1324  1.0841
  849MPD2     C12468   3.586   3.072  13.710 -0.1092 -0.1183  0.7657
  849MPD2    C112469   3.701   3.022  13.770  0.3194  0.5291 -0.0464
  849MPD2    C212470   3.701   2.956  13.895 -0.0603 -0.3925  0.0743
  849MPD2    C312471   3.580   2.934  13.963  0.0252 -0.5195  0.0145
  849MPD2    C412472   3.460   2.978  13.906 -0.0044  0.1361  0.2240
  849MPD2    C512473   3.465   3.036  13.778  0.7534  0.0939  0.5132
  849MPD2     H12474   3.793   2.927  13.944 -0.8188  0.8494  2.2273
  849MPD2    H112475   3.360   2.970  13.948 -0.6266 -3.0682 -1.8627
  849MPD2    H212476   3.582   3.139  13.624  1.0583 -0.1444  0.6859
  849MPD2    H312477   3.377   3.071  13.725  0.4502 -0.2210  0.8153
  849MPD2     N12478   3.590   2.883  14.093  0.6594 -0.0744 -0.0649
  849MPD2    H512479   3.682   2.848  14.119 -0.8809 -3.1564  1.2455
  849MPD2    N112480   3.835   3.053  13.710  0.3705 -0.3236  0.1136
  849MPD2    H712481   3.920   3.023  13.757  0.0302 -0.5650  0.5775
  850MPD2     C12482   1.528   1.490  14.737 -0.4198  0.0932  0.2207
  850MPD2    C112483   1.598   1.571  14.828  0.2397 -0.8327  0.0759
  850MPD2    C212484   1.730   1.604  14.806 -0.3014  0.0146  0.5126
  850MPD2    C312485   1.792   1.557  14.689 -0.2102  0.3305  0.0593
  850MPD2    C412486   1.722   1.474  14.597  0.2605  0.6172  0.1750
  850MPD2    C512487   1.592   1.445  14.625  0.0558 -0.2282  0.1283
  850MPD2     H12488   1.784   1.647  14.889  2.5443  1.8436 -2.2912
  850MPD2    H112489   1.775   1.442  14.509 -2.1877 -0.1204 -1.0257
  850MPD2    H212490   1.427   1.457  14.755 -0.8662  1.1346 -0.3995
  850MPD2    H312491   1.541   1.379  14.556 -0.0562 -1.9795  1.8641
  850MPD2     N12492   1.932   1.579  14.668  0.5323 -0.1010  0.7632
  850MPD2    H512493   1.982   1.520  14.602 -1.1772  0.2147 -0.8093
  850MPD2    N112494   1.531   1.604  14.943 -0.2495 -0.4964 -0.3724
  850MPD2    H712495   1.443   1.553  14.953  0.7795 -2.4639 -1.3861
  851MPD2     C12496   2.011   1.348  15.211  0.6711  0.0656 -0.4632
  851MPD2    C112497   1.884   1.296  15.186  0.0459 -0.8447 -0.2552
  851MPD2    C212498   1.876   1.186  15.114  0.1947 -0.4860 -0.7305
  851MPD2    C312499   1.986   1.121  15.055  0.6563 -0.1616 -0.9592
  851MPD2    C412500   2.113   1.176  15.070  0.3421  0.4286 -0.3179
  851MPD2    C512501   2.123   1.288  15.150  0.0162  0.0627 -0.0453
  851MPD2     H12502   1.780   1.138  15.096 -1.0266  1.4376  0.6600
  851MPD2    H112503   2.203   1.128  15.033 -0.1878 -1.6087  1.0069
  851MPD2    H212504   2.019   1.433  15.277 -0.8552 -0.1242 -0.0319
  851MPD2    H312505   2.220   1.328  15.175  0.2778 -0.9958  0.6228
  851MPD2     N12506   1.961   1.001  14.991 -0.3143  0.0304  0.0174
  851MPD2    H512507   1.873   0.957  15.015 -1.0677  1.6829  0.2995
  851MPD2    N112508   1.773   1.371  15.232  0.1214 -0.2559  0.0967
  851MPD2    H712509   1.789   1.441  15.303 -1.0176  2.8368 -2.6390
  852MPD2     C12510   1.023   3.056   9.471  0.3587  0.7098  0.3399
  852MPD2    C112511   1.129   3.038   9.555  0.3220 -0.5068 -0.3111
  852MPD2    C212512   1.211   3.151   9.582  0.3541 -0.1731 -0.2035
  852MPD2    C312513   1.181   3.274   9.528 -0.3746 -0.2525  0.7163
  852MPD2    C412514   1.071   3.289   9.446  0.5867  0.3768  0.1365
  852MPD2    C512515   0.996   3.180   9.416 -0.1296  0.1055 -0.0283
  852MPD2     H12516   1.291   3.140   9.654  0.9363 -4.3941 -1.4785
  852MPD2    H112517   1.052   3.386   9.401 -0.0250 -0.2355 -0.9314
  852MPD2    H212518   0.955   2.977   9.441  1.1019  0.5421 -0.9074
  852MPD2    H312519   0.914   3.189   9.345  0.3144  1.3179 -0.3771
  852MPD2     N12520   1.263   3.382   9.562  0.1663 -0.7102  0.8220
  852MPD2    H512521   1.332   3.355   9.633 -0.0110  0.0238  1.2765
  852MPD2    N112522   1.176   2.917   9.619 -0.0489  0.5189  0.6560
  852MPD2    H712523   1.272   2.908   9.649  0.3294 -2.9691 -1.5659
  853MPD2     C12524   3.511   3.338  12.210  0.0024  0.1402 -0.2443
  853MPD2    C112525   3.576   3.456  12.198 -0.0947  0.0437  0.2814
  853MPD2    C212526   3.622   3.513  12.077  0.1422  0.0603 -0.0160
  853MPD2    C312527   3.583   3.449  11.963 -0.0928  0.1658 -0.3555
  853MPD2    C412528   3.523   3.331  11.967 -0.3219 -0.4555 -0.1944
  853MPD2    C512529   3.496   3.273  12.088 -0.2039  0.3885 -0.3591
  853MPD2     H12530   3.685   3.601  12.076  0.3465 -0.1078 -3.2464
  853MPD2    H112531   3.505   3.276  11.875  0.0184 -0.6867 -0.1237
  853MPD2    H212532   3.479   3.298  12.306  1.7002 -0.3590  0.1132
  853MPD2    H312533   3.436   3.182  12.084 -0.7326  0.6970  0.4890
  853MPD2     N12534   3.612   3.499  11.833  0.0911  0.0961  0.1475
  853MPD2    H512535   3.551   3.456  11.764  0.8157 -0.5606 -0.0803
  853MPD2    N112536   3.593   3.527  12.324  0.5103  0.7941  0.2702
  853MPD2    H712537   3.541   3.487  12.401  1.4905  2.5609  1.8679
  854MPD2     C12538   0.052   4.193  12.674 -0.2482  0.0139  0.2604
  854MPD2    C112539   0.129   4.143  12.574 -0.0066  0.6093 -0.4318
  854MPD2    C212540   0.216   4.038  12.595 -0.4973  0.0471 -0.1215
  854MPD2    C312541   0.238   3.997  12.724  0.5547 -0.1974  0.0223
  854MPD2    C412542   0.159   4.048  12.827 -0.7340 -0.7274  0.2463
  854MPD2    C512543   0.057   4.132  12.797 -0.2594  0.0959  0.3726
  854MPD2     H12544   0.281   4.001  12.516  2.6641  1.5901  1.7590
  854MPD2    H112545   0.177   4.006  12.925  0.7883 -0.4797  0.0820
  854MPD2    H212546   4.704   4.275  12.654  0.4146 -0.4413 -3.9293
  854MPD2    H312547   4.704   4.167  12.869 -1.5921  0.8493 -1.3697
  854MPD2     N12548   0.337   3.903  12.763  0.1007  0.3859  0.5028
  854MPD2    H512549   0.341   3.873  12.860 -1.7956  1.7007  0.9933
  854MPD2    N112550   0.108   4.204  12.447 -0.5217 -0.1095  0.4236
  854MPD2    H712551   0.030   4.267  12.433 -1.3104 -1.1887 -0.0724
  855MPD2     C12552   0.763   3.847  13.486 -0.4793  0.3339 -0.3216
  855MPD2    C112553   0.671   3.743  13.481  1.1558 -0.6250 -0.1209
  855MPD2    C212554   0.636   3.688  13.359 -0.3940 -0.1404 -0.2132
  855MPD2    C312555   0.687   3.747  13.245  0.0743 -0.7333 -0.5686
  855MPD2    C412556   0.756   3.865  13.254 -0.0263  0.1972 -1.1808
  855MPD2    C512557   0.812   3.908  13.372 -0.1773 -0.2369  1.3023
  855MPD2     H12558   0.559   3.612  13.359 -0.1028 -0.4288  1.2843
  855MPD2    H112559   0.786   3.917  13.163  0.7328 -1.4168 -1.8505
  855MPD2    H212560   0.799   3.878  13.584  2.2733  0.6274 -1.4256
  855MPD2    H312561   0.888   3.985  13.371 -0.4922  0.0931  3.0250
  855MPD2     N12562   0.649   3.716  13.113  0.7776 -0.4064 -0.7673
  855MPD2    H512563   0.669   3.772  13.031  0.4760 -0.1050 -0.6331
  855MPD2    N112564   0.628   3.673  13.603  0.0146  0.3772  0.3429
  855MPD2    H712565   0.566   3.594  13.589  0.6549  0.2139 -1.5319
  856MPD2     C12566   2.778   4.301  13.341 -1.0015 -0.5025  0.3012
  856MPD2    C112567   2.798   4.346  13.474 -0.4678  0.0259  0.8919
  856MPD2    C212568   2.760   4.478  13.509 -0.6995 -0.3844  0.5082
  856MPD2    C312569   2.699   4.560  13.419  0.4283 -0.1142 -0.3303
  856MPD2    C412570   2.699   4.517  13.289 -0.6060 -0.0675 -0.0038
  856MPD2    C512571   2.729   4.388  13.252  0.0389 -0.1566 -0.3439
  856MPD2     H12572   2.778   4.503  13.612  1.7144  0.8618 -0.2151
  856MPD2    H112573   2.655   4.575  13.209  1.0463  1.1457 -0.0354
  856MPD2    H212574   2.807   4.200  13.316 -0.5565 -0.4352  0.5490
  856MPD2    H312575   2.711   4.355  13.151  0.4637  1.1298 -0.8382
  856MPD2     N12576   2.657   4.699  13.434  0.1264 -0.9159 -0.5544
  856MPD2    H512577   2.635   0.035  13.354 -0.8027 -1.0023 -0.3690
  856MPD2    N112578   2.868   4.278  13.572  0.4193  0.3388 -0.6630
  856MPD2    H712579   2.880   4.331  13.658  1.3794 -2.1209  0.7239
  857MPD2     C12580   0.160   1.934  12.144 -0.5410  0.0669  0.4857
  857MPD2    C112581   0.087   1.932  12.263 -0.4017  0.3888 -1.0998
  857MPD2    C212582   0.030   2.045  12.314  0.3378 -0.2262 -0.3174
  857MPD2    C312583   0.049   2.163  12.247 -0.0633 -0.1261 -0.3185
  857MPD2    C412584   0.118   2.161  12.126 -0.7506  0.1863 -0.3539
  857MPD2    C512585   0.174   2.049  12.074  0.6647 -0.6228 -0.3234
  857MPD2     H12586   4.704   2.035  12.411  0.0334  3.8789 -0.0428
  857MPD2    H112587   0.132   2.250  12.066  3.2420  0.3051  0.7415
  857MPD2    H212588   0.200   1.840  12.108  1.4301  0.9561  0.3735
  857MPD2    H312589   0.237   2.049  11.986  4.0015 -0.1534  2.0653
  857MPD2     N12590   4.711   2.281  12.297 -0.3629  0.3229  0.5307
  857MPD2    H512591   4.658   2.263  12.382 -4.1939  1.5202 -1.5764
  857MPD2    N112592   0.083   1.806  12.330  0.0835 -0.0375  1.0129
  857MPD2    H712593   0.119   1.729  12.274  0.9059  2.2535 -1.5806
  858MPD2     C12594   4.521   0.459  16.787 -0.0177  0.3605  0.2035
  858MPD2    C112595   4.615   0.473  16.885  0.0799 -0.3672  0.1218
  858MPD2    C212596   4.591   0.551  16.997 -0.0644 -0.1541 -0.1865
  858MPD2    C312597   4.468   0.615  17.023  0.8023  0.7819  0.3959
  858MPD2    C412598   4.376   0.602  16.920  0.5025  0.4756 -0.1374
  858MPD2    C512599   4.404   0.530  16.807 -0.0922 -0.5976 -0.1004
  858MPD2     H12600   4.677   0.575  17.060 -1.0825  0.7133  0.8713
  858MPD2    H112601   4.286   0.662  16.926  0.7099  0.7468  0.2316
  858MPD2    H212602   4.535   0.413  16.690  3.7921 -1.0365  1.4066
  858MPD2    H312603   4.327   0.532  16.731  0.2828 -2.0245 -0.5181
  858MPD2     N12604   4.431   0.681  17.133 -0.4190  0.5553  0.1368
  858MPD2    H512605   4.337   0.718  17.126  0.4705  2.8222  0.1973
  858MPD2    N112606   0.013   0.406  16.853 -0.2826 -0.9498 -0.6212
  858MPD2    H712607   0.017   0.360  16.762  1.9835  0.8635 -1.4727
  859MPD2     C12608   3.146   2.935  15.031 -0.1470 -0.2374 -0.0791
  859MPD2    C112609   3.285   2.960  15.042  0.6594 -0.5884 -0.4552
  859MPD2    C212610   3.373   2.860  15.047 -0.8260  0.2577 -0.3364
  859MPD2    C312611   3.332   2.731  15.042 -0.1328  0.3336  0.1463
  859MPD2    C412612   3.199   2.702  15.027  0.2839 -0.9346  0.5126
  859MPD2    C512613   3.109   2.804  15.015 -0.3615 -0.4755 -0.5825
  859MPD2     H12614   3.480   2.882  15.045 -0.9724  1.1909  2.3821
  859MPD2    H112615   3.169   2.597  15.022 -1.2785 -0.4529 -0.3527
  859MPD2    H212616   3.077   3.019  15.028 -1.1931 -1.1000 -0.1066
  859MPD2    H312617   3.007   2.781  14.984 -0.3136 -1.2677 -0.1428
  859MPD2     N12618   3.418   2.617  15.056 -0.0272  0.2619  0.4566
  859MPD2    H512619   3.373   2.527  15.043  2.0715 -0.8213  0.7930
  859MPD2    N112620   3.332   3.093  15.046  0.7644  0.2542 -0.1276
  859MPD2    H712621   3.269   3.166  15.016  0.1805 -0.9186 -1.7842
  860MPD2     C12622   1.261   3.347  11.444  0.0894 -0.2674 -0.2280
  860MPD2    C112623   1.224   3.422  11.553 -0.3431  0.0297  0.3843
  860MPD2    C212624   1.092   3.428  11.595 -0.1839 -0.3239  0.0407
  860MPD2    C312625   0.994   3.349  11.540  0.6778  0.2716  0.5351
  860MPD2    C412626   1.021   3.281  11.424 -0.0127  1.6413  0.1373
  860MPD2    C512627   1.156   3.280  11.377  0.2318  0.6228  1.1060
  860MPD2     H12628   1.065   3.495  11.675  2.6239  0.9306 -0.0548
  860MPD2    H112629   0.958   3.212  11.370  0.3750  0.8019  0.7586
  860MPD2    H212630   1.356   3.335  11.393 -0.0111  0.3181 -0.5559
  860MPD2    H312631   1.179   3.224  11.287  0.7579  0.8530  1.0983
  860MPD2     N12632   0.866   3.362  11.595  0.2960  0.0553 -0.0663
  860MPD2    H512633   0.846   3.416  11.679 -0.4114 -2.3212  1.2909
  860MPD2    N112634   1.311   3.512  11.620 -0.1991  0.2767  0.1695
  860MPD2    H712635   1.278   3.550  11.708 -1.4616 -0.1433 -0.1245
  861MPD2     C12636   0.488   1.998  10.580 -0.0920  0.0105 -0.0763
  861MPD2    C112637   0.370   2.005  10.646 -1.2037 -0.1652  0.0873
  861MPD2    C212638   0.257   2.017  10.564  0.2373 -1.1865  0.4977
  861MPD2    C312639   0.260   2.026  10.422 -0.6874 -0.1687 -0.1439
  861MPD2    C412640   0.384   2.003  10.362 -0.2125 -0.5405 -1.0570
  861MPD2    C512641   0.497   1.997  10.441  0.4251  0.1069 -1.1688
  861MPD2     H12642   0.167   2.024  10.623  0.7903  1.0668  1.0835
  861MPD2    H112643   0.400   2.012  10.255  0.4025 -0.9518 -1.0005
  861MPD2    H212644   0.579   1.985  10.639 -0.4806 -1.6938  0.1243
  861MPD2    H312645   0.589   1.992  10.385  0.5358  0.9928 -1.0726
  861MPD2     N12646   0.159   2.056  10.335 -0.0709  0.4347  0.0312
  861MPD2    H512647   0.178   2.069  10.236 -1.1008 -0.4598 -0.2851
  861MPD2    N112648   0.364   2.000  10.792 -0.1904 -0.0931  0.0768
  861MPD2    H712649   0.275   1.984  10.838  0.5172 -3.6735  0.2353
  862MPD2     C12650   4.602   2.118   9.649 -0.6483 -0.2136  0.2174
  862MPD2    C112651   4.626   2.039   9.759 -0.0998  0.2672  0.3786
  862MPD2    C212652   4.624   1.905   9.741  0.7539  0.0526 -0.1179
  862MPD2    C312653   4.592   1.840   9.621  0.7585 -0.0804  0.2769
  862MPD2    C412654   4.557   1.920   9.513 -0.5347 -0.1672  0.4307
  862MPD2    C512655   4.565   2.053   9.535  0.0325  0.1450 -0.3702
  862MPD2     H12656   4.631   1.846   9.831  0.6588 -1.0006 -0.8077
  862MPD2    H112657   4.532   1.869   9.420 -2.0265  0.7071  0.3526
  862MPD2    H212658   4.592   2.226   9.655 -0.0706 -0.1465 -0.0641
  862MPD2    H312659   4.536   2.116   9.452  0.6333 -0.7858 -1.2785
  862MPD2     N12660   4.597   1.699   9.612  0.4700  1.0473  0.0973
  862MPD2    H512661   4.575   1.651   9.525  0.1534 -0.6837  1.1224
  862MPD2    N112662   4.638   2.083   9.890  0.7094  0.1271 -0.0845
  862MPD2    H712663   4.646   2.011   9.961 -0.1408 -0.2478 -0.3658
  863MPD2     C12664   3.092   4.520  16.221  0.5439 -0.2321 -0.3441
  863MPD2    C112665   3.014   4.478  16.323 -0.4589 -0.1225 -1.0405
  863MPD2    C212666   3.080   4.405  16.421  0.2292  0.2027  0.8221
  863MPD2    C312667   3.216   4.375  16.414 -0.6993 -0.3910 -0.1691
  863MPD2    C412668   3.291   4.415  16.302 -0.5058 -0.2397 -0.0749
  863MPD2    C512669   3.222   4.484  16.205 -0.1008 -0.1306  0.3710
  863MPD2     H12670   3.026   4.373  16.510  2.9848 -1.2100  1.9703
  863MPD2    H112671   3.395   4.392  16.282 -1.5085 -1.3460 -4.1034
  863MPD2    H212672   3.053   4.578  16.138  1.3538 -1.5715 -1.6880
  863MPD2    H312673   3.279   4.516  16.118  1.3294 -3.2944  0.1583
  863MPD2     N12674   3.269   4.293  16.519 -1.0141 -0.4653  0.1628
  863MPD2    H512675   3.200   4.271  16.589  0.7824 -3.5967  0.9600
  863MPD2    N112676   2.885   4.532  16.333  0.4802 -0.1443 -0.2667
  863MPD2    H712677   2.861   4.577  16.245 -0.0927  0.3005  0.1148
  864MPD2     C12678   3.016   1.000  16.860  0.2997 -0.7438 -0.1502
  864MPD2    C112679   3.129   0.927  16.815  0.3555  1.0986  0.3721
  864MPD2    C212680   3.244   0.997  16.794 -0.2351  0.5067 -0.3448
  864MPD2    C312681   3.250   1.137  16.825 -1.0236 -0.0690 -0.4208
  864MPD2    C412682   3.138   1.203  16.852 -0.4709  0.0918 -0.6758
  864MPD2    C512683   3.021   1.133  16.878 -0.3505 -0.8493  0.7017
  864MPD2     H12684   3.328   0.937  16.762  0.6915  0.0169  3.0050
  864MPD2    H112685   3.131   1.310  16.864 -2.6408 -0.3759  2.1001
  864MPD2    H212686   2.919   0.958  16.885  0.4420 -0.3683  1.0570
  864MPD2    H312687   2.938   1.190  16.917 -0.5106 -1.3115  1.0185
  864MPD2     N12688   3.368   1.213  16.804  0.5552  0.5042 -0.1157
  864MPD2    H512689   3.364   1.310  16.835 -1.6193 -0.0838  1.4312
  864MPD2    N112690   3.117   0.789  16.808 -0.3799  0.5705  0.8474
  864MPD2    H712691   3.023   0.752  16.821 -0.8945  1.0145 -1.6480
  865MPD2     C12692   3.984   1.563  16.228  0.2488  0.3140 -0.0694
  865MPD2    C112693   3.892   1.465  16.259  0.0571 -0.5243  0.2101
  865MPD2    C212694   3.804   1.484  16.363  0.1286 -0.2111 -0.0557
  865MPD2    C312695   3.823   1.595  16.443 -1.0095  0.0619 -0.2285
  865MPD2    C412696   3.917   1.688  16.414 -0.4227 -0.1082  0.0129
  865MPD2    C512697   3.997   1.670  16.309  0.2848 -0.4835 -0.6686
  865MPD2     H12698   3.730   1.408  16.383  0.6090 -0.4275  0.9250
  865MPD2    H112699   3.934   1.774  16.477  2.0354  0.6399 -1.6549
  865MPD2    H212700   4.062   1.555  16.154 -0.3714 -2.2339 -0.4654
  865MPD2    H312701   4.074   1.746  16.294 -3.2415  2.8065 -2.1053
  865MPD2     N12702   3.750   1.612  16.559 -0.0807  0.2294 -0.2943
  865MPD2    H512703   3.795   1.671  16.628  0.3438  0.0821 -0.4428
  865MPD2    N112704   3.901   1.348  16.179  0.6245  0.8375 -0.2136
  865MPD2    H712705   3.981   1.344  16.116  0.2443  0.7794 -0.6917
  866MPD2     C12706   0.829   2.261  11.211  0.4267 -0.1577 -0.0707
  866MPD2    C112707   0.857   2.254  11.075  0.2171 -0.4465 -0.8469
  866MPD2    C212708   0.758   2.282  10.980 -0.1573 -0.3488  0.2290
  866MPD2    C312709   0.631   2.313  11.027  0.8764  0.0713  0.5130
  866MPD2    C412710   0.612   2.333  11.165  0.8336  0.6123 -0.6479
  866MPD2    C512711   0.707   2.311  11.254 -0.5089  0.1871  0.2764
  866MPD2     H12712   0.766   2.247  10.878 -3.5885  0.1689 -0.2229
  866MPD2    H112713   0.520   2.376  11.203 -1.0706 -2.3028 -1.9553
  866MPD2    H212714   0.911   2.250  11.281  0.7038 -1.1921 -0.5532
  866MPD2    H312715   0.684   2.330  11.358 -0.1345 -1.2313  0.6196
  866MPD2     N12716   0.524   2.343  10.943 -0.2309 -0.2944  0.5268
  866MPD2    H512717   0.438   2.363  10.993  0.1085  2.7387 -0.1398
  866MPD2    N112718   0.982   2.202  11.041  0.2845  0.6911 -0.0098
  866MPD2    H712719   1.037   2.172  11.121 -0.1525 -0.1802 -0.0366
  867MPD2     C12720   2.496   1.129  16.078  0.2598  0.6459 -0.0731
  867MPD2    C112721   2.578   1.059  16.166 -0.0371 -0.9293 -0.0435
  867MPD2    C212722   2.571   1.091  16.303 -0.2236  0.5057  0.4719
  867MPD2    C312723   2.484   1.190  16.353  0.5763  0.3913 -0.3523
  867MPD2    C412724   2.394   1.251  16.263 -0.0427  0.5828 -0.0227
  867MPD2    C512725   2.409   1.222  16.127  0.1243  0.1406  0.3504
  867MPD2     H12726   2.639   1.034  16.366  0.4500  2.2855  1.3432
  867MPD2    H112727   2.318   1.322  16.292 -1.0472 -0.4551 -0.1175
  867MPD2    H212728   2.504   1.111  15.971 -0.4861 -1.5839  0.2526
  867MPD2    H312729   2.338   1.268  16.058  1.5567 -1.2631 -2.0792
  867MPD2     N12730   2.482   1.229  16.490  0.0745 -0.4049  0.1967
  867MPD2    H512731   2.402   1.283  16.521 -0.7450 -0.2425 -2.2051
  867MPD2    N112732   2.672   0.973  16.113 -0.1330  0.1623 -0.0183
  867MPD2    H712733   2.676   0.965  16.012 -2.1346 -1.2743  0.0140
  868MPD2     C12734   4.537   0.331  13.053 -0.1790  0.9295 -0.1496
  868MPD2    C112735   4.565   0.298  13.183 -0.8238  0.2270 -0.5824
  868MPD2    C212736   4.501   0.359  13.297 -0.0468  0.4588 -0.1595
  868MPD2    C312737   4.407   0.454  13.268  0.4153  0.5687  0.4715
  868MPD2    C412738   4.369   0.481  13.138 -0.0658 -0.6031  0.6640
  868MPD2    C512739   4.431   0.418  13.033 -0.6156 -0.7874  0.1728
  868MPD2     H12740   4.523   0.329  13.399 -1.3193  1.4666  0.4209
  868MPD2    H112741   4.297   0.560  13.117  0.9448 -0.1112 -0.9142
  868MPD2    H212742   4.585   0.292  12.964 -1.9830 -2.3005  0.2619
  868MPD2    H312743   4.401   0.447  12.933 -2.4488 -2.8427  0.1366
  868MPD2     N12744   4.347   0.522  13.378 -0.7155  0.1647 -0.1372
  868MPD2    H512745   4.367   0.492  13.473  1.6872 -1.9996 -1.3385
  868MPD2    N112746   4.660   0.197  13.200 -0.3633 -0.5054  0.3420
  868MPD2    H712747   4.700   0.166  13.112 -0.8815  1.9459 -0.7576
  869MPD2     C12748   4.548   3.010   0.992  0.7491 -0.1824  0.0018
  869MPD2    C112749   4.516   3.136   1.042 -0.2599  0.0560  0.2523
  869MPD2    C212750   4.565   3.243   0.973  0.2143  0.2261  0.2010
  869MPD2    C312751   4.619   3.232   0.849 -0.0387  0.1681  0.1405
  869MPD2    C412752   4.641   3.106   0.801 -0.0823  0.3568  0.6512
  869MPD2    C512753   4.611   2.995   0.869  0.2866  0.6965 -0.9580
  869MPD2     H12754   4.535   3.341   1.008  0.5043  0.3221  0.1847
  869MPD2    H112755   4.684   3.096   0.702 -0.9865  0.9649  0.2018
  869MPD2    H212756   4.527   2.914   1.039 -1.0027  0.1336 -0.1532
  869MPD2    H312757   4.634   2.896   0.830  3.9342  1.3436 -0.4951
  869MPD2     N12758   4.658   3.345   0.767  0.0961 -0.0307 -0.0286
  869MPD2    H512759   4.709   3.318   0.683 -0.0218 -0.2818 -0.0195
  869MPD2    N112760   4.447   3.141   1.171 -0.5133 -0.3190  0.3822
  869MPD2    H712761   4.420   3.051   1.208  4.8046 -2.0222  0.0270
  870MPD2     C12762   4.236   2.224   1.448  0.5287  0.0782 -0.2254
  870MPD2    C112763   4.307   2.123   1.383 -0.0441  0.6813 -0.1202
  870MPD2    C212764   4.244   2.053   1.278 -0.3539 -1.0264 -0.0792
  870MPD2    C312765   4.132   2.103   1.224 -0.0385  0.4478 -0.6812
  870MPD2    C412766   4.066   2.210   1.281  0.3287  0.4105  0.1651
  870MPD2    C512767   4.122   2.273   1.393  0.1692  0.4047  0.9265
  870MPD2     H12768   4.303   1.977   1.228  0.7054 -0.3166  0.0850
  870MPD2    H112769   3.976   2.250   1.237 -0.4341 -1.1175  0.3314
  870MPD2    H212770   4.264   2.269   1.542  1.8537 -0.4663 -0.3478
  870MPD2    H312771   4.068   2.355   1.438 -2.7790 -0.6535 -0.6853
  870MPD2     N12772   4.085   2.032   1.108  0.1902 -0.0352  0.0603
  870MPD2    H512773   4.145   1.954   1.083 -0.8725 -1.2012  1.1873
  870MPD2    N112774   4.422   2.075   1.454  0.7444 -0.8109 -0.3883
  870MPD2    H712775   4.465   2.129   1.528  0.4846 -0.5461 -0.4352
  871MPD2     C12776   1.387   1.204  16.213  0.2555  0.3029  0.2225
  871MPD2    C112777   1.416   1.174  16.346 -0.1348 -0.9824  0.3438
  871MPD2    C212778   1.518   1.076  16.365  0.6286 -0.2209 -0.7910
  871MPD2    C312779   1.599   1.041  16.258 -0.0606  0.2423  0.0191
  871MPD2    C412780   1.573   1.079  16.133  0.0301  0.2699  0.4926
  871MPD2    C512781   1.464   1.157  16.114  0.0007 -0.3162  0.2489
  871MPD2     H12782   1.525   1.037  16.466  1.9263  3.2320  0.4476
  871MPD2    H112783   1.633   1.045  16.049 -2.0607 -0.4402 -0.7118
  871MPD2    H212784   1.309   1.274  16.184 -0.7681 -1.0866 -0.3884
  871MPD2    H312785   1.451   1.184  16.010  0.0358  1.1990  0.6427
  871MPD2     N12786   1.705   0.952  16.295 -0.0149  0.3788  0.0079
  871MPD2    H512787   1.715   0.923  16.392 -3.9252  1.0754  0.5857
  871MPD2    N112788   1.353   1.250  16.452  0.3379  0.0859  0.2629
  871MPD2    H712789   1.305   1.332  16.417  2.6837  1.0791 -0.6580
  872MPD2     C12790   2.076   4.203  13.504  0.0313 -0.4569 -0.3648
  872MPD2    C112791   2.150   4.114  13.580  0.1119  0.6702 -0.6320
  872MPD2    C212792   2.094   4.035  13.673 -0.7707  0.2496 -0.0046
  872MPD2    C312793   1.963   4.057  13.708  0.6078 -0.0261 -0.7182
  872MPD2    C412794   1.881   4.140  13.630  0.4446  0.3259  0.3093
  872MPD2    C512795   1.940   4.211  13.526 -0.5908  0.4275  0.3819
  872MPD2     H12796   2.153   3.967  13.734  0.2359 -0.0292 -1.2609
  872MPD2    H112797   1.778   4.168  13.649  0.4764  0.3579  0.4345
  872MPD2    H212798   2.118   4.255  13.419  0.1088 -0.3665 -0.2699
  872MPD2    H312799   1.878   4.280  13.470 -0.4546  0.7018  0.5667
  872MPD2     N12800   1.896   3.996  13.823  0.1417  0.0213 -0.3621
  872MPD2    H512801   1.799   4.016  13.848  0.4870  0.2130  0.8405
  872MPD2    N112802   2.288   4.113  13.549  0.6289 -0.0613  0.9480
  872MPD2    H712803   2.319   4.182  13.481  0.8674  0.5666  1.6821
  873MPD2     C12804   4.084   3.705   1.096  0.4188 -0.1138 -0.2220
  873MPD2    C112805   3.949   3.675   1.086  0.1397 -0.2121 -0.6967
  873MPD2    C212806   3.907   3.542   1.071  0.0855  0.0860  0.2079
  873MPD2    C312807   4.007   3.437   1.075 -0.0363 -0.4125 -0.4813
  873MPD2    C412808   4.138   3.472   1.081 -0.2723  0.1836  0.5333
  873MPD2    C512809   4.176   3.603   1.093  0.3719 -0.0986 -0.0899
  873MPD2     H12810   3.801   3.523   1.082 -0.4398  1.2652 -2.7469
  873MPD2    H112811   4.217   3.397   1.077 -1.0071 -0.7632  3.4168
  873MPD2    H212812   4.130   3.803   1.109 -1.1867  0.7023 -0.6576
  873MPD2    H312813   4.282   3.620   1.101  0.2450  1.3058 -1.4085
  873MPD2     N12814   3.974   3.302   1.079  0.2249  0.1590  0.1739
  873MPD2    H512815   4.050   3.240   1.054 -0.1403 -0.2568  0.0897
  873MPD2    N112816   3.854   3.781   1.093 -0.5676 -0.1381 -0.2130
  873MPD2    H712817   3.893   3.874   1.107  1.1726 -1.0117  0.6433
  874MPD2     C12818   3.896   3.750  16.233  0.2384 -0.2769 -0.1541
  874MPD2    C112819   3.947   3.733  16.360  0.2637  0.2710  0.2715
  874MPD2    C212820   4.065   3.792  16.387 -0.6812 -0.0835  0.2577
  874MPD2    C312821   4.128   3.877  16.304  0.0445 -0.2368 -0.2953
  874MPD2    C412822   4.070   3.899  16.182  0.5072  0.0012  0.6534
  874MPD2    C512823   3.963   3.829  16.145  0.1165  0.6479  0.4818
  874MPD2     H12824   4.121   3.771  16.478 -2.0823 -0.7809  0.9495
  874MPD2    H112825   4.125   3.960  16.111  2.1675 -2.6682 -0.3662
  874MPD2    H212826   3.795   3.717  16.216 -0.3832  0.6729  1.6677
  874MPD2    H312827   3.914   3.851  16.050  0.0674 -0.3855  0.2692
  874MPD2     N12828   4.256   3.919  16.345 -0.8801  0.4147  0.4964
  874MPD2    H512829   4.274   3.887  16.439  1.5111  1.7800  0.4979
  874MPD2    N112830   3.880   3.644  16.448  0.4236 -0.7071 -0.0787
  874MPD2    H712831   3.805   3.587  16.410 -1.2667  0.9406  0.7395
  875MPD2     C12832   0.392   2.175  14.674 -0.4147  0.3714  0.9422
  875MPD2    C112833   0.273   2.156  14.731 -0.7729 -0.1646 -0.1785
  875MPD2    C212834   0.252   2.203  14.863 -0.0069 -0.1063 -0.5881
  875MPD2    C312835   0.353   2.259  14.937 -0.1289  0.2437 -0.4801
  875MPD2    C412836   0.474   2.276  14.875 -0.1282 -0.3015 -0.1216
  875MPD2    C512837   0.490   2.240  14.741  0.2243 -0.0356 -0.1727
  875MPD2     H12838   0.155   2.184  14.908 -0.5674  1.3386 -1.1739
  875MPD2    H112839   0.550   2.333  14.927  0.8521 -0.6425 -1.1725
  875MPD2    H212840   0.417   2.144  14.573 -1.5892  1.3673  0.3448
  875MPD2    H312841   0.590   2.244  14.699  0.5069 -0.5994  0.4532
  875MPD2     N12842   0.334   2.325  15.057  0.1047 -1.0038 -0.4414
  875MPD2    H512843   0.415   2.372  15.096  0.7591 -2.4794 -0.0638
  875MPD2    N112844   0.154   2.117  14.658  0.6378  0.2964 -0.3436
  875MPD2    H712845   0.069   2.104  14.712  1.0258  0.9534  0.4084
  876MPD2     C12846   3.465   3.246  15.877 -0.2671 -1.0664  0.7236
  876MPD2    C112847   3.591   3.226  15.837  0.0100  0.3428 -0.6783
  876MPD2    C212848   3.657   3.112  15.884  0.3551 -0.0192  0.3234
  876MPD2    C312849   3.599   3.030  15.979  0.5860 -0.3600  0.3780
  876MPD2    C412850   3.472   3.062  16.030  0.1814 -0.0926 -0.0734
  876MPD2    C512851   3.411   3.168  15.974  0.0251  0.2779 -0.6296
  876MPD2     H12852   3.757   3.087  15.849  1.0092  1.4914  1.1096
  876MPD2    H112853   3.417   3.009  16.106 -3.5501 -0.1869 -2.8352
  876MPD2    H212854   3.405   3.328  15.837 -0.2585 -1.2659  0.3080
  876MPD2    H312855   3.306   3.182  15.997  0.1013  1.4162 -0.9508
  876MPD2     N12856   3.679   2.925  16.035  0.0951  0.1483  0.4814
  876MPD2    H512857   3.779   2.925  16.017  0.0967 -3.4100  0.5611
  876MPD2    N112858   3.649   3.324  15.760  0.0522 -0.5348  0.4633
  876MPD2    H712859   3.583   3.397  15.734  0.7530 -1.0192 -2.7029
  877MPD2     C12860   3.396   3.797  15.242  0.1826  0.3393  0.0217
  877MPD2    C112861   3.535   3.788  15.221 -0.5466 -0.0623 -0.0924
  877MPD2    C212862   3.584   3.815  15.097 -0.5672  0.5358 -0.6606
  877MPD2    C312863   3.495   3.844  14.986  0.0459 -0.0873  0.0957
  877MPD2    C412864   3.358   3.858  15.015 -0.1856  0.7427 -0.6684
  877MPD2    C512865   3.307   3.831  15.135 -0.4426  0.2458 -0.1666
  877MPD2     H12866   3.689   3.805  15.071 -0.6154  2.3203 -1.5494
  877MPD2    H112867   3.286   3.880  14.937 -1.4073  0.6725  0.4256
  877MPD2    H212868   3.350   3.756  15.332 -1.6713 -0.6802 -1.3844
  877MPD2    H312869   3.199   3.820  15.139 -0.5102  2.1993  3.5384
  877MPD2     N12870   3.533   3.872  14.851 -0.0204  0.1030 -0.4069
  877MPD2    H512871   3.473   3.932  14.795  1.2178  1.4134 -0.3358
  877MPD2    N112872   3.629   3.734  15.314  0.4832 -0.3153  0.1760
  877MPD2    H712873   3.723   3.727  15.278  0.3624  0.0088 -0.2050
  878MPD2     C12874   4.015   2.647  12.884 -0.5584  0.8347  0.7116
  878MPD2    C112875   4.028   2.782  12.874  0.6265  0.3771 -0.2659
  878MPD2    C212876   4.065   2.852  12.992  0.4574  0.8528  0.2292
  878MPD2    C312877   4.083   2.786  13.109 -0.4415  0.0458 -0.8415
  878MPD2    C412878   4.066   2.648  13.121  0.1540  0.5233  0.3891
  878MPD2    C512879   4.029   2.583  13.006 -0.1856 -0.2734 -0.1392
  878MPD2     H12880   4.101   2.954  12.988  2.8037  0.1157  2.2289
  878MPD2    H112881   4.064   2.592  13.213 -0.2830 -0.1036 -0.0045
  878MPD2    H212882   3.983   2.603  12.790  0.2601  0.4449  0.6163
  878MPD2    H312883   4.016   2.476  13.013  0.7312 -0.5844 -3.0193
  878MPD2     N12884   4.094   2.862  13.224  0.4113 -0.1769 -0.0598
  878MPD2    H512885   4.078   2.963  13.220  0.6333 -0.1969 -1.2471
  878MPD2    N112886   4.009   2.847  12.750 -0.6654 -0.7017 -0.1907
  878MPD2    H712887   3.986   2.788  12.670  0.0261 -1.6626  0.3087
  879MPD2     C12888   4.484   4.325  16.915  0.1093  0.3568  0.3931
  879MPD2    C112889   4.376   4.275  16.978 -0.1621  0.7326  0.2402
  879MPD2    C212890   4.279   4.220  16.902  0.5934 -0.0245  0.4564
  879MPD2    C312891   4.282   4.232  16.765  0.8971  0.0276  0.2972
  879MPD2    C412892   4.388   4.301  16.707  0.0603  0.4821 -0.2120
  879MPD2    C512893   4.488   4.350  16.780 -0.1342 -0.4618 -0.7278
  879MPD2     H12894   4.192   4.193  16.960  1.4581 -1.4062  1.1214
  879MPD2    H112895   4.392   4.312  16.599 -1.3692  2.0526 -0.0926
  879MPD2    H212896   4.574   4.365  16.960  0.4514  0.6461 -0.5367
  879MPD2    H312897   4.573   4.407  16.743  0.5321 -2.0056 -1.5589
  879MPD2     N12898   4.183   4.178  16.677  0.1902 -0.3333  0.0382
  879MPD2    H512899   4.182   4.208  16.580  0.0835 -0.1392  0.0995
  879MPD2    N112900   4.361   4.265  17.120 -0.7076  0.1431 -0.3995
  879MPD2    H712901   4.281   4.217  17.160 -1.5248  2.2775  0.5385
  880MPD2     C12902   0.706   1.921   0.687 -0.1974  0.8118  0.3112
  880MPD2    C112903   0.668   1.804   0.624 -0.4363  0.0700 -0.2273
  880MPD2    C212904   0.763   1.718   0.579 -0.1452  0.2165  0.2073
  880MPD2    C312905   0.894   1.736   0.606 -0.6534  0.4824 -0.3046
  880MPD2    C412906   0.931   1.850   0.668 -0.3566  0.3099  0.7914
  880MPD2    C512907   0.839   1.941   0.709  0.1263  0.3089 -0.2100
  880MPD2     H12908   0.737   1.635   0.514  0.9925 -0.4258  0.5713
  880MPD2    H112909   1.036   1.866   0.690  0.0243 -1.5047  0.3177
  880MPD2    H212910   0.639   1.992   0.735 -0.8536  1.2636 -1.2843
  880MPD2    H312911   0.875   2.029   0.761  0.7980 -0.3158  0.3755
  880MPD2     N12912   0.968   1.621   0.570  0.5636  0.1579  0.3662
  880MPD2    H512913   0.908   1.555   0.521 -0.4942  1.5999 -0.3045
  880MPD2    N112914   0.545   1.784   0.565  0.2428 -0.0115  0.0725
  880MPD2    H712915   0.536   1.699   0.510 -3.4633  1.2539 -1.2626
  881MPD2     C12916   0.177   2.048  17.408  0.6268  1.2324  0.3808
  881MPD2    C112917   0.274   1.951  17.423 -1.1053 -0.0825 -0.3535
  881MPD2    C212918   0.289   1.883  17.545  0.0837 -0.3647  0.0462
  881MPD2    C312919   0.188   1.901  17.637  0.9939 -0.5500  0.2437
  881MPD2    C412920   0.076   1.974  17.610 -0.0848  0.8836  0.3249
  881MPD2    C512921   0.069   2.041  17.491  0.4378 -0.2977  0.5568
  881MPD2     H12922   0.383   1.835  17.570  0.5585  0.7648  0.4430
  881MPD2    H112923   4.717   1.988  17.682 -0.9080  1.2282 -0.6620
  881MPD2    H212924   0.166   2.096  17.311  2.0428  0.8704  0.0365
  881MPD2    H312925   4.710   2.109  17.462  1.5118  1.5737  1.9432
  881MPD2     N12926   0.193   1.854   0.085  0.5614  0.5216 -0.2328
  881MPD2    H512927   0.121   1.891   0.146 -0.6117 -0.0189 -1.2852
  881MPD2    N112928   0.375   1.943  17.322 -0.6378  0.0091 -0.4698
  881MPD2    H712929   0.375   2.025  17.263  0.0163  0.7943  0.6196
  882MPD2     C12930   3.501   3.441  14.305  0.4272  0.1920 -0.2921
  882MPD2    C112931   3.451   3.572  14.298 -0.1639 -0.1987  0.7502
  882MPD2    C212932   3.340   3.595  14.212 -0.2196 -0.2787 -0.3524
  882MPD2    C312933   3.280   3.484  14.151  0.2057  0.1254 -0.3431
  882MPD2    C412934   3.334   3.354  14.168 -0.2932 -0.5510  0.3987
  882MPD2    C512935   3.451   3.337  14.239 -0.3284 -0.3788 -0.2706
  882MPD2     H12936   3.301   3.696  14.209  2.7107  0.7974 -1.8783
  882MPD2    H112937   3.298   3.262  14.125  3.5092 -0.5620 -2.7961
  882MPD2    H212938   3.593   3.419  14.357  1.2876  2.5980 -0.7793
  882MPD2    H312939   3.506   3.244  14.237  3.2363  1.7155  1.0882
  882MPD2     N12940   3.159   3.493  14.077  0.0596 -0.0951  0.3692
  882MPD2    H512941   3.130   3.400  14.047 -0.7739 -0.1021  1.2270
  882MPD2    N112942   3.516   3.675  14.369 -0.2644 -0.2905  0.1124
  882MPD2    H712943   3.612   3.651  14.388 -0.2927 -0.6919 -0.2570
  883MPD2     C12944   1.341   3.855  16.300 -0.1768 -0.4974  0.6624
  883MPD2    C112945   1.367   3.902  16.171  0.2200 -0.3865 -0.2037
  883MPD2    C212946   1.466   3.992  16.141  0.0667 -0.2518  0.2186
  883MPD2    C312947   1.551   4.036  16.240 -0.5951  0.3919 -0.2295
  883MPD2    C412948   1.518   3.990  16.372 -0.7275 -0.3821  0.1559
  883MPD2    C512949   1.413   3.906  16.399  0.8286 -0.0303  0.4396
  883MPD2     H12950   1.484   4.023  16.039  3.5787  0.0982  0.9284
  883MPD2    H112951   1.583   4.029  16.450 -0.6143  1.1311 -0.6924
  883MPD2    H212952   1.255   3.793  16.322 -1.1306  0.7770  0.4949
  883MPD2    H312953   1.396   3.863  16.497  0.9274 -1.9447 -0.3728
  883MPD2     N12954   1.672   4.091  16.206  0.0744  0.2478 -0.0647
  883MPD2    H512955   1.696   4.116  16.110 -0.9129 -1.9506 -0.8893
  883MPD2    N112956   1.283   3.868  16.065 -0.2385  0.0544  0.2037
  883MPD2    H712957   1.284   3.922  15.979 -3.5791 -1.1444 -0.6112
  884MPD2     C12958   2.770   4.446  14.913 -0.3967 -0.2881  0.2483
  884MPD2    C112959   2.798   4.577  14.942  0.8289 -0.6512 -0.0761
  884MPD2    C212960   2.699   4.665  14.989  0.1105  0.7529 -0.3530
  884MPD2    C312961   2.569   4.620  15.014 -0.1149 -0.3950  0.0362
  884MPD2    C412962   2.538   4.488  14.996  0.0039 -0.7786  0.6669
  884MPD2    C512963   2.640   4.409  14.937 -0.3525  0.0700  0.0606
  884MPD2     H12964   2.730   0.044  15.017 -0.2314  1.0096 -0.8733
  884MPD2    H112965   2.445   4.437  15.017 -1.6269  2.0232  0.3926
  884MPD2    H212966   2.836   4.368  14.877 -0.3477  0.1432 -0.6084
  884MPD2    H312967   2.620   4.306  14.909  0.3145  0.3271 -1.3320
  884MPD2     N12968   2.476   4.714  15.071 -0.0234 -0.5355 -0.1497
  884MPD2    H512969   2.509   0.089  15.081 -1.1229 -0.1479 -0.1629
  884MPD2    N112970   2.924   4.635  14.914 -0.4254 -0.4962  0.0741
  884MPD2    H712971   2.939   0.013  14.933 -0.7784 -0.0102 -2.0934
  885MPD2     C12972   1.065   4.598   0.075 -0.3326  0.0333 -0.1320
  885MPD2    C112973   1.168   4.522   0.023 -0.0469 -1.1195 -0.9525
  885MPD2    C212974   1.220   4.569  17.589  0.5499 -0.1316  0.5089
  885MPD2    C312975   1.179   4.685  17.520 -0.1888  0.4803 -0.7348
  885MPD2    C412976   1.071   0.031  17.578  0.0158 -0.1372  0.3417
  885MPD2    C512977   1.017   4.711   0.008 -0.0687 -0.0397 -0.2222
  885MPD2     H12978   1.304   4.515  17.546  1.5747  1.4139  0.5697
  885MPD2    H112979   1.029   0.122  17.537  1.5033  0.7922  0.8817
  885MPD2    H212980   1.021   4.572   0.170 -1.8560  1.2584 -0.5156
  885MPD2    H312981   0.930   0.040   0.048  0.6339  0.8058  0.2621
  885MPD2     N12982   1.245   0.010  17.403 -0.4051 -0.3545 -0.0597
  885MPD2    H512983   1.332   4.686  17.376 -1.4885 -3.3904  1.5291
  885MPD2    N112984   1.216   4.410   0.095  0.3013 -0.4085 -0.2283
  885MPD2    H712985   1.184   4.397   0.190  0.5750  0.1400 -0.0594
  886MPD2     C12986   2.184   3.130  15.284  0.1063 -0.3541 -0.4024
  886MPD2    C112987   2.297   3.181  15.348  0.4767 -0.1662 -0.6684
  886MPD2    C212988   2.349   3.303  15.318  0.0734  0.3586  0.0274
  886MPD2    C312989   2.286   3.387  15.234 -0.6602  0.4904  0.8781
  886MPD2    C412990   2.168   3.348  15.176  0.4814  0.4209  0.2493
  886MPD2    C512991   2.117   3.223  15.206  0.3085  0.5518  0.9774
  886MPD2     H12992   2.443   3.328  15.367  0.2182  0.0780 -0.1087
  886MPD2    H112993   2.128   3.409  15.096 -0.1836 -0.9156 -0.4408
  886MPD2    H212994   2.130   3.043  15.320  1.7799 -0.7849  1.0729
  886MPD2    H312995   2.033   3.189  15.146  1.8731 -1.0547 -0.2943
  886MPD2     N12996   2.334   3.515  15.195 -0.2439 -0.2394  0.4106
  886MPD2    H512997   2.289   3.551  15.112  0.0412 -0.5156  0.1332
  886MPD2    N112998   2.383   3.100  15.433 -0.7248 -0.4595  0.1168
  886MPD2    H712999   2.467   3.150  15.459 -0.4687  0.5618 -2.6149
  887MPD2     C13000   3.027   3.082  15.721  0.6976  0.1368  0.3575
  887MPD2    C113001   2.897   3.135  15.712  0.2725 -0.1772  0.2940
  887MPD2    C213002   2.870   3.267  15.717  1.2842 -0.2204  0.0669
  887MPD2    C313003   2.969   3.358  15.738  0.0794 -0.1691  0.5963
  887MPD2    C413004   3.093   3.307  15.763 -0.4193  0.5829 -0.3304
  887MPD2    C513005   3.129   3.171  15.757  0.8528  0.7517  0.2697
  887MPD2     H13006   2.767   3.298  15.707  0.8039 -1.1867  1.9981
  887MPD2    H113007   3.172   3.371  15.801 -0.8189  1.6801 -1.3332
  887MPD2    H213008   3.043   2.975  15.718 -0.7457 -0.0593 -0.2080
  887MPD2    H313009   3.230   3.132  15.767  1.0840  1.4845  0.8539
  887MPD2     N13010   2.938   3.496  15.753  0.2322 -0.3814 -0.2992
  887MPD2    H513011   2.844   3.525  15.778  0.3133  0.4751 -0.9594
  887MPD2    N113012   2.786   3.056  15.678  0.3345 -0.7305  0.5392
  887MPD2    H713013   2.707   3.098  15.631  1.6121 -1.4241 -2.1828
  888MPD2     C13014   0.051   3.449  14.757 -0.9449 -0.0267  0.2456
  888MPD2    C113015   0.104   3.494  14.874 -0.0585 -0.2416 -0.9122
  888MPD2    C213016   0.179   3.607  14.877 -0.2868  0.0620  0.4512
  888MPD2    C313017   0.191   3.687  14.768 -0.0226  0.2572  0.4407
  888MPD2    C413018   0.140   3.637  14.646 -0.5349  0.0578 -0.5279
  888MPD2    C513019   0.077   3.515  14.643  0.5070 -0.4022 -0.1752
  888MPD2     H13020   0.218   3.635  14.975  2.1161  0.9284 -0.7667
  888MPD2    H113021   0.156   3.692  14.555 -0.4333 -0.3637 -0.7670
  888MPD2    H213022   4.720   3.354  14.744 -2.5894  0.2628  4.7336
  888MPD2    H313023   0.030   3.474  14.555 -0.2920 -2.3782  1.1939
  888MPD2     N13024   0.261   3.812  14.778  0.0040  0.2675 -0.4057
  888MPD2    H513025   0.312   3.823  14.864  1.0889 -1.3638 -0.8535
  888MPD2    N113026   0.079   3.424  14.998  0.4186  0.6492 -0.0321
  888MPD2    H713027   0.103   3.469  15.085 -0.1030 -2.1890  1.5460
  889MPD2     C13028   4.489   3.112  12.240 -0.0286 -0.1364  0.8753
  889MPD2    C113029   4.477   3.060  12.365  1.1139 -0.0885  0.5166
  889MPD2    C213030   4.433   3.144  12.467 -0.9786 -0.4818 -0.2930
  889MPD2    C313031   4.429   3.278  12.453 -0.2848 -0.5115 -0.6129
  889MPD2    C413032   4.428   3.329  12.323  0.8201 -0.2893  0.1021
  889MPD2    C513033   4.463   3.244  12.220  0.2053 -0.3213 -0.6186
  889MPD2     H13034   4.434   3.100  12.566 -1.8070  0.4277  0.1225
  889MPD2    H113035   4.413   3.433  12.298  2.4913  0.6540  3.0287
  889MPD2    H213036   4.529   3.068  12.149 -1.4133 -1.1003  0.7290
  889MPD2    H313037   4.463   3.285  12.120 -2.0319  1.7303  0.2049
  889MPD2     N13038   4.409   3.365  12.569  0.9470  0.0025 -0.4126
  889MPD2    H513039   4.401   3.326  12.662 -0.1921  2.9457  0.6980
  889MPD2    N113040   4.541   2.936  12.404 -0.4226 -0.3434  0.3177
  889MPD2    H713041   4.534   2.911  12.502 -0.1040  1.5821  0.8437
  890MPD2     C13042   4.078   4.345  14.447  0.1926 -0.0200 -0.0117
  890MPD2    C113043   4.115   4.404  14.564  0.2974 -0.0019 -0.0355
  890MPD2    C213044   4.075   4.346  14.682 -0.0898 -0.2017 -0.7368
  890MPD2    C313045   3.975   4.247  14.681 -0.0947  0.2542  0.4497
  890MPD2    C413046   3.939   4.188  14.555 -0.3643 -0.5569  0.2811
  890MPD2    C513047   3.988   4.241  14.441  0.2275 -0.9579 -0.3863
  890MPD2     H13048   4.109   4.375  14.781  1.6249  3.8849 -2.5021
  890MPD2    H113049   3.869   4.106  14.550  1.2631 -2.0092  1.5855
  890MPD2    H213050   4.109   4.380  14.350 -3.0793  1.3036 -0.5537
  890MPD2    H313051   3.952   4.211  14.344 -1.4540  1.5317 -0.5352
  890MPD2     N13052   3.926   4.197  14.804  0.6255  0.4737 -0.3606
  890MPD2    H513053   3.983   4.208  14.887  0.3184  1.0476 -0.2272
  890MPD2    N113054   4.184   4.525  14.564 -0.6031  0.8507  0.1157
  890MPD2    H713055   4.187   4.575  14.475  0.4971  0.0313 -0.2944
  891MPD2     C13056   1.921   3.144  16.731 -0.2211  0.2777  0.7842
  891MPD2    C113057   1.890   3.202  16.850  0.6532  0.2357  0.5827
  891MPD2    C213058   1.921   3.140  16.967 -0.8020 -0.2881  0.0984
  891MPD2    C313059   2.008   3.037  16.963 -0.3629  0.1672 -0.4801
  891MPD2    C413060   2.041   2.979  16.843 -0.1534 -0.1620 -0.2874
  891MPD2    C513061   1.987   3.026  16.727 -0.4298  0.1250  0.7202
  891MPD2     H13062   1.892   3.181  17.063 -0.7868 -0.4904  0.1899
  891MPD2    H113063   2.111   2.897  16.831 -0.3511 -0.3373 -0.2264
  891MPD2    H213064   1.889   3.181  16.634  2.3787  0.4492 -0.0212
  891MPD2    H313065   2.000   2.967  16.637  4.3485  4.1946 -1.2332
  891MPD2     N13066   2.050   2.981  17.090  0.3377  0.2446 -0.1671
  891MPD2    H513067   2.028   3.038  17.171  1.3095 -2.4155  1.9713
  891MPD2    N113068   1.813   3.322  16.849  0.1741  0.2214  0.2081
  891MPD2    H713069   1.789   3.360  16.758  4.2100  0.7720 -0.6611
  892MPD2     C13070   2.820   4.007  14.564  0.6219  0.1195  0.1498
  892MPD2    C113071   2.699   3.993  14.499 -0.0261 -0.3547  0.4612
  892MPD2    C213072   2.695   3.921  14.379 -1.0520  0.1400  0.5845
  892MPD2    C313073   2.815   3.887  14.313  0.0677 -0.4909 -0.1363
  892MPD2    C413074   2.940   3.901  14.380 -0.0978  0.2192  0.2246
  892MPD2    C513075   2.936   3.959  14.502  0.6360  1.0314  0.2924
  892MPD2     H13076   2.595   3.903  14.340 -0.6434 -0.1191 -0.3445
  892MPD2    H113077   3.035   3.873  14.338  0.6799  0.0605  2.0903
  892MPD2    H213078   2.839   4.065  14.654  2.1947  1.6776 -1.1669
  892MPD2    H313079   3.027   3.969  14.559  0.8601 -1.7577  0.3964
  892MPD2     N13080   2.818   3.817  14.190  0.1841  0.3154  0.2820
  892MPD2    H513081   2.906   3.772  14.167 -0.2121 -0.2304 -0.1460
  892MPD2    N113082   2.581   4.048  14.549  0.1849 -0.1351  0.1592
  892MPD2    H713083   2.499   4.062  14.492 -0.0593 -0.6343  0.3924
  893MPD2     C13084   3.371   2.276   1.153  0.1794  0.2122 -1.4316
  893MPD2    C113085   3.400   2.276   1.019  0.1454  0.3190 -0.6372
  893MPD2    C213086   3.306   2.244   0.920  0.1924 -0.1186  0.1183
  893MPD2    C313087   3.171   2.236   0.961  0.4744  0.2119  0.3434
  893MPD2    C413088   3.144   2.227   1.096  0.5995 -0.2694 -0.0854
  893MPD2    C513089   3.237   2.251   1.185  0.6585 -0.2446 -0.5884
  893MPD2     H13090   3.342   2.229   0.819 -0.5899 -0.8064 -0.0491
  893MPD2    H113091   3.044   2.203   1.131  0.3554 -2.4096 -2.2502
  893MPD2    H213092   3.451   2.304   1.222 -2.5067 -2.7492  2.8696
  893MPD2    H313093   3.217   2.254   1.291  0.8659  0.5540 -0.5711
  893MPD2     N13094   3.066   2.220   0.873 -0.1827  0.3343  0.2936
  893MPD2    H513095   2.971   2.216   0.909 -0.1347  0.1644  0.4021
  893MPD2    N113096   3.534   2.299   0.985  0.0113  0.4842  0.3097
  893MPD2    H713097   3.590   2.319   1.067 -0.8950 -1.7605  1.4904
  894MPD2     C13098   1.805   4.677   0.582 -0.2707  0.1638 -0.1478
  894MPD2    C113099   1.826   4.644   0.720 -0.7412  0.3418  0.5541
  894MPD2    C213100   1.908   0.001   0.797  0.2685  0.2819  0.2761
  894MPD2    C313101   1.976   0.104   0.742  0.6391  0.4062 -0.5067
  894MPD2    C413102   1.949   0.139   0.613 -0.4859 -0.0471  0.1810
  894MPD2    C513103   1.864   0.064   0.531  0.5356 -0.6544 -0.2690
  894MPD2     H13104   1.920   4.691   0.900 -0.2919 -0.7038  0.0482
  894MPD2    H113105   2.006   0.215   0.561 -1.3271  1.1982  1.0994
  894MPD2    H213106   1.725   4.631   0.526 -0.1096 -0.9228  0.5219
  894MPD2    H313107   1.844   0.103   0.432 -0.8476 -2.3144 -0.6414
  894MPD2     N13108   2.065   0.180   0.834 -0.2057 -0.0091 -0.5427
  894MPD2    H513109   2.071   0.152   0.931  0.1901  3.0100  0.2951
  894MPD2    N113110   1.743   4.546   0.781 -0.3647 -0.5928 -0.2712
  894MPD2    H713111   1.731   4.548   0.882  1.1580  2.7870 -0.1436
  895MPD2     C13112   1.797   2.508  13.292 -0.3128  0.4289 -0.1490
  895MPD2    C113113   1.730   2.597  13.201 -0.0662 -0.1274  0.0413
  895MPD2    C213114   1.599   2.569  13.156 -0.5392 -0.3772 -0.0976
  895MPD2    C313115   1.518   2.475  13.219 -0.3213  0.2251  0.0476
  895MPD2    C413116   1.580   2.399  13.316 -0.2788 -0.1756 -0.0779
  895MPD2    C513117   1.714   2.417  13.356 -0.0192 -0.1976 -0.7166
  895MPD2     H13118   1.561   2.644  13.088 -0.3578 -0.1666  0.0333
  895MPD2    H113119   1.530   2.318  13.369  2.6249 -3.1965 -1.9670
  895MPD2    H213120   1.896   2.520  13.334 -0.3908 -0.2775  0.2325
  895MPD2    H313121   1.753   2.363  13.442 -0.2702  0.0312 -0.4566
  895MPD2     N13122   1.374   2.451  13.196  0.0281 -0.1594 -0.1348
  895MPD2    H513123   1.328   2.390  13.262 -2.0964  0.8513 -0.6776
  895MPD2    N113124   1.792   2.714  13.150  0.9045  0.0711 -0.3963
  895MPD2    H713125   1.741   2.766  13.080  0.2909  0.8172  0.6087
  896MPD2     C13126   3.995   1.296   1.200 -0.0755  0.5797 -0.6677
  896MPD2    C113127   4.030   1.183   1.119  0.4910  0.3931 -0.9289
  896MPD2    C213128   3.926   1.101   1.071  0.4414 -0.0374 -0.1013
  896MPD2    C313129   3.793   1.146   1.093 -0.6468  0.6791  0.5418
  896MPD2    C413130   3.766   1.250   1.174  0.4307  0.2752 -0.2717
  896MPD2    C513131   3.867   1.325   1.231 -0.0488 -0.0077 -0.8440
  896MPD2     H13132   3.945   1.016   1.007 -0.0346 -1.9932  2.3931
  896MPD2    H113133   3.666   1.282   1.202 -0.4256 -1.0107 -1.8736
  896MPD2    H213134   4.070   1.365   1.236 -0.1742  1.8029 -2.8107
  896MPD2    H313135   3.856   1.411   1.297  1.3972 -0.7099  0.3221
  896MPD2     N13136   3.690   1.077   1.030  0.0959 -0.3643 -0.6270
  896MPD2    H513137   3.712   0.988   0.987 -3.1685 -0.0539 -2.9931
  896MPD2    N113138   4.171   1.161   1.089 -0.8722 -0.6976 -0.6423
  896MPD2    H713139   4.242   1.202   1.149  0.1900 -0.1957 -2.2643
  897MPD2     C13140   0.762   2.628   9.902 -0.5428 -0.2983  0.6418
  897MPD2    C113141   0.717   2.759   9.920 -0.8232  0.1737  0.2603
  897MPD2    C213142   0.651   2.786  10.034 -0.3084  0.3262  0.6804
  897MPD2    C313143   0.626   2.687  10.128 -0.1589  0.1498  0.4331
  897MPD2    C413144   0.660   2.560  10.104 -0.3947  0.1068 -0.1045
  897MPD2    C513145   0.727   2.524   9.988 -0.8112  0.0688  0.0434
  897MPD2     H13146   0.634   2.891  10.056 -0.1956  0.3210  0.7956
  897MPD2    H113147   0.633   2.475  10.165 -1.9732  0.6728  0.0029
  897MPD2    H213148   0.803   2.597   9.807 -0.7945  1.4942 -0.0453
  897MPD2    H313149   0.764   2.423   9.981  1.2905  0.8537 -0.1892
  897MPD2     N13150   0.559   2.731  10.243  0.2112 -0.3775 -0.0144
  897MPD2    H513151   0.518   2.824  10.243  1.7052  0.2737  0.4178
  897MPD2    N113152   0.744   2.856   9.828  0.5990  0.4625  0.0682
  897MPD2    H713153   0.808   2.847   9.750 -2.0190  2.3599 -2.2840
  898MPD2     C13154   2.884   3.002  17.495  0.1896 -0.3969  0.6454
  898MPD2    C113155   2.936   3.115  17.557  0.3886 -0.4152 -0.0697
  898MPD2    C213156   2.939   3.231  17.490 -0.3653  0.3168 -0.3659
  898MPD2    C313157   2.885   3.246  17.367 -0.1076 -0.1436 -0.1314
  898MPD2    C413158   2.828   3.138  17.306  0.3507  0.1709  0.1813
  898MPD2    C513159   2.834   3.012  17.366  0.1503  0.9388  0.4127
  898MPD2     H13160   2.952   3.318  17.554  2.1835  0.6573 -1.3638
  898MPD2    H113161   2.782   3.148  17.208  0.9842 -0.9522 -0.2399
  898MPD2    H213162   2.877   2.907  17.546  0.3945 -0.7746 -0.0256
  898MPD2    H313163   2.800   2.919  17.323 -0.8760  0.7923  1.5786
  898MPD2     N13164   2.882   3.369  17.300  0.3650 -0.3763  0.0256
  898MPD2    H513165   2.919   3.446  17.354 -0.2629  1.2679 -1.8922
  898MPD2    N113166   2.975   3.118   0.009  0.0503  0.1666  0.2641
  898MPD2    H713167   3.013   3.204   0.046  0.3872 -0.3608  1.1502
  899MPD2     C13168   3.339   3.855  17.245  0.1478  0.6662 -0.3403
  899MPD2    C113169   3.284   3.959  17.174  0.2391  0.0562 -0.4246
  899MPD2    C213170   3.170   4.014  17.228 -0.0091 -0.2057 -0.0620
  899MPD2    C313171   3.124   3.974  17.356  0.2391  0.2960 -0.6242
  899MPD2    C413172   3.186   3.872  17.421 -0.1534  0.0979  0.2573
  899MPD2    C513173   3.293   3.810  17.365 -0.2781  0.0602 -0.8103
  899MPD2     H13174   3.111   4.089  17.175  0.2701  1.6461  2.2484
  899MPD2    H113175   3.144   3.839  17.516  0.1939 -0.8505  0.0754
  899MPD2    H213176   3.427   3.808  17.203 -1.4316 -2.8477  0.3453
  899MPD2    H313177   3.330   3.726  17.423  1.1974 -0.9094 -3.1897
  899MPD2     N13178   3.027   4.051  17.428 -0.0298 -0.6749 -0.7747
  899MPD2    H513179   2.988   4.016  17.515  2.2786  1.5319  1.1523
  899MPD2    N113180   3.337   3.993  17.054  0.5352  0.0768  0.0417
  899MPD2    H713181   3.421   3.943  17.026  1.7127  2.0028  0.1359
  900MPD2     C13182   3.603   1.144  12.750 -0.0206 -0.1835  0.2459
  900MPD2    C113183   3.579   1.021  12.699 -0.1898 -0.3148  0.1922
  900MPD2    C213184   3.470   1.015  12.618 -0.0353 -0.4436  0.8520
  900MPD2    C313185   3.401   1.126  12.574  0.2931 -0.1781  0.0713
  900MPD2    C413186   3.422   1.248  12.632 -0.3501 -0.6225  0.5410
  900MPD2    C513187   3.526   1.257  12.725  0.6246  0.0183 -0.2483
  900MPD2     H13188   3.454   0.915  12.577  0.5309  0.0590 -0.5794
  900MPD2    H113189   3.364   1.337  12.611  0.1701 -0.2959  0.4772
  900MPD2    H213190   3.683   1.173  12.817  1.1768 -0.6267 -0.9921
  900MPD2    H313191   3.547   1.343  12.788  1.7116 -0.1230 -0.4094
  900MPD2     N13192   3.316   1.106  12.453 -0.0724 -0.2957 -0.1472
  900MPD2    H513193   3.294   1.010  12.429 -1.4492 -0.0952  0.3268
  900MPD2    N113194   3.653   0.909  12.742  0.0668 -0.6214 -0.6308
  900MPD2    H713195   3.740   0.928  12.792 -0.7319 -0.3462  0.6502
  901MPD2     C13196   3.785   4.561  12.996 -0.1558  0.3810 -0.5546
  901MPD2    C113197   3.854   4.586  12.876 -0.7475 -0.8315  0.3746
  901MPD2    C213198   3.838   4.711  12.816 -0.1889  0.2014 -0.4353
  901MPD2    C313199   3.773   0.089  12.879 -0.5454  0.0035 -0.1507
  901MPD2    C413200   3.709   0.066  12.998  0.0254  0.8401 -0.3825
  901MPD2    C513201   3.707   4.661  13.053 -0.4112 -0.6220 -0.2790
  901MPD2     H13202   3.886   0.010  12.720 -0.6892 -0.1163 -0.7519
  901MPD2    H113203   3.655   0.145  13.049 -1.2063  0.5387 -1.2093
  901MPD2    H213204   3.796   4.466  13.048 -0.9085 -0.0598 -1.2031
  901MPD2    H313205   3.658   4.642  13.148 -1.6777  0.2694 -0.7515
  901MPD2     N13206   3.777   0.217  12.820  0.0631 -0.5810 -0.4122
  901MPD2    H513207   3.832   0.226  12.735  0.5615  1.1298  0.0851
  901MPD2    N113208   3.908   4.481  12.809 -0.2479 -0.2994 -0.3225
  901MPD2    H713209   3.906   4.394  12.861 -0.8893 -0.4078 -0.5306
  902MPD2     C13210   2.352   3.514  13.218 -0.4152  0.1458  0.0967
  902MPD2    C113211   2.273   3.571  13.124  0.1105  0.1839 -0.8579
  902MPD2    C213212   2.255   3.523  13.002 -0.2328  0.2239  0.7617
  902MPD2    C313213   2.313   3.401  12.973 -0.4418  0.0080  0.2402
  902MPD2    C413214   2.399   3.339  13.062 -0.9111 -0.0170  0.3736
  902MPD2    C513215   2.426   3.406  13.181  0.3192  0.0610  0.0401
  902MPD2     H13216   2.189   3.567  12.927  0.5300  0.5283  0.2661
  902MPD2    H113217   2.455   3.251  13.033  0.3337  1.1930 -0.9130
  902MPD2    H213218   2.365   3.566  13.312  0.0713 -1.1634  0.7617
  902MPD2    H313219   2.511   3.378  13.241  1.1106  1.1169 -0.5884
  902MPD2     N13220   2.317   3.355  12.839 -0.2391 -0.1678 -0.3470
  902MPD2    H513221   2.366   3.268  12.819 -1.6500 -0.8355 -0.9150
  902MPD2    N113222   2.218   3.694  13.162  0.2299 -0.4701  0.3125
  902MPD2    H713223   2.247   3.729  13.253 -0.3984 -0.4933  0.5227
  903MPD2     C13224   2.313   3.408  11.910 -0.6422  0.5668 -0.0745
  903MPD2    C113225   2.231   3.429  12.014 -0.2374 -0.8413  0.0019
  903MPD2    C213226   2.103   3.474  11.990  0.3090  0.2671  0.4315
  903MPD2    C313227   2.062   3.508  11.864 -0.2162  0.2140  0.2013
  903MPD2    C413228   2.148   3.485  11.758  1.3163 -0.4818  0.0147
  903MPD2    C513229   2.275   3.435  11.787  0.5151 -0.2193  0.5309
  903MPD2     H13230   2.033   3.483  12.072 -0.4222  0.0128 -0.1627
  903MPD2    H113231   2.124   3.505  11.655  1.8600 -1.3412 -0.2741
  903MPD2    H213232   2.415   3.395  11.943 -0.5284 -0.0147 -0.6664
  903MPD2    H313233   2.348   3.446  11.707 -0.4933  1.3865 -0.1640
  903MPD2     N13234   1.932   3.557  11.852 -0.4638 -0.3067 -0.0753
  903MPD2    H513235   1.872   3.561  11.933 -1.8232 -0.8274 -1.0647
  903MPD2    N113236   2.280   3.405  12.145 -0.2807  0.8390  0.3776
  903MPD2    H713237   2.378   3.380  12.155  0.0678  2.2899  0.6306
  904MPD2     C13238   1.626   3.651  13.621  0.1353  0.7242  0.2557
  904MPD2    C113239   1.648   3.542  13.698 -0.6898  0.2172  0.0149
  904MPD2    C213240   1.776   3.509  13.749 -0.4572  0.2430 -0.2055
  904MPD2    C313241   1.883   3.591  13.713 -0.0958 -0.7477  0.4050
  904MPD2    C413242   1.865   3.696  13.630 -0.0080  0.6324 -0.1599
  904MPD2    C513243   1.735   3.725  13.585  1.5370  0.1297  0.2164
  904MPD2     H13244   1.803   3.425  13.811 -3.9519  0.1737  1.2200
  904MPD2    H113245   1.951   3.757  13.604  0.2415  0.3199 -0.0697
  904MPD2    H213246   1.536   3.688  13.571  0.1128  2.8759  1.9305
  904MPD2    H313247   1.738   3.808  13.515 -2.5721 -1.3291 -1.6589
  904MPD2     N13248   2.009   3.543  13.753 -0.0670  0.1172  0.1304
  904MPD2    H513249   2.017   3.475  13.828  1.0570 -0.2762 -0.3552
  904MPD2    N113250   1.547   3.440  13.722  0.4546  0.7139  0.6553
  904MPD2    H713251   1.565   3.376  13.799  1.1646 -0.5395 -0.5732
  905MPD2     C13252   0.809   2.902  13.744 -0.2619  0.5896  0.1710
  905MPD2    C113253   0.901   2.949  13.658 -0.2211  0.1582 -0.2733
  905MPD2    C213254   0.913   2.896  13.532 -0.2668  0.4771  0.2797
  905MPD2    C313255   0.837   2.789  13.493  0.1175 -0.1446 -0.4210
  905MPD2    C413256   0.745   2.743  13.584 -0.4223 -0.2750  0.0137
  905MPD2    C513257   0.725   2.805  13.703  0.5425 -0.6481  0.0254
  905MPD2     H13258   0.976   2.944  13.459 -0.7331  1.1489  0.3189
  905MPD2    H113259   0.681   2.658  13.563 -1.1264  0.1154  0.5731
  905MPD2    H213260   0.796   2.944  13.843  0.3398  0.5245  0.2751
  905MPD2    H313261   0.651   2.762  13.770  0.8302 -0.3957  0.5113
  905MPD2     N13262   0.852   2.719  13.369 -0.4209 -0.1876  0.5009
  905MPD2    H513263   0.795   2.636  13.357  1.8676 -1.5212 -1.2066
  905MPD2    N113264   0.985   3.053  13.707  0.6899  0.5509  0.1222
  905MPD2    H713265   0.976   3.086  13.803 -0.4767  0.1816  0.1389
  906MPD2     C13266   4.340   3.264  11.069 -0.9228  0.5041 -0.7007
  906MPD2    C113267   4.334   3.171  10.966  0.4118  0.0859 -0.4446
  906MPD2    C213268   4.361   3.038  10.999  0.5013 -0.2981 -0.4180
  906MPD2    C313269   4.403   3.001  11.129 -0.1202  0.5453  0.4460
  906MPD2    C413270   4.408   3.106  11.224  1.0422  0.8830 -0.3139
  906MPD2    C513271   4.382   3.234  11.192 -0.6090 -0.6584  0.4346
  906MPD2     H13272   4.343   2.965  10.921 -2.1794 -0.0594 -0.0115
  906MPD2    H113273   4.445   3.087  11.324 -0.0149  0.8279  0.0642
  906MPD2    H213274   4.311   3.367  11.052  0.9337  1.0484 -0.5812
  906MPD2    H313275   4.381   3.306  11.273 -0.8859  0.6350 -0.7095
  906MPD2     N13276   4.456   2.867  11.167  0.2582 -0.5323  0.8090
  906MPD2    H513277   4.475   2.856  11.266 -0.6776 -0.1032  1.0381
  906MPD2    N113278   4.303   3.199  10.836 -0.4937 -0.1524  0.1535
  906MPD2    H713279   4.278   3.120  10.776 -0.7690  0.7975 -0.9754
  907MPD2     C13280   2.731   2.193  15.516 -1.0244 -0.3496 -0.0615
  907MPD2    C113281   2.801   2.082  15.481  0.5745 -0.0330  0.2998
  907MPD2    C213282   2.902   2.049  15.566  0.7981  0.8736  0.6830
  907MPD2    C313283   2.922   2.108  15.694 -0.1897 -0.4178 -0.2835
  907MPD2    C413284   2.843   2.216  15.721  0.9754  0.2449 -0.2731
  907MPD2    C513285   2.753   2.261  15.633 -0.5263 -0.9191 -0.4568
  907MPD2     H13286   2.963   1.964  15.541  1.7681  1.8373 -0.2506
  907MPD2    H113287   2.863   2.266  15.815 -0.7662 -0.7063  0.6036
  907MPD2    H213288   2.658   2.239  15.450 -1.2649  1.9302  1.7858
  907MPD2    H313289   2.703   2.353  15.661  0.1472 -0.7752  0.2896
  907MPD2     N13290   3.019   2.053  15.779 -0.8201 -0.2081 -0.2567
  907MPD2    H513291   3.090   1.991  15.741 -1.2834  0.2642 -1.8610
  907MPD2    N113292   2.788   2.004  15.365 -0.0611  1.1191  0.2817
  907MPD2    H713293   2.857   1.931  15.350 -1.7065 -0.5668  0.9849
  908MPD2     C13294   0.141   3.443   9.338 -0.3457  0.5515 -1.0370
  908MPD2    C113295   0.208   3.337   9.276 -0.2343 -0.0916 -0.1945
  908MPD2    C213296   0.321   3.292   9.327  0.2284  0.2471  0.2009
  908MPD2    C313297   0.377   3.355   9.436  0.8160 -0.5904 -0.3610
  908MPD2    C413298   0.308   3.455   9.500 -0.5370  0.4361 -0.6257
  908MPD2    C513299   0.194   3.499   9.453  0.4078 -0.0497 -0.8847
  908MPD2     H13300   0.377   3.214   9.277 -0.3741 -1.6747  2.5048
  908MPD2    H113301   0.340   3.496   9.595  0.3814 -2.3899  0.2840
  908MPD2    H213302   0.045   3.484   9.311 -0.2853  0.7278 -0.9793
  908MPD2    H313303   0.136   3.570   9.511  0.1184 -0.4658 -0.6677
  908MPD2     N13304   0.492   3.303   9.498 -0.5331  0.3366 -0.6862
  908MPD2    H513305   0.520   3.209   9.469 -1.6545  0.0679 -0.8793
  908MPD2    N113306   0.164   3.261   9.164 -0.6665  0.0646  0.3230
  908MPD2    H713307   0.225   3.197   9.115  0.4611  2.1631 -1.0229
  909MPD2     C13308   1.130   0.553  11.809  0.4734  0.4024  0.3562
  909MPD2    C113309   1.185   0.668  11.748 -0.4726 -0.2090  0.0756
  909MPD2    C213310   1.126   0.792  11.776  0.8058  0.0618  0.4872
  909MPD2    C313311   1.019   0.798  11.850  0.5077  0.5603  0.7197
  909MPD2    C413312   0.970   0.688  11.913  0.7297  0.1434 -0.2289
  909MPD2    C513313   1.020   0.569  11.890  0.2706 -0.2436  0.3080
  909MPD2     H13314   1.163   0.872  11.714  0.1772  1.1531  1.5288
  909MPD2    H113315   0.880   0.692  11.973  0.6325 -0.0687 -0.3577
  909MPD2    H213316   1.173   0.459  11.778  0.2418  0.7066 -0.9018
  909MPD2    H313317   0.969   0.483  11.931 -1.1635  0.4266 -0.0600
  909MPD2     N13318   0.951   0.925  11.852  0.5510 -0.3137 -0.2422
  909MPD2    H513319   0.990   0.997  11.792 -0.6157  0.5720  0.0731
  909MPD2    N113320   1.293   0.666  11.653  0.0940 -0.2020 -0.0647
  909MPD2    H713321   1.313   0.759  11.619 -1.3737  0.9904  2.2947
  910MPD2     C13322   1.982   2.430  16.136  0.8849  0.1213  0.0509
  910MPD2    C113323   2.068   2.425  16.031 -0.1218 -0.5550 -0.0244
  910MPD2    C213324   2.039   2.493  15.922 -0.2210 -0.2361 -0.1064
  910MPD2    C313325   1.925   2.575  15.903  0.0686 -0.1895  0.3467
  910MPD2    C413326   1.838   2.583  16.010  0.6268  0.1874 -0.9622
  910MPD2    C513327   1.864   2.510  16.126 -0.3732 -1.0433  0.1481
  910MPD2     H13328   2.115   2.507  15.844  0.3697  2.2949  0.8994
  910MPD2    H113329   1.737   2.623  16.009  0.4909 -0.1460 -0.6631
  910MPD2    H213330   1.996   2.387  16.235 -0.6428 -0.9812 -0.2143
  910MPD2    H313331   1.798   2.515  16.211  0.4364 -0.0759  0.7180
  910MPD2     N13332   1.885   2.645  15.786 -0.1684 -0.9865 -0.1139
  910MPD2    H513333   1.790   2.681  15.787  0.1055 -0.2683  0.5614
  910MPD2    N113334   2.191   2.357  16.042 -0.0961  0.0190  1.0416
  910MPD2    H713335   2.253   2.361  15.961  0.9191 -1.7852  1.7379
  911MPD2     C13336   0.214   2.851  16.428  0.1225 -0.6418  0.3221
  911MPD2    C113337   0.238   2.974  16.467  0.0427 -0.6658  0.3641
  911MPD2    C213338   0.137   3.068  16.458  0.0898 -0.4665 -0.3999
  911MPD2    C313339   0.010   3.029  16.413 -0.4914  1.1210 -0.1382
  911MPD2    C413340   4.705   2.898  16.384  0.0437  0.3304  0.3133
  911MPD2    C513341   0.090   2.808  16.392 -0.0642  0.0371 -1.2156
  911MPD2     H13342   0.154   3.168  16.494 -1.3041  0.1541 -1.4767
  911MPD2    H113343   4.610   2.855  16.355  0.5516 -0.1132 -0.6793
  911MPD2    H213344   0.296   2.780  16.432  0.1235 -0.8701 -3.2946
  911MPD2    H313345   0.068   2.704  16.374 -1.0813  0.1032 -0.3444
  911MPD2     N13346   4.625   3.112  16.391 -0.3953  0.0400  0.3901
  911MPD2    H513347   4.551   3.068  16.338 -1.2200  2.7817 -0.7628
  911MPD2    N113348   0.372   2.997  16.500  0.0489 -0.3882 -0.0649
  911MPD2    H713349   0.437   2.919  16.496  0.9812  0.5834 -4.0699
  912MPD2     C13350   4.629   2.853  15.840 -0.5125  0.1189 -0.0713
  912MPD2    C113351   4.554   2.886  15.948  0.3791 -0.4790  0.0276
  912MPD2    C213352   4.515   2.786  16.038 -0.0292  0.4762 -0.2717
  912MPD2    C313353   4.559   2.657  16.014  0.2248 -0.2201  0.0026
  912MPD2    C413354   4.635   2.624  15.905 -0.0501  0.9744  0.9919
  912MPD2    C513355   4.661   2.722  15.819 -0.7406 -0.0110 -0.0771
  912MPD2     H13356   4.438   2.799  16.113 -0.4875  0.7869 -0.7891
  912MPD2    H113357   4.650   2.524  15.865  1.5940  1.6220  0.0111
  912MPD2    H213358   4.648   2.922  15.759 -1.3668  2.5983  1.8649
  912MPD2    H313359   4.710   2.691  15.727 -1.3466 -2.3214  0.3907
  912MPD2     N13360   4.501   2.552  16.092  0.0526 -0.2125 -0.5067
  912MPD2    H513361   4.421   2.575  16.150 -0.9811 -0.0134 -2.0049
  912MPD2    N113362   4.507   3.017  15.956  0.6669  0.2937  0.6027
  912MPD2    H713363   4.536   3.086  15.888 -1.3344  0.5254 -0.0242
  913MPD2     C13364   1.243   3.914  10.501  0.7706 -0.2716 -0.3816
  913MPD2    C113365   1.284   4.041  10.540 -0.2358 -0.1011 -0.0692
  913MPD2    C213366   1.298   4.140  10.445  0.1909 -0.3108 -0.9560
  913MPD2    C313367   1.267   4.112  10.308  0.3479  0.2290  0.0348
  913MPD2    C413368   1.222   3.983  10.273 -0.4482 -0.2952 -0.2569
  913MPD2    C513369   1.214   3.886  10.371 -0.1092 -0.6319  0.0861
  913MPD2     H13370   1.330   4.243  10.460  1.4393 -0.5112 -2.2031
  913MPD2    H113371   1.190   3.954  10.174 -2.0637 -0.3380  0.2731
  913MPD2    H213372   1.218   3.841  10.576  0.3063 -0.0040 -0.2795
  913MPD2    H313373   1.161   3.798  10.337 -0.3924 -0.4812  0.1375
  913MPD2     N13374   1.276   4.218  10.206  0.0825 -0.1835 -0.3082
  913MPD2    H513375   1.265   4.173  10.116 -0.6786  0.0005 -0.3029
  913MPD2    N113376   1.311   4.065  10.680 -0.0133  0.0669 -0.1264
  913MPD2    H713377   1.286   3.993  10.748 -2.5203  0.9462 -0.1429
  914MPD2     C13378   3.414   4.313  12.066  0.4201  0.1497  0.6038
  914MPD2    C113379   3.453   4.424  12.140  0.1046 -1.2343  0.3911
  914MPD2    C213380   3.565   4.418  12.215 -0.1711 -0.6776  0.4097
  914MPD2    C313381   3.634   4.301  12.224 -0.4895 -0.1276 -0.0621
  914MPD2    C413382   3.595   4.191  12.152  0.3717  0.4779 -0.3977
  914MPD2    C513383   3.494   4.199  12.061 -0.5647 -0.2016  0.1213
  914MPD2     H13384   3.599   4.504  12.271 -1.7145  0.0835  0.1749
  914MPD2    H113385   3.645   4.095  12.154 -1.2835 -0.3884 -0.1069
  914MPD2    H213386   3.328   4.324  12.001 -0.6511  2.5860  2.4588
  914MPD2    H313387   3.476   4.114  11.996  0.0541  0.6447 -1.1550
  914MPD2     N13388   3.753   4.292  12.304 -0.9975 -0.2883 -0.3048
  914MPD2    H513389   3.765   4.370  12.368  4.0344  1.5270 -3.4386
  914MPD2    N113390   3.368   4.532  12.125  0.2192 -0.7279 -0.5445
  914MPD2    H713391   3.286   4.519  12.066 -0.2863  1.6098 -0.3428
  915MPD2     C13392   1.768   0.186  15.510  0.2651  0.0670  0.0621
  915MPD2    C113393   1.635   0.187  15.482  0.1260  0.9524  0.2906
  915MPD2    C213394   1.551   0.204  15.591  0.2945  0.5358 -0.6569
  915MPD2    C313395   1.594   0.200  15.719  0.4017  0.3080 -0.7809
  915MPD2    C413396   1.726   0.218  15.742 -0.0637 -0.1103 -0.0568
  915MPD2    C513397   1.812   0.199  15.641 -0.3041 -0.2686  0.4186
  915MPD2     H13398   1.443   0.196  15.582  0.3224 -0.8820  0.2951
  915MPD2    H113399   1.761   0.227  15.845 -0.4640 -2.1550  0.2595
  915MPD2    H213400   1.843   0.166  15.434  0.7550  3.0733 -0.2330
  915MPD2    H313401   1.917   0.195  15.667 -0.2180  0.1371  0.1445
  915MPD2     N13402   1.499   0.200  15.824 -0.1431 -0.1360 -0.4329
  915MPD2    H513403   1.402   0.190  15.797 -0.1324  2.1427 -1.3279
  915MPD2    N113404   1.591   0.165  15.349  0.9928 -0.8843  0.0258
  915MPD2    H713405   1.657   0.139  15.276  2.1565  2.6582 -0.1713
  916MPD2     C13406   4.219   2.842  15.827  0.2768  0.2365 -0.4045
  916MPD2    C113407   4.177   2.724  15.885  0.2420 -0.0380 -0.5689
  916MPD2    C213408   4.227   2.608  15.831 -0.2762 -0.2269  1.2074
  916MPD2    C313409   4.308   2.609  15.719  1.1402  0.2351 -0.1320
  916MPD2    C413410   4.330   2.729  15.655  0.0990  0.4111  0.0092
  916MPD2    C513411   4.300   2.847  15.720  0.1304 -0.6456 -0.3682
  916MPD2     H13412   4.202   2.514  15.880  0.4506 -0.5031  1.0443
  916MPD2    H113413   4.385   2.747  15.563  0.7315  0.9852  0.5051
  916MPD2    H213414   4.200   2.936  15.877  2.8950 -0.1515  1.3091
  916MPD2    H313415   4.337   2.937  15.673  2.0467 -1.7028 -0.9198
  916MPD2     N13416   4.348   2.483  15.663 -1.2612 -0.2020  0.0211
  916MPD2    H513417   4.314   2.399  15.709 -1.5712 -0.2797 -0.3519
  916MPD2    N113418   4.090   2.730  15.998  0.2809 -0.7024 -0.0533
  916MPD2    H713419   4.046   2.820  16.017  0.2159 -0.0056 -3.3223
  917MPD2     C13420   4.525   0.557  10.882 -0.0930 -0.4387 -0.3078
  917MPD2    C113421   4.552   0.629  10.993 -0.0427 -0.9780 -0.3844
  917MPD2    C213422   4.619   0.745  10.982  0.6286  0.0705  0.6969
  917MPD2    C313423   4.677   0.781  10.862 -0.8662 -0.0781 -0.3715
  917MPD2    C413424   4.658   0.696  10.750  0.3168  0.1703 -0.2686
  917MPD2    C513425   4.576   0.588  10.761  0.2524 -0.4652 -0.1465
  917MPD2     H13426   4.638   0.806  11.069  0.2292 -0.5185  1.1891
  917MPD2    H113427   4.712   0.710  10.657  0.6969 -0.2103 -0.1057
  917MPD2    H213428   4.478   0.459  10.887 -1.6160  0.3138  0.1841
  917MPD2    H313429   4.558   0.523  10.677  1.7049 -1.2025  0.1092
  917MPD2     N13430   0.027   0.903  10.825 -0.6986 -0.4914 -0.2185
  917MPD2    H513431   0.054   0.912  10.727 -1.3546 -1.6490 -0.5028
  917MPD2    N113432   4.510   0.579  11.126 -0.3646 -0.1197  0.0010
  917MPD2    H713433   4.454   0.495  11.129  0.7930 -0.8115  2.2742
  918MPD2     C13434   0.172   0.557  12.113  0.4997  0.5840  0.2333
  918MPD2    C113435   0.184   0.441  12.044  0.2348  0.1680 -0.1318
  918MPD2    C213436   0.108   0.426  11.930 -0.0288 -0.3429  0.0417
  918MPD2    C313437   0.034   0.532  11.886  0.3804 -0.0774 -0.6409
  918MPD2    C413438   0.040   0.651  11.948  0.0035  0.1884  0.9284
  918MPD2    C513439   0.100   0.657  12.071 -1.4450  0.2288  0.2781
  918MPD2     H13440   0.109   0.327  11.886  1.0160 -0.1076 -0.4379
  918MPD2    H113441   4.695   0.733  11.925  0.2066 -0.0514 -0.4861
  918MPD2    H213442   0.225   0.574  12.206  1.8127  1.6671 -0.7069
  918MPD2    H313443   0.085   0.745  12.133 -0.0201 -0.0073  0.9590
  918MPD2     N13444   4.680   0.507  11.769 -0.2784  0.6881  0.5154
  918MPD2    H513445   4.698   0.419  11.722  2.2700  1.3473  0.2616
  918MPD2    N113446   0.263   0.335  12.095 -0.0555  0.3269  0.3902
  918MPD2    H713447   0.285   0.256  12.035 -3.3764 -0.9606  0.8449
  919MPD2     C13448   0.983   4.393  11.087 -0.9410  0.4519 -0.0267
  919MPD2    C113449   0.916   4.292  11.030  0.1383  0.4589 -0.1601
  919MPD2    C213450   0.933   4.265  10.894 -0.3824 -0.4272  0.6816
  919MPD2    C313451   1.009   4.349  10.816  0.5665 -0.8300 -0.1566
  919MPD2    C413452   1.065   4.460  10.871  0.1708 -0.1495 -0.2416
  919MPD2    C513453   1.059   4.477  11.006 -0.2282 -0.1796  0.0201
  919MPD2     H13454   0.874   4.181  10.861 -3.0601  1.3781  0.9264
  919MPD2    H113455   1.113   4.533  10.806  2.3731 -3.0323 -1.8625
  919MPD2    H213456   0.978   4.400  11.195  2.3533 -3.1660  0.3358
  919MPD2    H313457   1.130   4.547  11.050  0.1363  0.7997 -2.1436
  919MPD2     N13458   1.026   4.326  10.683  0.8643 -0.8146  0.1346
  919MPD2    H513459   1.087   4.379  10.622 -0.3890  1.6973  1.0800
  919MPD2    N113460   0.825   4.206  11.101  0.0426 -1.0851 -1.6762
  919MPD2    H713461   0.793   4.125  11.049 -0.2623 -1.6924 -0.5436
  920MPD2     C13462   0.688   0.077   9.882 -0.1557  0.0321  0.4402
  920MPD2    C113463   0.617   4.678   9.889 -0.5745 -1.0701 -0.5293
  920MPD2    C213464   0.658   4.582   9.977  0.5835  0.0807  0.1933
  920MPD2    C313465   0.764   4.603  10.062 -0.8361 -0.7887  0.5214
  920MPD2    C413466   0.837   4.714  10.052 -0.7583  0.1881  0.7339
  920MPD2    C513467   0.799   0.089   9.957 -0.2562  0.2628 -0.6262
  920MPD2     H13468   0.598   4.492   9.982  0.4868  0.0436 -1.8930
  920MPD2    H113469   0.921   0.015  10.117  0.9607  1.1740 -1.8279
  920MPD2    H213470   0.660   0.158   9.817 -2.3612  0.3431  1.7974
  920MPD2    H313471   0.847   0.184   9.940  0.5720 -0.0885 -0.2482
  920MPD2     N13472   0.801   4.496  10.143 -0.3721 -0.2454 -0.7605
  920MPD2    H513473   0.743   4.415  10.125  1.9758 -1.7957 -1.3250
  920MPD2    N113474   0.512   4.645   9.804  0.8009 -0.1685 -0.8050
  920MPD2    H713475   0.481   4.548   9.798 -0.6254  0.3074 -1.0420
  921MPD2     C13476   0.982   3.721  16.935 -0.0103  0.1379 -0.6751
  921MPD2    C113477   1.053   3.606  16.896 -0.0874  0.3191  0.2362
  921MPD2    C213478   0.983   3.500  16.851  0.2425  0.0353  0.2759
  921MPD2    C313479   0.843   3.507  16.836  0.4947 -0.3407  0.3696
  921MPD2    C413480   0.771   3.620  16.859  0.5719 -0.1172  0.2626
  921MPD2    C513481   0.842   3.720  16.911 -0.4492 -0.6340  0.6245
  921MPD2     H13482   1.036   3.416  16.808  0.0617 -0.3806  0.8686
  921MPD2    H113483   0.664   3.638  16.848  0.2435 -1.6802  0.8018
  921MPD2    H213484   1.031   3.817  16.947  3.6564 -1.8107  0.0028
  921MPD2    H313485   0.789   3.810  16.936 -1.1137 -0.9244  0.2477
  921MPD2     N13486   0.768   3.398  16.783  0.5226  1.1765  0.2028
  921MPD2    H513487   0.670   3.408  16.759  0.2384 -0.0546  0.8295
  921MPD2    N113488   1.196   3.597  16.912  0.5033  0.1378  0.2170
  921MPD2    H713489   1.247   3.684  16.920 -0.2119  0.3872  1.9714
  922MPD2     C13490   1.747   1.348  17.031  0.1213  0.1666  0.5849
  922MPD2    C113491   1.674   1.325  17.149  0.1371 -0.1528  0.1239
  922MPD2    C213492   1.680   1.193  17.194 -0.2691  0.2122  0.4648
  922MPD2    C313493   1.749   1.093  17.127  0.1905 -0.2074  0.1526
  922MPD2    C413494   1.812   1.119  17.011  0.1378 -0.4482  0.1194
  922MPD2    C513495   1.809   1.248  16.971 -0.6453  0.1994  0.1998
  922MPD2     H13496   1.626   1.175  17.286  0.3332 -2.4719  0.2927
  922MPD2    H113497   1.879   1.051  16.959 -0.4522 -0.6459 -0.3767
  922MPD2    H213498   1.761   1.448  16.992 -0.2200  0.5532  1.4699
  922MPD2    H313499   1.867   1.272  16.882 -0.7070 -2.7532 -0.6294
  922MPD2     N13500   1.759   0.971  17.196 -0.2934  0.3388  0.5347
  922MPD2    H513501   1.709   0.962  17.284 -0.6620 -0.5008  0.2474
  922MPD2    N113502   1.626   1.435  17.226 -0.0869 -0.1345  0.1326
  922MPD2    H713503   1.646   1.527  17.186 -1.2271 -0.7480 -1.8419
  923MPD2     C13504   3.214   3.030   8.697 -0.1669  0.2774  0.4736
  923MPD2    C113505   3.208   3.075   8.829  0.2568  0.8977  0.1908
  923MPD2    C213506   3.304   3.043   8.918  0.2924  0.5259  0.6328
  923MPD2    C313507   3.417   2.985   8.879 -0.5305  1.1074 -0.0944
  923MPD2    C413508   3.430   2.943   8.749 -0.2924  0.7681  0.6491
  923MPD2    C513509   3.328   2.968   8.654 -0.1394  0.3139  0.0169
  923MPD2     H13510   3.294   3.072   9.021  0.1195 -0.2266  0.8289
  923MPD2    H113511   3.512   2.879   8.718 -0.0645  1.7224 -0.7242
  923MPD2    H213512   3.132   3.054   8.631  1.0180 -1.2860 -1.5573
  923MPD2    H313513   3.327   2.929   8.553 -0.7681  0.9544 -0.2183
  923MPD2     N13514   3.517   2.934   8.965  0.7633  0.3704  0.2597
  923MPD2    H513515   3.592   2.876   8.928  1.9022  0.9051  1.7592
  923MPD2    N113516   3.093   3.154   8.860 -0.1216  0.4526 -0.3589
  923MPD2    H713517   3.012   3.151   8.798 -0.5948  1.4334  0.1927
  924MPD2     C13518   3.314   1.227  15.682 -0.0683  0.4753 -0.2611
  924MPD2    C113519   3.240   1.230  15.800  0.5567  0.2404  0.0584
  924MPD2    C213520   3.209   1.352  15.860  0.2639 -0.6081 -0.0572
  924MPD2    C313521   3.252   1.469  15.803 -0.2268  0.0618  0.2772
  924MPD2    C413522   3.317   1.460  15.683  0.0761 -0.1872  0.3738
  924MPD2    C513523   3.344   1.345  15.617  0.6599 -0.1285 -0.1179
  924MPD2     H13524   3.160   1.353  15.956  0.3398 -0.0236 -0.0265
  924MPD2    H113525   3.343   1.547  15.624 -1.1837  0.4730  0.8005
  924MPD2    H213526   3.357   1.136  15.641 -2.1706 -0.9868  0.7760
  924MPD2    H313527   3.395   1.347  15.521 -0.4017  2.7877 -0.6433
  924MPD2     N13528   3.251   1.595  15.863  0.2681 -0.0862 -0.4139
  924MPD2    H513529   3.303   1.666  15.814 -0.5996 -0.2562 -1.5655
  924MPD2    N113530   3.225   1.103  15.859  0.2239 -0.5864  0.4981
  924MPD2    H713531   3.288   1.029  15.828  0.6655  0.0799 -0.1860
  925MPD2     C13532   2.078   3.568  14.546 -0.0587  0.1957  0.0873
  925MPD2    C113533   1.944   3.601  14.526 -0.2639  0.2589  0.0393
  925MPD2    C213534   1.865   3.623  14.637 -0.1223  0.0326  0.7351
  925MPD2    C313535   1.918   3.602  14.766 -0.1958 -0.3484 -0.1182
  925MPD2    C413536   2.049   3.557  14.782  0.2784  0.4178  0.1324
  925MPD2    C513537   2.125   3.539  14.668 -0.4078  0.4803 -0.0255
  925MPD2     H13538   1.757   3.636  14.628 -0.0096 -0.5017 -1.5639
  925MPD2    H113539   2.099   3.533  14.875 -0.1545  1.8599  0.7411
  925MPD2    H213540   2.142   3.542  14.462 -0.7722 -1.2267 -0.0181
  925MPD2    H313541   2.224   3.496  14.682 -1.0812 -0.5012  1.7894
  925MPD2     N13542   1.851   3.625  14.889  0.0186 -0.4684 -0.2922
  925MPD2    H513543   1.890   3.604  14.980  0.2636  0.1166 -0.2634
  925MPD2    N113544   1.889   3.629  14.395  0.2089 -0.5658  0.5468
  925MPD2    H713545   1.794   3.661  14.384  0.6637  0.7011  0.3591
  926MPD2     C13546   0.117   2.461  13.584 -0.7684  0.0215 -0.4151
  926MPD2    C113547   0.120   2.593  13.612  0.0717 -0.1015 -0.7081
  926MPD2    C213548   0.198   2.671  13.529  0.1005  0.1483  0.6516
  926MPD2    C313549   0.286   2.611  13.438 -0.3949 -0.4647  0.7377
  926MPD2    C413550   0.274   2.483  13.406  0.1930  0.3991 -0.3087
  926MPD2    C513551   0.185   2.410  13.475  0.1121 -0.5093 -0.8157
  926MPD2     H13552   0.201   2.778  13.544 -1.3155  0.4798 -1.3377
  926MPD2    H113553   0.329   2.435  13.326 -0.8994 -1.4620  0.0642
  926MPD2    H213554   0.039   2.408  13.638  1.3291 -1.9580  0.6146
  926MPD2    H313555   0.164   2.310  13.441  1.9150 -1.3477  0.5175
  926MPD2     N13556   0.375   2.697  13.353 -0.4497 -0.4557 -0.5455
  926MPD2    H513557   0.404   2.647  13.270  2.4989 -0.0229  0.2162
  926MPD2    N113558   0.034   2.645  13.713 -0.4361  0.5747  0.2677
  926MPD2    H713559   0.022   2.743  13.694 -2.0736  0.2660 -0.3276
  927MPD2     C13560   0.657   4.453   0.382  0.0945 -0.4158 -0.0376
  927MPD2    C113561   0.664   4.547   0.290 -0.4793  0.3314  0.7576
  927MPD2    C213562   0.721   4.515   0.160  0.0485 -0.3937  0.0815
  927MPD2    C313563   0.766   4.389   0.142  0.1086  0.2952 -0.2763
  927MPD2    C413564   0.757   4.297   0.247 -0.7866 -0.0461  0.7424
  927MPD2    C513565   0.690   4.325   0.366  0.3205  0.4001  0.6420
  927MPD2     H13566   0.728   4.580   0.073 -0.3220 -0.4473  0.0143
  927MPD2    H113567   0.791   4.194   0.247 -3.6014 -1.0021 -2.0313
  927MPD2    H213568   0.620   4.476   0.482 -0.2054  1.0482 -0.4876
  927MPD2    H313569   0.671   4.252   0.443  0.3900 -0.8804 -0.5581
  927MPD2     N13570   0.833   4.354   0.024  0.6553 -0.0510  0.1637
  927MPD2    H513571   0.817   4.408  17.626 -0.5379 -2.1113 -0.9438
  927MPD2    N113572   0.599   4.670   0.325 -0.0061 -0.0782  0.2163
  927MPD2    H713573   0.549   4.672   0.414 -2.6040  1.0929 -1.2622
  928MPD2     C13574   2.641   2.521   0.830 -0.3806 -0.2615  0.2298
  928MPD2    C113575   2.727   2.601   0.902  0.0536 -0.2600  0.0098
  928MPD2    C213576   2.847   2.634   0.843 -0.1089 -0.8649 -0.2963
  928MPD2    C313577   2.890   2.569   0.729 -0.3270 -0.7245 -0.2433
  928MPD2    C413578   2.805   2.482   0.669  0.6268 -0.5025  0.3720
  928MPD2    C513579   2.680   2.455   0.720 -0.1803  1.2410  0.6019
  928MPD2     H13580   2.911   2.705   0.894  0.7479 -0.6196 -1.7069
  928MPD2    H113581   2.832   2.433   0.576  1.7331 -0.2718  0.5708
  928MPD2    H213582   2.545   2.486   0.865 -0.1670 -0.8968  0.1693
  928MPD2    H313583   2.612   2.392   0.664  2.4590 -1.9374  0.9678
  928MPD2     N13584   3.018   2.591   0.667 -0.3563  0.1290  0.0712
  928MPD2    H513585   3.017   2.570   0.568 -1.8097  0.5519  0.0060
  928MPD2    N113586   2.677   2.661   1.025  0.2857  0.3971 -0.0518
  928MPD2    H713587   2.577   2.651   1.035  0.2318 -0.4246 -1.4982
  929MPD2     C13588   3.875   2.506  10.748 -0.4788 -0.5475  0.2857
  929MPD2    C113589   3.781   2.414  10.782  0.6637 -0.5543 -0.6619
  929MPD2    C213590   3.685   2.385  10.683 -0.3289  0.7424 -1.0321
  929MPD2    C313591   3.693   2.441  10.560  0.3642 -0.2166  0.5320
  929MPD2    C413592   3.776   2.551  10.534 -0.4594 -0.7650  0.2935
  929MPD2    C513593   3.866   2.573  10.633  0.1222 -0.1406 -0.0538
  929MPD2     H13594   3.605   2.313  10.699  0.0051  1.1303  2.5257
  929MPD2    H113595   3.784   2.608  10.443  0.3779 -0.8404  0.3137
  929MPD2    H213596   3.952   2.527  10.821 -0.1384 -0.3795 -0.1228
  929MPD2    H313597   3.940   2.652  10.620 -1.0103  1.2684  2.0150
  929MPD2     N13598   3.601   2.411  10.456 -0.2334 -0.6333  0.1218
  929MPD2    H513599   3.584   2.476  10.380  0.9707 -1.6055 -0.9658
  929MPD2    N113600   3.796   2.342  10.905 -0.4502 -0.7039 -0.1289
  929MPD2    H713601   3.854   2.381  10.978 -0.7025 -1.0828  0.2714
  930MPD2     C13602   0.566   0.292  14.307 -0.3378 -0.6414  0.2666
  930MPD2    C113603   0.506   0.402  14.248 -0.2499  0.0898 -0.4258
  930MPD2    C213604   0.383   0.380  14.186 -0.2641  0.5088 -0.3550
  930MPD2    C313605   0.312   0.261  14.180  0.1081  0.3799  1.3756
  930MPD2    C413606   0.378   0.159  14.249  0.4135  0.1911  0.4456
  930MPD2    C513607   0.506   0.168  14.305 -0.2210  0.2497  0.5274
  930MPD2     H13608   0.348   0.462  14.124  0.7777  0.8821 -0.4458
  930MPD2    H113609   0.336   0.059  14.253 -0.0618  0.3956  0.6069
  930MPD2    H213610   0.656   0.305  14.366  0.8788 -0.4936 -1.6406
  930MPD2    H313611   0.552   0.084  14.357 -0.5156 -1.0389 -1.2771
  930MPD2     N13612   0.195   0.231  14.120  0.3609 -0.5318 -0.0118
  930MPD2    H513613   0.161   0.137  14.105 -1.9117  0.4573 -1.0821
  930MPD2    N113614   0.583   0.518  14.242  0.0707 -0.0134  0.2080
  930MPD2    H713615   0.671   0.507  14.290  0.2533 -0.9352 -0.3652
  931MPD2     C13616   0.181   0.524   0.764 -0.8360  0.6403  0.0155
  931MPD2    C113617   0.248   0.402   0.750 -0.1514 -0.1330 -0.1991
  931MPD2    C213618   0.211   0.288   0.816  0.5987  0.3701  0.2523
  931MPD2    C313619   0.094   0.293   0.890  0.3805 -0.0514  0.6850
  931MPD2    C413620   0.042   0.414   0.912 -0.0809  0.3663  0.1605
  931MPD2    C513621   0.073   0.525   0.842 -0.4209 -0.1689  0.2708
  931MPD2     H13622   0.264   0.194   0.826 -0.3162 -0.2090 -0.4624
  931MPD2    H113623   4.678   0.425   0.979 -0.6334 -2.2590 -0.1081
  931MPD2    H213624   0.215   0.617   0.720  0.1981  1.0198  1.6313
  931MPD2    H313625   0.005   0.609   0.850  1.1581  1.0712  0.6525
  931MPD2     N13626   0.039   0.172   0.938  0.1866 -0.2441 -1.0027
  931MPD2    H513627   0.077   0.090   0.893  3.0975 -0.4033  1.7322
  931MPD2    N113628   0.356   0.400   0.658  0.4359  0.4227 -0.6162
  931MPD2    H713629   0.359   0.481   0.597 -0.4010  0.2551 -0.8808
  932MPD2     C13630   3.048   3.207  11.173 -0.0280  0.2782  0.1141
  932MPD2    C113631   3.053   3.311  11.263  0.6944  0.0323  0.4933
  932MPD2    C213632   3.103   3.284  11.390  0.0109 -0.5511  0.1435
  932MPD2    C313633   3.146   3.152  11.429  0.3369 -0.6017 -0.3418
  932MPD2    C413634   3.165   3.063  11.331 -1.0144 -0.4161 -0.6309
  932MPD2    C513635   3.111   3.093  11.210  0.7952  0.8553  0.2090
  932MPD2     H13636   3.104   3.365  11.462 -2.4024 -1.9074  1.6813
  932MPD2    H113637   3.229   2.978  11.352 -2.8261 -1.7771 -0.6530
  932MPD2    H213638   3.007   3.202  11.073  1.3601  0.4334 -0.4676
  932MPD2    H313639   3.110   3.018  11.132  0.6463  0.7745  0.2879
  932MPD2     N13640   3.170   3.124  11.565 -0.3106 -0.0840 -0.5045
  932MPD2    H513641   3.214   3.033  11.577 -2.2092 -0.8764  0.4572
  932MPD2    N113642   3.004   3.445  11.241  0.4408  0.3942  0.1032
  932MPD2    H713643   3.006   3.513  11.317  0.3060 -2.9614  3.0806
  933MPD2     C13644   2.048   2.665   1.308  0.2798  0.5857 -0.3234
  933MPD2    C113645   2.148   2.754   1.345  0.2369  0.1436  0.6164
  933MPD2    C213646   2.103   2.877   1.379  0.0502 -1.5069  0.5965
  933MPD2    C313647   1.967   2.907   1.380  0.3859 -0.0954 -0.1489
  933MPD2    C413648   1.873   2.815   1.372 -0.4498  0.1052 -0.1610
  933MPD2    C513649   1.912   2.692   1.328  0.4892  0.3987 -0.1111
  933MPD2     H13650   2.173   2.953   1.412 -0.4099 -0.1458 -1.5686
  933MPD2    H113651   1.769   2.842   1.379 -0.8043 -0.1715 -4.2339
  933MPD2    H213652   2.064   2.560   1.289 -0.2992  0.3734  0.3672
  933MPD2    H313653   1.839   2.614   1.310  2.0493 -0.5112 -2.4406
  933MPD2     N13654   1.938   3.047   1.397 -0.3680 -0.2663  0.5775
  933MPD2    H513655   2.019   3.106   1.414 -0.8919  0.4504  0.5812
  933MPD2    N113656   2.287   2.724   1.341  0.6389 -0.5567  0.2189
  933MPD2    H713657   2.315   2.640   1.292  0.8579 -1.0361  1.1543
  934MPD2     C13658   3.270   0.995   1.312  0.2014 -0.5968  0.0844
  934MPD2    C113659   3.394   0.940   1.292  0.6595  0.1426 -0.0212
  934MPD2    C213660   3.414   0.812   1.247  0.3360  0.0480  0.9401
  934MPD2    C313661   3.302   0.735   1.225  0.7184  0.2057  0.0119
  934MPD2    C413662   3.175   0.789   1.248 -0.2660 -0.5860  0.6162
  934MPD2    C513663   3.158   0.918   1.287 -0.9589  0.5613  0.1363
  934MPD2     H13664   3.513   0.772   1.228  0.2458  0.6339 -0.7545
  934MPD2    H113665   3.086   0.731   1.226 -0.3185  0.5819 -2.2531
  934MPD2    H213666   3.248   1.098   1.335  0.8813  0.0517 -2.1599
  934MPD2    H313667   3.058   0.959   1.292 -0.3878  1.6657  2.4604
  934MPD2     N13668   3.303   0.598   1.180  0.5656  0.4694  0.4319
  934MPD2    H513669   3.211   0.559   1.164  0.1063  0.1474  3.7807
  934MPD2    N113670   3.511   0.996   1.344  0.1987  0.0164 -0.1796
  934MPD2    H713671   3.583   0.925   1.358 -1.5783 -1.6735  0.2878
  935MPD2     C13672   3.955   4.700   0.710  0.3248 -0.5560  0.4779
  935MPD2    C113673   3.828   4.651   0.675 -1.1879  0.4195 -0.4916
  935MPD2    C213674   3.715   4.716   0.723 -0.1141  0.9949  0.2275
  935MPD2    C313675   3.734   0.101   0.808 -0.0563  0.3365  0.6054
  935MPD2    C413676   3.854   0.148   0.841 -0.3297  0.1560  0.1323
  935MPD2    C513677   3.964   0.088   0.794  0.1878  0.2612  0.5264
  935MPD2     H13678   3.619   4.668   0.712 -0.9977  2.2375  2.4278
  935MPD2    H113679   3.861   0.232   0.908 -0.7171  1.0480 -0.9460
  935MPD2    H213680   4.048   4.652   0.682 -0.1464  0.5389 -3.0153
  935MPD2    H313681   4.063   0.133   0.801  0.7678 -1.2494  1.9595
  935MPD2     N13682   3.633   0.161   0.886 -0.1857 -0.3365 -0.5760
  935MPD2    H513683   3.650   0.255   0.919 -0.7552 -0.3124 -0.3449
  935MPD2    N113684   3.815   4.532   0.599  0.4644  0.2607  0.5390
  935MPD2    H713685   3.722   4.500   0.574  0.6607 -1.2768  1.7552
  936MPD2     C13686   2.924   2.696  11.993  0.3158  0.0540 -0.3138
  936MPD2    C113687   3.004   2.594  12.035 -0.6424  0.1778  0.0507
  936MPD2    C213688   3.129   2.570  11.971 -0.3157 -0.8801  0.0101
  936MPD2    C313689   3.165   2.639  11.856 -0.1548 -0.5502  0.6870
  936MPD2    C413690   3.078   2.742  11.814 -0.1208 -0.7041  0.0068
  936MPD2    C513691   2.965   2.770  11.885  0.2916 -0.2259 -0.2652
  936MPD2     H13692   3.187   2.492  12.018  1.3147 -0.8381 -1.9738
  936MPD2    H113693   3.097   2.801  11.725  0.5097 -1.7263 -0.5388
  936MPD2    H213694   2.826   2.723  12.034  0.9175  1.0746  0.4631
  936MPD2    H313695   2.908   2.854  11.848  0.1230 -0.0701  0.3452
  936MPD2     N13696   3.289   2.625  11.793  0.4033  0.0760 -0.5045
  936MPD2    H513697   3.314   2.693  11.721  0.6392 -1.4284 -1.8472
  936MPD2    N113698   2.972   2.516  12.150  0.1558  0.0646 -0.2142
  936MPD2    H713699   3.048   2.459  12.186  0.0315  0.8340  1.2637
  937MPD2     C13700   0.732   3.535  10.969  0.9262  0.2916 -0.6086
  937MPD2    C113701   0.831   3.628  11.005  0.4543 -0.5152  0.3030
  937MPD2    C213702   0.940   3.626  10.921  0.1013  0.1250 -0.0759
  937MPD2    C313703   0.973   3.531  10.827  0.0022 -0.4613 -0.2087
  937MPD2    C413704   0.879   3.427  10.808 -0.1650  0.4162 -0.1493
  937MPD2    C513705   0.759   3.435  10.877  0.6140  0.3157 -0.5428
  937MPD2     H13706   1.002   3.714  10.932 -1.1194  0.9999 -0.2320
  937MPD2    H113707   0.892   3.349  10.734  2.2127  0.5350  0.1357
  937MPD2    H213708   0.636   3.533  11.020  1.0749  0.3987 -0.3234
  937MPD2    H313709   0.695   3.352  10.850  0.7912 -0.9241  2.7766
  937MPD2     N13710   1.098   3.545  10.759 -0.0692 -0.3492 -0.3459
  937MPD2    H513711   1.144   3.635  10.772 -1.1236  0.8235 -4.6476
  937MPD2    N113712   0.793   3.743  11.072  0.5831  0.0110  0.3749
  937MPD2    H713713   0.870   3.809  11.072  0.0724  0.5985 -2.7436
  938MPD2     C13714   2.729   4.262   0.590  0.9416 -0.5010  0.3835
  938MPD2    C113715   2.652   4.355   0.655  0.2435  0.8531  0.2982
  938MPD2    C213716   2.561   4.310   0.751  0.0763 -0.6113 -0.0544
  938MPD2    C313717   2.544   4.181   0.785  0.1068  0.1025  0.6887
  938MPD2    C413718   2.627   4.092   0.729 -0.6338  0.1571 -0.4913
  938MPD2    C513719   2.709   4.129   0.625 -0.6212 -0.8134  0.3670
  938MPD2     H13720   2.514   4.390   0.808  0.2464  1.7643 -3.1975
  938MPD2    H113721   2.620   3.984   0.744  0.1651  0.3563  1.3111
  938MPD2    H213722   2.798   4.291   0.512  1.3755 -0.9943  0.5805
  938MPD2    H313723   2.764   4.052   0.571  1.2698  1.4866 -0.9566
  938MPD2     N13724   2.473   4.138   0.902  0.0931 -0.2303 -0.5933
  938MPD2    H513725   2.490   4.043   0.932 -0.3906  0.2101  1.0757
  938MPD2    N113726   2.670   4.491   0.637 -0.3851  0.9469  0.2333
  938MPD2    H713727   2.608   4.551   0.690 -1.5630  0.9244 -1.1238
  939MPD2     C13728   3.790   1.808   1.245 -0.4754  0.6277 -0.7671
  939MPD2    C113729   3.711   1.797   1.132 -0.7009  0.0615 -0.3809
  939MPD2    C213730   3.753   1.724   1.030 -0.5791  0.3191  0.9590
  939MPD2    C313731   3.878   1.663   1.028 -0.1727 -0.1440 -0.1098
  939MPD2    C413732   3.949   1.653   1.151  0.0064  0.2784  0.0974
  939MPD2    C513733   3.901   1.729   1.257  0.4893  0.0466  0.4298
  939MPD2     H13734   3.696   1.720   0.937 -0.7812 -1.1850  1.1395
  939MPD2    H113735   4.038   1.593   1.161  0.5441  1.0575 -0.0144
  939MPD2    H213736   3.753   1.871   1.325 -2.0896 -3.1226  1.4515
  939MPD2    H313737   3.936   1.722   1.360 -2.6577 -1.1588  1.4083
  939MPD2     N13738   3.907   1.592   0.911  0.0153  0.6084  0.3498
  939MPD2    H513739   3.843   1.605   0.834 -0.3804  2.1809  0.9458
  939MPD2    N113740   3.584   1.874   1.131 -0.4718  0.1460  0.8637
  939MPD2    H713741   3.547   1.911   1.218  1.2085  1.8630  0.8365
  940MPD2     C13742   2.866   1.997  13.250 -0.6975  0.6129  0.1367
  940MPD2    C113743   2.970   2.023  13.333  0.0464  0.0493 -0.2005
  940MPD2    C213744   3.088   2.066  13.268 -0.1732 -0.0933 -0.2581
  940MPD2    C313745   3.102   2.070  13.130 -0.4457 -0.2217  0.4330
  940MPD2    C413746   2.997   2.027  13.053 -0.5713  0.0748  0.0828
  940MPD2    C513747   2.878   2.001  13.115  0.1211  0.4512  0.2403
  940MPD2     H13748   3.176   2.072  13.332  0.2654 -1.4346 -0.7244
  940MPD2    H113749   3.010   2.023  12.945  0.9550  1.6041  0.2035
  940MPD2    H213750   2.778   1.949  13.290  1.3793 -1.4602  2.1569
  940MPD2    H313751   2.792   1.965  13.059  1.2100 -0.0440 -1.0827
  940MPD2     N13752   3.225   2.092  13.060  0.3081 -0.7532 -0.0435
  940MPD2    H513753   3.226   2.086  12.959  0.1641 -1.8710  0.0271
  940MPD2    N113754   2.964   2.003  13.470 -0.8224 -0.0786  0.2765
  940MPD2    H713755   3.055   2.011  13.515 -0.0284 -0.0557 -1.3457
  941MPD2     C13756   2.818   1.374   9.473 -0.9091 -0.0976 -0.1204
  941MPD2    C113757   2.892   1.271   9.536  0.3042  0.5922  0.2713
  941MPD2    C213758   2.828   1.155   9.585 -0.0994  0.3751  0.0850
  941MPD2    C313759   2.694   1.135   9.563 -0.3716  0.5907 -0.0486
  941MPD2    C413760   2.629   1.232   9.492  0.4398 -0.4340  0.4514
  941MPD2    C513761   2.689   1.345   9.452  0.0044 -0.4771  0.4079
  941MPD2     H13762   2.888   1.089   9.646 -1.5730  0.8275  2.0390
  941MPD2    H113763   2.525   1.216   9.466  0.1049  2.4229  0.0662
  941MPD2    H213764   2.858   1.459   9.418  1.2852 -0.1664  1.3389
  941MPD2    H313765   2.629   1.415   9.395 -0.8579  0.8312  2.9519
  941MPD2     N13766   2.617   1.036   9.623 -0.1663 -0.0707 -0.0035
  941MPD2    H513767   2.515   1.040   9.620 -0.2054 -2.6296 -2.0369
  941MPD2    N113768   3.026   1.291   9.563  0.0516 -0.4261 -0.6671
  941MPD2    H713769   3.078   1.219   9.612 -0.5134  1.0361  2.0527
  942MPD2     C13770   2.350   3.268   9.239 -0.1124  0.0745 -0.0425
  942MPD2    C113771   2.376   3.189   9.124 -0.4288  0.8138  0.1034
  942MPD2    C213772   2.487   3.104   9.110  0.0941 -0.0949 -0.1989
  942MPD2    C313773   2.579   3.100   9.213  0.0178  0.6431 -0.1008
  942MPD2    C413774   2.548   3.168   9.330 -0.2203  1.1685 -0.2419
  942MPD2    C513775   2.441   3.255   9.343 -0.1107  0.3540  0.2913
  942MPD2     H13776   2.498   3.052   9.016 -0.0754 -1.2826  0.4340
  942MPD2    H113777   2.592   3.139   9.425  0.9721  3.1318 -0.1975
  942MPD2    H213778   2.260   3.327   9.246  1.9663  2.9239  2.4156
  942MPD2    H313779   2.434   3.310   9.436  0.9884  1.3325 -0.1894
  942MPD2     N13780   2.702   3.024   9.208  0.2219 -0.0618 -0.4193
  942MPD2    H513781   2.755   3.018   9.294 -0.0963  2.2580 -0.0568
  942MPD2    N113782   2.277   3.184   9.020 -0.0799  0.0152  0.3089
  942MPD2    H713783   2.294   3.115   8.946 -0.2460  1.2125 -0.8508
  943MPD2     C13784   1.744   1.221   9.368 -0.1658 -0.5841  0.2697
  943MPD2    C113785   1.691   1.156   9.477  0.1570 -0.0790 -0.0365
  943MPD2    C213786   1.671   1.227   9.593 -0.2906 -0.2506 -0.0734
  943MPD2    C313787   1.710   1.366   9.597  0.0691 -0.0753  0.8215
  943MPD2    C413788   1.757   1.430   9.483 -0.0445 -0.1824  0.6951
  943MPD2    C513789   1.780   1.355   9.370  0.0906 -0.7916 -0.3896
  943MPD2     H13790   1.649   1.191   9.693  0.3493 -1.8617 -0.5217
  943MPD2    H113791   1.772   1.537   9.483  0.7304 -0.2938  1.6257
  943MPD2    H213792   1.759   1.172   9.273  3.5250 -0.0086  0.5496
  943MPD2    H313793   1.806   1.402   9.276 -0.9328  0.0019 -0.2837
  943MPD2     N13794   1.692   1.434   9.722  0.1444 -0.2070  0.4648
  943MPD2    H513795   1.656   1.369   9.791 -1.5532 -0.3869 -0.5887
  943MPD2    N113796   1.652   1.019   9.464 -0.1409  0.5320 -0.5581
  943MPD2    H713797   1.666   0.970   9.377 -0.2114 -0.8407  0.2050
  944MPD2     C13798   1.961   0.297  11.298  0.1411  0.1967  0.2907
  944MPD2    C113799   1.885   0.213  11.221 -0.2218  0.2935 -0.3159
  944MPD2    C213800   1.756   0.177  11.254  0.1904  1.1540 -0.4400
  944MPD2    C313801   1.701   0.220  11.376 -0.1255 -0.2560 -0.9180
  944MPD2    C413802   1.782   0.297  11.458 -0.4940  0.0173 -0.7693
  944MPD2    C513803   1.908   0.332  11.414 -0.1830  0.3403  0.1032
  944MPD2     H13804   1.705   0.107  11.189  0.1716 -0.1837  1.0169
  944MPD2    H113805   1.754   0.344  11.552  1.8319 -1.2007  0.5339
  944MPD2    H213806   2.061   0.335  11.279  0.2913 -0.1407  0.4014
  944MPD2    H313807   1.966   0.404  11.471  0.2416 -0.2650  0.4315
  944MPD2     N13808   1.581   0.169  11.412  0.0875  0.2677  0.0062
  944MPD2    H513809   1.527   0.130  11.335 -2.1889  0.6970  1.3929
  944MPD2    N113810   1.947   0.180  11.099 -0.4079 -0.3010 -0.2186
  944MPD2    H713811   2.024   0.239  11.069 -0.3508  0.5758  1.6509
    1TCq1    O113812   3.476   0.923  14.085 -0.1347 -0.1257  0.2333
    1TCq1    C113813   3.528   0.888  13.968 -0.9173  0.4391 -0.1046
    1TCq1    O213814   3.465   0.823  13.879 -0.1771  0.6604 -0.2608
    1TCq1    C213815   3.665   0.937  13.945 -1.0310 -0.1430  0.6073
    1TCq1    C313816   3.708   0.932  13.815  0.3842 -0.8495 -0.6213
    1TCq1    C413817   3.831   0.973  13.780  0.5111  0.5977 -0.0229
    1TCq1    C513818   3.921   1.002  13.880 -0.2626  0.1896  0.3373
    1TCq1    C613819   3.884   0.990  14.011 -0.0087 -0.2629  0.4235
    1TCq1    C713820   3.755   0.961  14.047 -0.7242  0.1163 -0.1436
    1TCq1    C813821   3.989   1.009  14.108  0.0247  0.3008 -0.7593
    1TCq1    O413822   4.105   0.987  14.072 -0.3588 -0.0158  0.2252
    1TCq1    C913823   3.885   0.966  13.643  0.5526  0.3558 -0.3655
    1TCq1    O513824   3.796   0.969  13.551  0.0988 -0.6099 -0.1750
    1TCq1    O613825   3.999   1.017  13.634 -0.0546  0.6028  0.0116
    1TCq1    H113826   3.492   1.015  14.115  0.3210  0.3439 -1.4356
    1TCq1    H213827   3.641   0.892  13.739  0.2465 -2.4901  0.3604
    1TCq1    H313828   4.025   1.026  13.856 -1.0298  3.4731  0.2522
    1TCq1    H413829   3.714   0.952  14.147 -0.5222 -1.8791 -0.2328
    2MPD2     C13830   4.207   1.169  14.548  0.5022 -0.8719 -0.1709
    2MPD2    C113831   4.082   1.228  14.541 -0.6420  0.2588  0.1303
    2MPD2    C213832   3.997   1.177  14.438  0.2057  0.2940  0.7204
    2MPD2    C313833   4.039   1.102  14.334  0.2616 -0.2805  0.4680
    2MPD2    C413834   4.176   1.062  14.334 -0.2350 -0.5848 -0.1904
    2MPD2    C513835   4.255   1.094  14.449 -0.7798  0.0848 -0.2396
    2MPD2     H13836   3.894   1.209  14.433  0.4204  1.1716  1.7533
    2MPD2    H113837   4.228   0.996  14.265  1.5014  1.4967 -0.8669
    2MPD2    H213838   4.273   1.199  14.628 -0.0178  2.6510 -1.0661
    2MPD2    H313839   4.353   1.046  14.449  0.1328  1.9683  0.4225
    2MPD2     N13840   3.948   1.061  14.236  0.8689 -0.3385 -0.0374
    2MPD2    H513841   3.850   1.087  14.241  1.8062  3.8928 -2.6867
    2MPD2    N113842   4.049   1.317  14.650 -0.5679 -0.6356  0.0627
    2MPD2    H713843   4.121   1.343  14.716  0.3091  0.5612 -1.3725
    3TMC2    C113844   3.936   1.473  14.766 -0.0049  0.5846  0.0174
    3TMC2    C213845   4.028   1.449  14.861  0.3740  0.4155  0.3076
    3TMC2    C313846   4.047   1.554  14.946 -0.9210 -0.2668  0.2158
    3TMC2    C413847   3.860   1.588  14.758  0.4162  0.6983  0.1303
    3TMC2    C513848   3.888   1.684  14.849 -0.3152 -0.4449 -0.2591
    3TMC2    C613849   3.986   1.668  14.942 -0.5735  0.3567 -0.2015
    3TMC2     C13850   3.927   1.375  14.659 -0.1010  0.0269 -0.4519
    3TMC2     O13851   3.841   1.389  14.572 -0.2631  0.0208  0.2693
    3TMC2     H13852   4.060   1.351  14.895 -2.2294 -0.9670 -1.1659
    3TMC2    H113853   3.782   1.594  14.682 -0.4459  1.7440  1.1031
    3TMC2    H213854   4.006   1.748  15.013 -3.2612  0.6743  0.2060
    3TMC2    C713855   3.798   1.786  14.890  0.4416 -0.1049 -0.1793
    3TMC2    C813856   4.105   1.514  15.069 -0.5688 -0.1556 -0.4644
    3TMC2    O113857   3.801   1.819  15.007 -0.0214  0.5843  0.0303
    3TMC2    O213858   4.080   1.567  15.175 -0.7124  0.0340 -0.3830
    3TMC2    O513859   4.223   1.461  15.040  0.1651  0.4011  0.2482
    3TMC2    H513860   4.234   1.464  14.943  1.0310 -1.0129  0.3006
    4MPD2     C13861   3.208   2.333  13.613  0.3764  0.2211 -0.6192
    4MPD2    C113862   3.081   2.316  13.657  0.0645  0.2338  0.4989
    4MPD2    C213863   3.050   2.301  13.793 -0.1037 -0.4171  0.9459
    4MPD2    C313864   3.153   2.317  13.885 -0.1167 -0.3475  0.3945
    4MPD2    C413865   3.282   2.325  13.838 -0.4550  0.6472 -0.2019
    4MPD2    C513866   3.308   2.338  13.704 -0.4748  0.5981 -0.6372
    4MPD2     H13867   2.948   2.301  13.829 -0.5285  0.1131 -0.2583
    4MPD2    H113868   3.369   2.333  13.901 -0.3361 -0.6406 -0.2081
    4MPD2    H213869   3.239   2.358  13.513 -1.1106  0.5587 -0.9891
    4MPD2    H313870   3.406   2.357  13.662 -1.2603  1.5851 -1.9931
    4MPD2     N13871   3.122   2.311  14.021  0.1311  0.4411 -0.3141
    4MPD2    H513872   3.028   2.337  14.049 -0.8024 -1.2060 -1.9236
    4MPD2    N113873   2.977   2.311  13.560  0.3711  0.1118 -0.4294
    4MPD2    H713874   3.011   2.304  13.464 -2.8361  0.9786 -1.6302
    5TCq2    C113875   3.213   2.267  14.111 -0.2879  0.1055 -0.1931
    5TCq2    O213876   3.329   2.234  14.098  0.0429 -0.5604  0.0093
    5TCq2    C213877   3.152   2.252  14.242 -0.9165 -0.1302  0.4182
    5TCq2    C313878   3.020   2.290  14.258  0.0696  0.2472 -0.1948
    5TCq2    C413879   2.965   2.264  14.381 -0.0863 -0.2825 -0.0526
    5TCq2    C513880   3.027   2.188  14.468 -0.3119  0.7260 -0.8096
    5TCq2    C613881   3.162   2.168  14.457 -0.2420 -0.0057  0.4933
    5TCq2    C713882   3.225   2.193  14.340 -0.4850  0.3378  0.2489
    5TCq2    C813883   3.228   2.157  14.586 -0.1753 -0.0171  0.0067
    5TCq2    O413884   3.158   2.187  14.681  0.2598 -0.6588 -0.1444
    5TCq2    C913885   2.820   2.270  14.395  0.6484  0.1786  0.6801
    5TCq2    O513886   2.759   2.185  14.465 -0.2911  0.0240 -0.1570
    5TCq2    O613887   2.758   2.342  14.315 -0.0766 -0.0018 -0.7869
    5TCq2    H213888   2.977   2.362  14.190  0.6737 -0.8567 -1.7672
    5TCq2    H313889   2.970   2.155  14.554  0.7817  0.5594 -0.1502
    5TCq2    H413890   3.331   2.177  14.320 -0.1119  0.3736  2.1196
    6MPD1     C13891   3.059   3.550  12.147 -0.5194 -0.4262 -0.1711
    6MPD1    C113892   2.946   3.582  12.211  0.2231  0.1665 -0.4230
    6MPD1    C213893   2.895   3.490  12.309 -0.4650 -0.0231  0.3478
    6MPD1    C313894   2.980   3.392  12.360  0.6031 -0.0179  0.8926
    6MPD1    C413895   3.110   3.378  12.311 -0.1886 -0.3752 -0.5309
    6MPD1    C513896   3.148   3.463  12.203 -0.2666 -0.0766 -0.1972
    6MPD1     H13897   2.791   3.495  12.339 -0.8331 -1.0976 -0.8088
    6MPD1    H113898   3.178   3.302  12.349 -0.2739  0.0984  0.5932
    6MPD1    H213899   3.092   3.586  12.050  0.5961 -1.3118 -0.1192
    6MPD1    H313900   3.241   3.445  12.150 -1.3009  1.2861 -2.4809
    6MPD1     N13901   2.949   3.308  12.467  0.4018 -0.5234 -0.2807
    6MPD1    H513902   3.024   3.246  12.497  2.2921  1.2827 -1.2101
    6MPD1    N113903   2.853   3.661  12.154 -0.2531  0.1175 -0.4000
    6MPD1    H613904   2.895   3.737  12.102 -1.2447  0.5940 -0.5108
    6MPD1    H713905   2.807   3.709  12.232  1.2302 -3.0903  2.4353
    7MPD2     C13906   2.415   2.957  13.091  0.1289 -0.9932  0.4951
    7MPD2    C113907   2.489   2.873  13.017  0.0735  0.5398  0.2449
    7MPD2    C213908   2.496   2.736  13.048 -0.8752 -0.6755 -0.6972
    7MPD2    C313909   2.451   2.695  13.173  0.0152 -0.5283 -0.3613
    7MPD2    C413910   2.375   2.780  13.250 -0.5322  0.0124 -0.2245
    7MPD2    C513911   2.360   2.909  13.211  0.1608  0.5505  0.5270
    7MPD2     H13912   2.548   2.675  12.975 -0.6644  0.0190 -1.1251
    7MPD2    H113913   2.334   2.754  13.347  0.8142 -0.0441  0.3404
    7MPD2    H213914   2.405   3.060  13.060 -2.0464 -1.4577 -0.3688
    7MPD2    H313915   2.306   2.976  13.277 -0.8497 -0.5675  0.8511
    7MPD2     N13916   2.498   2.571  13.220  0.0505 -0.0849 -0.8408
    7MPD2    H513917   2.567   2.527  13.159  1.6741  0.5046  0.5767
    7MPD2    N113918   2.554   2.906  12.896 -0.6282 -0.0239 -0.4367
    7MPD2    H713919   2.612   2.831  12.861  0.1677  0.5882 -0.4306
    8TMC3    C113920   2.567   2.399  13.348  0.1893  0.0461 -0.0023
    8TMC3    C213921   2.639   2.392  13.462  0.4978 -0.5534 -1.1326
    8TMC3    C313922   2.763   2.342  13.454  0.3953  0.8780  0.2113
    8TMC3    C413923   2.618   2.359  13.230  0.1190  0.3542  0.5091
    8TMC3    C513924   2.750   2.319  13.219 -0.4653 -0.2024  0.3720
    8TMC3    C613925   2.823   2.316  13.333  0.4724  0.7017  0.2187
    8TMC3     C13926   2.480   2.510  13.341 -0.7573 -0.4034  0.4662
    8TMC3     O13927   2.412   2.552  13.434 -0.0411  0.2327  0.1263
    8TMC3     H13928   2.586   2.408  13.555  0.3317 -2.8514 -0.8321
    8TMC3    H113929   2.562   2.351  13.138 -0.1813  1.7372  0.5708
    8TMC3    H213930   2.931   2.303  13.325  0.5802  0.3439  2.2427
    8TMC3    C713931   2.795   2.392  13.104  0.5607 -0.0141  0.0763
    8TMC3    C813932   2.839   2.340  13.580 -0.0638  0.3189 -0.0655
    8TMC3    O113933   2.719   2.476  13.065  0.5581 -0.1771  0.7201
    8TMC3    O213934   2.776   2.367  13.681  0.0303 -0.3825 -0.9433
    9TMC3    C113935   2.819   3.176  12.614 -0.3483 -0.0946  0.2463
    9TMC3    C213936   2.915   3.071  12.606  0.3998 -0.3429 -1.2992
    9TMC3    C313937   2.886   2.958  12.677  0.0083  0.7831  0.0868
    9TMC3    C413938   2.701   3.165  12.680  0.0067  0.0623  0.2045
    9TMC3    C513939   2.687   3.052  12.759 -0.4752 -0.0815  0.1810
    9TMC3    C613940   2.777   2.949  12.759  0.3074 -0.5867  0.1698
    9TMC3     C13941   2.825   3.292  12.526 -0.2852  0.1821 -0.0308
    9TMC3     O13942   2.721   3.357  12.518  0.2013  0.5427 -0.2770
    9TMC3     H13943   3.007   3.068  12.549  1.1977 -0.3661  0.0073
    9TMC3    H113944   2.631   3.249  12.682 -2.7770 -2.2218 -1.9246
    9TMC3    H213945   2.769   2.878  12.841  0.6125  0.4028  1.0429
    9TMC3    C713946   2.563   3.031  12.840 -0.2117  0.0013 -0.5338
    9TMC3    C813947   2.977   2.846  12.677 -0.6910 -0.5741 -0.2855
    9TMC3    O113948   2.485   3.126  12.844  0.0842  0.2055  0.3181
    9TMC3    O213949   3.093   2.871  12.650 -0.4575 -0.0120 -0.6550
   10MPD2     C13950   3.132   2.426  12.952  0.4095 -0.3037  0.0868
   10MPD2    C113951   2.994   2.444  12.970 -0.0753 -0.6904  0.0486
   10MPD2    C213952   2.933   2.544  12.895  0.7188 -0.5924 -0.1394
   10MPD2    C313953   3.005   2.631  12.813  0.8830  0.9960  0.3530
   10MPD2    C413954   3.142   2.612  12.800  0.1404  0.3287 -0.1902
   10MPD2    C513955   3.202   2.508  12.866 -0.3090 -0.0183  0.1858
   10MPD2     H13956   2.827   2.565  12.903  0.8997  1.0089 -2.0565
   10MPD2    H113957   3.201   2.674  12.733  0.4619 -0.0409 -0.2451
   10MPD2    H213958   3.194   2.354  13.005  2.4622  2.1541  0.9996
   10MPD2    H313959   3.308   2.496  12.844  0.0696  1.9022  0.9104
   10MPD2     N13960   2.933   2.735  12.744 -0.3507  0.5462 -0.9753
   10MPD2    H513961   2.832   2.728  12.752 -0.2402  0.0962  0.0587
   10MPD2    N113962   2.924   2.371  13.072 -0.3245 -1.0593 -0.0033
   10MPD2    H713963   2.979   2.302  13.122  1.2196 -0.0446 -0.2724
   11MPD2     C13964   3.535   1.929  14.932  0.3744 -0.1436 -0.4393
   11MPD2    C113965   3.588   1.903  14.805 -0.0096 -0.0200  0.1797
   11MPD2    C213966   3.524   1.957  14.693  0.0506  0.0165  0.0432
   11MPD2    C313967   3.403   2.027  14.707  0.1810  0.6323  0.3535
   11MPD2    C413968   3.348   2.036  14.831  0.4134  0.1424  1.1830
   11MPD2    C513969   3.414   1.996  14.943 -0.2505 -0.3985  0.5917
   11MPD2     H13970   3.569   1.956  14.595  0.4024  0.9551  0.1946
   11MPD2    H113971   3.263   2.101  14.852 -0.1338 -0.0485 -0.4881
   11MPD2    H213972   3.583   1.882  15.016  0.3647 -0.1584 -0.4420
   11MPD2    H313973   3.380   2.015  15.044 -0.7319 -1.6042  0.6558
   11MPD2     N13974   3.343   2.076  14.588 -0.2601  0.0673  0.3027
   11MPD2    H513975   3.378   2.052  14.496 -0.5432  0.2914  0.1365
   11MPD2    N113976   3.705   1.824  14.789 -0.1319  0.1490 -0.2034
   11MPD2    H713977   3.729   1.796  14.695  1.1135  0.0419  0.1392
    1MPD1     C13978   1.886   3.978  16.873 -0.3309 -0.1728  0.3909
    1MPD1    C113979   1.919   3.906  16.986  0.2779 -0.0032 -0.3341
    1MPD1    C213980   1.968   3.783  16.969 -0.2642  0.0305 -0.2682
    1MPD1    C313981   2.017   3.732  16.847 -0.3908 -0.1904 -0.2389
    1MPD1    C413982   2.002   3.821  16.743  0.4050  0.0576 -0.1817
    1MPD1    C513983   1.939   3.942  16.751  0.0372  0.0728  0.4718
    1MPD1     H13984   1.984   3.729  17.062  0.5530 -0.9440 -0.9772
    1MPD1    H113985   2.038   3.792  16.645  0.8470 -1.4053  0.4055
    1MPD1    H213986   1.814   4.059  16.884  0.3151  0.4458  0.0377
    1MPD1    H313987   1.918   3.995  16.658  1.5411  1.4845  0.9341
    1MPD1     N13988   2.075   3.604  16.835 -0.2855  0.0073 -0.3725
    1MPD1    H513989   2.100   3.572  16.742 -2.7050 -0.9806 -0.6645
    1MPD1    N113990   1.870   3.944  17.110 -0.3432 -0.3486  0.0617
    1MPD1    H613991   1.844   4.041  17.124  1.1613 -0.1773  1.6697
    1MPD1    H713992   1.941   3.913  17.176 -0.0415  1.8561  0.7563
    2MPD1     C13993   2.400   3.028  17.600 -0.1324  1.0277  0.0436
    2MPD1    C113994   2.293   3.114  17.592  0.3053 -0.5916  0.1611
    2MPD1    C213995   2.268   3.160  17.468  0.0368  0.2494  0.5462
    2MPD1    C313996   2.338   3.126  17.354  0.0493  0.8390 -0.1674
    2MPD1    C413997   2.459   3.059  17.370 -0.2931  0.3716  0.1513
    2MPD1    C513998   2.481   3.008  17.492 -0.3876 -0.2871 -0.0712
    2MPD1     H13999   2.175   3.213  17.447 -0.0815  0.0010  0.4406
    2MPD1    H114000   2.539   3.051  17.298 -1.5810 -1.8041 -1.0471
    2MPD1    H214001   2.423   2.974   0.005  2.4536  0.5759 -0.8803
    2MPD1    H314002   2.573   2.952  17.497 -1.0397 -1.2305  1.4797
    2MPD1     N14003   2.297   3.159  17.227  0.4265  0.2546 -0.6884
    2MPD1    H514004   2.209   3.208  17.215  0.6350  1.4608  2.6037
    2MPD1    N114005   2.198   3.114   0.009  0.0207 -0.0414  0.4126
    2MPD1    H614006   2.139   3.032  17.683  3.1002 -2.1286 -0.5538
    2MPD1    H714007   2.242   3.111   0.101  1.4272  1.1741 -0.2056
    3TMC3    C114008   2.305   3.206  16.991  1.0871  0.7879  0.0385
    3TMC3    C214009   2.365   3.200  16.870  0.0246  0.0057  0.1048
    3TMC3    C314010   2.337   3.293  16.777  0.0624  0.1900 -0.7930
    3TMC3    C414011   2.212   3.305  17.015  0.7320 -0.0393 -0.2550
    3TMC3    C514012   2.181   3.396  16.911 -0.3270  0.0070  0.8190
    3TMC3    C614013   2.248   3.388  16.795  0.0214  0.2130  0.2380
    3TMC3     C14014   2.375   3.145  17.108  0.1342  0.0443 -0.1692
    3TMC3     O14015   2.488   3.095  17.088  0.8040  0.2718 -0.3683
    3TMC3     H14016   2.433   3.118  16.848 -1.2262 -1.1706  0.6178
    3TMC3    H114017   2.185   3.338  17.114  0.3209 -1.1420 -0.0086
    3TMC3    H214018   2.220   3.446  16.708 -1.4443 -0.5024  0.2143
    3TMC3    C714019   2.096   3.514  16.937 -0.0139 -0.4323 -0.2338
    3TMC3    C814020   2.415   3.300  16.657 -0.0588  1.1828 -0.4005
    3TMC3    O114021   2.067   3.529  17.057 -0.0457  0.4847 -0.8514
    3TMC3    O214022   2.355   3.321  16.551  0.0075  0.1461 -0.6474
    4MPD1     C14023   2.866   3.332  16.417 -0.0865 -0.6049  0.5285
    4MPD1    C114024   2.898   3.298  16.552 -0.6049 -0.4851  0.5455
    4MPD1    C214025   2.788   3.282  16.629 -0.2600  0.2089  0.3756
    4MPD1    C314026   2.654   3.297  16.583  0.6483  0.0143 -0.2569
    4MPD1    C414027   2.629   3.326  16.452  0.3758 -0.3348 -0.7439
    4MPD1    C514028   2.736   3.332  16.367 -0.6108  0.2431 -0.7243
    4MPD1     H14029   2.816   3.271  16.733 -0.3406  3.7594  0.7805
    4MPD1    H114030   2.530   3.324  16.408 -0.9515  1.6252  2.1880
    4MPD1    H214031   2.939   3.348  16.338 -0.5686  0.1063  0.2201
    4MPD1    H314032   2.733   3.342  16.259  0.5846 -0.0958 -0.7865
    4MPD1     N14033   2.544   3.274  16.674  0.4414  0.0770 -0.1322
    4MPD1    H514034   2.578   3.250  16.767 -3.1515 -1.2164  0.8554
    4MPD1    N114035   3.027   3.310  16.605 -0.1220 -0.5309  0.3219
    4MPD1    H614036   3.030   3.282  16.703  1.0659 -0.3757  0.3248
    4MPD1    H714037   3.099   3.262  16.552  0.7952 -0.1827  1.2491
    1TCq1    O114038   3.322   3.890  12.449 -0.1225  0.1522 -0.2629
    1TCq1    C114039   3.219   3.836  12.377 -0.0507 -0.2998  0.3546
    1TCq1    O214040   3.191   3.874  12.268  0.4522  0.5063 -0.7022
    1TCq1    C214041   3.120   3.796  12.474  0.3119 -0.2511 -0.1315
    1TCq1    C314042   2.993   3.858  12.459  0.3254  0.4473 -0.2043
    1TCq1    C414043   2.895   3.795  12.536 -0.1294  0.3318 -0.6050
    1TCq1    C514044   2.926   3.691  12.620  0.0131  0.2226  0.4093
    1TCq1    C614045   3.053   3.653  12.649 -0.2710  0.3119  0.4179
    1TCq1    C714046   3.152   3.704  12.577 -0.5944  0.5587 -0.0796
    1TCq1    C814047   3.093   3.545  12.741 -0.8588 -0.3091 -0.4834
    1TCq1    O414048   3.210   3.510  12.742 -0.0710 -0.1612 -0.7384
    1TCq1    C914049   2.756   3.805  12.486  0.0938  0.3832  0.2323
    1TCq1    O514050   2.725   3.883  12.384 -0.0640 -0.3146 -0.6932
    1TCq1    O614051   2.664   3.758  12.561 -0.3543  0.0010 -0.1792
    1TCq1    H114052   3.317   3.894  12.547 -0.2017  0.1828 -0.2687
    1TCq1    H214053   2.986   3.911  12.365  1.9829 -0.2571 -0.7287
    1TCq1    H314054   2.839   3.639  12.660  0.3404 -0.7869 -0.1743
    1TCq1    H414055   3.259   3.686  12.582 -0.5564  0.9719  0.5873
    2MPD1     C14056   2.964   3.111  12.997 -0.5336  0.2579  0.0057
    2MPD1    C114057   2.860   3.208  13.012  0.2672 -0.4244  0.2683
    2MPD1    C214058   2.867   3.327  12.940  0.1978 -0.2733 -0.8353
    2MPD1    C314059   2.979   3.365  12.867 -1.0317 -0.4049  0.1367
    2MPD1    C414060   3.080   3.268  12.853 -0.3731 -0.9049  0.3534
    2MPD1    C514061   3.066   3.141  12.907  0.6892 -0.2457 -0.8533
    2MPD1     H14062   2.788   3.401  12.946 -0.9676 -1.3431 -2.8066
    2MPD1    H114063   3.170   3.275  12.794  0.3446 -0.0482  1.5613
    2MPD1    H214064   2.957   3.016  13.048  1.0169  0.9890  1.6013
    2MPD1    H314065   3.145   3.069  12.886  1.3947  0.8767 -2.0349
    2MPD1     N14066   2.987   3.491  12.811 -0.1392 -0.1170 -0.4396
    2MPD1    H514067   2.900   3.544  12.821  0.4931  1.2406 -2.3250
    2MPD1    N114068   2.747   3.176  13.090  0.6058 -0.1194 -0.2353
    2MPD1    H614069   2.766   3.092  13.144 -1.5665  0.1510  0.9782
    2MPD1    H714070   2.705   3.252  13.141  1.5055  1.2528 -1.5391
    1TCq1    O114071   1.026   4.242   0.503 -0.6100 -0.2239  0.0487
    1TCq1    C114072   1.026   4.359   0.434  0.2219 -0.1148  0.2012
    1TCq1    O214073   1.069   4.388   0.326  0.0277  0.0515 -0.3941
    1TCq1    C214074   0.982   4.471   0.515  0.3317  0.6186 -0.6191
    1TCq1    C314075   0.909   4.444   0.626  0.7439 -0.2272 -0.1123
    1TCq1    C414076   0.846   4.552   0.682  0.0071 -0.1738  0.2482
    1TCq1    C514077   0.884   4.678   0.647  0.0926  0.0910  0.4096
    1TCq1    C614078   0.964   4.703   0.543  0.7911 -0.3626  0.1520
    1TCq1    C714079   1.013   4.598   0.474  0.1256 -0.0810 -0.1782
    1TCq1    C814080   0.959   0.102   0.462 -1.4515  0.0052  0.0777
    1TCq1    O414081   1.003   0.100   0.349  0.5679  0.1859 -0.2658
    1TCq1    C914082   0.797   4.539   0.815 -0.5753  0.2533 -0.0115
    1TCq1    O514083   0.787   4.419   0.862 -0.6357  0.0845 -0.1871
    1TCq1    O614084   0.737   4.639   0.861  0.0887 -0.1786 -0.0141
    1TCq1    H114085   0.985   4.246   0.592 -0.6988  3.3138 -0.1612
    1TCq1    H214086   0.856   4.350   0.633 -2.0900  1.5520  2.2065
    1TCq1    H314087   0.843   0.037   0.708  3.8416 -0.0904  3.1801
    1TCq1    H414088   1.069   4.603   0.381  1.9021  0.8737  0.9531
    2MPD1     C14089   0.870   0.614   0.481 -0.7205 -0.2808  1.2991
    2MPD1    C114090   0.782   0.542   0.559  0.0670 -1.5956  0.3681
    2MPD1    C214091   0.798   0.407   0.567 -0.4615 -0.2758 -0.1322
    2MPD1    C314092   0.901   0.337   0.512  0.5193 -0.2857 -0.0427
    2MPD1    C414093   0.981   0.404   0.422  0.0474  0.2345 -0.4325
    2MPD1    C514094   0.972   0.543   0.416  0.2697  0.5437  0.6857
    2MPD1     H14095   0.730   0.346   0.625  0.3997 -0.4677  0.6749
    2MPD1    H114096   1.058   0.350   0.369  0.7047 -0.6419  1.3906
    2MPD1    H214097   0.855   0.719   0.455 -0.1444  0.3388  3.4855
    2MPD1    H314098   1.044   0.592   0.353 -0.2211  0.4910  0.0862
    2MPD1     N14099   0.900   0.197   0.537 -0.2619 -0.3523  0.5137
    2MPD1    H514100   0.841   0.160   0.610 -0.2002  1.8177  1.6735
    2MPD1    N114101   0.656   0.603   0.584 -0.3024  0.6697  0.3195
    2MPD1    H614102   0.625   0.579   0.679 -0.2776  2.1299  0.6912
    2MPD1    H714103   0.675   0.702   0.594 -1.4134  0.9704 -0.5602
    1MPD1     C14104   0.396   3.017  11.344 -0.4586 -0.3592  0.8686
    1MPD1    C114105   0.337   3.115  11.424  0.0292 -0.3000 -0.6286
    1MPD1    C214106   0.323   3.237  11.355  0.3417  0.8498  0.3657
    1MPD1    C314107   0.357   3.256  11.221 -0.2494  0.5027  0.0047
    1MPD1    C414108   0.408   3.154  11.148 -0.3275 -0.4969 -0.2549
    1MPD1    C514109   0.433   3.032  11.209  0.1599 -0.1251 -0.0794
    1MPD1     H14110   0.275   3.315  11.414  0.9484  1.1295  0.4803
    1MPD1    H114111   0.445   3.168  11.047  0.2319  0.7755  0.1309
    1MPD1    H214112   0.404   2.913  11.373  1.3992 -0.0459  1.4948
    1MPD1    H314113   0.472   2.951  11.149 -2.2534 -0.4129 -1.2259
    1MPD1     N14114   0.330   3.390  11.172 -0.1935 -0.1723  0.0520
    1MPD1    H514115   0.279   3.450  11.236  0.5884 -1.8805  2.3063
    1MPD1    N114116   0.284   3.083  11.558  0.9405 -0.4124 -0.2135
    1MPD1    H614117   0.272   3.162  11.621 -0.4487  0.9623 -2.1984
    1MPD1    H714118   0.321   2.997  11.598 -0.8715  0.2923  2.8907
    2MPD1     C14119   3.930   3.901  10.608 -0.1168  0.7411 -0.1202
    2MPD1    C114120   3.966   4.032  10.588  0.4287  0.4617 -0.3618
    2MPD1    C214121   4.080   4.053  10.517  0.7326  0.1515 -0.4858
    2MPD1    C314122   4.161   3.951  10.469 -0.5231  0.6746  0.7028
    2MPD1    C414123   4.126   3.821  10.500  0.4661  0.4219  0.7940
    2MPD1    C514124   4.007   3.798  10.563 -0.0930 -0.3880 -0.1593
    2MPD1     H14125   4.112   4.157  10.508  0.1714  0.4391  0.8352
    2MPD1    H114126   4.190   3.739  10.467  0.9177  0.7504  0.8572
    2MPD1    H214127   3.842   3.871  10.663  0.1924  1.0755  0.5545
    2MPD1    H314128   3.974   3.697  10.582  2.8234 -1.3753 -0.3200
    2MPD1     N14129   4.288   3.975  10.402  0.4493  0.3710 -0.1378
    2MPD1    H514130   4.340   3.892  10.377 -0.1182 -0.1053  0.2787
    2MPD1    N114131   3.890   4.136  10.642  0.3102 -0.0018  0.3588
    2MPD1    H614132   3.883   4.213  10.576 -0.2155 -0.2245  0.1553
    2MPD1    H714133   3.799   4.098  10.666  1.1013 -1.7509  0.6000
    3MPD1     C14134   0.251   3.441  10.424  1.0323  0.4255 -0.3328
    3MPD1    C114135   0.153   3.478  10.515  0.1577  0.1935  0.2327
    3MPD1    C214136   0.080   3.596  10.490 -0.6161  0.2116  0.0912
    3MPD1    C314137   0.098   3.670  10.368  0.5578 -0.4990  0.8638
    3MPD1    C414138   0.186   3.621  10.271 -0.3019 -1.1200 -0.7819
    3MPD1    C514139   0.269   3.513  10.309 -0.1683  0.3020  0.1228
    3MPD1     H14140   4.718   3.620  10.556 -0.1629 -0.9028  1.0608
    3MPD1    H114141   0.219   3.673  10.182  2.4622 -2.4672 -0.5245
    3MPD1    H214142   0.299   3.344  10.419 -0.9790 -0.3999 -4.2175
    3MPD1    H314143   0.331   3.473  10.229  1.2720 -0.0699  1.4434
    3MPD1     N14144   0.028   3.789  10.344  0.6046  0.0531 -0.0627
    3MPD1    H514145   4.683   3.819  10.415  0.3401 -0.7950  0.0534
    3MPD1    N114146   0.147   3.405  10.636 -0.3547 -0.0527  0.0427
    3MPD1    H614147   0.057   3.424  10.678 -0.2041  1.9591 -0.5296
    3MPD1    H714148   0.157   3.307  10.610 -1.5936 -0.0667 -0.3519
    4MPD2     C14149   0.354   4.162  11.236  0.3003  0.6452  0.8351
    4MPD2    C114150   0.365   4.100  11.112  0.7850  0.1598  0.1852
    4MPD2    C214151   0.427   4.171  11.011  0.1340 -0.4912 -0.3629
    4MPD2    C314152   0.466   4.301  11.019 -0.3501 -0.2781 -0.4706
    4MPD2    C414153   0.469   4.357  11.145  0.5623  0.2085 -0.4646
    4MPD2    C514154   0.409   4.291  11.247  0.3587 -0.6017 -0.2663
    4MPD2     H14155   0.428   4.122  10.914 -2.4070 -0.8024 -0.2353
    4MPD2    H114156   0.508   4.456  11.167  0.0190  0.9407 -2.7563
    4MPD2    H214157   0.297   4.122  11.318 -0.4281 -3.9015 -1.8548
    4MPD2    H314158   0.399   4.353  11.336 -1.3905  0.4001 -1.1622
    4MPD2     N14159   0.523   4.364  10.902 -0.1836 -0.4513 -0.7044
    4MPD2    H514160   0.551   4.307  10.822  1.8297  2.0441 -1.7846
    4MPD2    N114161   0.308   3.977  11.069  0.6996 -0.3460  0.3630
    4MPD2    H714162   0.298   3.971  10.968  0.0639  1.1958  0.3303
    5TMC3    C114163   0.212   3.769  11.077  0.8336 -0.0662  0.6027
    5TMC3    C214164   0.277   3.650  11.111 -0.0844 -0.3521 -0.0988
    5TMC3    C314165   0.326   3.565  11.010 -0.6634  0.2132 -0.0491
    5TMC3    C414166   0.190   3.798  10.944  0.3292  0.5357  0.8752
    5TMC3    C514167   0.256   3.731  10.847  0.7399  0.5435  0.4833
    5TMC3    C614168   0.317   3.608  10.878 -0.2060 -0.2305  0.1647
    5TMC3     C14169   0.248   3.882  11.153  0.3100  0.1441  0.8852
    5TMC3     O14170   0.253   3.874  11.273 -0.1422  0.0989 -0.6778
    5TMC3     H14171   0.291   3.632  11.217 -0.7946 -1.9572 -0.2698
    5TMC3    H114172   0.133   3.886  10.916 -1.0155 -1.0263 -1.3357
    5TMC3    H214173   0.372   3.554  10.802 -0.5361 -0.4966  0.1144
    5TMC3    C714174   0.325   3.830  10.759 -0.5187 -0.1705 -0.1352
    5TMC3    C814175   0.360   3.428  11.043  0.0661 -0.2765  0.6873
    5TMC3    O114176   0.310   3.942  10.800  0.0792 -0.0980 -0.4403
    5TMC3    O214177   0.402   3.362  10.950  0.4337  0.2947 -0.2765
    6TMC3    C114178   4.485   4.099  10.325  0.5125  0.0822 -0.5824
    6TMC3    C214179   4.551   3.982  10.318  0.0672 -0.0500  0.1796
    6TMC3    C314180   4.665   3.991  10.240 -0.6281  0.0848 -0.0163
    6TMC3    C414181   4.520   4.215  10.270  0.0190 -0.5675  0.0804
    6TMC3    C514182   4.637   4.227  10.207  0.9583 -0.4328 -0.1407
    6TMC3    C614183   4.705   4.110  10.185 -0.1223  0.1645  0.5739
    6TMC3     C14184   4.350   4.100  10.381 -0.0621  0.2055 -0.4170
    6TMC3     O14185   4.316   4.212  10.416 -0.0219  0.1414 -0.3324
    6TMC3     H14186   4.525   3.887  10.362  0.6646  0.3681  1.4505
    6TMC3    H114187   4.458   4.302  10.290 -1.2981 -1.3836 -0.4810
    6TMC3    H214188   0.076   4.108  10.127  1.0813  3.2372  2.3920
    6TMC3    C714189   4.720   4.347  10.224 -0.2737 -0.6035 -0.4747
    6TMC3    C814190   0.036   3.873  10.230  0.2883  0.6223  0.0287
    6TMC3    O114191   0.110   4.353  10.176  0.0873 -0.1343 -0.0828
    6TMC3    O214192   0.108   3.865  10.136 -0.2719  0.4391 -0.1817
    7MPD2     C14193   0.553   3.994  10.346  0.0233  0.1555 -0.1461
    7MPD2    C114194   0.556   4.048  10.471  0.2328 -0.2503 -0.1382
    7MPD2    C214195   0.500   3.972  10.571  0.0198  0.4419 -0.2945
    7MPD2    C314196   0.444   3.848  10.549  0.2437  0.2801  0.4653
    7MPD2    C414197   0.473   3.788  10.430  0.3493 -0.5675 -0.2391
    7MPD2    C514198   0.515   3.866  10.322 -0.4709 -0.5462 -0.7023
    7MPD2     H14199   0.490   4.021  10.667 -1.7433 -0.2498 -0.1121
    7MPD2    H114200   0.431   3.694  10.396 -1.9122 -0.2328  1.5995
    7MPD2    H214201   0.590   4.052  10.262  1.7083 -0.6129  0.0632
    7MPD2    H314202   0.519   3.824  10.222 -1.1551 -3.2379  0.3900
    7MPD2     N14203   0.368   3.774  10.641  0.7138 -0.0773 -0.1979
    7MPD2    H514204   0.345   3.679  10.614  0.5543 -0.0876 -0.0219
    7MPD2    N114205   0.607   4.179  10.480 -0.4587  0.5397 -0.1258
    7MPD2    H714206   0.628   4.221  10.390 -3.0180 -0.2990 -1.1127
    8TMC3    C114207   0.696   4.380  10.600  0.6052 -0.4765 -0.4608
    8TMC3    C214208   0.632   4.457  10.501  0.3039  0.1094 -0.0862
    8TMC3    C314209   0.548   4.561  10.542 -0.0466 -0.3586  0.0276
    8TMC3    C414210   0.685   4.419  10.724 -0.1845  0.0519 -0.8002
    8TMC3    C514211   0.596   4.522  10.759 -0.1931 -0.8494  0.4558
    8TMC3    C614212   0.530   4.593  10.672  0.3490  0.5727 -1.0190
    8TMC3     C14213   0.640   4.238  10.601  0.6534 -0.2587  0.1398
    8TMC3     O14214   0.634   4.191  10.716 -0.1427 -0.0967 -0.2368
    8TMC3     H14215   0.643   4.430  10.397 -3.7200  2.8102 -1.2221
    8TMC3    H114216   0.744   4.360  10.794 -0.4289  1.1337  0.3259
    8TMC3    H214217   0.458   4.665  10.707 -0.4274 -1.2818  1.2305
    8TMC3    C714218   0.543   4.501  10.890 -0.3425 -0.1452  0.1230
    8TMC3    C814219   0.435   4.561  10.450  0.0806  0.9261  0.3078
    8TMC3    O114220   0.497   4.594  10.953  0.4596 -0.0528 -0.3566
    8TMC3    O214221   0.426   4.454  10.390  0.1296 -0.6688  0.3057
    9MPD2     C14222   0.121   0.040  10.510  1.1219 -0.1150  0.0588
    9MPD2    C114223   0.206   4.669  10.449 -0.5335 -0.3924  0.7245
    9MPD2    C214224   0.141   4.575  10.366 -0.3014  0.1616  0.0391
    9MPD2    C314225   0.005   4.557  10.366  0.1621 -0.2955 -0.9506
    9MPD2    C414226   4.654   4.649  10.443  0.0861  0.2646  0.0390
    9MPD2    C514227   4.709   0.044  10.486  0.5567 -0.6600  0.0486
    9MPD2     H14228   0.205   4.498  10.323  0.4123  1.0737 -0.5327
    9MPD2    H114229   4.546   4.640  10.444  0.0481  0.6377 -0.9740
    9MPD2    H214230   0.161   0.119  10.572 -1.4793  1.7071 -0.5974
    9MPD2    H314231   4.656   0.126  10.533  0.9672 -0.4172  0.0821
    9MPD2     N14232   4.665   4.442  10.305  0.3575 -0.0724 -0.1818
    9MPD2    H514233   4.564   4.443  10.318  0.1584  0.9732 -1.8277
    9MPD2    N114234   0.344   4.657  10.491 -0.4335 -0.1145  0.6543
    9MPD2    H714235   0.379   0.006  10.556  0.7530 -1.1740  1.1300
    1MPD1     C14236   0.574   0.777  16.220  0.0389 -0.3393 -0.6562
    1MPD1    C114237   0.447   0.780  16.164  0.5729  0.3894 -0.2046
    1MPD1    C214238   0.342   0.831  16.234  0.3707  0.1000 -0.5836
    1MPD1    C314239   0.369   0.887  16.356 -0.2781 -0.0116 -0.1719
    1MPD1    C414240   0.496   0.877  16.415  0.3015 -0.1385 -0.2538
    1MPD1    C514241   0.598   0.822  16.346  0.3134  0.2775  0.0273
    1MPD1     H14242   0.249   0.836  16.179 -0.4448 -0.7611  0.7248
    1MPD1    H114243   0.511   0.931  16.507 -3.2420  0.9479 -0.3005
    1MPD1    H214244   0.664   0.736  16.175  1.3397  0.9602  0.7920
    1MPD1    H314245   0.693   0.825  16.398  0.5810 -2.8797 -0.2717
    1MPD1     N14246   0.267   0.959  16.425 -0.2291  0.5375 -0.0058
    1MPD1    H514247   0.296   1.005  16.511  1.4453 -1.0099  0.2558
    1MPD1    N114248   0.414   0.712  16.044 -0.2551 -0.4143  0.8530
    1MPD1    H614249   0.344   0.764  15.992 -0.5271 -2.2610 -0.6268
    1MPD1    H714250   0.497   0.701  15.986  0.5471  0.4124  1.8411
    2MPD1     C14251   3.987   0.894  16.871 -0.1257  0.2691  0.0987
    2MPD1    C114252   4.039   1.018  16.910  0.5513  0.2387  0.7523
    2MPD1    C214253   4.157   1.063  16.847 -0.4784 -0.6927  0.5654
    2MPD1    C314254   4.237   0.985  16.762  0.5417 -0.6237  1.0489
    2MPD1    C414255   4.192   0.858  16.739 -0.2153  0.3356 -0.5452
    2MPD1    C514256   4.073   0.813  16.794  0.2082  0.4293  0.0495
    2MPD1     H14257   4.188   1.167  16.857  1.4136 -1.0990 -1.1297
    2MPD1    H114258   4.233   0.796  16.660 -0.6294  0.8702 -1.1791
    2MPD1    H214259   3.885   0.865  16.894 -0.0849  0.7941  0.9528
    2MPD1    H314260   4.041   0.712  16.771  1.5002 -0.1022  0.6558
    2MPD1     N14261   4.361   1.039  16.715  0.6198  0.3709 -0.2631
    2MPD1    H514262   4.369   1.141  16.717  0.6747  0.3530  0.4681
    2MPD1    N114263   3.951   1.107  16.976  0.0190 -0.1070 -0.6510
    2MPD1    H614264   3.883   1.068  17.041  0.9887  3.0464  2.2791
    2MPD1    H714265   3.994   1.189  17.020  2.1435 -0.4473 -2.0708
    3TCq2    C114266   4.464   0.967  16.664 -0.2912  0.3020  0.2342
    3TCq2    O214267   4.465   0.845  16.640 -0.1383 -0.1670 -0.3786
    3TCq2    C214268   4.566   1.053  16.609  0.5690  0.5843  0.0776
    3TCq2    C314269   4.612   1.161  16.679 -0.4516  0.3393 -0.2092
    3TCq2    C414270   0.020   1.203  16.656 -0.7961  0.4061 -0.4743
    3TCq2    C514271   0.108   1.138  16.570  0.4959 -0.0141 -0.2218
    3TCq2    C614272   0.060   1.022  16.516  0.4510  0.6083  0.0787
    3TCq2    C714273   4.648   0.991  16.527 -0.1681  0.2783 -0.6023
    3TCq2    C814274   0.131   0.962  16.402  0.4970  0.0602 -0.1667
    3TCq2    O414275   0.064   0.907  16.315 -0.1662 -0.4981 -0.4371
    3TCq2    C914276   0.062   1.326  16.710 -0.3169 -0.0624  0.5740
    3TCq2    O514277   4.700   1.387  16.781  0.6132 -0.1853 -0.3827
    3TCq2    O614278   0.161   1.386  16.654 -0.3261  0.3076 -0.3998
    3TCq2    H214279   4.549   1.218  16.747  2.0763  0.1873  2.2502
    3TCq2    H314280   0.204   1.177  16.539  0.9657 -0.9084  0.0896
    3TCq2    H414281   4.625   0.893  16.486 -1.1194  0.4305 -0.4311
    1TCq1    O114282   1.659   0.999  12.308  0.6236  0.0270 -0.1379
    1TCq1    C114283   1.650   0.866  12.319 -0.3677 -0.3772  0.1878
    1TCq1    O214284   1.548   0.805  12.351 -0.0622  0.3683 -0.0873
    1TCq1    C214285   1.785   0.826  12.350 -0.8765  0.0924 -0.6734
    1TCq1    C314286   1.801   0.722  12.443 -0.1790  0.1778 -0.0599
    1TCq1    C414287   1.922   0.693  12.489 -0.1765  0.3613  0.5033
    1TCq1    C514288   2.032   0.778  12.464 -0.1478 -0.4714  0.6764
    1TCq1    C614289   2.015   0.875  12.365 -0.0547 -0.2603  0.1320
    1TCq1    C714290   1.892   0.903  12.312 -0.0419 -0.2016  0.0911
    1TCq1    C814291   2.117   0.980  12.359 -0.9406 -0.5523  0.0816
    1TCq1    O414292   2.110   1.047  12.253  0.4271  0.0076 -0.2272
    1TCq1    C914293   1.927   0.577  12.571  0.1343  0.1490 -0.8505
    1TCq1    O514294   2.038   0.536  12.610 -0.4888  0.5891  0.2697
    1TCq1    O614295   1.826   0.538  12.625 -0.3193 -0.6512  0.4211
    1TCq1    H114296   1.747   1.039  12.323  0.0655  1.8316 -1.6940
    1TCq1    H214297   1.718   0.661  12.476  1.0458 -2.1180 -1.2264
    1TCq1    H314298   2.135   0.751  12.484  0.0389  1.0028  1.7609
    1TCq1    H414299   1.883   0.978  12.234  0.1500 -0.8250 -0.5384
    2MPD2     C14300   2.371   1.138  12.394 -0.4767  0.1496  0.7951
    2MPD2    C114301   2.289   1.089  12.499  0.4153  0.6625 -0.4730
    2MPD2    C214302   2.336   1.117  12.632  0.8792  0.6143 -0.1968
    2MPD2    C314303   2.460   1.185  12.651  0.1697  0.7777  0.7688
    2MPD2    C414304   2.533   1.236  12.543 -0.3804 -0.2210 -0.6470
    2MPD2    C514305   2.480   1.212  12.423  0.2286 -0.3939 -0.3447
    2MPD2     H14306   2.269   1.079  12.708 -0.4813 -0.2721 -1.8468
    2MPD2    H114307   2.626   1.291  12.553  0.2016 -1.0694 -1.3565
    2MPD2    H214308   2.345   1.124  12.289  3.1851  2.0723 -0.3630
    2MPD2    H314309   2.529   1.251  12.334 -0.9463 -2.0649 -1.7056
    2MPD2     N14310   2.504   1.183  12.787 -0.1336  0.5950 -0.2460
    2MPD2    H514311   2.434   1.139  12.845  0.4544 -0.6309 -0.4803
    2MPD2    N114312   2.173   1.011  12.479  0.0344 -0.4598  0.0515
    2MPD2    H714313   2.120   0.982  12.560  0.4899 -4.6994 -1.1563
    3TCq1    O114314   2.560   1.090  13.392  0.3392  0.8598  0.1336
    3TCq1    C114315   2.529   1.176  13.293 -0.3886 -0.4920  0.2434
    3TCq1    O214316   2.463   1.277  13.294  0.6539 -0.3878 -0.1032
    3TCq1    C214317   2.619   1.138  13.186  0.3538 -0.4041 -0.2315
    3TCq1    C314318   2.749   1.113  13.212 -0.3244  0.0350 -0.3315
    3TCq1    C414319   2.840   1.117  13.105  0.9116  0.0171  0.5362
    3TCq1    C514320   2.787   1.143  12.981 -0.5402  0.0851 -0.3789
    3TCq1    C614321   2.660   1.178  12.961  0.5114 -0.3838 -0.1868
    3TCq1    C714322   2.570   1.173  13.060  0.4690  0.1977  0.4535
    3TCq1    C814323   2.629   1.219  12.829 -0.5919  0.0273 -0.1135
    3TCq1    O414324   2.723   1.269  12.763  0.1936  0.0217 -0.2429
    3TCq1    C914325   2.981   1.103  13.132  0.6428  0.0771  0.2240
    3TCq1    O514326   3.054   1.109  13.028  0.2323 -0.1453  0.5911
    3TCq1    O614327   3.025   1.118  13.245 -0.1312 -0.2324 -0.2509
    3TCq1    H114328   2.603   1.005  13.368 -1.7649 -0.1722  0.0102
    3TCq1    H214329   2.781   1.092  13.313 -1.2271 -0.8067 -0.2226
    3TCq1    H314330   2.859   1.158  12.902  0.4003 -1.3948  0.1985
    3TCq1    H414331   2.469   1.209  13.043 -0.4969 -2.2526  1.0662
    1MPD2     C14332   1.908   2.543  14.954  0.6549  0.1962 -0.1186
    1MPD2    C114333   1.773   2.550  14.966  0.8205  0.2530 -0.3927
    1MPD2    C214334   1.701   2.438  14.988  0.3017  0.4054  0.3219
    1MPD2    C314335   1.759   2.309  14.994  0.4004  1.0578  0.3471
    1MPD2    C414336   1.898   2.302  14.971  0.4183 -0.4552  0.3474
    1MPD2    C514337   1.972   2.417  14.949 -0.8349 -0.5157  0.4683
    1MPD2     H14338   1.594   2.442  15.009  0.2505  0.5184  0.0390
    1MPD2    H114339   1.944   2.205  14.959 -2.1556 -1.6060 -0.4128
    1MPD2    H214340   1.972   2.630  14.946 -3.1024  2.7852 -1.6404
    1MPD2    H314341   2.079   2.409  14.941 -0.8737 -1.8080  1.3946
    1MPD2     N14342   1.689   2.190  15.019 -0.6103 -0.0422 -0.2586
    1MPD2    H514343   1.738   2.103  15.034 -0.6856  0.1232  0.9407
    1MPD2    N114344   1.713   2.681  14.975  0.5884  0.1311 -1.1914
    1MPD2    H714345   1.763   2.769  14.971 -3.6872  2.5199 -2.3948
    2TMC3    C114346   1.534   2.827  14.999 -0.0299  0.5813 -0.3205
    2TMC3    C214347   1.426   2.832  15.076  0.7209 -0.2598  0.3408
    2TMC3    C314348   1.317   2.902  15.033 -0.9445  0.3696 -0.1136
    2TMC3    C414349   1.540   2.879  14.873  1.2358 -0.1992  0.5492
    2TMC3    C514350   1.432   2.958  14.826  0.3381 -0.3197 -0.2459
    2TMC3    C614351   1.324   2.967  14.912  0.2802  0.3175  0.1388
    2TMC3     C14352   1.584   2.693  15.001  0.1397 -0.1012  0.2155
    2TMC3     O14353   1.500   2.616  15.043 -0.5559  0.0060 -0.1520
    2TMC3     H14354   1.434   2.799  15.179  0.0430  1.9333  1.1041
    2TMC3    H114355   1.632   2.857  14.821  0.6696 -0.8924 -0.1498
    2TMC3    H214356   1.231   3.001  14.867  1.2947  0.5895 -1.7695
    2TMC3    C714357   1.443   3.041  14.708  0.6417  0.3601  0.0121
    2TMC3    C814358   1.196   2.823  15.038 -0.1959  0.9392 -0.2689
    2TMC3    O114359   1.337   3.077  14.656  0.3183  0.1489  0.2175
    2TMC3    O214360   1.093   2.869  15.000  0.1773 -0.6305 -0.6443
    3TCq1    O114361   2.326   3.557  14.160  0.0566  0.5332 -0.5750
    3TCq1    C114362   2.421   3.506  14.240 -0.0438  0.5158 -0.0510
    3TCq1    O214363   2.545   3.534  14.251 -0.6782 -0.0368 -0.4209
    3TCq1    C214364   2.345   3.418  14.323 -0.5662  0.6951  0.2196
    3TCq1    C314365   2.395   3.398  14.454  0.5548 -0.1661  0.5314
    3TCq1    C414366   2.322   3.314  14.538 -0.2264  0.5127  0.5554
    3TCq1    C514367   2.211   3.253  14.496 -0.5060  0.2526  1.1375
    3TCq1    C614368   2.169   3.276  14.367 -0.3587  0.2161 -0.1511
    3TCq1    C714369   2.233   3.358  14.279 -0.4991  0.4814 -0.0039
    3TCq1    C814370   2.027   3.255  14.337  0.5239 -0.0540  0.7442
    3TCq1    O414371   1.991   3.297  14.228 -0.1852 -0.3308  0.4677
    3TCq1    C914372   2.384   3.264  14.659  0.3268 -0.6532  0.0100
    3TCq1    O514373   2.313   3.200  14.738 -0.0087  0.5175  0.7191
    3TCq1    O614374   2.489   3.325  14.690 -0.0682  0.4176  0.0754
    3TCq1    H114375   2.241   3.556  14.210 -0.8164 -2.3536 -2.1312
    3TCq1    H214376   2.482   3.454  14.487  1.6882 -1.9715  0.5922
    3TCq1    H314377   2.166   3.173  14.553  0.9416 -2.9925 -2.3125
    3TCq1    H414378   2.212   3.353  14.173  0.5487 -2.3721 -0.0885
    4MPD2     C14379   1.726   3.265  14.348 -0.5273  0.4962  0.5875
    4MPD2    C114380   1.809   3.220  14.449 -0.1321  0.2064  0.9016
    4MPD2    C214381   1.760   3.161  14.562  0.3551 -0.5655  0.2097
    4MPD2    C314382   1.623   3.147  14.580  0.1292 -0.3951  0.1663
    4MPD2    C414383   1.547   3.211  14.483  0.3328  0.5969 -0.0214
    4MPD2    C514384   1.597   3.265  14.373  0.0601  0.0058  0.2605
    4MPD2     H14385   1.831   3.117  14.631  1.0345 -1.6475 -1.1676
    4MPD2    H114386   1.438   3.206  14.481  0.3093  1.0706  0.1273
    4MPD2    H214387   1.767   3.300  14.254 -0.6889  0.2552  0.4291
    4MPD2    H314388   1.542   3.301  14.287 -3.0127  1.7299  2.9506
    4MPD2     N14389   1.576   3.066  14.681 -0.1983  1.1833  0.3471
    4MPD2    H514390   1.650   3.020  14.732 -1.4597 -1.5913 -0.2975
    4MPD2    N114391   1.952   3.226  14.451  0.5659 -0.0459  0.8199
    4MPD2    H714392   2.009   3.215  14.534  0.3754 -1.4918  0.7656
    5TMC2    C114393   1.270   2.009  15.040  0.0285 -0.7204  0.0351
    5TMC2    C214394   1.286   1.950  15.168  0.5182  0.7863 -0.2420
    5TMC2    C314395   1.409   1.950  15.217 -0.7628  0.3250 -0.2263
    5TMC2    C414396   1.385   2.041  14.973 -0.3845 -0.8087 -0.3339
    5TMC2    C514397   1.507   2.056  15.034  0.4680 -1.7818  0.0320
    5TMC2    C614398   1.524   2.009  15.160 -0.3467 -0.5476  0.0468
    5TMC2     C14399   1.157   2.104  15.044  0.0303 -0.0347  0.6447
    5TMC2     O14400   1.071   2.081  15.126 -0.3573  0.3827  0.0488
    5TMC2     H14401   1.206   1.911  15.229 -0.0320 -0.4861 -1.7825
    5TMC2    H114402   1.374   2.095  14.880  0.5093 -0.5376 -0.2797
    5TMC2    H214403   1.610   2.038  15.219 -1.5238  1.7554  0.5961
    5TMC2    C714404   1.552   2.187  15.021  0.0050 -0.8219 -0.3099
    5TMC2    C814405   1.414   1.936  15.358  0.2506 -0.3610 -0.5132
    5TMC2    O114406   1.465   2.269  14.999  0.7811 -0.2344  0.6018
    5TMC2    O214407   1.438   1.835  15.418  0.1297  0.4132  0.2190
    5TMC2    O514408   1.334   2.039  15.399 -0.0223  0.1426 -0.2569
    5TMC2    H514409   1.351   2.118  15.343 -0.0668 -0.2094 -0.7625
    6MPD2     C14410   1.013   2.593  15.092 -0.1949  0.2931  0.0718
    6MPD2    C114411   1.143   2.581  15.052 -0.0085  0.6526  0.2177
    6MPD2    C214412   1.199   2.461  15.020  0.4275 -0.4855 -0.6041
    6MPD2    C314413   1.128   2.347  15.025 -0.3520 -0.2092  0.0215
    6MPD2    C414414   0.998   2.352  15.070 -0.0577 -0.0972  0.5815
    6MPD2    C514415   0.938   2.475  15.099 -0.4024  0.2223  0.9675
    6MPD2     H14416   1.303   2.467  14.989  0.0856 -1.5967 -1.9514
    6MPD2    H114417   0.930   2.268  15.074 -0.8594  0.5425  0.3003
    6MPD2    H214418   0.970   2.685  15.131 -1.4317 -0.0166 -0.5553
    6MPD2    H314419   0.832   2.483  15.123 -0.4636 -0.6538  0.9769
    6MPD2     N14420   1.198   2.229  15.002 -0.3476  0.5941  0.4300
    6MPD2    H514421   1.297   2.240  14.981 -0.4503  1.5182  0.4178
    6MPD2    N114422   1.229   2.696  15.050 -0.3197  0.2610  0.2485
    6MPD2    H714423   1.329   2.680  15.046 -0.6136 -1.7053  0.8584
  945NH3     N114424   1.947   1.231   0.764  0.4022 -0.3386 -0.1973
  945NH3     H214425   1.974   1.307   0.702 -0.6660  1.3890  1.4721
  945NH3     H314426   2.036   1.188   0.788  0.4225 -0.7667 -1.0173
  945NH3     H414427   1.913   1.163   0.696 -1.4806  0.3469  0.0651
  946SOD     NA14428   4.033   1.118  11.752  0.5193 -0.0039 -0.7435
  947SOD     NA14429   4.016   0.816  13.206  0.1231 -0.1675  0.1714
  948SOD     NA14430   3.698   3.719   0.393  0.2840 -0.1719  0.6152
  949SOD     NA14431   3.509   1.147  10.975  0.1753  0.4349 -0.0808
  950SOD     NA14432   3.444   1.230  10.108 -0.0470 -0.4817 -0.2692
  951SOD     NA14433   2.693   2.455  14.132 -0.0032 -0.0740  0.1319
  952SOD     NA14434   3.209   4.101   9.275 -0.1842  0.2316 -0.3770
  953SOD     NA14435   0.202   0.653   3.808 -0.4315  0.1703  0.6732
  954SOD     NA14436   2.743   1.323  14.820  0.5945 -0.0545  0.5345
  955SOD     NA14437   0.115   3.563  16.741  0.0341  0.3755 -0.0335
  956SOD     NA14438   3.751   1.619   1.694 -0.3709 -0.1725  0.4247
  957SOD     NA14439   2.629   1.287  12.026  0.2166 -0.4722 -0.1192
  958SOD     NA14440   4.360   1.450   1.346  0.1202 -0.3121 -0.1579
  959SOD     NA14441   2.050   1.109  10.280 -0.1427  0.6306  0.4883
  960SOD     NA14442   3.722   3.398   3.956 -1.0195 -0.0632  0.2579
  961SOD     NA14443   2.670   2.779  10.360 -0.1292  0.2198  0.1464
  962SOD     NA14444   3.882   1.370  13.410  0.2607  0.0953  0.0572
  963SOD     NA14445   1.325   2.538  10.722 -0.2583 -0.2158 -0.0995
  964SOD     NA14446   1.459   2.432  10.461  0.4089  0.1533 -0.5277
  965SOD     NA14447   1.250   3.338   1.685  0.0244 -0.2454 -0.2417
  966SOD     NA14448   3.449   4.297   0.654 -0.2438  0.5618  0.4907
  967SOD     NA14449   2.969   1.022  10.710  0.2240 -0.1656 -0.2431
  968SOD     NA14450   3.295   3.599  15.558  0.0989  0.3967 -0.1730
  969SOD     NA14451   1.396   0.360   9.072 -0.2220  0.6216 -0.1357
  970SOD     NA14452   4.074   0.202   1.314 -0.1724  0.1026  0.2933
  971SOD     NA14453   1.798   0.319  12.659 -0.0873 -0.1294 -0.4898
  972SOD     NA14454   2.876   1.661   1.348 -0.2314 -0.0642 -0.3835
  973SOD     NA14455   2.694   4.674  11.255  0.0245  0.2144  0.1088
  974SOD     NA14456   2.224   2.854  11.948  0.1228 -0.3614  0.3781
  975SOD     NA14457   3.809   0.889   0.482  0.2016 -0.1091  0.3223
  976SOD     NA14458   2.570   2.205  14.353 -0.1327  0.7115  0.5429
  977SOD     NA14459   1.049   0.306  11.012  0.1889  0.2103  0.3493
  978SOD     NA14460   2.313   2.180   0.689 -0.0538 -0.1383 -0.0935
  979SOD     NA14461   4.501   0.821  14.017 -0.0871  0.2455  0.0835
  980SOD     NA14462   1.305   2.923  15.465  0.0941  0.1084 -0.1106
  981SOD     NA14463   3.628   1.987   6.469 -0.2202 -0.0016 -0.2364
  982SOD     NA14464   3.517   2.152   3.274  0.0744 -0.4020 -0.4158
  983SOD     NA14465   2.042   1.510   2.242  0.3555  0.0603  0.2040
  984SOD     NA14466   4.165   1.725   8.648 -0.4350  0.0617 -0.1364
  985SOD     NA14467   1.623   1.967  10.629  0.0624 -0.4224 -0.3329
  986SOD     NA14468   0.813   1.074  11.091  0.2029 -0.0507  0.2660
  987SOD     NA14469   0.196   3.198   0.453  0.1866  0.0781 -0.4566
  988SOD     NA14470   1.681   3.521   7.336  0.2185  0.5143  0.2274
  989SOD     NA14471   4.270   2.373  15.102  0.1804 -0.0416  0.4110
  990SOD     NA14472   3.019   0.231  17.443  0.2047 -0.4932 -0.5556
  991SOD     NA14473   3.185   1.171  13.943  0.3290  0.5550  0.1059
  992SOD     NA14474   2.296   4.026  13.936 -0.6990 -0.9297 -0.6382
  993SOD     NA14475   2.095   0.829  10.161  0.4120  0.1906  0.2099
  994SOD     NA14476   0.139   2.191   5.640 -0.5304  0.5061  0.2835
  995SOD     NA14477   3.102   0.979  12.867  0.0962 -0.3930 -0.4054
  996SOD     NA14478   1.160   2.995  13.310  0.2062 -0.8888 -0.4708
  997SOD     NA14479   1.686   3.234  11.146 -0.2752  0.0267  0.2107
  998SOD     NA14480   4.374   3.903   1.920 -0.1482 -0.2457 -0.3118
  999SOD     NA14481   3.365   3.150  17.142 -0.7024  0.5242  0.1761
 1000SOD     NA14482   0.366   1.743  16.127 -0.2173  0.0062  0.2304
 1001SOD     NA14483   3.115   1.299  12.920 -0.3775  0.2397  0.2781
 1002SOD     NA14484   4.110   2.112  15.023  0.6404 -0.2386 -0.4331
 1003SOD     NA14485   0.612   1.416  12.341  0.2063 -0.2143 -0.0411
 1004SOD     NA14486   3.678   2.050  10.636 -0.2963  0.7274 -0.4673
 1005SOD     NA14487   0.698   0.578  14.928  0.1430  0.0830  0.1687
 1006SOD     NA14488   2.263   0.266   0.539 -0.4651 -0.2489  0.4881
 1007SOD     NA14489   2.529   3.905  12.294  0.0622 -0.4406  0.2919
 1008SOD     NA14490   3.387   4.332  14.442 -0.2813  0.0068  0.3193
 1009SOD     NA14491   4.494   4.186  15.249  0.3574 -0.4508  0.5261
 1010SOD     NA14492   4.162   2.824  17.424  0.4170 -0.1255 -0.1237
 1011SOD     NA14493   1.811   0.946  10.082 -0.3556 -0.1587  0.1854
 1012SOL     OW14494   2.951   3.755   6.020  0.1644 -0.1333 -0.8163
 1012SOL    HW114495   3.018   3.710   5.969  0.4735  1.7630 -2.1147
 1012SOL    HW214496   3.010   3.792   6.085 -0.2543 -0.9224  0.0095
 1013SOL     OW14497   4.225   1.304   1.459 -0.3315 -0.1344 -0.3280
 1013SOL    HW114498   4.256   1.217   1.482 -2.0159 -0.0658  2.2042
 1013SOL    HW214499   4.167   1.315   1.533  0.4552  3.5806 -0.2664
 1014SOL     OW14500   2.368   2.349   3.795  0.4461 -0.1234  0.1500
 1014SOL    HW114501   2.443   2.295   3.772  0.0091 -0.1519 -1.2169
 1014SOL    HW214502   2.393   2.432   3.754 -0.4180 -0.2105 -0.5476
 1015SOL     OW14503   0.899   3.760   4.606  0.2603  0.2890  0.3510
 1015SOL    HW114504   0.876   3.852   4.598  0.6027  0.1836 -1.8258
 1015SOL    HW214505   0.853   3.733   4.686  0.9451 -0.9359  0.3345
 1016SOL     OW14506   3.155   2.511   6.401  0.0272 -0.2866  0.1640
 1016SOL    HW114507   3.086   2.568   6.435  0.6681  0.8267 -0.3996
 1016SOL    HW214508   3.122   2.424   6.422 -0.1702  0.3867  2.6012
 1017SOL     OW14509   3.195   1.663  13.014 -0.2657 -0.4743  0.0541
 1017SOL    HW114510   3.135   1.694  12.946  0.5770 -0.5550 -0.7347
 1017SOL    HW214511   3.249   1.738  13.041  0.0951 -0.2026 -1.4163
 1018SOL     OW14512   2.260   0.128   7.896  0.3775  0.3960  0.1551
 1018SOL    HW114513   2.258   0.127   7.800  2.1866  1.3195  0.1077
 1018SOL    HW214514   2.311   0.207   7.909  0.1790  0.5014  0.3017
 1019SOL     OW14515   1.258   2.164   8.240  0.1299  0.4251 -0.0427
 1019SOL    HW114516   1.220   2.194   8.322  1.4168  1.0437  0.3196
 1019SOL    HW214517   1.343   2.123   8.260 -0.8402 -2.8820 -2.7124
 1020SOL     OW14518   2.669   2.906   2.097 -0.3096  0.4167 -0.2889
 1020SOL    HW114519   2.746   2.861   2.132 -0.5553 -0.3173 -0.6944
 1020SOL    HW214520   2.704   2.987   2.059 -2.8355  1.7015  0.1362
 1021SOL     OW14521   3.460   1.455   2.439  0.2777  0.7575  0.1334
 1021SOL    HW114522   3.380   1.430   2.484 -0.1006  0.5449 -0.6485
 1021SOL    HW214523   3.507   1.373   2.423  0.9109  1.2688 -0.6535
 1022SOL     OW14524   2.172   3.447  10.486 -0.2792  0.3570  0.2196
 1022SOL    HW114525   2.180   3.365  10.436  0.8562  0.4199  0.3098
 1022SOL    HW214526   2.211   3.508  10.424 -1.2111 -0.2345 -0.9594
 1023SOL     OW14527   3.230   3.346  13.091 -0.4110 -0.4596  0.3304
 1023SOL    HW114528   3.154   3.362  13.035 -0.6592 -1.7422  0.2991
 1023SOL    HW214529   3.294   3.396  13.041 -3.2149  0.9728 -1.8478
 1024SOL     OW14530   0.789   0.867   1.543  0.5031 -0.5737  0.6056
 1024SOL    HW114531   0.783   0.803   1.614  1.3767 -1.2835  0.0484
 1024SOL    HW214532   0.753   0.819   1.468 -0.1349  2.0967 -0.7906
 1025SOL     OW14533   0.335   0.879   2.187  0.1052  0.3717  0.1902
 1025SOL    HW114534   0.405   0.819   2.216 -0.2220 -0.2908 -0.3945
 1025SOL    HW214535   0.372   0.898   2.101  0.0850  1.9309  0.5260
 1026SOL     OW14536   1.255   0.185  10.604 -0.2936 -0.3650  0.2966
 1026SOL    HW114537   1.268   0.126  10.530  0.5331 -2.0571  1.7908
 1026SOL    HW214538   1.192   0.240  10.558 -1.2077 -2.5146 -1.0043
 1027SOL     OW14539   3.610   4.032   7.383 -0.3396  0.4897  0.3254
 1027SOL    HW114540   3.699   4.049   7.354 -0.8523  0.4225 -1.3191
 1027SOL    HW214541   3.622   4.005   7.474 -1.6966 -0.7944  0.1241
 1028SOL     OW14542   3.136   3.854   2.365  0.0775 -0.3066  0.0289
 1028SOL    HW114543   3.089   3.850   2.449 -1.8187 -2.1333 -1.1028
 1028SOL    HW214544   3.125   3.762   2.341  1.1142  0.2575 -2.5799
 1029SOL     OW14545   2.728   4.301   3.093  0.0075  0.9417  0.5271
 1029SOL    HW114546   2.790   4.232   3.071  2.3211  2.9377  0.7968
 1029SOL    HW214547   2.717   4.334   3.004  2.4754 -0.8061 -0.4193
 1030SOL     OW14548   0.352   1.314   5.374 -0.3696  0.4325 -0.1488
 1030SOL    HW114549   0.260   1.286   5.372 -0.8277  1.6704  2.3290
 1030SOL    HW214550   0.366   1.308   5.469 -0.1310  2.3433 -0.0562
 1031SOL     OW14551   2.320   1.106   9.532  0.1171 -0.0779 -0.1586
 1031SOL    HW114552   2.250   1.160   9.568  0.4610 -0.8037  1.5716
 1031SOL    HW214553   2.321   1.137   9.441  0.2184  0.8987  0.1799
 1032SOL     OW14554   0.067   2.836   1.329 -0.1679  0.4630  0.0392
 1032SOL    HW114555   0.039   2.750   1.298 -0.0326 -0.1744  1.6904
 1032SOL    HW214556   0.113   2.798   1.403  1.2942  0.2650 -0.9722
 1033SOL     OW14557   0.354   0.908   9.203  0.2482  0.5091 -0.2887
 1033SOL    HW114558   0.378   0.889   9.294  1.7513  2.7004 -0.2228
 1033SOL    HW214559   0.279   0.851   9.189  0.3822  0.3399 -0.3101
 1034SOL     OW14560   3.288   1.106  13.265 -0.2628  0.0093 -0.3604
 1034SOL    HW114561   3.195   1.086  13.252 -0.4684  0.2256  0.7263
 1034SOL    HW214562   3.306   1.151  13.183 -0.4079  0.0117 -0.3915
 1035SOL     OW14563   2.149   3.312   3.984  0.5302 -0.4024  0.2259
 1035SOL    HW114564   2.172   3.405   3.992 -0.0310 -0.2246 -0.2521
 1035SOL    HW214565   2.148   3.300   4.079  3.3958  1.9896  0.5483
 1036SOL     OW14566   2.799   2.126   4.260  0.4345  0.7040  0.8803
 1036SOL    HW114567   2.811   2.035   4.287 -1.6151 -0.2632 -1.4246
 1036SOL    HW214568   2.812   2.126   4.165 -0.9708  0.0920  0.6723
 1037SOL     OW14569   3.833   3.034  10.543  0.4060 -0.7094  0.0028
 1037SOL    HW114570   3.919   3.002  10.514 -0.7118 -2.0892 -1.7481
 1037SOL    HW214571   3.831   3.124  10.510  0.9562  0.3246  2.7855
 1038SOL     OW14572   2.106   1.627   8.351  0.6927  0.1570  0.6497
 1038SOL    HW114573   2.163   1.629   8.428 -0.0653  2.5370  1.1369
 1038SOL    HW214574   2.024   1.643   8.397  0.1533  2.3918 -1.0864
 1039SOL     OW14575   2.133   2.928   3.098  0.2263  0.1763 -0.3329
 1039SOL    HW114576   2.126   2.897   3.189  1.0649 -0.3225 -0.4406
 1039SOL    HW214577   2.042   2.922   3.069  0.4955  0.0146 -1.1237
 1040SOL     OW14578   2.735   2.035  12.242  0.5980  0.0367  0.5916
 1040SOL    HW114579   2.719   2.062  12.152  1.3021  0.2051  0.5144
 1040SOL    HW214580   2.651   1.997  12.268  0.7586 -1.2940 -0.8583
 1041SOL     OW14581   4.649   1.004   7.153  0.1002  0.6659  0.6854
 1041SOL    HW114582   0.000   0.992   7.091 -0.2327 -0.3612  0.4966
 1041SOL    HW214583   4.590   1.058   7.100 -2.1724 -0.0721  2.5126
 1042SOL     OW14584   4.138   2.366   5.688 -0.0557  0.4010  0.0288
 1042SOL    HW114585   4.137   2.395   5.597  0.0752  1.9829  0.5389
 1042SOL    HW214586   4.181   2.281   5.676 -0.1497  0.1771  1.2074
 1043SOL     OW14587   1.029   2.838   4.303 -0.2089  0.3565  0.1924
 1043SOL    HW114588   0.999   2.898   4.372 -0.6541 -2.2617  2.3010
 1043SOL    HW214589   0.947   2.829   4.255  0.2676 -0.5483 -0.4377
 1044SOL     OW14590   2.166   3.817  12.394 -0.5796  0.2426 -0.1014
 1044SOL    HW114591   2.146   3.780  12.308  1.1191 -0.1493 -0.3138
 1044SOL    HW214592   2.085   3.868  12.400 -1.3751 -0.8399 -1.4594
 1045SOL     OW14593   0.906   1.400   7.709  0.3755  0.2864 -0.1680
 1045SOL    HW114594   0.853   1.324   7.735 -0.0841  0.5219 -0.4086
 1045SOL    HW214595   0.990   1.367   7.740  0.3059  0.3836  0.1253
 1046SOL     OW14596   1.206   0.868   5.971  0.2287 -0.0117 -0.1379
 1046SOL    HW114597   1.152   0.807   6.020 -0.9608  0.9856 -0.2040
 1046SOL    HW214598   1.243   0.817   5.900 -1.8771  0.1155 -1.3259
 1047SOL     OW14599   2.408   1.561  16.784 -0.4081  0.2874  0.1700
 1047SOL    HW114600   2.459   1.573  16.704  0.0114 -1.4215  0.1894
 1047SOL    HW214601   2.339   1.503  16.753 -0.2439  0.2431 -0.1148
 1048SOL     OW14602   3.372   2.842  11.617  0.3822 -0.3662 -0.4459
 1048SOL    HW114603   3.394   2.855  11.709 -1.8240 -0.6277  0.1034
 1048SOL    HW214604   3.452   2.810  11.574 -0.5162 -2.0981 -0.8170
 1049SOL     OW14605   0.188   1.617   4.213  0.7454  0.6621  0.0583
 1049SOL    HW114606   0.221   1.674   4.144  1.0557 -0.3572 -0.6326
 1049SOL    HW214607   0.151   1.548   4.156 -0.6659  0.4695  1.1939
 1050SOL     OW14608   0.116   1.847   2.717  0.0949  0.3377  0.0595
 1050SOL    HW114609   0.031   1.879   2.685  0.5567  2.5602  1.0546
 1050SOL    HW214610   0.168   1.923   2.691 -0.7125  0.8487 -0.0893
 1051SOL     OW14611   1.539   4.063   3.032 -0.1656  0.9489 -0.1279
 1051SOL    HW114612   1.494   4.142   3.003 -2.1590  0.0909  0.6531
 1051SOL    HW214613   1.577   4.099   3.112  2.7614 -0.5842 -0.8078
 1052SOL     OW14614   0.615   1.343  11.187  0.0792  0.4259  0.6597
 1052SOL    HW114615   0.666   1.404  11.134  1.4382 -0.4665  0.9673
 1052SOL    HW214616   0.538   1.330  11.132  0.7555  3.7215 -1.0639
 1053SOL     OW14617   0.043   2.675   6.354 -0.1775 -0.4295 -0.0515
 1053SOL    HW114618   4.705   2.615   6.401 -1.2152  0.7801  0.1954
 1053SOL    HW214619   0.003   2.761   6.366 -0.6543 -0.8817  1.5932
 1054SOL     OW14620   2.474   2.366   0.008  0.8472  0.4040  0.2347
 1054SOL    HW114621   2.520   2.298  17.645 -2.2283  0.2455 -2.4255
 1054SOL    HW214622   2.442   2.414  17.618 -5.1170 -2.0458  1.2236
 1055SOL     OW14623   1.110   1.557   8.362 -0.1794  0.0500 -0.6113
 1055SOL    HW114624   1.117   1.607   8.443  0.9864 -1.0307 -0.0336
 1055SOL    HW214625   1.016   1.568   8.349 -0.9402 -3.8393  1.4782
 1056SOL     OW14626   0.417   1.189   3.540 -0.3412  0.2822 -0.3233
 1056SOL    HW114627   0.462   1.107   3.520  1.0366  1.1315 -0.6951
 1056SOL    HW214628   0.478   1.224   3.605 -1.5572 -1.8561  1.9799
 1057SOL     OW14629   3.319   2.936   6.563 -0.0013 -0.1378 -0.5772
 1057SOL    HW114630   3.281   2.857   6.601  1.7034  0.4672  2.3524
 1057SOL    HW214631   3.264   2.999   6.608 -0.3232 -0.4617 -0.5176
 1058SOL     OW14632   0.128   4.581  16.520  1.2718 -0.0559  0.0997
 1058SOL    HW114633   0.079   4.551  16.444  0.7941 -1.0455  0.7951
 1058SOL    HW214634   0.153   4.672  16.505  1.6381  0.0761  1.4641
 1059SOL     OW14635   0.920   2.693   7.599  0.3699 -0.3040 -0.0637
 1059SOL    HW114636   0.919   2.598   7.585 -1.6979 -0.1539 -0.9200
 1059SOL    HW214637   0.961   2.691   7.685 -2.6951  1.1732  1.4294
 1060SOL     OW14638   1.308   3.505  12.271  0.0647  0.1540 -0.0887
 1060SOL    HW114639   1.269   3.418  12.267 -0.9200  0.6153 -0.4503
 1060SOL    HW214640   1.356   3.507  12.354  0.2773 -0.3214 -0.2012
 1061SOL     OW14641   0.412   2.719  13.720  0.0901  0.2156  0.5383
 1061SOL    HW114642   0.468   2.642  13.712  0.1568  0.5821 -2.4501
 1061SOL    HW214643   0.392   2.759  13.635 -0.2283  0.7439  0.8629
 1062SOL     OW14644   3.921   0.875   6.573 -0.9486 -0.0698 -0.2306
 1062SOL    HW114645   4.000   0.831   6.542 -1.7896 -1.3006 -0.6273
 1062SOL    HW214646   3.857   0.804   6.581  0.3128 -1.1423  0.4579
 1063SOL     OW14647   4.490   1.673   5.489  1.1022 -0.2569 -1.3396
 1063SOL    HW114648   4.462   1.586   5.460 -0.8212  0.7007 -2.3600
 1063SOL    HW214649   4.520   1.650   5.577 -0.6899  1.8072 -0.1846
 1064SOL     OW14650   1.990   2.711   6.377 -0.6522 -0.0142  0.2126
 1064SOL    HW114651   2.082   2.732   6.360 -0.7132 -0.4611 -0.7127
 1064SOL    HW214652   1.993   2.721   6.472  0.6508 -1.5080  0.3171
 1065SOL     OW14653   3.899   2.448  14.012 -0.4181 -0.2688  0.1590
 1065SOL    HW114654   3.936   2.518  14.065 -0.9565 -0.1988  0.4330
 1065SOL    HW214655   3.962   2.376  14.021  1.2875  1.3575  1.0716
 1066SOL     OW14656   2.338   0.400   8.022 -0.0191  0.7740 -0.4513
 1066SOL    HW114657   2.340   0.480   8.074  0.1837 -0.0966  0.8835
 1066SOL    HW214658   2.245   0.397   8.000  0.1513 -0.6753 -0.9939
 1067SOL     OW14659   2.051   0.255   6.903  0.2598  0.3058  0.0784
 1067SOL    HW114660   1.957   0.260   6.888 -0.0509 -2.1593  1.2794
 1067SOL    HW214661   2.081   0.216   6.820  2.3195  2.7858 -0.3439
 1068SOL     OW14662   4.366   1.101   5.298 -0.1092  0.2191  0.1761
 1068SOL    HW114663   4.397   1.162   5.231  0.8700  0.3381  0.7369
 1068SOL    HW214664   4.285   1.141   5.328 -0.8962 -0.4496 -1.0699
 1069SOL     OW14665   0.348   2.239   7.139  0.0810 -0.1080  0.1937
 1069SOL    HW114666   0.335   2.144   7.133 -0.4999  0.0514 -1.1480
 1069SOL    HW214667   0.428   2.240   7.191  1.2289 -0.3620 -1.5543
 1070SOL     OW14668   0.416   2.211   8.687  0.4393 -0.1520  0.1028
 1070SOL    HW114669   0.436   2.267   8.762 -0.5575  0.3531 -0.0072
 1070SOL    HW214670   0.355   2.263   8.635  0.5072 -0.3903 -0.2164
 1071SOL     OW14671   1.696   3.075  11.507 -0.0123  0.2815  0.1631
 1071SOL    HW114672   1.619   3.069  11.564 -1.3413  1.1226 -1.5549
 1071SOL    HW214673   1.760   3.034  11.566 -0.7178  0.0188  0.7575
 1072SOL     OW14674   2.953   4.184   2.809  0.0347 -0.2276 -0.0214
 1072SOL    HW114675   3.046   4.170   2.827  0.0184 -0.9879 -0.4973
 1072SOL    HW214676   2.902   4.140   2.877 -1.1447 -0.6033 -1.1504
 1073SOL     OW14677   1.069   4.167   6.892 -0.0942  0.1472  0.2635
 1073SOL    HW114678   1.140   4.106   6.872 -0.8544 -0.2478 -1.1720
 1073SOL    HW214679   1.042   4.195   6.805 -0.2978  0.4746  0.4342
 1074SOL     OW14680   2.389   1.481   0.930  0.0536 -0.3960  0.4675
 1074SOL    HW114681   2.400   1.575   0.918  1.5266 -0.5309  0.7404
 1074SOL    HW214682   2.473   1.462   0.973  0.2363  1.7156  1.0566
 1075SOL     OW14683   3.937   1.835   4.921  0.2708  0.7694  0.3289
 1075SOL    HW114684   3.890   1.915   4.898 -1.5021 -0.1180  0.8751
 1075SOL    HW214685   3.864   1.774   4.914  0.0472  1.2550 -1.4768
 1076SOL     OW14686   2.107   1.809   1.835  0.4352  0.5477  0.5581
 1076SOL    HW114687   2.178   1.749   1.810 -2.4238 -1.9584 -1.6036
 1076SOL    HW214688   2.131   1.886   1.783 -1.0964 -0.2996 -1.4230
 1077SOL     OW14689   2.875   1.205  11.724 -0.2656 -0.0948 -0.1238
 1077SOL    HW114690   2.797   1.240  11.681 -1.2324  0.0705  1.7681
 1077SOL    HW214691   2.848   1.236  11.811 -1.1730  0.0860 -0.4680
 1078SOL     OW14692   0.531   3.014   9.322  0.3293 -0.5071 -0.6575
 1078SOL    HW114693   0.562   2.925   9.337  1.6080  0.1432  0.5682
 1078SOL    HW214694   0.593   3.048   9.258 -1.6814  1.6680 -1.4453
 1079SOL     OW14695   4.457   4.175   0.367 -0.1595 -0.3379 -0.2011
 1079SOL    HW114696   4.378   4.136   0.404 -1.7312  4.4771  1.4967
 1079SOL    HW214697   4.450   4.148   0.275 -1.6411 -0.1451 -0.1311
 1080SOL     OW14698   3.948   0.227   9.803  0.2651 -0.2582 -0.1248
 1080SOL    HW114699   3.959   0.321   9.815  1.0540 -0.0028 -2.8536
 1080SOL    HW214700   3.858   0.237   9.834  0.5855 -0.2311  0.7839
 1081SOL     OW14701   0.147   1.916   3.267 -0.3917 -0.3115  0.3298
 1081SOL    HW114702   0.127   1.887   3.178 -2.2142 -1.0804  0.9828
 1081SOL    HW214703   0.209   1.848   3.294 -0.6827 -1.5036 -2.0451
 1082SOL     OW14704   2.503   2.151   4.486  0.1750 -0.0113  0.4765
 1082SOL    HW114705   2.515   2.139   4.392 -1.0365  2.3828  0.0055
 1082SOL    HW214706   2.556   2.075   4.510  0.9851 -0.2405 -2.0271
 1083SOL     OW14707   0.589   1.919  14.903  0.3832  0.0104  0.1318
 1083SOL    HW114708   0.516   1.873  14.945 -0.6107  0.6019 -0.9338
 1083SOL    HW214709   0.568   2.011  14.922  1.6299  0.5773 -1.2094
 1084SOL     OW14710   0.314   4.286   8.242 -0.0035  0.0266  0.5109
 1084SOL    HW114711   0.380   4.336   8.292 -1.4255  1.4815  0.9263
 1084SOL    HW214712   0.326   4.321   8.153  0.3286 -1.0479  0.1360
 1085SOL     OW14713   1.373   3.031   5.935  0.1209 -0.3489  0.1221
 1085SOL    HW114714   1.319   3.103   5.967  1.6142  0.8708 -0.1126
 1085SOL    HW214715   1.399   2.982   6.013  0.3905  0.0502  0.2834
 1086SOL     OW14716   0.912   3.852   3.401 -0.0887  0.8783  0.1782
 1086SOL    HW114717   0.844   3.920   3.400  0.7722  1.7312  0.0590
 1086SOL    HW214718   0.852   3.779   3.387 -0.2245  0.5106  2.6691
 1087SOL     OW14719   1.180   3.738  12.191  0.1858  0.3714 -0.2354
 1087SOL    HW114720   1.245   3.761  12.125 -0.8439 -0.0625 -1.3922
 1087SOL    HW214721   1.232   3.666  12.228 -0.0125 -0.0038 -0.6820
 1088SOL     OW14722   1.955   3.746   3.131 -0.4703  0.9307  0.0223
 1088SOL    HW114723   1.877   3.702   3.096 -1.2792  1.8486  0.6406
 1088SOL    HW214724   2.009   3.671   3.155  0.3943  2.0134  1.4385
 1089SOL     OW14725   1.874   3.736   2.400  0.2468 -0.4140 -0.5719
 1089SOL    HW114726   1.854   3.644   2.418 -2.7213  0.0202 -1.5925
 1089SOL    HW214727   1.969   3.734   2.401  0.1759 -2.4120  1.4757
 1090SOL     OW14728   3.654   1.879  13.676  0.3806  0.8154 -0.2710
 1090SOL    HW114729   3.684   1.850  13.762  1.2821 -2.7108 -1.7480
 1090SOL    HW214730   3.580   1.932  13.706 -1.5618 -1.5944 -0.8271
 1091SOL     OW14731   4.587   4.136   5.775 -0.3145 -0.0685  0.2408
 1091SOL    HW114732   4.521   4.200   5.804 -2.4364 -1.7765 -0.7868
 1091SOL    HW214733   4.590   4.169   5.686 -0.4649  1.9919  1.0069
 1092SOL     OW14734   0.196   0.504   7.057  0.0340  0.4204 -0.1689
 1092SOL    HW114735   0.250   0.474   7.130  1.5149 -1.0028 -1.8668
 1092SOL    HW214736   0.222   0.436   6.995 -0.0532 -0.3810  0.6721
 1093SOL     OW14737   1.434   0.374  12.951  0.2013  0.1190 -0.0602
 1093SOL    HW114738   1.383   0.450  12.920  0.6970  1.4119  2.3176
 1093SOL    HW214739   1.372   0.326  13.006  0.9476 -1.3792 -0.5300
 1094SOL     OW14740   3.235   2.199   6.949 -0.3330  0.5435  0.0484
 1094SOL    HW114741   3.156   2.190   6.896  0.7054  0.3895 -1.4913
 1094SOL    HW214742   3.212   2.257   7.022 -2.3077 -0.5068  0.2463
 1095SOL     OW14743   3.458   1.199   0.345  0.9226  0.3949 -0.0747
 1095SOL    HW114744   3.490   1.142   0.415 -2.0187  0.0920  1.0332
 1095SOL    HW214745   3.486   1.289   0.362 -2.0614  1.1395  0.9141
 1096SOL     OW14746   3.033   4.549  12.527  0.0590 -0.1450 -0.7174
 1096SOL    HW114747   3.122   4.521  12.550  0.1184  0.2345 -0.4774
 1096SOL    HW214748   2.979   4.564  12.604  0.9136 -1.5854  0.1510
 1097SOL     OW14749   1.994   3.854   7.309 -0.3823  0.1712  0.7001
 1097SOL    HW114750   2.065   3.916   7.291 -0.9969  0.5251 -0.4869
 1097SOL    HW214751   1.921   3.911   7.332 -1.7155 -0.9598 -0.6923
 1098SOL     OW14752   3.537   3.735   3.099 -0.7991  0.3139  0.1420
 1098SOL    HW114753   3.560   3.822   3.130  2.1117 -0.0819 -0.9203
 1098SOL    HW214754   3.444   3.732   3.122 -0.7357  1.9383  0.5752
 1099SOL     OW14755   2.750   0.358  16.960 -0.1456 -0.0780  0.1352
 1099SOL    HW114756   2.721   0.368  16.869 -0.6261 -2.4854  0.0147
 1099SOL    HW214757   2.845   0.349  16.964 -0.2272 -1.8478 -1.6593
 1100SOL     OW14758   3.379   0.577   6.598  0.0371 -0.1715  0.1607
 1100SOL    HW114759   3.454   0.529   6.563  0.1045  0.5747 -0.7344
 1100SOL    HW214760   3.349   0.631   6.525 -1.4311 -1.8289 -0.4652
 1101SOL     OW14761   0.724   4.167   3.673  0.4118  0.3149 -0.3719
 1101SOL    HW114762   0.702   4.226   3.746 -4.2081 -0.2952 -1.2961
 1101SOL    HW214763   0.678   4.087   3.697 -1.1931  1.4053  0.2066
 1102SOL     OW14764   0.256   3.894   6.361  0.1233  0.1105  0.2937
 1102SOL    HW114765   0.346   3.924   6.374  0.9040 -1.8562 -0.5599
 1102SOL    HW214766   0.227   3.963   6.301 -0.6116 -1.0390 -0.6588
 1103SOL     OW14767   3.824   3.808   2.151  0.1958 -0.0036  0.0882
 1103SOL    HW114768   3.824   3.883   2.092  1.0660 -1.4906 -1.8180
 1103SOL    HW214769   3.777   3.842   2.227  1.1582 -1.6732  1.4463
 1104SOL     OW14770   1.205   0.179   6.689  0.9176  0.0533 -0.3787
 1104SOL    HW114771   1.267   0.164   6.618 -0.6019  0.9693 -1.9175
 1104SOL    HW214772   1.219   0.274   6.694  1.0063 -0.0771  1.6677
 1105SOL     OW14773   2.703   3.717   5.283 -0.3186 -0.1160  0.1190
 1105SOL    HW114774   2.692   3.790   5.344  0.7911  0.6206 -0.5537
 1105SOL    HW214775   2.639   3.739   5.214 -1.0011 -1.1142  0.4357
 1106SOL     OW14776   3.821   4.494   6.705  0.7943  0.1198 -0.2746
 1106SOL    HW114777   3.753   4.427   6.700 -0.4299  1.4930 -1.9077
 1106SOL    HW214778   3.785   4.564   6.759 -0.3260 -0.0002 -0.8708
 1107SOL     OW14779   0.057   4.500  15.731 -0.0062 -0.0025 -0.0572
 1107SOL    HW114780   0.083   4.431  15.793  0.9103  0.0761 -0.3544
 1107SOL    HW214781   0.019   4.560  15.795 -2.0111 -0.8321 -0.4702
 1108SOL     OW14782   1.530   2.871   1.286  0.1739  0.1314 -0.1608
 1108SOL    HW114783   1.512   2.833   1.372  0.0963 -2.4431 -1.3114
 1108SOL    HW214784   1.608   2.927   1.297  1.0712 -0.8768 -1.4952
 1109SOL     OW14785   3.825   1.886   2.700 -0.1066 -0.1582  0.7559
 1109SOL    HW114786   3.858   1.902   2.612 -0.7737 -0.2607  0.4868
 1109SOL    HW214787   3.766   1.812   2.684 -0.0102 -0.3020  1.0605
 1110SOL     OW14788   4.506   3.757  16.828  0.5071  0.2275  0.3835
 1110SOL    HW114789   4.415   3.741  16.853 -0.7039  1.2751 -3.3837
 1110SOL    HW214790   4.513   3.696  16.755 -0.7411  0.6995 -0.1203
 1111SOL     OW14791   1.833   4.492   2.195  0.1231  0.2421  0.4396
 1111SOL    HW114792   1.918   4.522   2.162  0.5396 -2.4315 -0.9735
 1111SOL    HW214793   1.853   4.399   2.208  0.9110  0.6838  2.3494
 1112SOL     OW14794   1.949   3.222   3.808 -0.1568  0.0748  0.2986
 1112SOL    HW114795   1.933   3.131   3.831  1.7734 -0.6838 -1.3553
 1112SOL    HW214796   1.997   3.247   3.887 -0.4515  3.5883 -0.6410
 1113SOL     OW14797   3.199   1.331   7.349 -0.2987  0.0827  0.2468
 1113SOL    HW114798   3.182   1.267   7.418  1.4122 -2.3767 -1.6056
 1113SOL    HW214799   3.247   1.402   7.393 -0.4307 -0.2826  0.9860
 1114SOL     OW14800   0.289   2.577   0.121  0.2782 -0.1457  0.2514
 1114SOL    HW114801   0.378   2.613   0.120 -0.3413  1.3293 -2.4811
 1114SOL    HW214802   0.240   2.655   0.148  0.8155  0.3377 -0.1586
 1115SOL     OW14803   3.095   3.420   8.686 -0.3550 -0.0283 -0.2736
 1115SOL    HW114804   3.165   3.423   8.751 -0.6160 -0.7130  0.0377
 1115SOL    HW214805   3.131   3.477   8.618 -1.3813  0.8177 -0.1048
 1116SOL     OW14806   1.025   2.735   6.170 -0.0896 -0.7861 -1.0772
 1116SOL    HW114807   1.116   2.705   6.171  0.2694  0.3190 -0.9616
 1116SOL    HW214808   0.987   2.651   6.196 -0.7837  0.6594  2.4520
 1117SOL     OW14809   1.199   0.335   7.625 -0.3370  0.9801 -0.2334
 1117SOL    HW114810   1.188   0.317   7.532  3.9318 -0.0599 -0.5242
 1117SOL    HW214811   1.206   0.430   7.614  2.3522  1.0207  1.6996
 1118SOL     OW14812   1.394   0.192   1.500 -0.2280  0.1183 -0.5094
 1118SOL    HW114813   1.380   0.271   1.448  0.5705  0.3758 -0.3346
 1118SOL    HW214814   1.338   0.199   1.577 -2.5054  3.2813 -2.4852
 1119SOL     OW14815   2.659   3.605   2.161  0.0766 -0.9789 -0.9112
 1119SOL    HW114816   2.682   3.651   2.242  0.5150 -0.5518 -1.2760
 1119SOL    HW214817   2.729   3.636   2.104  0.7834 -0.1359  0.4096
 1120SOL     OW14818   0.507   0.051  11.769 -0.2278  0.4413 -0.1386
 1120SOL    HW114819   0.593   0.027  11.801  1.2941  0.8572 -3.8842
 1120SOL    HW214820   0.498   4.703  11.703 -1.4424 -0.9453  1.4796
 1121SOL     OW14821   1.876   1.531  10.306 -0.2100 -0.3082  0.5240
 1121SOL    HW114822   1.885   1.515  10.212  0.6296 -1.1160  0.7526
 1121SOL    HW214823   1.887   1.447  10.349  0.2820 -0.5792 -0.1267
 1122SOL     OW14824   4.378   4.699   4.003 -0.4257 -0.2752  0.2265
 1122SOL    HW114825   4.336   4.618   3.974  0.8890 -0.9575  0.2200
 1122SOL    HW214826   4.359   4.704   4.096 -1.3158 -2.5809  0.1660
 1123SOL     OW14827   1.112   0.090   7.893 -0.2669  0.5737  0.1668
 1123SOL    HW114828   1.155   0.007   7.871 -3.2726 -0.4560 -1.8028
 1123SOL    HW214829   1.180   0.157   7.891  0.4409 -0.1571 -0.4008
 1124SOL     OW14830   1.009   2.030   1.467 -0.3899  0.1888  0.0911
 1124SOL    HW114831   1.035   1.950   1.422 -2.7134 -0.7236  0.3923
 1124SOL    HW214832   1.045   2.007   1.553  3.0227  1.2223 -1.0612
 1125SOL     OW14833   4.623   4.436   8.867  0.3489 -0.1339  0.1559
 1125SOL    HW114834   4.603   4.405   8.778 -0.0060 -2.5535  1.0845
 1125SOL    HW214835   4.653   4.526   8.859 -0.7023  0.2408  0.4128
 1126SOL     OW14836   2.712   4.603   2.598 -0.6864  0.0849 -0.4288
 1126SOL    HW114837   2.641   4.627   2.658 -1.1520 -0.6327 -0.6846
 1126SOL    HW214838   2.672   4.532   2.548  0.8182 -1.2785  0.2730
 1127SOL     OW14839   1.418   2.580   2.920 -0.3816  0.1201 -0.0865
 1127SOL    HW114840   1.390   2.496   2.957  1.8711  1.4996  4.8004
 1127SOL    HW214841   1.370   2.585   2.837 -1.8523 -0.4222  0.7228
 1128SOL     OW14842   3.903   0.205   7.669 -0.4613 -0.1214  0.9417
 1128SOL    HW114843   3.846   0.260   7.723 -1.0527 -1.1276  1.3313
 1128SOL    HW214844   3.838   0.182   7.603  0.1870  1.4535 -0.2557
 1129SOL     OW14845   3.912   4.028   5.756  0.8504  0.0809 -0.2765
 1129SOL    HW114846   3.819   4.019   5.779  1.1145 -0.3041  0.6302
 1129SOL    HW214847   3.951   4.025   5.843  1.0549 -0.5986 -0.3931
 1130SOL     OW14848   1.293   4.434   4.080  0.3037  0.6004  0.1155
 1130SOL    HW114849   1.305   4.339   4.077 -1.1179  0.3471  3.1236
 1130SOL    HW214850   1.279   4.431   4.174  0.1646 -3.1485 -0.0336
 1131SOL     OW14851   4.659   1.128   4.862  0.1629  0.2172  0.5051
 1131SOL    HW114852   4.582   1.143   4.916  0.2623 -2.5724  1.4440
 1131SOL    HW214853   0.014   1.153   4.915  2.9847 -1.4568 -2.6880
 1132SOL     OW14854   2.996   4.341  13.033  0.0995  0.3149  0.4717
 1132SOL    HW114855   2.930   4.272  13.040  0.8391 -0.3543  0.8795
 1132SOL    HW214856   3.018   4.328  12.941  1.3981 -1.7437  1.0474
 1133SOL     OW14857   2.313   0.620  17.586  0.0600  0.2432  0.0630
 1133SOL    HW114858   2.233   0.672  17.597 -0.6162 -1.2336  1.9902
 1133SOL    HW214859   2.376   0.685  17.617  0.4544  0.0521 -0.3409
 1134SOL     OW14860   3.552   0.383  12.121 -0.1717 -0.4071  0.1217
 1134SOL    HW114861   3.496   0.452  12.155 -0.7988 -1.4518  1.1854
 1134SOL    HW214862   3.553   0.316  12.189  0.6508 -1.7838 -1.2243
 1135SOL     OW14863   1.924   3.649   9.414 -0.1940  0.0815  0.3748
 1135SOL    HW114864   1.973   3.633   9.333  1.2105 -2.0621  1.6581
 1135SOL    HW214865   1.926   3.744   9.420  2.5964  0.0953 -0.8525
 1136SOL     OW14866   0.947   0.199   7.630  0.3200 -0.1407 -0.0791
 1136SOL    HW114867   0.970   0.144   7.705 -0.9064 -0.0296  0.3653
 1136SOL    HW214868   1.022   0.258   7.636 -1.0327  1.4515  1.0590
 1137SOL     OW14869   0.868   4.231   9.207 -0.1548 -0.1609 -0.0788
 1137SOL    HW114870   0.941   4.281   9.242 -0.0181 -0.2697 -0.2047
 1137SOL    HW214871   0.825   4.197   9.285  0.6517 -0.3490  0.2929
 1138SOL     OW14872   1.956   3.623   6.090 -0.3873  0.2737 -0.5601
 1138SOL    HW114873   1.889   3.568   6.050 -2.1510  1.7863  0.2909
 1138SOL    HW214874   1.912   3.704   6.116 -0.7117 -0.4071  1.0467
 1139SOL     OW14875   0.543   1.545   0.032 -0.2007 -0.3141  0.3671
 1139SOL    HW114876   0.496   1.625   0.054  0.5142 -0.3002  1.8963
 1139SOL    HW214877   0.631   1.581   0.046 -0.7492  1.2070 -0.1544
 1140SOL     OW14878   4.230   2.588   6.087 -0.0506  0.0209  0.1599
 1140SOL    HW114879   4.197   2.523   6.025 -0.3340 -0.9310  1.3170
 1140SOL    HW214880   4.295   2.547   6.143 -0.2252 -2.6181 -1.5253
 1141SOL     OW14881   3.272   1.827   8.297 -0.1259 -0.2777 -0.0733
 1141SOL    HW114882   3.359   1.810   8.262 -0.9887  0.0311 -2.4243
 1141SOL    HW214883   3.293   1.899   8.356 -0.0502 -0.2925 -0.0830
 1142SOL     OW14884   4.083   0.395   3.511  0.4063  0.0795 -0.1313
 1142SOL    HW114885   4.060   0.452   3.438  0.5084 -1.4229 -1.3284
 1142SOL    HW214886   4.176   0.419   3.514  0.3594  0.2934 -0.4736
 1143SOL     OW14887   1.199   3.540  11.889  0.0691 -0.8623 -0.1977
 1143SOL    HW114888   1.251   3.604  11.938 -0.6615  0.3889 -1.0482
 1143SOL    HW214889   1.233   3.456  11.921 -0.8503 -0.1225  2.7545
 1144SOL     OW14890   4.662   3.203   6.454 -0.5598  0.3982  0.3019
 1144SOL    HW114891   4.610   3.238   6.382  1.5280 -1.6172 -2.1218
 1144SOL    HW214892   4.710   3.284   6.472  2.3592 -1.2180 -0.3097
 1145SOL     OW14893   0.939   3.105  10.629  0.1008 -0.4603 -0.1636
 1145SOL    HW114894   0.844   3.096  10.639  0.2235 -1.2700  0.3043
 1145SOL    HW214895   0.963   3.038  10.693  0.1602  0.6981  0.9998
 1146SOL     OW14896   2.468   0.985   7.345  0.3299 -0.2511  0.3196
 1146SOL    HW114897   2.561   0.974   7.367  0.3874 -1.9454 -0.7734
 1146SOL    HW214898   2.485   1.003   7.253 -0.0324  0.7590  0.4618
 1147SOL     OW14899   1.445   0.799   6.816 -0.7716  0.0540  0.4197
 1147SOL    HW114900   1.529   0.821   6.775 -0.1961 -1.2185  0.9201
 1147SOL    HW214901   1.470   0.764   6.901 -1.3834  0.3643  0.7255
 1148SOL     OW14902   2.994   4.658  10.303 -0.5757  0.4637  0.4531
 1148SOL    HW114903   3.076   4.690  10.265  1.2357 -3.1948  1.1828
 1148SOL    HW214904   3.005   4.687  10.393  2.8648  0.7073 -0.0174
 1149SOL     OW14905   3.650   1.347   5.816 -0.0354  0.5144 -0.0953
 1149SOL    HW114906   3.714   1.407   5.780  1.2407 -1.3969 -1.0427
 1149SOL    HW214907   3.681   1.275   5.761  0.2964  1.0558 -0.6178
 1150SOL     OW14908   0.370   0.168   4.809  0.2601 -0.5374  0.2890
 1150SOL    HW114909   0.359   0.098   4.744 -1.0839 -0.6648  0.6564
 1150SOL    HW214910   0.323   0.240   4.766 -0.6928 -0.6611  1.1307
 1151SOL     OW14911   2.182   1.914  12.589 -0.2140 -0.5296  0.5672
 1151SOL    HW114912   2.264   1.957  12.613  0.2113  0.5268 -2.8178
 1151SOL    HW214913   2.137   1.976  12.531  0.2596  1.2979  2.1633
 1152SOL     OW14914   1.020   1.304   8.410 -0.2280 -0.1665  0.5380
 1152SOL    HW114915   0.948   1.327   8.469 -1.3571 -0.1739 -0.8104
 1152SOL    HW214916   1.051   1.391   8.384 -2.2191  0.1147 -0.9803
 1153SOL     OW14917   0.903   3.026  17.191  0.4960 -0.1015 -0.0190
 1153SOL    HW114918   0.967   2.955  17.198 -0.3012 -0.7366  0.8844
 1153SOL    HW214919   0.832   2.969  17.160  1.1647 -0.3084 -1.1500
 1154SOL     OW14920   2.312   3.846   2.358  0.0456  0.1348  0.5735
 1154SOL    HW114921   2.362   3.868   2.279  0.9280 -0.4250  0.9729
 1154SOL    HW214922   2.239   3.907   2.355 -1.9595 -2.3078 -0.3676
 1155SOL     OW14923   0.249   0.462  13.335  0.0807 -0.1739 -0.0367
 1155SOL    HW114924   0.179   0.445  13.398  0.3237 -1.8699 -0.2117
 1155SOL    HW214925   0.270   0.372  13.310  0.7161  0.2786 -1.1537
 1156SOL     OW14926   1.095   3.254  12.872  0.1408  0.5076 -0.1635
 1156SOL    HW114927   1.055   3.245  12.785  2.1872 -3.5171 -0.7018
 1156SOL    HW214928   1.032   3.309  12.917  1.3604  2.1424 -0.4397
 1157SOL     OW14929   0.670   3.245   1.970 -0.3143  0.0881  0.2510
 1157SOL    HW114930   0.579   3.254   1.998 -0.2339 -1.2244  0.9038
 1157SOL    HW214931   0.647   3.239   1.878 -0.1679  0.2857  0.2009
 1158SOL     OW14932   2.118   4.277   6.031  0.1881  0.6219  0.2392
 1158SOL    HW114933   2.136   4.324   5.950  0.2438  1.5727  0.8141
 1158SOL    HW214934   2.160   4.191   6.020 -0.0071  0.4173  1.0830
 1159SOL     OW14935   0.438   0.673  13.369 -0.2780  0.3149  0.7628
 1159SOL    HW114936   0.375   0.608  13.338  0.7538 -0.3840  0.1304
 1159SOL    HW214937   0.416   0.691  13.460  1.0455 -3.2243  1.7591
 1160SOL     OW14938   1.783   2.962  13.746  0.4122  0.1247 -1.0576
 1160SOL    HW114939   1.802   2.879  13.703 -1.3259 -1.7088  1.7944
 1160SOL    HW214940   1.841   3.016  13.691  0.5206  0.7265 -0.3588
 1161SOL     OW14941   4.075   4.024   9.412 -0.3544  0.1932 -0.6577
 1161SOL    HW114942   4.068   4.022   9.316  2.3006 -1.0365 -0.8242
 1161SOL    HW214943   4.162   3.984   9.417 -0.6094 -0.2931 -0.0959
 1162SOL     OW14944   0.512   2.308  12.628  0.1803  0.0644 -0.4040
 1162SOL    HW114945   0.460   2.336  12.704 -0.0944 -0.7819 -0.2766
 1162SOL    HW214946   0.442   2.300  12.563  1.6539 -2.2702 -1.6972
 1163SOL     OW14947   2.403   0.359   4.926 -0.3609 -0.6108  0.3745
 1163SOL    HW114948   2.441   0.340   5.012 -1.9349 -1.2688  0.9212
 1163SOL    HW214949   2.325   0.305   4.941 -2.6490  1.8955 -2.5203
 1164SOL     OW14950   2.458   1.892   5.542 -0.1331  0.0263  0.7863
 1164SOL    HW114951   2.443   1.870   5.450  0.2836  1.5884  0.3342
 1164SOL    HW214952   2.543   1.935   5.528  0.6365 -1.6371  0.4325
 1165SOL     OW14953   4.320   3.893   7.905 -0.0469  0.0661  0.7292
 1165SOL    HW114954   4.377   3.855   7.971  2.4649 -1.2699 -2.1892
 1165SOL    HW214955   4.377   3.925   7.835 -0.7342 -0.4944 -0.0845
 1166SOL     OW14956   1.128   3.895   6.252  0.0220 -0.2928  0.6909
 1166SOL    HW114957   1.108   3.913   6.160  0.5739  2.2528  1.0712
 1166SOL    HW214958   1.146   3.983   6.284 -0.4764  0.0633 -0.0016
 1167SOL     OW14959   2.787   3.818   7.325 -0.3942  0.1740 -0.3978
 1167SOL    HW114960   2.749   3.772   7.400  2.0001  1.4841  1.6226
 1167SOL    HW214961   2.713   3.815   7.264 -3.1081 -1.4587  3.0036
 1168SOL     OW14962   4.248   2.867   5.403 -0.0028 -0.0060  0.0859
 1168SOL    HW114963   4.194   2.835   5.475  1.2994 -0.2605  0.9578
 1168SOL    HW214964   4.300   2.936   5.445 -0.3932  1.0031 -1.1239
 1169SOL     OW14965   4.069   3.770   6.293  0.0306 -0.0890 -0.2283
 1169SOL    HW114966   4.153   3.732   6.318  0.7282  0.3119 -1.9569
 1169SOL    HW214967   4.010   3.751   6.366  0.2255  1.0223  0.2299
 1170SOL     OW14968   3.075   3.753   4.603  0.2155  0.5512  0.8838
 1170SOL    HW114969   3.063   3.757   4.508  0.7449 -1.9939  0.6991
 1170SOL    HW214970   3.015   3.824   4.627  0.8005  1.7348 -1.2095
 1171SOL     OW14971   4.316   0.801   7.768  0.6486 -0.2111 -0.2350
 1171SOL    HW114972   4.328   0.830   7.859  2.6308 -1.6472 -0.0554
 1171SOL    HW214973   4.291   0.885   7.728 -0.4901 -0.5811 -0.2983
 1172SOL     OW14974   1.389   0.456   3.732 -0.2050 -0.3026  0.2224
 1172SOL    HW114975   1.352   0.545   3.732  0.1995 -0.1368  0.0398
 1172SOL    HW214976   1.306   0.411   3.713  1.4315 -2.6976 -1.1944
 1173SOL     OW14977   4.344   2.481   9.984  0.6628 -0.4196 -0.0034
 1173SOL    HW114978   4.251   2.460   9.991  0.6227  0.4216  2.3329
 1173SOL    HW214979   4.368   2.392   9.958  1.0853 -0.3477  0.1433
 1174SOL     OW14980   0.807   4.566   7.459  0.1993  0.3783 -0.3224
 1174SOL    HW114981   0.753   4.487   7.452 -0.1094  0.5940 -0.3673
 1174SOL    HW214982   0.873   4.539   7.523 -0.3958  1.7970  0.8934
 1175SOL     OW14983   0.400   4.339   2.705 -1.0774  0.4529  0.1873
 1175SOL    HW114984   0.431   4.377   2.622 -1.4864  0.9304  0.2516
 1175SOL    HW214985   0.455   4.261   2.708 -0.2407  1.0893  1.0514
 1176SOL     OW14986   3.383   3.455   4.905  0.5342  0.5977  0.4267
 1176SOL    HW114987   3.465   3.430   4.864  0.8790  2.6990 -0.1156
 1176SOL    HW214988   3.333   3.379   4.875  1.7274  0.8172 -2.0990
 1177SOL     OW14989   0.680   4.445   7.899 -0.1713  0.1716 -0.0014
 1177SOL    HW114990   0.609   4.396   7.941 -0.5553 -0.3835 -1.2934
 1177SOL    HW214991   0.726   4.476   7.977  0.5633 -1.7718  0.3239
 1178SOL     OW14992   2.693   0.690   3.331  0.1763 -0.5315  0.8674
 1178SOL    HW114993   2.719   0.764   3.275 -1.1915 -0.7520 -0.0647
 1178SOL    HW214994   2.639   0.735   3.396 -0.6055  0.8091 -0.6779
 1179SOL     OW14995   0.745   3.661   8.068  0.0491 -0.0074 -0.6158
 1179SOL    HW114996   0.700   3.577   8.069  0.4605 -0.1917  1.8390
 1179SOL    HW214997   0.739   3.687   7.976  1.1367 -0.5315 -0.8338
 1180SOL     OW14998   4.437   2.189  12.809  0.3511 -0.4928 -0.1218
 1180SOL    HW114999   4.399   2.254  12.868  1.7655 -1.8399  2.2740
 1180SOL    HW215000   4.364   2.130  12.823  0.3919 -0.0970  1.7372
 1181SOL     OW15001   4.038   1.382   2.050  0.5118 -0.0681  0.7741
 1181SOL    HW115002   4.072   1.302   2.090 -1.0110 -0.6655  0.8610
 1181SOL    HW215003   3.984   1.337   1.985  0.9954  0.4131  0.0300
 1182SOL     OW15004   1.683   3.213   5.358 -0.0527  0.3004  0.2799
 1182SOL    HW115005   1.684   3.156   5.435 -1.4120 -0.9480 -0.6455
 1182SOL    HW215006   1.770   3.252   5.370 -0.8877  1.6250  2.1182
 1183SOL     OW15007   0.177   3.782   8.643 -0.2900 -0.2300 -0.0575
 1183SOL    HW115008   0.250   3.827   8.686 -0.0573  0.1146 -0.8207
 1183SOL    HW215009   0.126   3.748   8.717 -2.3453  1.5539 -0.6368
 1184SOL     OW15010   1.589   2.109  13.614  0.7382 -0.7244  0.2707
 1184SOL    HW115011   1.588   2.190  13.665  0.0885 -1.3458  1.2319
 1184SOL    HW215012   1.670   2.117  13.563  0.0730  0.4757 -0.6172
 1185SOL     OW15013   4.381   0.838   7.411  0.4300  0.4838  0.2812
 1185SOL    HW115014   4.443   0.855   7.481  0.0055  0.7942  0.5819
 1185SOL    HW215015   4.301   0.866   7.455  0.4238  2.2231 -0.8802
 1186SOL     OW15016   1.121   0.105   8.220  0.0477  0.7486  0.4298
 1186SOL    HW115017   1.030   0.098   8.248 -0.0233 -0.9475 -0.1953
 1186SOL    HW215018   1.116   0.185   8.168  0.8675 -0.6941 -1.9198
 1187SOL     OW15019   2.436   2.773  11.938  0.0395  0.4542 -0.3201
 1187SOL    HW115020   2.450   2.689  11.894  1.6450  0.6699 -0.2253
 1187SOL    HW215021   2.449   2.748  12.030  0.2394  2.6569  0.2694
 1188SOL     OW15022   1.931   4.004   9.240  0.1394 -0.4733 -0.3780
 1188SOL    HW115023   2.006   4.063   9.228 -1.1024  1.1531 -0.1710
 1188SOL    HW215024   1.940   3.970   9.151 -3.1739  0.7590 -1.1601
 1189SOL     OW15025   0.169   4.140  15.481  0.5047 -0.0572 -0.5640
 1189SOL    HW115026   0.249   4.092  15.502 -0.1726 -0.8447  0.2195
 1189SOL    HW215027   0.212   4.219  15.447  1.1399 -0.4060 -0.5549
 1190SOL     OW15028   0.287   2.107   0.293  0.4126 -0.7519 -0.0730
 1190SOL    HW115029   0.376   2.074   0.287  0.4596 -0.9595  1.7974
 1190SOL    HW215030   0.292   2.200   0.317 -1.8358 -0.5720 -0.2364
 1191SOL     OW15031   0.510   3.342  10.012 -0.2509 -0.4010  0.3335
 1191SOL    HW115032   0.512   3.417  10.071  0.8347 -1.0078  1.0862
 1191SOL    HW215033   0.589   3.292  10.031 -1.1206 -0.8736  2.6599
 1192SOL     OW15034   2.264   1.732   7.572  0.3956 -0.1111  0.3396
 1192SOL    HW115035   2.180   1.761   7.536 -0.5182 -0.2277  2.3989
 1192SOL    HW215036   2.249   1.642   7.602  0.3590 -0.4209 -0.5906
 1193SOL     OW15037   4.146   4.023   0.791  0.1135  0.3732 -0.2152
 1193SOL    HW115038   4.241   4.013   0.787 -0.0848 -0.5185 -2.5530
 1193SOL    HW215039   4.125   3.997   0.701  0.8663 -3.0479  0.5966
 1194SOL     OW15040   2.299   4.407  15.359 -0.6890  0.7149  0.2081
 1194SOL    HW115041   2.385   4.416  15.401 -0.7873 -2.2178  1.0537
 1194SOL    HW215042   2.309   4.454  15.277 -0.5609  2.4796  1.2358
 1195SOL     OW15043   4.618   1.283   0.047 -0.2911  0.5119  0.5651
 1195SOL    HW115044   4.603   1.189   0.046  1.2694  0.2671 -0.0596
 1195SOL    HW215045   4.633   1.300  17.640  4.3513  1.4428  1.4882
 1196SOL     OW15046   4.115   0.322   9.032  0.1038 -0.3310  0.3486
 1196SOL    HW115047   4.067   0.401   9.007  0.4542 -0.1400  0.2875
 1196SOL    HW215048   4.090   0.272   8.954  1.2171 -2.1368  1.1550
 1197SOL     OW15049   0.222   1.100   7.828  0.3344 -0.1665  0.3470
 1197SOL    HW115050   0.161   1.039   7.787 -1.4361  0.4792  2.0679
 1197SOL    HW215051   0.182   1.186   7.815  1.6779  0.0909 -2.0790
 1198SOL     OW15052   1.512   3.149   1.160 -0.2849 -0.1155  0.2812
 1198SOL    HW115053   1.539   3.108   1.242  0.0130 -0.9851 -0.2547
 1198SOL    HW215054   1.493   3.065   1.117  4.7798 -1.5805  0.8452
 1199SOL     OW15055   0.030   0.311  17.249  0.3016 -0.2400  0.8795
 1199SOL    HW115056   4.699   0.246  17.201 -0.4700  1.8092 -1.0470
 1199SOL    HW215057   0.078   0.344  17.173  0.6026  1.0801  1.6458
 1200SOL     OW15058   0.840   2.801  16.014 -0.8309 -0.4046  0.0193
 1200SOL    HW115059   0.811   2.884  16.053 -0.1209 -0.4420  0.6143
 1200SOL    HW215060   0.906   2.843  15.959 -0.0309 -0.7212  0.7416
 1201SOL     OW15061   4.699   2.591   1.225 -0.2393 -0.3863 -0.2635
 1201SOL    HW115062   4.669   2.511   1.268 -1.5869  0.7811  0.9682
 1201SOL    HW215063   0.050   2.563   1.167 -0.2770 -0.8169 -0.0992
 1202SOL     OW15064   4.447   1.279  14.915 -0.7463  0.1198  0.3558
 1202SOL    HW115065   4.390   1.223  14.968  0.0293 -0.5714  0.4458
 1202SOL    HW215066   4.383   1.337  14.872 -0.2822 -0.1861 -0.7272
 1203SOL     OW15067   3.895   3.822   8.567 -0.3671  0.0287  0.1384
 1203SOL    HW115068   3.814   3.856   8.605  0.4157 -0.1679  1.9824
 1203SOL    HW215069   3.875   3.768   8.490 -1.1999 -1.6773  1.5604
 1204SOL     OW15070   1.918   3.827   0.678 -0.1296 -0.7493 -0.1928
 1204SOL    HW115071   2.010   3.841   0.656  1.0103 -3.3281  2.9944
 1204SOL    HW215072   1.885   3.917   0.684 -1.1114 -1.0578 -0.8859
 1205SOL     OW15073   2.953   3.328   0.572 -0.4034 -0.6632  0.1641
 1205SOL    HW115074   2.859   3.346   0.576 -0.4043 -0.2200 -1.8771
 1205SOL    HW215075   2.986   3.343   0.661  1.2923 -1.3893 -0.3293
 1206SOL     OW15076   4.547   3.920  15.793 -0.1646 -0.2059  0.1818
 1206SOL    HW115077   4.532   4.008  15.828  0.0099  0.2602 -0.9317
 1206SOL    HW215078   4.586   3.941  15.709 -0.5336 -0.3833 -0.0376
 1207SOL     OW15079   3.509   4.549  13.659 -0.3819  0.1878 -0.3087
 1207SOL    HW115080   3.509   4.624  13.600 -0.7323  0.6542  0.2819
 1207SOL    HW215081   3.516   4.478  13.595 -0.5469 -0.0030 -0.1178
 1208SOL     OW15082   2.875   2.573   8.307 -0.0566  0.0603 -0.0649
 1208SOL    HW115083   2.878   2.546   8.399  2.1019  2.1629  0.4594
 1208SOL    HW215084   2.880   2.667   8.322 -1.8688  0.5359 -2.4052
 1209SOL     OW15085   4.086   2.258  12.776 -0.1505 -0.0333 -0.4011
 1209SOL    HW115086   4.132   2.202  12.839  2.4273  1.2275 -1.1536
 1209SOL    HW215087   3.998   2.227  12.795 -0.6929  2.1766  0.7960
 1210SOL     OW15088   1.354   0.167   8.625  0.0005 -0.3050 -0.1526
 1210SOL    HW115089   1.263   0.137   8.622 -0.9445  2.6986 -1.4788
 1210SOL    HW215090   1.333   0.243   8.680 -0.4204 -1.9828  2.0138
 1211SOL     OW15091   3.107   2.220   1.574  0.1015 -0.4967 -0.4076
 1211SOL    HW115092   3.049   2.252   1.504  1.0985  0.0958 -0.9623
 1211SOL    HW215093   3.159   2.296   1.600  0.3958 -1.4589  1.7673
 1212SOL     OW15094   4.541   1.784  12.746  0.3880 -0.8855  0.8541
 1212SOL    HW115095   4.570   1.843  12.815  0.4463 -1.1024  1.0151
 1212SOL    HW215096   4.599   1.812  12.675 -1.5244  0.4436 -0.1938
 1213SOL     OW15097   0.944   0.605   4.540  0.1868 -0.9719  0.4053
 1213SOL    HW115098   0.856   0.579   4.569  0.9327 -4.2355 -0.2672
 1213SOL    HW215099   0.944   0.700   4.552 -2.5080 -1.0593  1.2012
 1214SOL     OW15100   1.610   3.449   4.381  0.4482  0.3589  0.4740
 1214SOL    HW115101   1.566   3.364   4.385 -0.0521  0.5415 -1.2437
 1214SOL    HW215102   1.693   3.434   4.426  0.0533  0.0726  1.1056
 1215SOL     OW15103   2.902   4.633  15.347 -0.1437  0.0303  0.2719
 1215SOL    HW115104   2.997   4.634  15.344 -0.1004 -0.5840  1.1668
 1215SOL    HW215105   2.889   4.689  15.424 -1.1024  0.0129  0.1246
 1216SOL     OW15106   0.132   4.291   8.595  0.4238  0.0623 -0.4829
 1216SOL    HW115107   0.096   4.282   8.506  0.9235  0.8199 -0.7715
 1216SOL    HW215108   0.115   4.383   8.615 -2.9420 -0.0058 -2.9655
 1217SOL     OW15109   0.173   0.435   3.874  0.4264 -0.0823 -0.0746
 1217SOL    HW115110   0.251   0.453   3.927  0.1723 -1.0501  0.6324
 1217SOL    HW215111   0.125   0.378   3.935 -1.3394  0.9114 -0.5363
 1218SOL     OW15112   1.888   2.082   3.875 -0.5913 -0.3000 -0.4785
 1218SOL    HW115113   1.948   2.150   3.846  1.7356 -1.6680  1.1442
 1218SOL    HW215114   1.811   2.135   3.896 -0.3288 -0.0959 -0.0105
 1219SOL     OW15115   2.691   2.040   3.170 -0.5164 -0.3722 -0.2082
 1219SOL    HW115116   2.602   2.074   3.159 -0.3006  0.8900  1.9154
 1219SOL    HW215117   2.730   2.107   3.226 -0.9367  1.0212 -1.5913
 1220SOL     OW15118   1.885   4.402   5.751  0.8431 -0.5400  0.0713
 1220SOL    HW115119   1.981   4.410   5.749  1.0254 -1.8521  3.7885
 1220SOL    HW215120   1.858   4.485   5.791 -2.2035  0.3122 -3.7467
 1221SOL     OW15121   0.904   4.358   7.199  0.6148 -0.4525  0.0265
 1221SOL    HW115122   0.960   4.290   7.237 -0.0186 -1.4001 -0.7513
 1221SOL    HW215123   0.840   4.366   7.270  1.0991 -0.8956  0.5178
 1222SOL     OW15124   1.439   2.777   8.228  0.4245  0.6650 -0.5121
 1222SOL    HW115125   1.396   2.811   8.150 -1.9147  1.3119  1.0445
 1222SOL    HW215126   1.384   2.796   8.304  0.2750 -0.9716 -0.2091
 1223SOL     OW15127   2.289   3.140  11.240 -0.4674  0.2886  0.3230
 1223SOL    HW115128   2.195   3.128  11.230 -0.8009  1.6790  1.7910
 1223SOL    HW215129   2.297   3.215  11.180 -0.5635  0.5625  0.6575
 1224SOL     OW15130   0.438   4.287   1.157 -0.2734 -0.2507  0.0049
 1224SOL    HW115131   0.452   4.359   1.095  1.6803  0.7429  1.5483
 1224SOL    HW215132   0.509   4.224   1.147  1.5073  1.9419 -1.3940
 1225SOL     OW15133   4.275   0.034   5.418 -0.7097  0.1389 -0.4474
 1225SOL    HW115134   4.201   0.005   5.365 -1.6169  1.5417  0.0626
 1225SOL    HW215135   4.319   0.100   5.363 -0.1249  2.0822  2.3267
 1226SOL     OW15136   4.359   2.681   5.207 -0.0010  0.1406  0.1734
 1226SOL    HW115137   4.320   2.747   5.264  0.3068  2.0219 -1.7683
 1226SOL    HW215138   4.361   2.719   5.119  0.0077 -0.1451  0.0503
 1227SOL     OW15139   2.193   3.480   6.896  0.3898 -0.1777 -0.0219
 1227SOL    HW115140   2.243   3.462   6.816  0.9388 -1.5008  0.6185
 1227SOL    HW215141   2.191   3.576   6.899  1.4209 -0.1153 -1.2869
 1228SOL     OW15142   3.150   3.739   0.883  0.1545 -0.4682  0.0582
 1228SOL    HW115143   3.235   3.735   0.840  0.5732  1.6186  0.7046
 1228SOL    HW215144   3.167   3.821   0.929 -1.3317  1.6439 -3.2137
 1229SOL     OW15145   3.841   1.898   6.431 -0.5925  0.6654  0.6310
 1229SOL    HW115146   3.891   1.820   6.458 -3.4490 -0.7621  1.7457
 1229SOL    HW215147   3.916   1.953   6.407  1.1103 -0.5485  3.0780
 1230SOL     OW15148   4.112   2.267  16.146  0.2867 -0.4655  0.1720
 1230SOL    HW115149   4.107   2.362  16.141 -1.3132 -0.6490 -1.6253
 1230SOL    HW215150   4.154   2.244  16.063  0.2958 -0.4871  0.1825
 1231SOL     OW15151   2.391   3.163  14.980  0.2568  0.2300  0.3439
 1231SOL    HW115152   2.314   3.116  15.011 -1.1465  0.7003 -2.4701
 1231SOL    HW215153   2.365   3.180  14.890 -1.3608 -0.2741  0.7188
 1232SOL     OW15154   1.328   1.014   1.609 -0.3699  0.1212 -0.1741
 1232SOL    HW115155   1.423   1.024   1.611 -0.2349 -1.1206 -0.2445
 1232SOL    HW215156   1.322   1.013   1.704  0.4055 -1.7670 -0.1350
 1233SOL     OW15157   1.969   2.638   0.556  0.2581  0.4363 -0.0742
 1233SOL    HW115158   1.977   2.543   0.543  1.7387  1.0003 -3.2819
 1233SOL    HW215159   1.943   2.664   0.468 -0.2477 -0.7043 -0.2642
 1234SOL     OW15160   4.595   4.505  12.177 -0.1116 -0.1029 -0.0257
 1234SOL    HW115161   4.670   4.550  12.139  0.8159 -0.5180  1.3003
 1234SOL    HW215162   4.543   4.494  12.097  0.0930 -1.1349 -0.0148
 1235SOL     OW15163   2.337   2.457   1.273 -0.2104 -0.3675 -0.5421
 1235SOL    HW115164   2.403   2.406   1.319 -0.4744  0.5431  0.8180
 1235SOL    HW215165   2.260   2.400   1.275 -0.5700  0.0488 -2.0904
 1236SOL     OW15166   1.526   3.239   9.674 -0.1089  0.1407 -0.0598
 1236SOL    HW115167   1.600   3.292   9.705  1.2351 -1.3431 -0.7138
 1236SOL    HW215168   1.532   3.162   9.730  0.3849 -1.4568 -2.3206
 1237SOL     OW15169   2.532   0.919   3.334  0.1504  0.2835  0.0730
 1237SOL    HW115170   2.472   0.910   3.409  1.8686  0.1210  1.4219
 1237SOL    HW215171   2.572   1.003   3.355  1.1779  0.1089 -1.2072
 1238SOL     OW15172   1.818   2.988  14.872  0.5640 -0.2473  0.8540
 1238SOL    HW115173   1.885   2.927  14.840 -0.5034  0.0329 -1.9922
 1238SOL    HW215174   1.859   3.045  14.937 -0.3423  1.9966 -0.5556
 1239SOL     OW15175   1.709   4.214   5.418  0.4363  0.1287  0.1638
 1239SOL    HW115176   1.762   4.134   5.408 -0.9956 -0.9756  1.4359
 1239SOL    HW215177   1.627   4.202   5.371  1.8342 -2.6158 -1.6575
 1240SOL     OW15178   0.721   2.495   1.705  0.1159 -0.3666 -0.0655
 1240SOL    HW115179   0.814   2.475   1.705  0.0806 -0.5461  0.5463
 1240SOL    HW215180   0.679   2.423   1.658 -2.5417  0.2514  1.3395
 1241SOL     OW15181   4.486   2.480   1.967  0.0098 -0.2376  0.7165
 1241SOL    HW115182   4.490   2.566   2.007  2.5266  1.3846 -3.0300
 1241SOL    HW215183   4.541   2.497   1.890 -1.2066  2.0042  0.3448
 1242SOL     OW15184   0.235   1.024   0.443 -0.1043 -0.1810 -0.4268
 1242SOL    HW115185   0.166   0.984   0.497  2.0632  0.0112  2.4390
 1242SOL    HW215186   0.300   0.954   0.433  0.1793  0.2979 -1.9112
 1243SOL     OW15187   4.653   1.990   4.245 -0.3845  0.1838 -0.1727
 1243SOL    HW115188   4.588   1.921   4.249 -0.4408  0.3522  1.7510
 1243SOL    HW215189   4.699   1.977   4.162 -1.4796 -0.5588 -0.6596
 1244SOL     OW15190   3.112   3.629  15.418 -0.0170 -0.2364 -0.5328
 1244SOL    HW115191   3.028   3.608  15.458  1.3774  0.6969  2.8166
 1244SOL    HW215192   3.092   3.688  15.345  0.5531 -0.0232 -0.5236
 1245SOL     OW15193   2.885   3.933   2.275 -0.1226  0.2238 -0.7899
 1245SOL    HW115194   2.965   3.934   2.329 -0.6489 -0.7848  0.0043
 1245SOL    HW215195   2.898   3.857   2.218 -0.4798  0.1512 -0.7737
 1246SOL     OW15196   2.147   1.854   8.756  0.5257  0.0256  0.1011
 1246SOL    HW115197   2.136   1.908   8.678  0.1621  1.4584  1.1248
 1246SOL    HW215198   2.123   1.919   8.823  1.2906 -0.6845  1.0555
 1247SOL     OW15199   1.891   2.730   4.027 -0.1884  0.5119  0.8155
 1247SOL    HW115200   1.905   2.718   4.121  0.4074  0.2596  0.6888
 1247SOL    HW215201   1.914   2.645   3.989  0.7965  0.6391  1.1278
 1248SOL     OW15202   3.883   1.376   2.842  0.6681 -0.5038  0.4282
 1248SOL    HW115203   3.921   1.451   2.797  1.0027 -0.1036  1.3650
 1248SOL    HW215204   3.930   1.303   2.802  0.0817 -0.1545 -0.8847
 1249SOL     OW15205   1.936   3.000  11.937  0.2748  0.6333  0.1715
 1249SOL    HW115206   1.896   3.082  11.908 -1.4571  0.3327  1.7098
 1249SOL    HW215207   2.017   3.000  11.885  0.9017 -0.3814  1.1560
 1250SOL     OW15208   2.412   4.233   5.116  0.4435  0.2198 -0.7165
 1250SOL    HW115209   2.365   4.267   5.192 -0.9784 -1.1463 -0.9541
 1250SOL    HW215210   2.360   4.272   5.046 -1.2760 -1.6273 -0.5040
 1251SOL     OW15211   1.159   2.966  11.457  0.1356 -0.1532 -0.2409
 1251SOL    HW115212   1.066   2.979  11.439 -0.1580  1.2429  2.3180
 1251SOL    HW215213   1.155   2.997  11.548 -0.2851  1.9943 -0.9981
 1252SOL     OW15214   0.909   3.993  14.485 -0.2288 -0.0916 -0.0580
 1252SOL    HW115215   0.827   4.040  14.498  0.7706  1.3304  1.0476
 1252SOL    HW215216   0.910   3.923  14.550  1.0570 -0.4374 -0.4412
 1253SOL     OW15217   1.697   1.088   7.510 -0.6602 -0.0290  0.0598
 1253SOL    HW115218   1.760   1.051   7.572 -0.7157 -0.7300 -0.3110
 1253SOL    HW215219   1.628   1.119   7.569 -1.3266  0.3554 -0.9350
 1254SOL     OW15220   2.364   0.329   6.480 -0.0614 -0.0092 -0.1030
 1254SOL    HW115221   2.377   0.407   6.426 -0.1028  0.4386  0.5328
 1254SOL    HW215222   2.269   0.328   6.470 -0.1692  1.2769  0.7801
 1255SOL     OW15223   1.089   0.659   9.651 -0.5814 -0.2482  0.1458
 1255SOL    HW115224   1.112   0.627   9.738 -0.8884 -0.2564  0.2232
 1255SOL    HW215225   1.008   0.613   9.629  0.1730 -0.7126 -1.6833
 1256SOL     OW15226   2.388   1.747  17.577  0.4135  0.2303 -0.4026
 1256SOL    HW115227   2.340   1.806  17.635  0.9091  2.1145 -1.9452
 1256SOL    HW215228   2.472   1.792  17.573  1.1575 -1.0294  0.7634
 1257SOL     OW15229   1.914   0.141   7.732 -0.1280  0.1043  0.2830
 1257SOL    HW115230   1.864   0.172   7.657  0.9000  2.0027  0.3891
 1257SOL    HW215231   1.874   0.200   7.797  1.9766 -1.1807  2.7714
 1258SOL     OW15232   1.687   4.399   8.712 -0.1515 -0.2125  0.5039
 1258SOL    HW115233   1.621   4.449   8.761 -0.5691  0.0601 -0.3432
 1258SOL    HW215234   1.772   4.423   8.750 -0.3464  2.0518 -0.5101
 1259SOL     OW15235   0.264   0.716   8.844  0.1412 -0.5877 -0.2158
 1259SOL    HW115236   0.301   0.802   8.865 -0.4262 -0.2413 -0.6489
 1259SOL    HW215237   0.307   0.659   8.909  0.7310 -1.1942 -1.1464
 1260SOL     OW15238   1.735   2.355   0.294  0.1626 -0.0474  0.0310
 1260SOL    HW115239   1.691   2.438   0.312  0.3425  0.0704 -0.0654
 1260SOL    HW215240   1.782   2.378   0.214 -0.4537 -2.8920 -1.1336
 1261SOL     OW15241   4.449   2.918   6.628  0.0500  0.1649 -0.4245
 1261SOL    HW115242   4.411   2.958   6.706  0.9267  0.2933 -0.0608
 1261SOL    HW215243   4.521   2.870   6.670  0.0085  1.1768  0.7908
 1262SOL     OW15244   3.053   3.394   3.284  0.0845 -0.4282  0.5107
 1262SOL    HW115245   3.056   3.337   3.208 -3.7261  1.0833 -0.7619
 1262SOL    HW215246   2.958   3.404   3.286  0.1098 -0.1902  0.5942
 1263SOL     OW15247   1.686   2.287   8.333  0.1530 -0.6483  0.3895
 1263SOL    HW115248   1.748   2.299   8.261 -0.7767  1.5585 -0.0309
 1263SOL    HW215249   1.634   2.366   8.319 -1.5049 -1.8859 -0.4080
 1264SOL     OW15250   4.510   1.596   9.368  0.2044 -0.1218 -0.8270
 1264SOL    HW115251   4.441   1.637   9.316 -0.7373  1.2323  1.4932
 1264SOL    HW215252   4.482   1.505   9.353 -2.5838  0.8568 -1.5035
 1265SOL     OW15253   0.296   2.484  14.203 -0.2836 -0.0716  0.0340
 1265SOL    HW115254   0.291   2.445  14.115 -1.3518  0.1035  0.0201
 1265SOL    HW215255   0.320   2.576  14.190 -1.4579  0.1656 -0.4196
 1266SOL     OW15256   1.047   2.915   0.988  0.2377  0.8539  0.5912
 1266SOL    HW115257   1.036   2.934   0.895 -0.6649  0.2571  0.5718
 1266SOL    HW215258   0.957   2.939   1.010  0.1091  0.6924  0.2388
 1267SOL     OW15259   0.070   2.637  11.937 -0.4251  0.4410 -0.2897
 1267SOL    HW115260   0.072   2.575  12.010 -1.0621  1.4542  0.5866
 1267SOL    HW215261   0.152   2.686  11.943  1.2425 -2.0985 -2.2219
 1268SOL     OW15262   2.732   0.967   3.590  0.5864 -0.2539  0.8882
 1268SOL    HW115263   2.660   0.903   3.591 -1.4117  1.8839 -3.5254
 1268SOL    HW215264   2.758   0.987   3.680 -3.6380  0.8335  1.8849
 1269SOL     OW15265   0.838   0.748   6.212 -0.2392  0.9824  0.1379
 1269SOL    HW115266   0.750   0.750   6.175  0.0816 -0.9259 -0.7170
 1269SOL    HW215267   0.816   0.766   6.303 -0.1770 -2.3086  0.8271
 1270SOL     OW15268   0.934   4.539   1.675 -0.5525  0.0596 -0.3990
 1270SOL    HW115269   0.889   4.486   1.609 -0.4898 -0.2948 -0.1586
 1270SOL    HW215270   0.877   4.517   1.749 -1.2361 -2.2977 -1.6622
 1271SOL     OW15271   1.104   2.009   0.390  0.1236 -0.4786 -0.1843
 1271SOL    HW115272   1.174   1.954   0.426  0.1939 -0.4089 -0.2142
 1271SOL    HW215273   1.032   1.969   0.439 -0.1609  0.0279 -0.1797
 1272SOL     OW15274   2.177   3.787   6.895  0.4601  0.5462 -0.1346
 1272SOL    HW115275   2.219   3.856   6.844  2.2981  0.5627  1.4096
 1272SOL    HW215276   2.082   3.799   6.889  0.2403 -0.5505  1.1280
 1273SOL     OW15277   3.239   2.023  13.565 -0.2541 -0.3057  0.0504
 1273SOL    HW115278   3.322   1.978  13.577 -0.1564  0.2325  1.4661
 1273SOL    HW215279   3.270   2.112  13.581 -1.6587 -0.2952  2.7032
 1274SOL     OW15280   2.635   1.651   7.402  0.0567  0.4805 -0.7388
 1274SOL    HW115281   2.713   1.619   7.355  0.1133  0.8619 -0.9019
 1274SOL    HW215282   2.584   1.570   7.411 -2.4557  1.7657 -3.4504
 1275SOL     OW15283   3.967   2.320  13.376  0.1425  0.1807 -0.4417
 1275SOL    HW115284   4.013   2.300  13.295  1.0144  0.8129 -0.1117
 1275SOL    HW215285   4.023   2.294  13.450  0.3272  2.2245  0.1523
 1276SOL     OW15286   0.426   3.692   7.661 -0.2343  0.3765  0.5194
 1276SOL    HW115287   0.418   3.715   7.568  1.2795 -1.7638 -0.1211
 1276SOL    HW215288   0.442   3.778   7.702 -0.4291  0.2624  0.8350
 1277SOL     OW15289   4.493   1.282   9.280  0.1654 -0.0963 -0.7268
 1277SOL    HW115290   4.537   1.221   9.339 -1.5766  1.1086  1.8482
 1277SOL    HW215291   4.405   1.292   9.316  0.6349  0.2671  0.3449
 1278SOL     OW15292   1.953   4.656   8.283 -0.1204  0.2241  0.4238
 1278SOL    HW115293   1.960   4.563   8.261 -2.2616 -0.0444  0.9245
 1278SOL    HW215294   1.999   4.686   8.205  0.0641  0.7740  0.7410
 1279SOL     OW15295   0.253   2.042  13.320  0.0364  0.1800  0.0776
 1279SOL    HW115296   0.242   2.091  13.239 -1.2116 -1.2290 -0.6171
 1279SOL    HW215297   0.304   2.103  13.373  4.5772 -2.0701 -1.6628
 1280SOL     OW15298   4.609   2.633   6.691  0.2718  0.2055  0.1018
 1280SOL    HW115299   4.635   2.593   6.773 -0.0320 -3.1118 -1.4167
 1280SOL    HW215300   4.670   2.707   6.683  0.1670  0.0565 -2.0637
 1281SOL     OW15301   2.892   1.779   8.507 -0.1588  0.5127  0.2515
 1281SOL    HW115302   2.811   1.730   8.523 -1.7656  3.4125  1.0194
 1281SOL    HW215303   2.869   1.828   8.428  0.5523  0.5919  0.0965
 1282SOL     OW15304   1.825   1.182  12.079 -0.6792  0.4094 -0.8868
 1282SOL    HW115305   1.905   1.189  12.132 -1.0255 -1.7598 -0.0960
 1282SOL    HW215306   1.774   1.255  12.114  3.0253  1.3386  2.6446
 1283SOL     OW15307   3.272   2.225  16.008  0.0672  0.3498  0.4994
 1283SOL    HW115308   3.343   2.284  16.035  1.8638 -0.1598 -3.1485
 1283SOL    HW215309   3.323   2.173  15.946  0.4677  0.7053  0.5283
 1284SOL     OW15310   2.887   1.866  11.302  0.2479  0.1955  0.4913
 1284SOL    HW115311   2.903   1.904  11.216  0.9999 -0.4837  0.3389
 1284SOL    HW215312   2.943   1.920  11.358  1.1699  0.5832 -0.8102
 1285SOL     OW15313   3.625   1.022  12.134 -0.5823  0.1054 -0.8402
 1285SOL    HW115314   3.562   1.092  12.115 -1.2907 -0.1817  0.4760
 1285SOL    HW215315   3.617   1.010  12.228  0.0239 -1.8398 -1.0407
 1286SOL     OW15316   2.369   2.439   8.193 -0.5633  0.0601 -0.3254
 1286SOL    HW115317   2.354   2.384   8.116 -1.1871 -0.8260  0.4191
 1286SOL    HW215318   2.311   2.512   8.172  0.7251  1.5809  1.4682
 1287SOL     OW15319   3.136   2.085   0.126  0.3838 -0.7167  0.2467
 1287SOL    HW115320   3.048   2.097   0.161  0.4039  2.1521 -0.6310
 1287SOL    HW215321   3.188   2.144   0.182 -0.1816 -1.0750  1.1471
 1288SOL     OW15322   2.176   3.382   5.712 -0.1582  0.5222  0.1194
 1288SOL    HW115323   2.152   3.467   5.749 -1.9846 -0.9269  2.2143
 1288SOL    HW215324   2.236   3.420   5.648 -0.1911  0.9173  0.3213
 1289SOL     OW15325   2.186   3.380   2.989  0.4346 -0.0571 -0.2319
 1289SOL    HW115326   2.150   3.366   3.076  0.9992  1.0069  0.1781
 1289SOL    HW215327   2.245   3.305   2.986 -0.4230 -0.7459  0.4413
 1290SOL     OW15328   1.207   1.563   3.667 -0.7781  0.4248 -0.1938
 1290SOL    HW115329   1.237   1.630   3.728 -0.4355 -0.1748  0.2981
 1290SOL    HW215330   1.292   1.525   3.646 -0.5659  0.9494 -0.2681
 1291SOL     OW15331   0.538   4.390  13.202  0.1534 -0.1502  0.3654
 1291SOL    HW115332   0.628   4.382  13.235  0.0627  1.7173  1.0531
 1291SOL    HW215333   0.520   4.317  13.144 -1.2218  1.6356 -1.4278
 1292SOL     OW15334   3.978   4.712   8.420 -0.3490 -0.0783 -0.2821
 1292SOL    HW115335   3.995   4.630   8.467  1.5823 -0.2789 -1.3002
 1292SOL    HW215336   3.940   4.676   8.340 -1.3912  1.4121 -0.4521
 1293SOL     OW15337   2.487   0.956   6.734  0.3398  0.0101  0.3352
 1293SOL    HW115338   2.494   0.891   6.804 -0.8033  0.8012  1.1858
 1293SOL    HW215339   2.580   0.979   6.727  0.8658 -1.8648  1.3837
 1294SOL     OW15340   0.215   0.621   9.887  0.2471 -0.1028 -0.6854
 1294SOL    HW115341   0.238   0.556   9.952 -0.8388  0.0805 -0.1136
 1294SOL    HW215342   0.295   0.673   9.882 -0.8813  1.5836 -1.5003
 1295SOL     OW15343   3.248   1.550   7.659  0.3256 -0.4381  0.2228
 1295SOL    HW115344   3.186   1.578   7.592 -1.2530  0.0227  1.8836
 1295SOL    HW215345   3.237   1.626   7.716  0.3807 -1.8619  2.1495
 1296SOL     OW15346   0.342   2.341  12.426  0.3300 -0.3180  0.0169
 1296SOL    HW115347   0.366   2.365  12.336  1.1115 -1.0907  0.0206
 1296SOL    HW215348   0.283   2.271  12.398  1.0193 -0.8936  0.0090
 1297SOL     OW15349   1.478   0.364   5.882 -0.1356  0.9334  0.2055
 1297SOL    HW115350   1.415   0.357   5.811 -0.0996 -4.9084  0.7081
 1297SOL    HW215351   1.482   0.458   5.895  2.2446  0.8646 -0.0658
 1298SOL     OW15352   0.238   3.132   6.619 -0.2369 -0.0711  0.3416
 1298SOL    HW115353   0.201   3.198   6.560  1.6059  0.3589 -0.3253
 1298SOL    HW215354   0.282   3.185   6.686 -1.1990  1.4276 -0.2111
 1299SOL     OW15355   2.349   2.001  15.116 -0.4160 -0.1173 -0.1831
 1299SOL    HW115356   2.309   2.065  15.176 -1.7200 -1.0541 -0.0524
 1299SOL    HW215357   2.303   1.920  15.139 -1.7784  1.5117  2.8761
 1300SOL     OW15358   2.876   1.224  14.965  0.2505  0.3380  0.1885
 1300SOL    HW115359   2.970   1.209  14.971  0.4128  1.5232  0.6025
 1300SOL    HW215360   2.864   1.269  15.049  0.4034 -0.1907  0.4970
 1301SOL     OW15361   1.160   0.554  17.185  0.3448 -0.2451  0.7202
 1301SOL    HW115362   1.118   0.586  17.265  0.3226 -0.2891  0.7261
 1301SOL    HW215363   1.214   0.623  17.147 -0.4794 -0.5030 -0.9045
 1302SOL     OW15364   1.281   2.874   8.015 -0.3490  0.6105 -0.2506
 1302SOL    HW115365   1.220   2.853   7.945 -0.4791 -0.1851  0.0991
 1302SOL    HW215366   1.357   2.902   7.963  2.2530 -3.1494  1.4805
 1303SOL     OW15367   4.222   0.266   4.419 -0.2908 -0.0633 -0.1796
 1303SOL    HW115368   4.236   0.299   4.330 -1.2604  0.0942 -0.2818
 1303SOL    HW215369   4.139   0.218   4.421 -0.0281 -0.4625  0.8332
 1304SOL     OW15370   4.041   1.254  13.548 -0.2933  0.1992  0.2865
 1304SOL    HW115371   4.107   1.237  13.481 -0.1413  2.6245 -0.1702
 1304SOL    HW215372   4.018   1.162  13.564  0.3958  0.1917  1.1943
 1305SOL     OW15373   2.873   0.811   5.082  0.1175  0.5476  0.1029
 1305SOL    HW115374   2.840   0.780   4.997 -2.4227  1.0290  0.9067
 1305SOL    HW215375   2.964   0.832   5.061 -0.0098 -1.1867 -2.1105
 1306SOL     OW15376   1.638   1.472   6.226  0.0813 -0.0603  0.0853
 1306SOL    HW115377   1.649   1.523   6.306 -2.2926  2.6284 -1.3167
 1306SOL    HW215378   1.661   1.387   6.264 -0.2578  1.0375  2.7181
 1307SOL     OW15379   3.247   0.339   5.957  0.3653  0.0491 -0.7890
 1307SOL    HW115380   3.341   0.321   5.955  0.4578  0.2998  1.0626
 1307SOL    HW215381   3.226   0.333   6.050  2.2204 -2.1843 -0.5276
 1308SOL     OW15382   3.071   1.855   5.955  0.0071  0.1040  0.0525
 1308SOL    HW115383   3.017   1.932   5.973 -0.4027 -0.1923  0.0778
 1308SOL    HW215384   3.131   1.889   5.888  2.7955  1.7276  3.3136
 1309SOL     OW15385   2.286   0.499  12.618  0.2441  0.6361 -0.0362
 1309SOL    HW115386   2.290   0.489  12.713 -1.9252 -3.5682 -0.3876
 1309SOL    HW215387   2.191   0.497  12.609 -0.0612  1.8317  2.7213
 1310SOL     OW15388   3.490   1.989   4.058 -0.2788  0.4414  0.7374
 1310SOL    HW115389   3.540   2.034   3.990 -1.1003 -1.2366 -1.0082
 1310SOL    HW215390   3.536   2.012   4.138  0.5737 -1.2132  0.7027
 1311SOL     OW15391   1.470   2.737  10.697 -0.6638  0.2397 -0.0244
 1311SOL    HW115392   1.436   2.791  10.769  0.0566 -0.1434  0.6171
 1311SOL    HW215393   1.560   2.769  10.687 -0.7901  0.8224  0.6969
 1312SOL     OW15394   2.171   2.072   1.690 -0.5250  0.7021 -0.4230
 1312SOL    HW115395   2.208   2.157   1.668  0.1698  0.2156 -1.1397
 1312SOL    HW215396   2.177   2.082   1.785 -0.4987  1.3590 -0.4946
 1313SOL     OW15397   2.845   2.369  16.050  0.1478 -0.0641  0.7003
 1313SOL    HW115398   2.892   2.291  16.021 -0.0191 -0.6522  2.0203
 1313SOL    HW215399   2.914   2.433  16.068  0.0061  0.2233  0.2215
 1314SOL     OW15400   4.226   1.039  17.223 -0.0569 -0.4204 -0.5485
 1314SOL    HW115401   4.313   1.067  17.196 -0.7294  1.9900 -0.2219
 1314SOL    HW215402   4.223   1.084  17.308 -0.3846 -2.5033  0.5369
 1315SOL     OW15403   1.521   3.111   8.351 -0.1534 -0.2081 -0.6365
 1315SOL    HW115404   1.565   3.042   8.402 -0.7677 -0.5604 -0.5775
 1315SOL    HW215405   1.595   3.146   8.302 -1.2550  1.0701 -1.3678
 1316SOL     OW15406   0.667   4.090   5.162  0.4240  0.0361 -0.8306
 1316SOL    HW115407   0.740   4.137   5.202  1.2273 -1.0031 -1.0706
 1316SOL    HW215408   0.705   4.046   5.086  2.3319  2.1716 -1.0739
 1317SOL     OW15409   3.945   2.226  15.474 -0.1685 -0.0066  0.1917
 1317SOL    HW115410   3.851   2.212  15.484  0.1794 -2.0470  0.5883
 1317SOL    HW215411   3.944   2.294  15.407  1.0223 -1.2633 -1.0985
 1318SOL     OW15412   0.976   1.957   8.849  0.2392 -0.4813  0.1825
 1318SOL    HW115413   0.891   1.938   8.888 -0.4641  1.0449 -0.6168
 1318SOL    HW215414   1.008   1.868   8.832  0.8934 -0.0636 -0.7880
 1319SOL     OW15415   4.572   3.045   5.306  0.2748  0.6417  0.0804
 1319SOL    HW115416   4.557   3.000   5.223  0.4023  1.5871 -0.4554
 1319SOL    HW215417   4.667   3.057   5.307  0.6395 -2.4442  1.0227
 1320SOL     OW15418   2.077   3.980   2.312  0.1699  0.3522 -0.2576
 1320SOL    HW115419   2.107   4.063   2.273  0.6912  1.1391  1.8345
 1320SOL    HW215420   1.986   3.972   2.284  0.2999 -1.3015 -0.2088
 1321SOL     OW15421   2.502   4.136   4.245 -0.2554  0.1962  0.4869
 1321SOL    HW115422   2.503   4.154   4.340  0.2047  0.5291  0.4186
 1321SOL    HW215423   2.472   4.219   4.207 -0.1346  0.1901  0.3791
 1322SOL     OW15424   1.781   2.830   9.164 -0.1805  0.1702 -0.6296
 1322SOL    HW115425   1.841   2.868   9.228 -0.6828  1.0902 -0.7107
 1322SOL    HW215426   1.753   2.908   9.116  1.3083  1.0872 -0.0017
 1323SOL     OW15427   1.991   2.533   9.652 -0.1191  0.0545  0.4539
 1323SOL    HW115428   1.908   2.523   9.606 -0.6334  0.5621  1.2606
 1323SOL    HW215429   2.052   2.538   9.579 -1.9284 -1.4680 -1.1638
 1324SOL     OW15430   0.456   0.456   7.154  0.0124  0.0121 -0.0345
 1324SOL    HW115431   0.461   0.539   7.201  1.1322  0.7001 -1.3665
 1324SOL    HW215432   0.525   0.398   7.187  1.0011 -0.4914 -2.9708
 1325SOL     OW15433   1.309   1.862   7.526 -0.3732  0.3329 -0.3137
 1325SOL    HW115434   1.274   1.950   7.510 -0.9070  0.5046  1.7642
 1325SOL    HW215435   1.334   1.827   7.441  1.6718  0.4043  0.2626
 1326SOL     OW15436   0.866   0.337  14.753  0.0170 -0.5174  0.1577
 1326SOL    HW115437   0.954   0.301  14.743  0.0444  0.1594 -2.0409
 1326SOL    HW215438   0.878   0.418  14.702 -1.1084  0.5581  1.6229
 1327SOL     OW15439   0.068   1.124  12.554 -0.2323  0.3058 -0.2714
 1327SOL    HW115440   4.712   1.177  12.537  0.2627  0.4289 -2.1639
 1327SOL    HW215441   0.033   1.047  12.599 -1.7235  0.8672 -0.4997
 1328SOL     OW15442   3.381   4.240   1.403  0.1346  0.4943  0.1095
 1328SOL    HW115443   3.334   4.297   1.464 -0.5933 -1.0028  0.9380
 1328SOL    HW215444   3.473   4.235   1.428  0.7756  0.6999 -2.2339
 1329SOL     OW15445   4.515   3.959  15.307  0.7262  0.2016  0.0395
 1329SOL    HW115446   4.544   3.919  15.225 -1.1196  0.4713 -0.7487
 1329SOL    HW215447   4.549   3.892  15.366  0.8629  0.2782  0.0470
 1330SOL     OW15448   2.141   2.189   7.777 -0.0323 -0.0541 -0.7790
 1330SOL    HW115449   2.109   2.098   7.778 -0.5349  0.2150  3.8068
 1330SOL    HW215450   2.209   2.183   7.710  0.9736 -1.0916  0.3401
 1331SOL     OW15451   1.447   1.684   0.310 -0.3756 -0.7840  0.4797
 1331SOL    HW115452   1.512   1.669   0.243 -0.8514  3.1040 -0.8779
 1331SOL    HW215453   1.490   1.652   0.389 -0.0715 -4.0107 -1.0449
 1332SOL     OW15454   1.688   4.180   5.899  0.3344  0.1230  0.2934
 1332SOL    HW115455   1.744   4.210   5.970  1.2581 -0.9055 -0.0123
 1332SOL    HW215456   1.737   4.209   5.822  0.1120  0.7261  0.3782
 1333SOL     OW15457   1.822   4.016   0.401 -0.1595  0.4531 -0.1214
 1333SOL    HW115458   1.873   4.050   0.474 -0.9504  2.3512 -0.4489
 1333SOL    HW215459   1.881   3.948   0.368 -1.1868  0.6326 -2.3457
 1334SOL     OW15460   0.493   1.864   5.122  0.1517 -0.5697 -0.6114
 1334SOL    HW115461   0.443   1.790   5.087  1.4225 -1.8166  0.2757
 1334SOL    HW215462   0.427   1.921   5.161  0.0977 -1.0256 -0.0500
 1335SOL     OW15463   0.791   2.484   3.220 -0.1864  0.3222 -0.0905
 1335SOL    HW115464   0.758   2.530   3.143 -2.8482 -0.7760  0.4180
 1335SOL    HW215465   0.718   2.495   3.281  1.6109 -1.4708  2.3978
 1336SOL     OW15466   1.168   3.244   1.498 -0.6236 -0.3383  0.4346
 1336SOL    HW115467   1.122   3.232   1.415 -0.2169 -0.0157  0.1604
 1336SOL    HW215468   1.142   3.174   1.558  1.2686 -1.8685 -0.5199
 1337SOL     OW15469   1.814   1.036   3.648  0.3591 -0.4322 -0.4607
 1337SOL    HW115470   1.832   1.113   3.703 -0.7951  0.2063 -0.9828
 1337SOL    HW215471   1.872   1.043   3.573 -1.2289  1.8803 -1.4657
 1338SOL     OW15472   0.365   3.350   6.888  0.1266  0.1476 -0.7740
 1338SOL    HW115473   0.273   3.328   6.899  0.1826 -0.7794 -2.2063
 1338SOL    HW215474   0.360   3.444   6.869 -0.1240  0.4282  0.6630
 1339SOL     OW15475   2.736   0.865   2.108  0.1881 -0.0731  0.5002
 1339SOL    HW115476   2.665   0.801   2.104 -0.6906  0.9279  0.2544
 1339SOL    HW215477   2.819   0.816   2.105  0.4590  0.3617  0.8124
 1340SOL     OW15478   3.931   1.581  15.413 -0.2421 -0.0063  0.0196
 1340SOL    HW115479   3.899   1.670  15.405 -0.3902 -0.0774 -0.1757
 1340SOL    HW215480   4.011   1.583  15.361 -0.2741  1.2675  0.0247
 1341SOL     OW15481   0.241   4.388   0.274 -0.0640  0.1482  0.0962
 1341SOL    HW115482   0.160   4.404   0.226  0.2590 -1.8918 -1.1007
 1341SOL    HW215483   0.232   4.422   0.363 -2.1120  1.6904 -0.7087
 1342SOL     OW15484   1.918   3.385  12.396  0.0840  0.1050  0.5064
 1342SOL    HW115485   1.977   3.367  12.323 -2.4676 -1.2511 -1.2252
 1342SOL    HW215486   1.951   3.470  12.423 -0.0575  0.5797 -0.8175
 1343SOL     OW15487   4.605   3.054   4.564 -0.0277  0.4600  0.1437
 1343SOL    HW115488   4.637   3.144   4.560  0.1458  0.3736 -0.4234
 1343SOL    HW215489   4.534   3.059   4.500  0.6791  2.1867 -0.5082
 1344SOL     OW15490   4.666   0.352   2.271 -0.0849 -0.1749 -0.3045
 1344SOL    HW115491   4.645   0.284   2.208  0.4403 -2.2020  1.7058
 1344SOL    HW215492   0.040   0.356   2.281 -0.0273  0.1811 -0.9765
 1345SOL     OW15493   2.221   4.254   8.197  0.4783  0.2616  0.2519
 1345SOL    HW115494   2.273   4.334   8.188  0.6021  0.3263  1.5642
 1345SOL    HW215495   2.298   4.200   8.180 -0.7849 -0.7975 -2.1481
 1346SOL     OW15496   2.388   1.875  16.540  0.2835 -0.5055  0.7588
 1346SOL    HW115497   2.342   1.896  16.621  1.6116  1.0264  1.1034
 1346SOL    HW215498   2.328   1.921  16.481 -0.7890 -0.3984  1.9229
 1347SOL     OW15499   0.067   3.802   3.905  0.2221 -0.2849 -0.0585
 1347SOL    HW115500   0.126   3.734   3.872 -1.4907 -1.5426 -0.5838
 1347SOL    HW215501   0.000   3.807   3.836 -1.0055  0.6624  1.2009
 1348SOL     OW15502   2.378   0.331  11.572 -0.0325 -0.6799  0.1830
 1348SOL    HW115503   2.471   0.331  11.549 -0.2742 -0.3021 -0.7876
 1348SOL    HW215504   2.352   0.311  11.482  1.7392  1.0217 -0.6954
 1349SOL     OW15505   3.855   2.506   7.953  0.1874 -0.0475 -0.1327
 1349SOL    HW115506   3.764   2.486   7.931  0.3270 -1.6366  0.7591
 1349SOL    HW215507   3.900   2.434   7.909  1.0728  1.2049 -1.3096
 1350SOL     OW15508   2.672   2.694   4.241  0.5779  0.1843  0.0491
 1350SOL    HW115509   2.648   2.604   4.218  0.1095 -0.0240  1.3367
 1350SOL    HW215510   2.676   2.696   4.337 -1.6049 -0.9503  0.1697
 1351SOL     OW15511   1.734   1.316  12.841 -0.4008 -0.0926  0.3854
 1351SOL    HW115512   1.793   1.384  12.808  2.5084 -3.1756 -0.6998
 1351SOL    HW215513   1.744   1.270  12.758  2.9893  0.3433  0.5367
 1352SOL     OW15514   2.601   4.437   9.321  0.1989  0.0243 -0.0885
 1352SOL    HW115515   2.648   4.476   9.395 -0.0055 -0.8386  0.4864
 1352SOL    HW215516   2.567   4.359   9.364 -1.0540  0.8474  0.4301
 1353SOL     OW15517   0.901   2.971   4.912 -0.3376  0.2168 -0.2728
 1353SOL    HW115518   0.930   3.046   4.860  0.3949  0.4357  0.4436
 1353SOL    HW215519   0.838   3.007   4.974 -0.0230 -0.4761  0.4459
 1354SOL     OW15520   3.377   4.094   3.472 -0.6192  0.0757 -0.5982
 1354SOL    HW115521   3.447   4.159   3.478  0.5921 -1.4108  1.6379
 1354SOL    HW215522   3.416   4.037   3.405  1.0589 -0.9375  1.2375
 1355SOL     OW15523   1.282   2.741   7.567 -0.0734 -0.1236 -0.0237
 1355SOL    HW115524   1.334   2.704   7.496  2.3136  1.1668  1.0479
 1355SOL    HW215525   1.323   2.826   7.583  2.4422 -1.2883 -0.3147
 1356SOL     OW15526   4.424   1.971   6.549 -0.2052 -0.4787  0.0855
 1356SOL    HW115527   4.338   1.930   6.538 -0.6631 -0.0362  1.9389
 1356SOL    HW215528   4.404   2.062   6.571 -0.1599  0.0542 -2.1133
 1357SOL     OW15529   1.113   0.657  17.478 -0.2431 -0.5200 -0.0503
 1357SOL    HW115530   1.125   0.667  17.573 -1.6153  1.5360 -0.0844
 1357SOL    HW215531   1.096   0.749  17.456 -2.7753 -0.3889  2.3374
 1358SOL     OW15532   2.502   2.242   8.879 -0.2030  0.4800 -0.2775
 1358SOL    HW115533   2.496   2.330   8.842  1.1134  0.4596 -0.5497
 1358SOL    HW215534   2.597   2.241   8.894 -0.7217  0.0030  2.9058
 1359SOL     OW15535   2.227   2.604   3.165 -0.5093  0.5177 -0.2382
 1359SOL    HW115536   2.191   2.666   3.229  0.4233 -0.7175  1.4983
 1359SOL    HW215537   2.261   2.540   3.227 -0.0749 -0.6928 -1.7375
 1360SOL     OW15538   2.542   3.483   7.311 -0.7359 -0.8279 -0.4960
 1360SOL    HW115539   2.564   3.541   7.238  1.1539  0.5535  1.2039
 1360SOL    HW215540   2.524   3.398   7.270  0.7386 -1.0171 -0.7775
 1361SOL     OW15541   4.697   3.425   3.789  0.1629 -0.2528 -0.2950
 1361SOL    HW115542   0.022   3.358   3.840  0.8649  0.5216  0.0935
 1361SOL    HW215543   4.646   3.476   3.852  3.5112  2.3786  0.2683
 1362SOL     OW15544   3.099   1.538   1.250  0.2373  0.3652  0.5129
 1362SOL    HW115545   3.167   1.509   1.310 -0.2595  0.7016  1.2447
 1362SOL    HW215546   3.124   1.491   1.171 -4.3693  0.4682 -1.0272
 1363SOL     OW15547   1.649   2.533  10.553  0.0228  0.4877  0.2054
 1363SOL    HW115548   1.729   2.486  10.526 -1.0994  0.0871 -2.4823
 1363SOL    HW215549   1.682   2.605  10.606  1.6176 -0.6167  0.7146
 1364SOL     OW15550   1.127   2.240   9.222 -0.3857 -0.5107  0.2456
 1364SOL    HW115551   1.110   2.260   9.130 -1.7737 -1.1381  0.3700
 1364SOL    HW215552   1.121   2.144   9.220  0.6371 -0.5725  0.1359
 1365SOL     OW15553   3.180   3.650   0.024  0.2353 -0.4381 -0.1274
 1365SOL    HW115554   3.089   3.657   0.054  0.3892  2.3961 -0.3183
 1365SOL    HW215555   3.218   3.629   0.110 -0.5309 -0.8213  0.1239
 1366SOL     OW15556   3.380   4.373   3.321 -0.0788  0.4703  0.8086
 1366SOL    HW115557   3.328   4.321   3.382 -1.1148 -0.6588 -1.0151
 1366SOL    HW215558   3.372   4.315   3.245 -1.1332  0.5274  0.8863
 1367SOL     OW15559   0.681   4.143   4.337  0.1572 -0.6107 -0.6158
 1367SOL    HW115560   0.674   4.236   4.361  1.9508 -1.1471  1.9296
 1367SOL    HW215561   0.600   4.111   4.376 -0.1481  1.3966  0.4026
 1368SOL     OW15562   3.292   2.374   3.629 -0.1328  0.3480  0.3027
 1368SOL    HW115563   3.219   2.314   3.644  0.3595 -0.2305  0.4385
 1368SOL    HW215564   3.333   2.364   3.715 -0.9542 -0.1417  0.6371
 1369SOL     OW15565   1.470   1.507   9.369 -0.1274 -0.4607  0.0670
 1369SOL    HW115566   1.443   1.442   9.434  1.9703 -0.0550  1.3428
 1369SOL    HW215567   1.510   1.457   9.298 -1.6325  2.1057 -2.5734
 1370SOL     OW15568   3.518   1.484   8.496  0.1657  0.4792  0.3837
 1370SOL    HW115569   3.590   1.503   8.436  1.4352 -1.7996  1.1767
 1370SOL    HW215570   3.456   1.474   8.423  2.1836  0.6586 -1.3719
 1371SOL     OW15571   2.506   0.205  14.827 -0.5272  0.4523 -0.8725
 1371SOL    HW115572   2.567   0.160  14.769 -0.5542  0.9406 -1.2790
 1371SOL    HW215573   2.561   0.268  14.874 -0.9200 -1.5823  2.3545
 1372SOL     OW15574   0.692   3.582   2.865 -0.6249 -0.0266 -0.0090
 1372SOL    HW115575   0.612   3.534   2.885  0.1819 -1.8169 -1.0842
 1372SOL    HW215576   0.753   3.550   2.932 -1.3228  0.3676  0.8248
 1373SOL     OW15577   3.826   1.999  15.379 -0.1337 -0.1252  0.1395
 1373SOL    HW115578   3.807   1.957  15.463 -2.1092  1.9479  0.7164
 1373SOL    HW215579   3.739   1.993  15.338  0.2284  0.6357 -0.7269
 1374SOL     OW15580   4.215   1.765  17.228  0.2977 -0.3836 -0.1083
 1374SOL    HW115581   4.310   1.760  17.241  0.8157  1.0473 -3.3094
 1374SOL    HW215582   4.186   1.801  17.312  0.7991 -0.9107  0.2868
 1375SOL     OW15583   3.527   3.115  10.259 -0.3026 -0.9034  0.2892
 1375SOL    HW115584   3.514   3.207  10.279 -0.2693 -1.0976  1.1979
 1375SOL    HW215585   3.526   3.124  10.164 -0.4294 -0.2678  0.3504
 1376SOL     OW15586   1.968   3.985   9.976 -0.0365 -0.1577  0.1015
 1376SOL    HW115587   1.879   3.993  10.010 -1.0566 -0.8125 -2.3987
 1376SOL    HW215588   2.019   3.969  10.056 -0.5487  0.7705  0.6063
 1377SOL     OW15589   4.605   3.051   4.044  0.1453  0.1109 -0.4263
 1377SOL    HW115590   4.560   3.088   3.969  0.6692 -0.9716 -1.2642
 1377SOL    HW215591   4.595   3.113   4.117  0.0169 -0.4828  0.0652
 1378SOL     OW15592   1.707   4.401   6.969 -0.2384  0.2517 -0.2730
 1378SOL    HW115593   1.654   4.353   6.906 -1.3471 -2.0042  2.3860
 1378SOL    HW215594   1.665   4.481   7.000 -1.3365  0.1872 -1.6206
 1379SOL     OW15595   0.195   0.332   4.662 -0.6322 -0.0043  0.0946
 1379SOL    HW115596   0.195   0.283   4.580  0.5297 -0.6003  0.4589
 1379SOL    HW215597   0.140   0.405   4.634  1.9385  1.1453 -1.9227
 1380SOL     OW15598   0.323   0.581   2.259  0.0951  0.0179 -0.2771
 1380SOL    HW115599   0.288   0.577   2.348  0.0709 -0.3858 -0.3054
 1380SOL    HW215600   0.261   0.525   2.212  0.2604  2.2753 -3.2311
 1381SOL     OW15601   2.223   1.238   5.957  0.0539 -0.1222  0.1641
 1381SOL    HW115602   2.260   1.201   5.878 -0.1022 -0.4584  0.2457
 1381SOL    HW215603   2.246   1.172   6.023  2.0662  0.6718  0.2502
 1382SOL     OW15604   1.886   4.213   3.064  0.0461 -0.9954  0.4349
 1382SOL    HW115605   1.917   4.136   3.017 -0.5316 -1.3673  0.6660
 1382SOL    HW215606   1.958   4.273   3.045 -1.1055 -0.1303 -1.2342
 1383SOL     OW15607   3.703   0.290   9.893  0.1021  0.1588  0.0803
 1383SOL    HW115608   3.663   0.366   9.935  1.1154  0.4365  0.5598
 1383SOL    HW215609   3.627   0.232   9.902 -0.7450  1.1966 -0.4029
 1384SOL     OW15610   3.009   3.822   6.688 -0.4041 -0.4612 -0.2532
 1384SOL    HW115611   3.027   3.851   6.777  0.4565 -1.6329 -0.0478
 1384SOL    HW215612   2.968   3.896   6.643  1.9560  0.1669 -1.3433
 1385SOL     OW15613   2.188   2.382   0.685 -0.0359 -0.3900 -0.1310
 1385SOL    HW115614   2.116   2.388   0.622  1.2093  1.2009 -1.3861
 1385SOL    HW215615   2.145   2.424   0.760  0.2085 -1.6168  0.7069
 1386SOL     OW15616   3.586   0.947  16.287 -0.6705 -0.3229  0.2388
 1386SOL    HW115617   3.630   1.032  16.282  0.2733 -0.8081  0.4494
 1386SOL    HW215618   3.551   0.949  16.376 -0.9402  1.0801  0.1120
 1387SOL     OW15619   1.352   1.563   2.778 -0.2728  0.1324 -0.1062
 1387SOL    HW115620   1.402   1.574   2.697 -0.4766 -0.4650 -0.3088
 1387SOL    HW215621   1.266   1.528   2.754 -1.2986  1.5388  1.4699
 1388SOL     OW15622   1.016   1.296   6.819 -0.3912  0.0852  0.2861
 1388SOL    HW115623   1.058   1.355   6.882  0.6712 -1.8229  1.3665
 1388SOL    HW215624   0.965   1.358   6.767 -0.8784  0.4297  1.1615
 1389SOL     OW15625   3.495   3.018   5.122  0.0998  0.8952  0.7835
 1389SOL    HW115626   3.448   3.075   5.182  2.1383  0.9098  2.3381
 1389SOL    HW215627   3.429   2.951   5.103 -1.3199  2.3937  0.3861
 1390SOL     OW15628   2.030   4.003   2.649 -0.1193  0.1238  0.1304
 1390SOL    HW115629   2.069   3.951   2.578 -0.0649  1.9450 -1.1677
 1390SOL    HW215630   1.991   4.068   2.591  2.7076  1.6981  0.0109
 1391SOL     OW15631   2.618   4.045   1.936 -0.3143 -0.1562  0.6459
 1391SOL    HW115632   2.672   4.123   1.952 -0.5627  0.3381 -0.9342
 1391SOL    HW215633   2.568   4.070   1.858 -0.1840  0.1665  0.6653
 1392SOL     OW15634   1.593   1.737   4.890 -0.3621 -0.2559  0.8182
 1392SOL    HW115635   1.563   1.740   4.799 -2.4784  0.4322  1.5351
 1392SOL    HW215636   1.667   1.797   4.879  0.8490 -2.1312 -1.2718
 1393SOL     OW15637   3.559   2.594  13.335 -0.5638 -0.1074  0.1246
 1393SOL    HW115638   3.602   2.522  13.289  0.2583  0.3469  0.1787
 1393SOL    HW215639   3.591   2.679  13.306 -0.6046  0.2541  1.1361
 1394SOL     OW15640   4.071   0.082  17.196 -0.4726 -0.4730  0.1975
 1394SOL    HW115641   4.087   0.175  17.184  1.2720 -0.7196  0.5673
 1394SOL    HW215642   3.977   0.076  17.184 -0.8370  0.3151  2.6433
 1395SOL     OW15643   1.580   3.045   9.075  0.4330  0.3730 -0.0885
 1395SOL    HW115644   1.487   3.040   9.054  0.2598  1.6462  0.3857
 1395SOL    HW215645   1.593   3.136   9.100 -2.1438  0.4462  1.0153
 1396SOL     OW15646   4.571   2.198   7.773  0.0464 -0.3066  0.2605
 1396SOL    HW115647   4.532   2.118   7.737 -1.0562  0.7488 -0.9143
 1396SOL    HW215648   4.659   2.167   7.794  0.8764  2.1070  0.3017
 1397SOL     OW15649   3.159   4.211  14.899 -0.1527  0.2287  0.5498
 1397SOL    HW115650   3.235   4.239  14.950  1.5211 -2.0983 -0.6676
 1397SOL    HW215651   3.134   4.292  14.855 -0.1716 -0.3407 -0.4948
 1398SOL     OW15652   1.083   0.055  13.858  0.4804  0.3206  0.4493
 1398SOL    HW115653   1.044   0.140  13.880  1.4597  0.9330 -0.1591
 1398SOL    HW215654   1.007   4.719  13.850  1.0063 -0.8161  3.9534
 1399SOL     OW15655   1.237   0.190   6.258 -0.1089  0.0041 -0.0168
 1399SOL    HW115656   1.164   0.251   6.276 -0.0348  0.2929 -0.6780
 1399SOL    HW215657   1.291   0.199   6.336 -0.5383  2.0387  0.0553
 1400SOL     OW15658   2.438   2.612   3.712 -0.1968 -0.0661  0.0653
 1400SOL    HW115659   2.527   2.622   3.679  0.0450 -0.4862  0.6041
 1400SOL    HW215660   2.438   2.698   3.755  1.9645 -0.2447  0.4099
 1401SOL     OW15661   4.549   0.574   3.314 -0.2322  0.7162  0.3828
 1401SOL    HW115662   4.522   0.663   3.335 -1.3264  0.7907 -1.3053
 1401SOL    HW215663   4.641   0.573   3.342  0.5187  0.4588 -2.0372
 1402SOL     OW15664   3.892   4.390   1.875 -0.8393  0.4290  0.5164
 1402SOL    HW115665   3.881   4.470   1.824 -0.6425 -0.1371 -0.4186
 1402SOL    HW215666   3.988   4.391   1.877 -0.8488  1.2902  0.4763
 1403SOL     OW15667   4.331   0.303  15.749  0.1971  0.4719 -0.1735
 1403SOL    HW115668   4.265   0.260  15.804 -0.6726  1.3453 -0.5336
 1403SOL    HW215669   4.410   0.286  15.800 -0.7336 -0.0359  1.1143
 1404SOL     OW15670   0.381   3.452  15.137 -0.2335  0.2941 -0.4013
 1404SOL    HW115671   0.428   3.439  15.219  1.9817 -3.4530 -2.2365
 1404SOL    HW215672   0.321   3.521  15.165  1.5451 -0.4749  5.1878
 1405SOL     OW15673   2.876   1.047  10.922  0.1704 -0.0096 -0.0729
 1405SOL    HW115674   2.780   1.054  10.919  0.2135  0.7600  0.2921
 1405SOL    HW215675   2.902   1.115  10.983  0.4814 -0.1559 -0.0452
 1406SOL     OW15676   2.044   1.329  12.188 -0.4934  0.1875  0.1564
 1406SOL    HW115677   2.089   1.247  12.210 -0.2645  0.3344  0.2292
 1406SOL    HW215678   2.108   1.395  12.214  0.4590  0.1513 -2.0898
 1407SOL     OW15679   0.350   3.079   4.028 -0.2383 -0.2445  0.2227
 1407SOL    HW115680   0.308   3.041   3.950 -2.0902 -1.8883  2.0082
 1407SOL    HW215681   0.441   3.095   4.002  0.0013 -2.3215 -0.1840
 1408SOL     OW15682   2.893   0.295   5.571  0.0511 -0.6234 -0.3402
 1408SOL    HW115683   2.826   0.284   5.504 -1.0150  0.9970  0.4618
 1408SOL    HW215684   2.864   0.368   5.625 -0.7742  1.5085 -3.7160
 1409SOL     OW15685   1.588   1.079   4.966  0.0083 -0.0638 -0.8485
 1409SOL    HW115686   1.524   1.103   5.033 -0.6343 -1.0879 -1.0947
 1409SOL    HW215687   1.542   1.035   4.895  1.9505 -0.9228 -1.5567
 1410SOL     OW15688   1.144   4.498   7.496 -0.0755  0.5958  0.0194
 1410SOL    HW115689   1.094   4.450   7.562 -0.3538  3.9823  2.3091
 1410SOL    HW215690   1.233   4.468   7.512 -0.2714  0.8200  1.4942
 1411SOL     OW15691   4.017   1.272   6.429  0.0007  0.5267 -0.1485
 1411SOL    HW115692   3.967   1.227   6.497  0.8937  1.8545  1.3674
 1411SOL    HW215693   4.070   1.200   6.394 -4.1301 -1.2284 -2.9692
 1412SOL     OW15694   1.097   0.851  13.327  0.5921 -0.9787 -0.0609
 1412SOL    HW115695   1.012   0.882  13.297  1.8738  1.8618 -0.6771
 1412SOL    HW215696   1.134   0.930  13.366 -3.1164  1.1125 -0.8352
 1413SOL     OW15697   3.625   2.478  13.982 -0.3387 -0.3889  0.7485
 1413SOL    HW115698   3.607   2.432  13.900  0.6223  0.7489 -0.1053
 1413SOL    HW215699   3.721   2.476  13.988 -0.2235 -3.4059 -2.6741
 1414SOL     OW15700   3.298   1.246  14.620 -0.4059  0.0015 -0.3551
 1414SOL    HW115701   3.276   1.172  14.563 -0.1231 -1.2525  1.1858
 1414SOL    HW215702   3.394   1.245  14.621 -0.4637 -0.7905  2.1045
 1415SOL     OW15703   1.966   0.728   5.298 -0.4963  0.3276 -0.0739
 1415SOL    HW115704   2.013   0.692   5.222  0.4622  0.5340  0.4256
 1415SOL    HW215705   1.891   0.668   5.304  0.4788 -0.9417 -0.5338
 1416SOL     OW15706   1.956   0.475   0.531  0.2154  0.3234 -0.0199
 1416SOL    HW115707   1.874   0.432   0.554 -0.2696  1.1553 -0.1929
 1416SOL    HW215708   2.011   0.452   0.606  2.1485 -0.2123 -1.5856
 1417SOL     OW15709   0.776   1.997   1.998 -0.2301  0.0878 -0.6596
 1417SOL    HW115710   0.691   1.967   1.968 -0.9334  1.1201  0.2908
 1417SOL    HW215711   0.815   2.044   1.925 -0.8998  2.1238  0.2889
 1418SOL     OW15712   1.508   3.455   5.082 -0.2404 -0.5816  0.1436
 1418SOL    HW115713   1.588   3.507   5.089  0.3941 -1.5134 -0.0610
 1418SOL    HW215714   1.540   3.370   5.051 -0.5794 -0.1050 -1.5149
 1419SOL     OW15715   4.581   0.336  14.504 -0.6410 -0.4242 -0.1168
 1419SOL    HW115716   4.580   0.245  14.534 -3.2093 -0.8158 -1.4373
 1419SOL    HW215717   4.675   0.355  14.499 -0.7406  0.4349  1.2642
 1420SOL     OW15718   4.717   3.827   6.466  0.1111 -0.8668 -0.0329
 1420SOL    HW115719   4.712   3.896   6.532  0.8188  1.5276 -2.4469
 1420SOL    HW215720   0.089   3.822   6.444  0.0346 -0.6209 -0.4277
 1421SOL     OW15721   1.853   0.505   2.218  0.1989 -0.0374  0.4481
 1421SOL    HW115722   1.853   0.429   2.276 -1.6155  0.3879  1.0045
 1421SOL    HW215723   1.946   0.524   2.206 -0.2960  0.1474 -3.1651
 1422SOL     OW15724   0.409   4.067   6.102  0.2078 -0.4053  0.1496
 1422SOL    HW115725   0.413   4.118   6.183  0.8165 -0.0400 -0.1106
 1422SOL    HW215726   0.331   4.015   6.121 -0.4999 -0.1430 -2.0940
 1423SOL     OW15727   3.110   3.076  13.812  0.2723 -0.4244 -0.0549
 1423SOL    HW115728   3.113   3.092  13.718 -1.0453  1.2535  0.1766
 1423SOL    HW215729   3.153   2.991  13.814  1.7199  0.3274  0.9038
 1424SOL     OW15730   2.638   3.277   8.480 -0.3227 -0.5769 -0.3421
 1424SOL    HW115731   2.688   3.250   8.557  0.9999  1.9874 -0.2995
 1424SOL    HW215732   2.692   3.223   8.422 -0.4790 -1.3951  0.2798
 1425SOL     OW15733   2.075   2.299  13.357  0.1722 -0.0986 -0.2680
 1425SOL    HW115734   2.109   2.348  13.431  2.5547  1.5551 -2.4552
 1425SOL    HW215735   2.105   2.359  13.288  2.5068 -1.1732 -0.1655
 1426SOL     OW15736   4.381   4.091   3.401 -0.4481 -0.3615 -0.2923
 1426SOL    HW115737   4.420   4.124   3.482  0.2125  0.4209 -0.9369
 1426SOL    HW215738   4.297   4.136   3.410  0.1174  0.2006  2.3298
 1427SOL     OW15739   0.153   0.014  11.680 -0.1523  0.0021  0.2972
 1427SOL    HW115740   0.097   4.660  11.699  0.4809 -0.9824 -1.6782
 1427SOL    HW215741   0.210   4.706  11.609 -0.9089  1.4082 -0.8733
 1428SOL     OW15742   1.468   2.992   2.005 -0.1742  0.6287  0.2199
 1428SOL    HW115743   1.443   3.083   2.016  2.3277  1.1374  1.8150
 1428SOL    HW215744   1.485   2.973   2.097 -0.3202 -1.5905 -0.2145
 1429SOL     OW15745   2.683   0.118   7.016 -0.5132  0.4323  0.6780
 1429SOL    HW115746   2.742   0.127   7.090  0.2576 -0.8410  0.2210
 1429SOL    HW215747   2.731   0.159   6.943 -3.4415  3.2191  0.3361
 1430SOL     OW15748   1.212   3.411   0.173  0.0062 -0.2579 -0.0167
 1430SOL    HW115749   1.147   3.453   0.116 -1.0429  0.6671  1.8656
 1430SOL    HW215750   1.285   3.396   0.113  0.2779  1.0116 -0.0081
 1431SOL     OW15751   3.836   3.034   3.529 -0.7872  0.4188 -0.1861
 1431SOL    HW115752   3.767   3.011   3.591 -0.9022  0.5151 -0.2781
 1431SOL    HW215753   3.915   3.028   3.583 -0.3228 -1.6959 -1.1140
 1432SOL     OW15754   3.340   3.902   5.376 -0.0211 -0.1073 -0.3213
 1432SOL    HW115755   3.298   3.938   5.455 -1.3726  1.1631 -1.6098
 1432SOL    HW215756   3.336   3.975   5.314  0.6706 -1.4301 -1.9026
 1433SOL     OW15757   4.152   1.480  13.101  0.3873 -0.0459  0.7636
 1433SOL    HW115758   4.232   1.469  13.050 -0.4027  1.6321 -0.8322
 1433SOL    HW215759   4.082   1.451  13.042 -0.6278  0.2796  1.7906
 1434SOL     OW15760   3.126   1.071   9.964  0.2203 -0.3497 -0.1821
 1434SOL    HW115761   3.131   1.020   9.884  1.5264  0.5683 -0.6860
 1434SOL    HW215762   3.203   1.125   9.947 -0.8363  0.7241 -1.5334
 1435SOL     OW15763   2.835   1.883   7.416  0.2770  0.3529 -0.3882
 1435SOL    HW115764   2.818   1.920   7.329 -2.4661  0.5588  0.2583
 1435SOL    HW215765   2.879   1.801   7.390 -3.3657 -1.0730 -2.0917
 1436SOL     OW15766   4.130   4.062  17.155 -0.4265 -0.4167 -0.3931
 1436SOL    HW115767   4.100   3.996  17.217 -0.4729 -0.9766 -1.0126
 1436SOL    HW215768   4.047   4.098  17.124  0.0803  0.7681 -0.3898
 1437SOL     OW15769   0.456   1.358   1.522 -0.4254  0.1709  0.6810
 1437SOL    HW115770   0.480   1.385   1.610 -0.2221 -0.3409  0.7777
 1437SOL    HW215771   0.453   1.264   1.537  1.0190 -0.0392 -0.4037
 1438SOL     OW15772   1.570   3.911  10.378 -0.1653 -0.5058  0.3753
 1438SOL    HW115773   1.485   3.953  10.391  1.0585  1.4349  2.0074
 1438SOL    HW215774   1.542   3.846  10.313  0.3020  0.7300 -1.0440
 1439SOL     OW15775   1.263   0.049   0.251 -0.2351 -0.6656  0.1713
 1439SOL    HW115776   1.286   0.075   0.162 -0.0448  3.9975  1.5766
 1439SOL    HW215777   1.170   0.069   0.259 -0.0520 -0.7450  2.5118
 1440SOL     OW15778   1.357   2.193   4.020 -0.0149  0.2585 -0.0553
 1440SOL    HW115779   1.395   2.280   4.035 -0.9747  0.1542  2.9508
 1440SOL    HW215780   1.397   2.177   3.935 -0.6469  1.0372 -0.5024
 1441SOL     OW15781   3.275   3.142  12.510  0.2355 -0.6902  0.1678
 1441SOL    HW115782   3.337   3.100  12.450  0.8805 -1.6038  1.4746
 1441SOL    HW215783   3.309   3.104  12.591 -0.7535  1.5243  1.6248
 1442SOL     OW15784   1.190   3.939   6.781  0.6285 -0.4407 -0.0616
 1442SOL    HW115785   1.104   3.899   6.791  1.0754 -1.2711  0.4407
 1442SOL    HW215786   1.261   3.877   6.797  1.1151 -0.1720 -1.1834
 1443SOL     OW15787   4.166   3.751   8.613 -0.0766 -0.0408  0.4704
 1443SOL    HW115788   4.186   3.702   8.692 -0.6304 -0.1898  0.5203
 1443SOL    HW215789   4.078   3.785   8.629 -1.0450 -2.5005  0.4680
 1444SOL     OW15790   2.458   0.193   4.283 -0.0779  0.3514 -0.0158
 1444SOL    HW115791   2.416   0.253   4.345  1.2470  3.4442 -2.0980
 1444SOL    HW215792   2.454   0.245   4.203  0.5405  0.0949 -0.2149
 1445SOL     OW15793   1.281   2.719  16.483 -0.7174  0.1053 -0.0836
 1445SOL    HW115794   1.305   2.785  16.548 -2.5592 -0.4746  1.1954
 1445SOL    HW215795   1.274   2.774  16.405 -0.6123  1.3228  0.7653
 1446SOL     OW15796   2.638   1.275   5.803 -0.2309  0.4624  0.1841
 1446SOL    HW115797   2.717   1.321   5.831  0.9117 -2.8903  2.4401
 1446SOL    HW215798   2.577   1.310   5.869 -0.2842 -1.7793  1.3256
 1447SOL     OW15799   0.114   3.241   6.902  0.0596 -0.4064  0.1763
 1447SOL    HW115800   0.066   3.227   6.984  0.3689 -2.2289  0.0551
 1447SOL    HW215801   0.051   3.224   6.831 -0.1169  0.4213  0.1377
 1448SOL     OW15802   3.437   0.680   7.648  0.0209  0.2731  0.8305
 1448SOL    HW115803   3.400   0.592   7.657  2.9015 -1.0341 -0.0812
 1448SOL    HW215804   3.367   0.735   7.682 -1.0469 -0.6197  0.0464
 1449SOL     OW15805   2.517   2.463  14.694  0.3300  0.0940  0.4083
 1449SOL    HW115806   2.481   2.461  14.783  1.7175  1.4637  0.9833
 1449SOL    HW215807   2.567   2.381  14.698  0.4478 -0.0484 -3.5520
 1450SOL     OW15808   0.448   2.024  14.281 -0.2445 -0.1179  0.1218
 1450SOL    HW115809   0.364   2.059  14.310 -0.8979 -1.8374  0.3158
 1450SOL    HW215810   0.500   2.103  14.268  0.9151 -0.9523 -0.3479
 1451SOL     OW15811   2.964   1.623   5.278 -0.5019  0.0752 -0.5203
 1451SOL    HW115812   2.945   1.609   5.371  0.8213  1.2961 -0.0537
 1451SOL    HW215813   2.902   1.695   5.263 -1.5289 -1.0427 -1.6261
 1452SOL     OW15814   0.020   3.393   5.502  0.0902 -0.3373 -0.3322
 1452SOL    HW115815   0.060   3.480   5.503  0.3449 -0.4379 -1.6134
 1452SOL    HW215816   0.055   3.361   5.419  1.3174  4.2964 -1.6117
 1453SOL     OW15817   0.890   0.733   2.598 -0.2043  0.1022  0.4537
 1453SOL    HW115818   0.916   0.766   2.512  2.5650  2.3014  2.1641
 1453SOL    HW215819   0.885   0.641   2.574  2.7078 -0.1221  0.7919
 1454SOL     OW15820   2.308   3.951   5.478  0.6113 -0.1852  0.1824
 1454SOL    HW115821   2.259   3.869   5.471 -1.0083  0.7712  0.4937
 1454SOL    HW215822   2.377   3.918   5.535 -0.9846  0.3684  2.4210
 1455SOL     OW15823   4.562   2.581   5.762 -0.0337  0.3285  0.5857
 1455SOL    HW115824   4.482   2.625   5.734 -1.7289 -3.4664 -0.5788
 1455SOL    HW215825   4.602   2.654   5.809  2.1709  0.6704 -1.8277
 1456SOL     OW15826   0.633   1.451   4.362  0.1185  0.6643  0.5664
 1456SOL    HW115827   0.648   1.544   4.376 -0.4664  0.7837  0.3768
 1456SOL    HW215828   0.539   1.441   4.353  0.6012 -1.9645 -1.7334
 1457SOL     OW15829   0.865   3.836   7.569  0.4028  0.0975  0.1899
 1457SOL    HW115830   0.961   3.840   7.568  0.4059  0.2700  0.9852
 1457SOL    HW215831   0.847   3.917   7.522  1.8030  1.4038  1.8631
 1458SOL     OW15832   4.383   1.589  12.858 -0.1964  0.0227 -0.1196
 1458SOL    HW115833   4.401   1.511  12.806  0.7973 -0.1111  0.4368
 1458SOL    HW215834   4.461   1.640  12.838  0.0991 -0.2721  0.2832
 1459SOL     OW15835   1.298   1.194   6.430  0.0437  0.2027  0.2280
 1459SOL    HW115836   1.268   1.247   6.504 -1.0856 -2.6282  1.8493
 1459SOL    HW215837   1.292   1.247   6.351 -0.8499  0.6775  0.6166
 1460SOL     OW15838   4.559   3.416   4.962  0.0302  0.4093  0.4510
 1460SOL    HW115839   4.535   3.400   5.053  1.5826 -0.1112  0.7590
 1460SOL    HW215840   4.591   3.331   4.933  1.0704  0.5121  1.3411
 1461SOL     OW15841   3.025   2.860   7.671 -0.1680 -0.4608  0.0116
 1461SOL    HW115842   3.112   2.898   7.680 -0.4917  1.1113 -3.5356
 1461SOL    HW215843   2.986   2.933   7.622  0.3736 -1.5102 -1.9937
 1462SOL     OW15844   1.382   3.692  14.706 -0.6403  0.1053 -0.2038
 1462SOL    HW115845   1.476   3.683  14.720 -0.8237 -0.5381  0.6518
 1462SOL    HW215846   1.361   3.765  14.764  1.7297 -0.2851  1.1522
 1463SOL     OW15847   1.783   3.425   4.823 -0.5552  0.8578  0.1601
 1463SOL    HW115848   1.764   3.381   4.905  0.7097  1.3684  0.7271
 1463SOL    HW215849   1.831   3.352   4.783  1.9396  2.1361  0.7867
 1464SOL     OW15850   1.614   2.596   8.289 -0.1986  0.4422 -0.2267
 1464SOL    HW115851   1.577   2.611   8.376  0.1725 -0.1101  0.0224
 1464SOL    HW215852   1.551   2.654   8.247  0.1196  0.8054 -0.2034
 1465SOL     OW15853   2.818   0.567   5.671  0.4247 -0.0324  0.1163
 1465SOL    HW115854   2.792   0.650   5.713 -1.3913  0.3240 -1.7067
 1465SOL    HW215855   2.750   0.558   5.604  0.1748 -0.5061  0.4381
 1466SOL     OW15856   1.819   2.727   3.466  0.2152  0.2281 -0.0185
 1466SOL    HW115857   1.891   2.751   3.524 -0.2658  2.5597 -0.3758
 1466SOL    HW215858   1.751   2.685   3.518 -0.6449  0.6031 -0.8358
 1467SOL     OW15859   3.680   2.101   2.553  0.4440 -0.8133 -0.5939
 1467SOL    HW115860   3.743   2.058   2.495  0.6288 -2.4823  0.8339
 1467SOL    HW215861   3.710   2.076   2.640 -0.9806  1.7748  0.6560
 1468SOL     OW15862   2.442   0.021  13.778 -0.7637  0.5297  0.3261
 1468SOL    HW115863   2.535   0.021  13.755 -1.4640  0.6515 -2.5382
 1468SOL    HW215864   2.401   0.093  13.730 -0.5757 -1.4491 -2.8819
 1469SOL     OW15865   1.561   0.532  10.470  0.2004 -0.1428  0.0597
 1469SOL    HW115866   1.613   0.570  10.399  0.2734  0.0115  0.1966
 1469SOL    HW215867   1.540   0.451  10.423  1.5645  0.4003 -1.4663
 1470SOL     OW15868   3.377   0.451   9.797  0.1116  0.7217 -0.1591
 1470SOL    HW115869   3.350   0.393   9.726  0.5227  2.7889 -2.0230
 1470SOL    HW215870   3.293   0.496   9.811 -0.1796  0.4209 -0.9430
 1471SOL     OW15871   0.524   1.457   7.720 -0.6090 -0.3271  0.4243
 1471SOL    HW115872   0.482   1.483   7.639  1.8377 -0.0030 -0.7550
 1471SOL    HW215873   0.502   1.364   7.721 -0.2641 -0.3894  2.1249
 1472SOL     OW15874   3.411   2.275   4.174  0.6063  0.2965 -0.0722
 1472SOL    HW115875   3.482   2.336   4.156  0.2638  0.7871  0.2487
 1472SOL    HW215876   3.463   2.197   4.193 -0.5522 -0.1545  1.2343
 1473SOL     OW15877   2.823   2.383   7.461  0.3912 -0.4603  0.2383
 1473SOL    HW115878   2.760   2.434   7.514  0.6896  0.2486 -0.0839
 1473SOL    HW215879   2.873   2.459   7.431 -0.7221  0.0874 -0.2579
 1474SOL     OW15880   0.137   3.950   9.737 -0.3265 -0.1211 -0.1979
 1474SOL    HW115881   0.082   4.018   9.776  1.3552  1.1400 -0.0345
 1474SOL    HW215882   0.184   3.903   9.805 -1.1268 -1.4690 -0.5915
 1475SOL     OW15883   2.173   4.233  14.011  0.4658  0.5995  0.4521
 1475SOL    HW115884   2.088   4.272  13.988  0.1385  0.9554  2.2746
 1475SOL    HW215885   2.160   4.204  14.102 -1.7149  1.1928  0.3387
 1476SOL     OW15886   0.648   1.554  10.960 -0.3154  0.1571  0.0474
 1476SOL    HW115887   0.688   1.601  10.887 -1.1867  1.6865  0.5625
 1476SOL    HW215888   0.560   1.536  10.925 -0.6303  0.7953  0.5130
 1477SOL     OW15889   3.862   3.801   9.409 -0.2577  0.0089 -0.2770
 1477SOL    HW115890   3.934   3.834   9.354  0.7598 -1.9241 -0.1070
 1477SOL    HW215891   3.907   3.725   9.446 -0.1543  0.6457  0.8912
 1478SOL     OW15892   2.859   1.388   5.879  0.5428  0.2428 -0.3578
 1478SOL    HW115893   2.898   1.387   5.967 -0.3736 -1.1838  0.0432
 1478SOL    HW215894   2.917   1.458   5.849 -0.6892  1.9753  1.2642
 1479SOL     OW15895   2.325   4.528   3.011  0.2924  0.6011 -0.6163
 1479SOL    HW115896   2.231   4.512   3.025  0.3325  1.0254  0.1237
 1479SOL    HW215897   2.348   4.439   2.985 -1.8599  0.0670 -0.7047
 1480SOL     OW15898   4.298   4.627   5.813 -0.2223  0.0616 -0.2849
 1480SOL    HW115899   4.308   0.001   5.803  1.6884 -0.1847 -0.8183
 1480SOL    HW215900   4.234   4.636   5.883 -0.8096 -1.9989 -0.5624
 1481SOL     OW15901   4.557   1.510  16.085 -0.1772  0.2098 -0.1194
 1481SOL    HW115902   4.603   1.430  16.059  0.8407 -0.0222  2.3770
 1481SOL    HW215903   4.579   1.562  16.008  1.5332  0.5148  0.5748
 1482SOL     OW15904   4.348   4.099   6.733 -0.1541 -0.4057 -0.3768
 1482SOL    HW115905   4.360   4.023   6.677  1.0076 -1.3012  1.0845
 1482SOL    HW215906   4.439   4.127   6.739 -0.0386 -1.1013  1.1156
 1483SOL     OW15907   3.669   4.539  11.305  0.3142  0.4522  0.4475
 1483SOL    HW115908   3.757   4.504  11.315 -0.0891 -0.5805  0.3614
 1483SOL    HW215909   3.636   4.477  11.240  0.8841 -2.4786  2.9604
 1484SOL     OW15910   0.750   4.371   1.542 -0.1943  0.1148  0.3443
 1484SOL    HW115911   0.672   4.319   1.523 -0.6261  1.5709 -1.7951
 1484SOL    HW215912   0.763   4.402   1.453 -0.5630  0.1654  0.3058
 1485SOL     OW15913   3.224   3.946   7.429 -0.0477 -0.4096  0.3770
 1485SOL    HW115914   3.171   3.866   7.424  0.0076 -0.4153 -0.1003
 1485SOL    HW215915   3.281   3.928   7.504 -2.1734  1.6554  2.5028
 1486SOL     OW15916   3.583   3.155  17.091  0.1056 -0.0833  0.0385
 1486SOL    HW115917   3.605   3.086  17.028 -1.9703  1.3392 -2.2969
 1486SOL    HW215918   3.640   3.230  17.072 -0.1716 -0.0761 -0.8073
 1487SOL     OW15919   0.106   1.457  17.002 -0.4993  0.6419 -0.1391
 1487SOL    HW115920   0.174   1.513  16.966 -0.3106  0.5122  0.0156
 1487SOL    HW215921   0.074   1.416  16.921 -1.1122  0.5889  0.1238
 1488SOL     OW15922   0.942   3.914   5.194 -0.1313 -0.0887  0.7164
 1488SOL    HW115923   0.936   3.982   5.127  3.2640  1.6202  2.1775
 1488SOL    HW215924   1.036   3.900   5.187 -0.1412 -0.5694  1.5291
 1489SOL     OW15925   0.026   3.054  12.693 -0.1911 -0.0030  0.3028
 1489SOL    HW115926   0.023   3.115  12.767  1.7960 -0.8706  1.1137
 1489SOL    HW215927   4.660   3.015  12.694 -0.0671 -0.3059 -0.9531
 1490SOL     OW15928   2.951   4.162   2.528  0.2093  0.2851  0.3120
 1490SOL    HW115929   2.944   4.199   2.616 -2.0584 -1.2084  0.7660
 1490SOL    HW215930   3.045   4.168   2.509  0.5811 -1.9471  1.4421
 1491SOL     OW15931   1.017   1.276   5.610  0.3368 -0.2093  0.1565
 1491SOL    HW115932   1.109   1.255   5.596  0.5428  0.2379  0.8640
 1491SOL    HW215933   1.027   1.368   5.631  1.0971 -0.4167  0.7187
 1492SOL     OW15934   0.817   3.237  15.469 -0.1038 -0.4478 -0.8676
 1492SOL    HW115935   0.803   3.150  15.431  1.7245 -0.1388 -2.2585
 1492SOL    HW215936   0.808   3.220  15.563 -1.1771 -1.3713 -1.1370
 1493SOL     OW15937   0.690   0.452   3.198  0.7180 -0.7469 -0.1885
 1493SOL    HW115938   0.646   0.420   3.120 -0.5616 -0.2380  0.3300
 1493SOL    HW215939   0.737   0.524   3.155  0.1256 -0.5414 -0.4919
 1494SOL     OW15940   3.931   3.423   3.907  0.1129 -0.0149  0.3335
 1494SOL    HW115941   3.989   3.393   3.836 -2.5256 -0.3944 -1.6477
 1494SOL    HW215942   3.994   3.462   3.968 -0.7966  0.2324  1.1194
 1495SOL     OW15943   2.048   4.049   8.239 -0.1113 -0.1300  0.1488
 1495SOL    HW115944   2.103   3.976   8.268 -1.2710 -1.6589 -1.4844
 1495SOL    HW215945   2.109   4.123   8.235 -0.5055  0.1530 -0.6339
 1496SOL     OW15946   4.625   4.200   6.757  0.6487 -0.4230 -0.0686
 1496SOL    HW115947   4.681   4.251   6.815 -0.5764 -0.0179  0.7786
 1496SOL    HW215948   4.624   4.247   6.674  2.8367 -1.3038 -0.6009
 1497SOL     OW15949   3.691   0.498   6.204 -0.0250  0.5994 -0.0963
 1497SOL    HW115950   3.712   0.413   6.166 -1.1814 -0.2695  1.2388
 1497SOL    HW215951   3.683   0.489   6.299 -0.7405 -0.6829 -0.2858
 1498SOL     OW15952   1.099   0.200  14.725 -0.1914 -0.4153  0.7211
 1498SOL    HW115953   1.131   0.192  14.815 -0.6445  4.6862  1.3893
 1498SOL    HW215954   1.170   0.240  14.674 -1.6855  3.1370  1.4324
 1499SOL     OW15955   3.340   2.460  16.279  0.6462 -0.6777 -0.1170
 1499SOL    HW115956   3.395   2.447  16.202 -2.6245  1.9628 -2.9036
 1499SOL    HW215957   3.255   2.439  16.241  0.1526 -0.4781  0.8666
 1500SOL     OW15958   3.383   2.083   5.978 -0.6143  0.3885  0.0820
 1500SOL    HW115959   3.470   2.111   5.951 -1.2034  2.8674  0.6785
 1500SOL    HW215960   3.390   1.998   6.021  0.3375 -0.2157 -1.3103
 1501SOL     OW15961   1.758   3.747   7.743 -0.1833  0.4605 -0.5007
 1501SOL    HW115962   1.754   3.750   7.838 -0.2377  0.7621 -0.5119
 1501SOL    HW215963   1.790   3.833   7.714 -0.7497 -0.3960 -3.6393
 1502SOL     OW15964   4.705   1.194   2.645  0.7203 -0.5180  0.0953
 1502SOL    HW115965   0.047   1.128   2.675 -0.9871 -2.5728 -0.8361
 1502SOL    HW215966   0.008   1.267   2.702 -2.6161  0.7706 -0.1969
 1503SOL     OW15967   3.194   3.219   8.089 -0.5764 -0.3312 -0.0115
 1503SOL    HW115968   3.106   3.203   8.054  0.1738 -0.8074 -1.6327
 1503SOL    HW215969   3.180   3.307   8.124  0.2066 -1.1722  2.4332
 1504SOL     OW15970   3.645   3.512   8.575  0.7218 -0.6178 -0.4429
 1504SOL    HW115971   3.700   3.502   8.652  0.9073  0.8430 -0.3701
 1504SOL    HW215972   3.632   3.421   8.550  1.2203 -0.8633  0.2001
 1505SOL     OW15973   3.051   4.146   5.147 -0.1466 -0.4717  0.2234
 1505SOL    HW115974   3.076   4.208   5.078 -3.4756 -0.1524 -0.6758
 1505SOL    HW215975   3.134   4.142   5.196 -0.8587 -1.1048  1.3861
 1506SOL     OW15976   0.139   1.799   1.972 -0.3677 -0.2788  0.0022
 1506SOL    HW115977   0.216   1.854   1.956 -0.4626 -0.4824 -1.1352
 1506SOL    HW215978   0.158   1.725   1.915  0.9394  0.6227 -0.7497
 1507SOL     OW15979   0.403   0.089   7.590 -0.1264  0.0070 -0.4253
 1507SOL    HW115980   0.428   0.148   7.661 -0.6872 -0.4311  0.1300
 1507SOL    HW215981   0.484   0.084   7.540  0.3203  0.5302  0.2416
 1508SOL     OW15982   3.940   3.227   2.717 -0.0877  0.2214  0.3358
 1508SOL    HW115983   3.873   3.233   2.786 -0.7462  0.7974 -0.3517
 1508SOL    HW215984   4.007   3.277   2.764 -0.7746  0.7403  0.7798
 1509SOL     OW15985   3.039   3.077  10.809  0.9689  0.0137  0.1312
 1509SOL    HW115986   3.079   2.991  10.826 -0.6735 -0.2392  2.8756
 1509SOL    HW215987   2.945   3.072  10.829  0.5348  1.0123 -1.7336
 1510SOL     OW15988   1.296   2.524  14.230 -0.6635  0.2045 -0.0604
 1510SOL    HW115989   1.344   2.593  14.183  0.9918  0.7761  2.5064
 1510SOL    HW215990   1.247   2.579  14.291 -0.8630  1.4298 -1.3114
 1511SOL     OW15991   0.738   4.139   3.410  0.3238 -0.0977  0.0335
 1511SOL    HW115992   0.775   4.220   3.377 -1.1307  0.5710  0.0438
 1511SOL    HW215993   0.739   4.157   3.504  1.0367 -0.3629  0.0813
 1512SOL     OW15994   2.064   4.497   2.721  0.0664 -0.2071 -0.1634
 1512SOL    HW115995   1.998   4.513   2.653  1.7616  1.6337 -1.3565
 1512SOL    HW215996   2.105   4.583   2.732 -2.8670  0.9324  2.0521
 1513SOL     OW15997   3.992   2.765  12.122 -0.0967 -0.5745  0.0368
 1513SOL    HW115998   4.031   2.755  12.036  1.6492 -0.2018  0.7958
 1513SOL    HW215999   4.000   2.860  12.119  0.5463 -0.6709 -1.1103
 1514SOL     OW16000   3.668   3.004  16.886  0.1735  0.0815 -0.3593
 1514SOL    HW116001   3.614   2.930  16.859  0.0613  0.0817 -0.1396
 1514SOL    HW216002   3.730   3.018  16.815 -0.7277 -1.3989 -1.4323
 1515SOL     OW16003   1.954   4.577  17.265  0.1520 -0.0595  0.1022
 1515SOL    HW116004   1.883   4.628  17.227  1.3765  1.2450 -0.4074
 1515SOL    HW216005   1.976   4.520  17.191 -0.0350 -1.0754  0.8231
 1516SOL     OW16006   2.930   3.173  16.068  0.8732  0.0318  0.5253
 1516SOL    HW116007   2.944   3.081  16.090  0.2251 -0.1252  0.2764
 1516SOL    HW216008   2.837   3.179  16.047  0.6637  0.4627  1.6186
 1517SOL     OW16009   3.015   0.494  13.884  0.3021 -0.0908  0.2850
 1517SOL    HW116010   3.033   0.550  13.959 -0.5241  0.6809 -0.0910
 1517SOL    HW216011   2.923   0.473  13.901  0.1220  3.3176  3.3486
 1518SOL     OW16012   2.173   1.978  13.541 -0.3748  0.2270 -0.6281
 1518SOL    HW116013   2.188   1.887  13.567  1.2717  0.0781 -2.0660
 1518SOL    HW216014   2.086   1.992  13.577 -0.1695 -0.7390  0.2415
 1519SOL     OW16015   1.729   1.828  10.478  0.0121  0.2942 -0.2206
 1519SOL    HW116016   1.742   1.829  10.383 -0.4999 -1.1223 -0.3052
 1519SOL    HW216017   1.805   1.876  10.511 -0.4111  0.3416  0.6927
 1520SOL     OW16018   3.836   1.676  10.132 -0.1901 -0.0671 -0.7350
 1520SOL    HW116019   3.829   1.772  10.136  1.1124  0.0818 -1.8261
 1520SOL    HW216020   3.929   1.677  10.108  0.4170  1.0087  1.6873
 1521SOL     OW16021   1.569   1.447   1.431  0.2895 -0.3103  0.1038
 1521SOL    HW116022   1.550   1.402   1.513 -1.1436 -1.7022 -0.9830
 1521SOL    HW216023   1.492   1.499   1.409  0.2279  0.0197  1.1096
 1522SOL     OW16024   3.386   1.185   6.269 -0.0100  0.5977  0.1313
 1522SOL    HW116025   3.463   1.242   6.268  0.3485  0.1206  0.2057
 1522SOL    HW216026   3.406   1.137   6.188  1.3015 -0.5376  1.1294
 1523SOL     OW16027   0.790   0.636  17.531 -0.2466  0.3999 -0.3205
 1523SOL    HW116028   0.694   0.644  17.538 -0.4409 -2.4453  0.0412
 1523SOL    HW216029   0.809   0.543  17.524  0.7453  0.6933 -1.4687
 1524SOL     OW16030   0.813   0.759  17.149 -0.1340  0.3180 -0.1893
 1524SOL    HW116031   0.880   0.795  17.207 -1.2337  1.0790  0.6112
 1524SOL    HW216032   0.740   0.794  17.200 -0.5613  0.4137 -0.8529
 1525SOL     OW16033   3.983   3.200   5.291 -0.1027  0.2277 -0.2046
 1525SOL    HW116034   3.934   3.276   5.322  0.4491  0.2192  0.6870
 1525SOL    HW216035   3.919   3.161   5.232 -0.5791  1.0918 -0.2560
 1526SOL     OW16036   4.468   2.999   3.125 -0.2304 -0.1670 -0.2534
 1526SOL    HW116037   4.449   3.092   3.136 -0.9570 -0.2407 -0.9155
 1526SOL    HW216038   4.427   2.960   3.202  1.5183 -0.5883  0.4703
 1527SOL     OW16039   3.348   2.087   3.129  0.3110  0.7986  0.1776
 1527SOL    HW116040   3.258   2.056   3.138 -0.1008  2.5316  2.0543
 1527SOL    HW216041   3.355   2.097   3.034 -1.7458 -1.1917 -0.1721
 1528SOL     OW16042   3.209   1.996   4.063 -1.1559 -0.6089 -0.3460
 1528SOL    HW116043   3.186   2.045   4.142 -0.0115  0.5034 -0.7038
 1528SOL    HW216044   3.305   1.996   4.062 -1.1671  2.6120 -0.7952
 1529SOL     OW16045   0.465   2.186   4.219  0.0510 -0.0063 -0.4263
 1529SOL    HW116046   0.378   2.171   4.182 -0.6833  2.8835  0.1342
 1529SOL    HW216047   0.511   2.232   4.149 -0.1479  1.1395  0.2016
 1530SOL     OW16048   2.893   0.727   2.698  0.4208 -0.0809 -0.0122
 1530SOL    HW116049   2.867   0.816   2.675 -0.4242 -0.1038  0.8557
 1530SOL    HW216050   2.813   0.703   2.745 -0.4151  2.7245 -0.0247
 1531SOL     OW16051   1.430   1.413   3.555  0.0602  0.0663 -0.2653
 1531SOL    HW116052   1.487   1.459   3.494 -1.2988  0.8952 -0.9159
 1531SOL    HW216053   1.494   1.402   3.625  0.2332 -2.2811 -0.7861
 1532SOL     OW16054   2.613   0.397   1.810  0.4165  0.2448 -0.8525
 1532SOL    HW116055   2.560   0.379   1.733 -2.3611  0.3279  1.0358
 1532SOL    HW216056   2.676   0.326   1.801  0.6551  0.3888 -0.3463
 1533SOL     OW16057   0.962   2.333  10.223  0.1829  0.0339 -0.1905
 1533SOL    HW116058   0.892   2.291  10.273 -0.2469  0.4931 -0.4124
 1533SOL    HW216059   0.958   2.284  10.141 -2.1455  1.2370 -0.7911
 1534SOL     OW16060   1.113   1.693   8.602  0.0179 -0.0053 -0.7699
 1534SOL    HW116061   1.073   1.689   8.689  2.0326  1.5614  0.2271
 1534SOL    HW216062   1.203   1.677   8.632 -0.6312  0.8443  1.5979
 1535SOL     OW16063   0.987   2.381   1.441  0.5683  0.5341 -0.3512
 1535SOL    HW116064   0.926   2.455   1.443  1.0321  0.8585  1.5264
 1535SOL    HW216065   0.968   2.354   1.351  0.3837  0.9795 -0.4431
 1536SOL     OW16066   3.798   3.979   2.647  0.4991 -0.2337  0.1581
 1536SOL    HW116067   3.821   3.972   2.740  1.2679  0.6685  0.0446
 1536SOL    HW216068   3.769   3.889   2.635  0.4273 -0.1923  0.0220
 1537SOL     OW16069   1.382   3.541  14.460 -0.3300  0.0876  0.0889
 1537SOL    HW116070   1.371   3.446  14.455 -1.2488  0.2384 -0.7557
 1537SOL    HW216071   1.354   3.563  14.548 -0.8706 -0.3882  0.0358
 1538SOL     OW16072   4.408   4.361   5.817 -0.3824 -0.2393 -0.9754
 1538SOL    HW116073   4.446   4.380   5.731 -1.7021  0.5033 -1.3900
 1538SOL    HW216074   4.359   4.441   5.837 -0.1176  0.2042 -2.1073
 1539SOL     OW16075   4.327   1.028   6.454 -0.4207  0.5841  0.0331
 1539SOL    HW116076   4.409   1.070   6.427 -0.3754  1.5751  1.6466
 1539SOL    HW216077   4.357   0.938   6.463 -3.6219 -0.2278  2.4745
 1540SOL     OW16078   3.720   1.748   4.586  0.0032 -0.2924  0.2033
 1540SOL    HW116079   3.815   1.753   4.599  0.0121 -2.8747  1.0838
 1540SOL    HW216080   3.705   1.728   4.494 -1.3978  0.5366  0.2435
 1541SOL     OW16081   0.754   2.079   3.134  0.3957 -0.6426 -0.3010
 1541SOL    HW116082   0.833   2.129   3.156 -0.3160 -0.5390  1.9753
 1541SOL    HW216083   0.735   2.086   3.040  0.9108 -1.3711 -0.4625
 1542SOL     OW16084   3.704   3.248   8.069  0.0588 -0.1391 -0.2754
 1542SOL    HW116085   3.619   3.204   8.072  0.1332 -0.1011  2.0070
 1542SOL    HW216086   3.764   3.174   8.063 -0.9476 -0.8984 -1.0038
 1543SOL     OW16087   2.644   1.907   2.479  0.0659  0.4381 -0.2777
 1543SOL    HW116088   2.595   1.849   2.537  1.2584  1.7174  2.0233
 1543SOL    HW216089   2.583   1.901   2.405 -0.9330  1.0749  0.4943
 1544SOL     OW16090   2.699   0.311   5.398  0.2665 -0.4110 -0.0716
 1544SOL    HW116091   2.669   0.376   5.462  1.1813 -0.0436 -0.0038
 1544SOL    HW216092   2.664   0.334   5.313 -1.0234 -1.6376  0.1455
 1545SOL     OW16093   1.770   2.432   3.660  0.1642 -0.6074 -0.5666
 1545SOL    HW116094   1.752   2.369   3.589  0.2447  1.0172 -2.0272
 1545SOL    HW216095   1.863   2.448   3.642  0.4197  0.7068  1.9130
 1546SOL     OW16096   3.900   0.194   3.138  0.3129  0.1700  0.2786
 1546SOL    HW116097   3.915   0.210   3.045 -1.4539 -1.6891 -0.3391
 1546SOL    HW216098   3.912   0.282   3.173  0.7427 -0.0219  0.6032
 1547SOL     OW16099   2.162   3.832   0.120  0.3423 -0.2142  0.2089
 1547SOL    HW116100   2.234   3.773   0.142 -0.9536 -0.2479  4.3562
 1547SOL    HW216101   2.145   3.803   0.030 -1.0327  1.0391  0.0603
 1548SOL     OW16102   1.000   3.511   8.424  0.3542 -0.1559  1.0633
 1548SOL    HW116103   0.955   3.581   8.377  3.3789 -0.3783 -2.1197
 1548SOL    HW216104   1.091   3.506   8.395 -0.1602 -0.1850 -0.5545
 1549SOL     OW16105   0.754   4.673  11.809 -0.6472  0.8130 -0.2431
 1549SOL    HW116106   0.832   4.680  11.755  0.5798  0.9854  1.5458
 1549SOL    HW216107   0.775   0.024  11.869  0.1794  1.1934 -0.9820
 1550SOL     OW16108   3.981   2.807   4.143  0.5718 -0.0449  0.5488
 1550SOL    HW116109   4.061   2.858   4.137  1.4970 -1.7703 -1.8322
 1550SOL    HW216110   3.975   2.776   4.053  2.1392 -1.7382  1.0356
 1551SOL     OW16111   4.335   4.213   7.554  0.1931 -0.2569 -0.0507
 1551SOL    HW116112   4.313   4.180   7.641  0.9273 -1.4384 -0.3157
 1551SOL    HW216113   4.270   4.283   7.549  0.7676  0.4230  1.8432
 1552SOL     OW16114   2.018   2.108   8.892 -0.3388 -0.0210 -0.4660
 1552SOL    HW116115   2.049   2.189   8.851 -0.6737  0.5450  0.4169
 1552SOL    HW216116   2.039   2.128   8.983 -0.1690 -0.0861 -0.4903
 1553SOL     OW16117   4.322   4.028   8.208  0.8748 -0.2118 -0.0062
 1553SOL    HW116118   4.393   3.980   8.166  0.5616  0.3977 -1.2424
 1553SOL    HW216119   4.295   3.974   8.283 -0.8235 -0.7747 -1.0164
 1554SOL     OW16120   1.985   4.048  12.111  0.0139  0.6283 -0.3310
 1554SOL    HW116121   2.019   3.966  12.148  0.4819 -1.1688 -4.7790
 1554SOL    HW216122   1.957   4.018  12.025 -2.2948  0.0546  0.6145
 1555SOL     OW16123   3.040   2.983   5.707 -0.5823  0.4463 -0.2171
 1555SOL    HW116124   3.093   3.011   5.782  0.3302 -2.0794  0.1007
 1555SOL    HW216125   2.984   3.056   5.681 -0.9773 -0.3813 -1.7307
 1556SOL     OW16126   4.264   1.808   2.157 -0.5703 -0.0811 -1.1344
 1556SOL    HW116127   4.172   1.791   2.137  0.2538 -3.3323 -2.1379
 1556SOL    HW216128   4.261   1.904   2.156  1.8994 -0.0007  0.7507
 1557SOL     OW16129   2.675   3.882   3.878  0.1919  0.1919  0.8310
 1557SOL    HW116130   2.642   3.805   3.925  3.2350  0.5167  3.5469
 1557SOL    HW216131   2.627   3.880   3.796  0.0493  2.6625  0.8641
 1558SOL     OW16132   2.918   1.070   5.387 -0.1596  0.3760 -0.5048
 1558SOL    HW116133   2.871   1.105   5.312 -1.9832  1.1554  1.0035
 1558SOL    HW216134   2.903   0.976   5.380  0.2263  0.3645 -1.1697
 1559SOL     OW16135   2.092   3.119   5.632 -0.1225  0.0913  0.1862
 1559SOL    HW116136   1.999   3.132   5.617  0.1852  0.3338 -1.4991
 1559SOL    HW216137   2.124   3.201   5.669  1.1134  0.3079 -1.3596
 1560SOL     OW16138   3.677   0.750   1.462 -0.2975  0.1685 -0.1467
 1560SOL    HW116139   3.589   0.733   1.496 -0.4958 -1.5740 -1.5307
 1560SOL    HW216140   3.727   0.750   1.543  1.1088  1.1919 -1.0127
 1561SOL     OW16141   1.902   3.505   5.571  0.1780 -0.0902 -0.7274
 1561SOL    HW116142   1.940   3.500   5.484  1.7954 -5.9728  0.3301
 1561SOL    HW216143   1.927   3.585   5.618 -0.0000 -0.6775  0.3752
 1562SOL     OW16144   1.706   2.369  10.069  0.3966  0.3337 -0.1419
 1562SOL    HW116145   1.741   2.306  10.132 -0.3375  0.5184  0.4536
 1562SOL    HW216146   1.706   2.316   9.989 -0.1945 -0.3927  0.3464
 1563SOL     OW16147   1.541   0.321  11.869 -0.3971 -0.5108 -0.0930
 1563SOL    HW116148   1.574   0.289  11.785 -1.9173  0.1136 -0.9317
 1563SOL    HW216149   1.571   0.411  11.860 -0.6785 -0.5254 -1.1818
 1564SOL     OW16150   4.116   4.601   7.140 -0.4506 -0.0623  0.4209
 1564SOL    HW116151   4.165   4.671   7.095  0.8827 -1.3943 -0.1831
 1564SOL    HW216152   4.071   4.654   7.205 -0.4598  4.3099 -3.1045
 1565SOL     OW16153   0.865   4.019  12.415  0.2125  0.1451 -0.0246
 1565SOL    HW116154   0.959   4.005  12.428  1.1240  2.3493 -4.2914
 1565SOL    HW216155   0.857   4.107  12.377 -0.6456  0.5042  0.9916
 1566SOL     OW16156   3.849   2.036   3.745  0.1382 -0.0390  1.0994
 1566SOL    HW116157   3.813   1.948   3.755  2.1133 -0.9329  0.3155
 1566SOL    HW216158   3.931   2.012   3.701 -2.3256  0.0676 -3.5270
 1567SOL     OW16159   1.016   2.758  11.648 -0.3092  0.7802 -0.3631
 1567SOL    HW116160   1.037   2.840  11.602  0.2328  1.8913  1.8866
 1567SOL    HW216161   1.011   2.795  11.736  1.1013  0.4759 -0.1588
 1568SOL     OW16162   3.458   0.378   5.308 -0.0663  0.1726  0.4947
 1568SOL    HW116163   3.447   0.457   5.361  0.6927 -0.2631  1.3065
 1568SOL    HW216164   3.399   0.314   5.347  1.1056 -1.4950 -0.4597
 1569SOL     OW16165   2.336   2.741  10.000 -0.0078 -0.3183 -0.2081
 1569SOL    HW116166   2.285   2.816  10.032  1.7265  1.0028 -0.5041
 1569SOL    HW216167   2.305   2.727   9.911 -1.9885  0.4749  0.3583
 1570SOL     OW16168   3.616   4.103   5.805  0.3311  0.0143 -0.3237
 1570SOL    HW116169   3.545   4.160   5.834 -0.3644  0.2958 -2.5635
 1570SOL    HW216170   3.605   4.023   5.857 -2.2401  0.2425 -0.4732
 1571SOL     OW16171   3.074   0.684   5.552 -0.0164 -0.3220 -0.1912
 1571SOL    HW116172   3.118   0.600   5.537  1.7035  0.8351 -1.5771
 1571SOL    HW216173   3.022   0.657   5.628 -2.7790  2.1235 -1.2010
 1572SOL     OW16174   2.411   0.509   7.672 -0.7545 -0.2822 -0.5111
 1572SOL    HW116175   2.377   0.435   7.620 -1.7889  0.8860 -1.4915
 1572SOL    HW216176   2.348   0.576   7.645 -0.2269  0.2747 -0.3538
 1573SOL     OW16177   0.945   2.168   3.566 -0.4887 -0.8016 -0.7060
 1573SOL    HW116178   0.928   2.252   3.523  0.9902 -0.6646 -1.0240
 1573SOL    HW216179   1.020   2.130   3.520  1.0865  0.4970  0.7643
 1574SOL     OW16180   2.901   3.465   8.388  0.0060  0.4461 -0.3227
 1574SOL    HW116181   2.846   3.517   8.447  0.3363  0.1036  0.2793
 1574SOL    HW216182   2.891   3.382   8.435 -0.0113 -0.6826 -2.3269
 1575SOL     OW16183   2.059   4.503  13.249 -0.2197 -0.2611 -0.3054
 1575SOL    HW116184   2.108   4.444  13.191 -0.1106  1.4782 -1.9935
 1575SOL    HW216185   2.043   4.577  13.189 -1.7428 -0.9637 -0.7655
 1576SOL     OW16186   3.476   1.962  10.706 -0.0994 -0.4586 -0.5194
 1576SOL    HW116187   3.399   1.954  10.650  0.4725 -0.1939 -1.3382
 1576SOL    HW216188   3.493   1.871  10.731  2.9497 -0.1170 -1.3971
 1577SOL     OW16189   1.950   3.816  15.963  0.6078  0.2934 -0.5458
 1577SOL    HW116190   1.864   3.813  16.005  0.1235  2.0312 -1.4241
 1577SOL    HW216191   1.991   3.756  16.025  1.5182 -0.2022 -1.6332
 1578SOL     OW16192   0.473   0.242   6.193  0.1688  0.1149  0.1472
 1578SOL    HW116193   0.520   0.307   6.244  0.2070  2.0120 -2.3244
 1578SOL    HW216194   0.457   0.285   6.109 -1.1883 -1.7927 -0.5881
 1579SOL     OW16195   1.023   1.775   1.383  0.3778 -0.1640 -0.0493
 1579SOL    HW116196   0.983   1.691   1.407  0.3415 -0.2556 -0.4393
 1579SOL    HW216197   1.116   1.751   1.391  0.4362 -0.0686 -0.4627
 1580SOL     OW16198   0.078   1.265   5.433  0.0316 -0.1772  0.2269
 1580SOL    HW116199   0.023   1.189   5.456  0.1704 -0.7254 -1.2348
 1580SOL    HW216200   0.006   1.316   5.396  0.5792  0.8839  0.6453
 1581SOL     OW16201   0.196   1.191   7.158 -0.0497 -0.3662 -0.0869
 1581SOL    HW116202   0.137   1.263   7.178  1.7065  0.7365  1.1152
 1581SOL    HW216203   0.206   1.206   7.064 -0.7364 -2.1035 -0.4389
 1582SOL     OW16204   0.876   1.103   4.317 -0.9309 -0.1018 -0.3046
 1582SOL    HW116205   0.884   1.150   4.234 -2.0263  2.1999  0.8992
 1582SOL    HW216206   0.797   1.132   4.362 -0.4047 -0.3867  0.8027
 1583SOL     OW16207   4.132   0.507  10.870 -0.7066 -0.3215  0.2323
 1583SOL    HW116208   4.094   0.593  10.889 -2.9089 -1.2623  0.1542
 1583SOL    HW216209   4.056   0.475  10.821 -0.8603  0.6208 -0.1611
 1584SOL     OW16210   4.278   0.160  12.984 -0.3932 -0.5537  0.0903
 1584SOL    HW116211   4.294   0.160  13.078 -0.8508  1.7266  0.1629
 1584SOL    HW216212   4.266   0.066  12.972 -2.2213 -0.2253 -0.6430
 1585SOL     OW16213   1.354   4.112   8.317 -0.0657  0.1366  0.1074
 1585SOL    HW116214   1.387   4.196   8.284  3.7999 -0.9673  1.1292
 1585SOL    HW216215   1.362   4.122   8.412  0.5851  1.8310 -0.1321
 1586SOL     OW16216   1.103   3.708   1.796 -0.3641  0.1355 -0.6114
 1586SOL    HW116217   1.188   3.665   1.804  1.5713  4.0618  0.0560
 1586SOL    HW216218   1.129   3.791   1.756 -1.3834  0.0636 -1.4205
 1587SOL     OW16219   0.777   0.205  13.250  0.0593 -0.2435  0.4152
 1587SOL    HW116220   0.688   0.234  13.234 -0.6891 -1.6274  2.1785
 1587SOL    HW216221   0.819   0.209  13.164  0.4970  0.7010  0.6757
 1588SOL     OW16222   4.070   2.984   2.259 -0.2508 -0.5054  0.1379
 1588SOL    HW116223   4.051   2.994   2.352  0.0782  0.9642  0.0415
 1588SOL    HW216224   4.004   3.038   2.215  1.5667 -0.2085 -2.2722
 1589SOL     OW16225   1.992   2.851   5.641  0.3980 -0.1689  0.7547
 1589SOL    HW116226   2.056   2.835   5.572  0.7548 -0.6671  1.1936
 1589SOL    HW216227   2.044   2.903   5.703  0.5996 -0.5045  0.8698
 1590SOL     OW16228   4.017   3.686  17.040  0.1197  0.3988  0.3973
 1590SOL    HW116229   4.088   3.657  17.097  1.2889  1.2931 -0.6183
 1590SOL    HW216230   3.955   3.617  17.065  0.4455  0.3797  1.1511
 1591SOL     OW16231   1.049   1.122  15.929  0.4668 -0.4840 -0.1658
 1591SOL    HW116232   1.118   1.187  15.921 -1.5826  1.3865 -2.6179
 1591SOL    HW216233   1.088   1.068  15.861  0.4699  0.0415 -0.5743
 1592SOL     OW16234   3.290   1.192   4.689  0.8045  0.4658 -0.0375
 1592SOL    HW116235   3.297   1.287   4.688  2.7054  0.3223  0.2087
 1592SOL    HW216236   3.206   1.172   4.648 -0.3085  0.2339  2.3365
 1593SOL     OW16237   1.830   1.983   5.999  0.3645  0.0449  0.2164
 1593SOL    HW116238   1.760   2.048   5.988  0.5511  0.0982 -0.7260
 1593SOL    HW216239   1.807   1.939   6.080  1.4904  1.8176  1.5104
 1594SOL     OW16240   2.325   4.715   3.234  1.0743  0.2107 -0.5368
 1594SOL    HW116241   2.347   0.055   3.164  1.6990  0.0175 -0.5004
 1594SOL    HW216242   2.318   4.630   3.191  0.3714 -0.8276  1.6071
 1595SOL     OW16243   1.323   0.453   8.721  0.2098  0.3424 -0.4963
 1595SOL    HW116244   1.273   0.509   8.780 -2.7450 -1.4049 -1.3509
 1595SOL    HW216245   1.415   0.477   8.736  0.5373 -1.6462  0.6767
 1596SOL     OW16246   1.198   1.399   3.148  0.9609  0.0855 -0.3605
 1596SOL    HW116247   1.252   1.458   3.096 -0.0734  0.0518 -1.4804
 1596SOL    HW216248   1.175   1.449   3.226 -0.1042 -0.7818 -0.1218
 1597SOL     OW16249   1.882   1.315   7.154  0.1106 -0.0362  0.0728
 1597SOL    HW116250   1.801   1.277   7.190  0.3012  1.4820  2.0854
 1597SOL    HW216251   1.934   1.323   7.233 -0.0429  0.7855  0.0875
 1598SOL     OW16252   1.481   0.530   2.816  0.4543  0.5208  0.0427
 1598SOL    HW116253   1.545   0.578   2.764  0.9116  1.0561  1.1034
 1598SOL    HW216254   1.405   0.510   2.761  0.4959  1.5889 -0.3959
 1599SOL     OW16255   2.082   2.961   2.416 -0.2417  0.0170  0.0042
 1599SOL    HW116256   2.152   3.005   2.465  0.8673  0.3823 -1.8775
 1599SOL    HW216257   2.027   3.034   2.387  0.0880  0.6048  0.8658
 1600SOL     OW16258   3.705   2.044   8.806  0.8978 -0.2706 -0.0519
 1600SOL    HW116259   3.655   2.108   8.857  2.4859  0.1272  0.9919
 1600SOL    HW216260   3.732   1.989   8.879 -0.4640 -2.7541 -1.4208
 1601SOL     OW16261   4.085   1.849   3.317  0.0829 -0.0239 -0.0611
 1601SOL    HW116262   4.062   1.934   3.281  1.5104  0.3466 -0.0859
 1601SOL    HW216263   4.112   1.798   3.241  0.0930 -0.1357  0.0178
 1602SOL     OW16264   1.645   3.597   5.723  0.0210 -0.1194 -0.3972
 1602SOL    HW116265   1.655   3.646   5.804 -2.0263  1.4900 -1.1099
 1602SOL    HW216266   1.723   3.543   5.736 -0.1172  0.4065  2.5460
 1603SOL     OW16267   2.678   0.300   7.477  0.0106  0.3763 -1.0576
 1603SOL    HW116268   2.658   0.211   7.448  2.6531 -0.6868  0.3128
 1603SOL    HW216269   2.748   0.285   7.541 -1.9543 -0.8757  0.7934
 1604SOL     OW16270   4.545   2.130   6.837  0.1891 -0.1916  0.4590
 1604SOL    HW116271   4.580   2.095   6.919  0.0695 -0.5409  0.3605
 1604SOL    HW216272   4.582   2.067   6.776  2.0744  0.1969  1.2147
 1605SOL     OW16273   4.075   3.578   2.835  0.5672 -0.3766 -0.0808
 1605SOL    HW116274   4.111   3.574   2.746  0.2719 -2.1843 -0.1072
 1605SOL    HW216275   4.083   3.490   2.870  0.8694 -0.4057 -0.2150
 1606SOL     OW16276   3.979   0.169   8.076 -0.0372 -0.0751  0.3399
 1606SOL    HW116277   3.903   0.131   8.119  0.7301  1.5306  3.0698
 1606SOL    HW216278   4.014   0.092   8.032 -2.0781 -0.2605 -0.9700
 1607SOL     OW16279   4.440   0.306   0.823  0.1469 -0.0251 -0.0238
 1607SOL    HW116280   4.441   0.257   0.905 -0.9529 -0.1674 -0.0985
 1607SOL    HW216281   4.430   0.397   0.849 -0.4840 -0.2749  0.5979
 1608SOL     OW16282   3.799   2.459   1.770 -0.7049 -0.2652  0.1560
 1608SOL    HW116283   3.725   2.504   1.730  0.8083  1.1421 -1.0700
 1608SOL    HW216284   3.758   2.434   1.853 -1.9867 -0.2926 -0.4974
 1609SOL     OW16285   1.118   1.178   0.808  0.4951 -0.2047  0.5708
 1609SOL    HW116286   1.030   1.218   0.806  0.5026 -0.1433  1.2569
 1609SOL    HW216287   1.107   1.114   0.878  0.6618 -1.6171 -0.7092
 1610SOL     OW16288   1.113   4.649   8.451 -0.0327 -0.0687 -0.0067
 1610SOL    HW116289   1.101   4.695   8.534 -2.1788 -2.4040  0.9766
 1610SOL    HW216290   1.110   0.005   8.395 -2.2757  0.0044  0.1971
 1611SOL     OW16291   0.645   2.820  12.044  0.1120  0.6708  0.6238
 1611SOL    HW116292   0.624   2.733  12.079  0.1859  0.4115  0.0368
 1611SOL    HW216293   0.652   2.807  11.949 -1.5385 -0.9443  0.7185
 1612SOL     OW16294   0.917   3.458   4.322 -0.5899  0.0749  0.2553
 1612SOL    HW116295   0.942   3.398   4.251 -0.2874  1.1869 -0.5841
 1612SOL    HW216296   0.906   3.402   4.398  2.5791 -2.1536 -0.8839
 1613SOL     OW16297   3.393   1.433   1.710  0.1287 -0.0612 -0.6346
 1613SOL    HW116298   3.455   1.506   1.706  0.4225 -0.3699 -1.6160
 1613SOL    HW216299   3.420   1.378   1.784  1.0038  0.6299 -0.4332
 1614SOL     OW16300   2.541   1.862  12.449 -0.7141  0.0139  0.5197
 1614SOL    HW116301   2.510   1.886  12.361  1.6733 -0.5882 -0.4725
 1614SOL    HW216302   2.477   1.897  12.510 -1.2140  0.6226 -0.3535
 1615SOL     OW16303   0.681   3.002   8.855 -0.2849  0.1771 -0.1064
 1615SOL    HW116304   0.680   3.003   8.759 -1.9282 -0.3980 -0.0979
 1615SOL    HW216305   0.689   3.095   8.876  1.5257  0.1000 -0.4892
 1616SOL     OW16306   0.108   0.778   1.052 -0.1495 -0.0114 -0.0210
 1616SOL    HW116307   0.017   0.753   1.066  0.3264 -2.0983 -0.7465
 1616SOL    HW216308   0.148   0.700   1.092 -1.7407 -1.4140 -1.1974
 1617SOL     OW16309   3.108   1.641   8.639  0.7737  0.3416  0.1804
 1617SOL    HW116310   3.028   1.670   8.596 -0.1322  0.9084  2.2336
 1617SOL    HW216311   3.171   1.622   8.570  0.6660 -0.1350  0.2143
 1618SOL     OW16312   3.765   3.230   2.455 -0.0028  0.2351 -0.0726
 1618SOL    HW116313   3.783   3.324   2.455 -2.7234  0.7767 -0.7364
 1618SOL    HW216314   3.845   3.186   2.428  0.5898 -0.1051  2.2351
 1619SOL     OW16315   4.016   2.913   2.892  0.1302 -0.2468  0.2143
 1619SOL    HW116316   4.024   2.960   2.975 -0.2669  0.5205 -0.1878
 1619SOL    HW216317   4.093   2.941   2.844 -0.6156  1.1915 -0.1364
 1620SOL     OW16318   3.418   2.110   6.488 -0.4208 -0.4065 -0.6002
 1620SOL    HW116319   3.345   2.055   6.516 -0.5718 -0.0316 -0.2534
 1620SOL    HW216320   3.432   2.164   6.566  0.5670  1.0102 -1.7536
 1621SOL     OW16321   1.417   1.450   3.908  0.1632  0.1116  0.3415
 1621SOL    HW116322   1.366   1.531   3.908 -1.2876 -0.8210 -2.5506
 1621SOL    HW216323   1.397   1.417   3.996 -1.0092  0.8283  0.3564
 1622SOL     OW16324   3.558   1.874   6.658 -0.0882  0.0005 -0.7733
 1622SOL    HW116325   3.533   1.949   6.712 -0.6030  0.6251 -1.8766
 1622SOL    HW216326   3.478   1.820   6.656  0.0285 -0.1292 -1.6779
 1623SOL     OW16327   2.535   0.298   7.843  0.0307 -0.2946 -0.0143
 1623SOL    HW116328   2.511   0.347   7.921 -0.2219  1.3617 -1.1390
 1623SOL    HW216329   2.524   0.367   7.778  1.1737 -0.3936 -0.3047
 1624SOL     OW16330   2.976   3.313  14.534 -0.0334  0.2936 -0.1385
 1624SOL    HW116331   2.887   3.295  14.565 -0.6377  1.4556 -1.2143
 1624SOL    HW216332   2.987   3.404  14.561  0.5424 -0.1033  0.9619
 1625SOL     OW16333   0.949   2.539   5.434 -0.3917  0.1194 -0.1008
 1625SOL    HW116334   0.869   2.589   5.420 -0.7052 -0.3323  0.0762
 1625SOL    HW216335   0.983   2.574   5.517  0.2844 -0.0839 -0.2886
 1626SOL     OW16336   3.996   3.158   4.191  0.4084  0.2904  0.3076
 1626SOL    HW116337   3.958   3.211   4.121  2.8023  1.2752 -0.2499
 1626SOL    HW216338   3.931   3.089   4.197 -0.7025  1.4842  2.0104
 1627SOL     OW16339   4.521   0.001  17.344  0.4846  0.5064  0.0376
 1627SOL    HW116340   4.437   4.709  17.301  0.1577  2.5289  0.0679
 1627SOL    HW216341   4.581   0.020  17.273  1.4076  2.3879  1.3261
 1628SOL     OW16342   3.872   3.043  14.168  0.4884  0.1864  0.3182
 1628SOL    HW116343   3.852   3.130  14.202 -0.4350 -0.3002  1.0190
 1628SOL    HW216344   3.877   3.065  14.075 -0.3350 -0.3217  0.1551
 1629SOL     OW16345   2.700   1.971   4.582 -0.2271 -0.7770 -0.8415
 1629SOL    HW116346   2.787   1.942   4.610 -0.6439  0.6233  1.9411
 1629SOL    HW216347   2.697   1.922   4.500 -0.0022  0.5425 -1.6344
 1630SOL     OW16348   3.237   0.202   1.948  0.6004 -0.7010  0.1426
 1630SOL    HW116349   3.263   0.233   2.035 -0.1195  0.5050 -0.0750
 1630SOL    HW216350   3.234   0.109   1.972 -1.5411  0.0313  2.6598
 1631SOL     OW16351   1.130   0.027   3.728  0.1810  0.2577  0.2523
 1631SOL    HW116352   1.139   0.029   3.823 -0.5105 -0.0213  0.3192
 1631SOL    HW216353   1.039   0.052   3.715  0.8796  1.9727 -1.4143
 1632SOL     OW16354   4.316   4.517   6.349  0.1085 -0.6670  0.1229
 1632SOL    HW116355   4.333   4.470   6.430  0.7146  1.4652  1.2415
 1632SOL    HW216356   4.374   4.590   6.371 -1.8572  0.7355  0.6616
 1633SOL     OW16357   3.762   1.414  13.178  0.0023 -0.5149  0.0050
 1633SOL    HW116358   3.833   1.420  13.114  1.4205 -2.4061  1.3953
 1633SOL    HW216359   3.681   1.394  13.132  0.5488 -0.4028 -0.9982
 1634SOL     OW16360   1.223   0.866   3.577 -0.3668  0.0738 -0.5073
 1634SOL    HW116361   1.271   0.938   3.617  0.2082 -0.9114  0.5831
 1634SOL    HW216362   1.268   0.829   3.500 -0.4662  3.0960 -2.0248
 1635SOL     OW16363   3.696   2.921   5.618  0.2705  0.1786 -0.1912
 1635SOL    HW116364   3.685   2.872   5.700 -0.9309  0.3194 -0.2681
 1635SOL    HW216365   3.695   2.840   5.566  0.2345 -0.7823  1.3221
 1636SOL     OW16366   0.906   4.680   3.306 -0.6440 -0.1014  0.5722
 1636SOL    HW116367   0.831   0.018   3.312 -1.2581 -0.6713 -1.2939
 1636SOL    HW216368   0.972   0.003   3.359  0.7938 -0.2307 -1.1248
 1637SOL     OW16369   0.423   0.437   6.635  0.3303  0.0748 -0.2111
 1637SOL    HW116370   0.443   0.349   6.606  1.1520  1.2769 -3.3111
 1637SOL    HW216371   0.468   0.431   6.719  0.8350  0.4643 -0.4564
 1638SOL     OW16372   2.182   2.503   7.759 -0.0073  0.3497 -0.2091
 1638SOL    HW116373   2.220   2.539   7.840  0.1719  1.3749 -0.7462
 1638SOL    HW216374   2.096   2.471   7.787  2.1215 -1.8604  3.8888
 1639SOL     OW16375   0.042   2.104   6.095  0.3114 -0.0464  0.0712
 1639SOL    HW116376   0.015   2.188   6.130  2.4576  0.6822 -0.0497
 1639SOL    HW216377   0.094   2.068   6.167  0.6830 -2.1797 -1.2536
 1640SOL     OW16378   3.132   2.219   5.896  0.1073 -0.0905 -0.2184
 1640SOL    HW116379   3.091   2.200   5.980 -0.8281 -0.0837 -0.6733
 1640SOL    HW216380   3.223   2.201   5.920  0.2503 -1.1784 -1.5959
 1641SOL     OW16381   0.555   4.095   5.516 -0.2366 -0.3455 -0.6660
 1641SOL    HW116382   0.576   4.049   5.597 -0.0728  0.6724 -0.1201
 1641SOL    HW216383   0.522   4.182   5.541 -2.2205 -1.3344  0.1816
 1642SOL     OW16384   0.936   1.164   8.889  0.5805  0.6349  0.1218
 1642SOL    HW116385   1.022   1.134   8.917  0.7363 -0.1160 -1.1547
 1642SOL    HW216386   0.925   1.094   8.825 -1.6355  0.5991  0.5462
 1643SOL     OW16387   1.072   2.150  10.537 -0.7518 -0.1942  0.1351
 1643SOL    HW116388   1.033   2.151  10.624  0.4985  0.6587  0.6874
 1643SOL    HW216389   0.999   2.114  10.487  0.1311 -1.8808  0.0755
 1644SOL     OW16390   0.357   0.576   9.589 -0.2870 -0.6210 -0.1671
 1644SOL    HW116391   0.278   0.552   9.638 -0.8007 -0.4723 -0.9190
 1644SOL    HW216392   0.424   0.515   9.619 -0.9634 -0.7125  1.1671
 1645SOL     OW16393   3.452   1.121   0.633  0.4369  0.2652 -0.3258
 1645SOL    HW116394   3.402   1.201   0.648 -2.6563 -1.4531 -1.5524
 1645SOL    HW216395   3.539   1.158   0.649 -0.3357  2.0866 -0.3928
 1646SOL     OW16396   0.747   3.966  17.529 -0.2518 -1.3782 -0.1311
 1646SOL    HW116397   0.700   3.967  17.446  1.1075 -0.2042 -0.8867
 1646SOL    HW216398   0.680   3.981  17.596 -1.6164  0.2372 -1.8568
 1647SOL     OW16399   1.144   1.025   2.122  0.1375 -0.9052 -0.2762
 1647SOL    HW116400   1.180   0.977   2.196 -0.3910  0.3052  0.7590
 1647SOL    HW216401   1.067   0.973   2.102  2.4302 -3.9474 -1.1611
 1648SOL     OW16402   0.240   0.936  12.107 -0.0420 -0.1317  0.5135
 1648SOL    HW116403   0.297   0.913  12.181  2.9062  0.7049 -1.4750
 1648SOL    HW216404   0.262   0.871  12.040  0.3628 -0.2491  0.7604
 1649SOL     OW16405   4.704   0.907   1.717  0.2800  0.1718  0.1152
 1649SOL    HW116406   4.678   0.840   1.654  0.2350 -1.8660  2.3270
 1649SOL    HW216407   4.652   0.983   1.689 -1.9668 -1.4583 -0.1368
 1650SOL     OW16408   2.511   2.744   8.842 -0.3931  0.5664 -0.1183
 1650SOL    HW116409   2.560   2.738   8.924 -0.0453  0.4105 -0.3408
 1650SOL    HW216410   2.535   2.657   8.811  2.7169  0.8117  1.5901
 1651SOL     OW16411   2.464   1.339   6.018 -0.7242  0.2112 -0.5424
 1651SOL    HW116412   2.442   1.411   6.077 -3.5124 -0.6341 -0.5315
 1651SOL    HW216413   2.380   1.293   6.014 -0.9943  0.3841  4.0606
 1652SOL     OW16414   2.616   2.455  15.967 -0.2014 -0.6212  0.2325
 1652SOL    HW116415   2.700   2.410  15.970 -0.7304 -1.5626  0.9998
 1652SOL    HW216416   2.642   2.528  16.023  1.1258 -1.3008  0.4971
 1653SOL     OW16417   1.102   2.025   3.270 -0.0633 -0.4250  0.1934
 1653SOL    HW116418   1.103   1.957   3.202 -0.9171  1.5469 -1.8276
 1653SOL    HW216419   1.077   2.102   3.219  0.8561 -0.3897 -0.2062
 1654SOL     OW16420   0.777   3.974   2.573 -0.0070 -0.3054  0.3281
 1654SOL    HW116421   0.792   3.978   2.667 -2.0958  1.7828  0.5824
 1654SOL    HW216422   0.808   4.060   2.544 -0.0426 -0.6862 -0.8431
 1655SOL     OW16423   2.539   0.272   8.795  0.2998 -0.1509  0.1546
 1655SOL    HW116424   2.527   0.328   8.871 -2.5025 -0.3385 -0.1657
 1655SOL    HW216425   2.621   0.309   8.761 -0.4636  1.0002 -0.4126
 1656SOL     OW16426   3.204   4.521   8.801  0.4071  0.3151  0.5603
 1656SOL    HW116427   3.164   4.590   8.748 -0.3898 -0.1414  0.5698
 1656SOL    HW216428   3.133   4.461   8.823 -1.1073  1.4843 -1.2362
 1657SOL     OW16429   3.051   2.686   7.993 -0.2498  0.7048  0.1871
 1657SOL    HW116430   3.091   2.600   7.982  2.5538  1.8623  1.3028
 1657SOL    HW216431   3.042   2.700   8.087  0.0459 -1.7357  0.5896
 1658SOL     OW16432   1.839   3.104   9.254 -0.1990 -0.1093 -0.1730
 1658SOL    HW116433   1.764   3.132   9.201  1.5290  2.2684 -1.3856
 1658SOL    HW216434   1.913   3.147   9.211  1.7706 -0.4262  2.9103
 1659SOL     OW16435   1.108   1.264   7.261  0.3646 -0.0431 -0.3683
 1659SOL    HW116436   1.022   1.228   7.282 -0.0892 -0.2049 -2.4482
 1659SOL    HW216437   1.103   1.352   7.297 -1.5560  0.1037 -0.9948
 1660SOL     OW16438   4.289   0.472   9.279  0.2012  0.5849 -0.4551
 1660SOL    HW116439   4.278   0.565   9.299  1.4934  0.4544  0.8561
 1660SOL    HW216440   4.251   0.436   9.359 -0.6048 -0.0954 -1.1398
 1661SOL     OW16441   0.419   4.124  17.146  0.3363 -0.0540  0.2793
 1661SOL    HW116442   0.385   4.176  17.219 -1.6276 -2.0888  0.8049
 1661SOL    HW216443   0.495   4.078  17.183  1.3534  1.3202 -0.1154
 1662SOL     OW16444   0.150   1.963   4.689 -0.0019 -0.2071  0.0304
 1662SOL    HW116445   0.217   1.905   4.654 -2.3709 -2.3049 -1.0341
 1662SOL    HW216446   0.075   1.925   4.643 -0.3371 -0.1306  0.5066
 1663SOL     OW16447   1.226   3.575   8.270  0.2643 -1.0313  0.1822
 1663SOL    HW116448   1.155   3.592   8.208  0.2654 -1.0945  0.1630
 1663SOL    HW216449   1.293   3.553   8.205  0.2745 -1.1422  0.2295
 1664SOL     OW16450   4.313   0.686   8.970 -0.3051  0.1263  0.0908
 1664SOL    HW116451   4.358   0.604   8.991  1.3660  1.8867  3.4059
 1664SOL    HW216452   4.302   0.672   8.876  0.2263  2.1047 -0.2523
 1665SOL     OW16453   1.986   4.128   6.343 -0.5195  0.1017  0.9030
 1665SOL    HW116454   1.988   4.221   6.318 -2.2019  0.4006  1.8414
 1665SOL    HW216455   1.893   4.115   6.361 -0.7826  0.4782 -0.1887
 1666SOL     OW16456   4.689   0.680  14.036  0.2880 -0.0793 -0.3427
 1666SOL    HW116457   0.051   0.709  13.997  0.9288 -0.9384  0.3841
 1666SOL    HW216458   4.719   0.610  14.094  0.0335  0.9305  1.0406
 1667SOL     OW16459   1.778   2.245  10.854 -1.1649  0.6461 -0.4939
 1667SOL    HW116460   1.719   2.247  10.779 -3.1274 -1.8234  1.0017
 1667SOL    HW216461   1.857   2.278  10.810 -0.2470 -1.0119 -0.0782
 1668SOL     OW16462   2.793   2.714   2.945  0.1964  0.4530 -0.2152
 1668SOL    HW116463   2.740   2.793   2.947 -0.0377  0.3263 -1.4246
 1668SOL    HW216464   2.793   2.696   2.851  1.2323 -0.0769 -0.1165
 1669SOL     OW16465   0.534   1.448   3.836 -0.0299 -0.1313 -0.5253
 1669SOL    HW116466   0.562   1.490   3.917 -3.4796  0.7806  0.2016
 1669SOL    HW216467   0.462   1.506   3.812 -0.0630 -0.4989 -1.3135
 1670SOL     OW16468   4.243   4.642   2.695  0.5859 -0.0717  0.7521
 1670SOL    HW116469   4.242   4.656   2.790  1.1187  0.9830  0.5990
 1670SOL    HW216470   4.256   4.547   2.695 -1.8572 -0.4212  5.4735
 1671SOL     OW16471   3.395   2.306   3.867 -0.0029 -0.1504 -0.0128
 1671SOL    HW116472   3.479   2.260   3.866 -1.0863 -2.0826 -2.6560
 1671SOL    HW216473   3.376   2.301   3.960 -1.9407  0.1120 -0.3808
 1672SOL     OW16474   0.976   0.118  14.247 -0.3500  0.3962  0.1093
 1672SOL    HW116475   0.884   0.134  14.267 -1.2397 -0.6722 -3.1342
 1672SOL    HW216476   0.991   0.189  14.185 -3.0029  2.0434  1.3194
 1673SOL     OW16477   0.116   0.033   4.123 -0.2056  0.4327  0.0901
 1673SOL    HW116478   0.107   4.707   4.041 -0.8622 -2.4234  1.7820
 1673SOL    HW216479   0.126   4.686   4.190 -2.7229  0.3032  0.3113
 1674SOL     OW16480   4.566   4.129   2.681 -0.1783  0.3711  0.5330
 1674SOL    HW116481   4.503   4.057   2.675  0.2297 -0.1253  2.2654
 1674SOL    HW216482   4.591   4.112   2.772 -2.0938 -1.1494  0.7736
 1675SOL     OW16483   1.726   4.640   1.094  0.3745  0.1847  0.5495
 1675SOL    HW116484   1.715   0.013   1.106  3.1089  0.7103 -1.2683
 1675SOL    HW216485   1.736   4.617   1.187  1.0711  0.5518  0.5637
 1676SOL     OW16486   0.700   3.741  10.738  0.1560  0.4050  0.1485
 1676SOL    HW116487   0.655   3.720  10.657  0.0666  0.0018  0.3043
 1676SOL    HW216488   0.711   3.649  10.759 -2.4581  0.3144  1.0153
 1677SOL     OW16489   2.179   4.080   7.318  0.1842  0.7953 -0.1100
 1677SOL    HW116490   2.240   4.073   7.391 -0.9535 -1.9925  0.5601
 1677SOL    HW216491   2.238   4.117   7.253  0.8369 -0.8603 -0.4508
 1678SOL     OW16492   2.547   3.342  12.256  0.3524 -0.3325  0.3432
 1678SOL    HW116493   2.634   3.359  12.220 -0.3516  2.4305 -0.0578
 1678SOL    HW216494   2.539   3.414  12.319 -0.6489 -0.5276  0.4430
 1679SOL     OW16495   3.907   1.399   4.080 -0.2068  0.1146  0.4893
 1679SOL    HW116496   3.847   1.335   4.042 -0.9218  0.5382  0.9001
 1679SOL    HW216497   3.977   1.361   4.028  1.1445 -1.3116  3.3687
 1680SOL     OW16498   2.447   3.674   8.340  0.0794  0.5098  0.1648
 1680SOL    HW116499   2.361   3.713   8.321 -0.9328 -1.2687  1.0934
 1680SOL    HW216500   2.445   3.585   8.305 -1.6164  0.9108 -0.7433
 1681SOL     OW16501   4.448   4.393   2.710  0.3672  0.7241 -0.4619
 1681SOL    HW116502   4.477   4.311   2.668 -0.2389  0.1704  0.2120
 1681SOL    HW216503   4.531   4.432   2.737 -0.3722  1.2474  1.0116
 1682SOL     OW16504   3.450   0.753   9.295  0.3485 -0.6799  0.2227
 1682SOL    HW116505   3.530   0.746   9.347 -0.0614  1.2898  1.1254
 1682SOL    HW216506   3.380   0.734   9.358  2.2455 -1.2257  2.1640
 1683SOL     OW16507   4.492   1.060   3.836 -0.3979 -0.2044 -0.3682
 1683SOL    HW116508   4.433   0.987   3.855  2.6651 -2.4859  0.2285
 1683SOL    HW216509   4.459   1.110   3.761  1.8483 -0.3498 -1.4343
 1684SOL     OW16510   1.101   3.191  14.365 -0.6023  0.0486 -0.1590
 1684SOL    HW116511   1.010   3.217  14.358 -1.3089 -2.7141 -1.7427
 1684SOL    HW216512   1.126   3.189  14.272  2.5651  0.4418  0.6919
 1685SOL     OW16513   2.565   3.270   6.317 -0.1477 -0.0147 -0.1170
 1685SOL    HW116514   2.602   3.330   6.251 -0.2313  1.0668  0.8168
 1685SOL    HW216515   2.544   3.190   6.269  1.9568 -0.1679 -0.7828
 1686SOL     OW16516   1.089   0.461  15.765  0.1283  0.1750  0.0102
 1686SOL    HW116517   1.070   0.440  15.857  0.1446  0.3706  0.0568
 1686SOL    HW216518   1.047   0.385  15.723 -4.0083  3.0323 -1.0668
 1687SOL     OW16519   2.216   2.350   9.318 -0.0828  0.1919 -0.3736
 1687SOL    HW116520   2.247   2.293   9.248 -0.2826 -1.3806  0.8075
 1687SOL    HW216521   2.120   2.343   9.317 -0.1221  0.1386  1.8221
 1688SOL     OW16522   3.175   2.656   2.268 -0.5535 -0.1344  0.5077
 1688SOL    HW116523   3.247   2.653   2.204 -2.6384 -1.7341 -1.7335
 1688SOL    HW216524   3.168   2.751   2.274  0.2719 -0.0235 -0.2910
 1689SOL     OW16525   0.746   3.074  10.995  0.6737  0.4871  0.5537
 1689SOL    HW116526   0.762   3.122  11.076  1.5893 -0.0408  0.6870
 1689SOL    HW216527   0.802   3.000  11.016  1.5375  1.5054  1.8016
 1690SOL     OW16528   0.575   3.710   2.440 -0.4478  0.3213  0.0291
 1690SOL    HW116529   0.582   3.653   2.364  1.0938 -1.0108  1.1756
 1690SOL    HW216530   0.632   3.782   2.413 -1.9338  2.0326  1.4150
 1691SOL     OW16531   1.871   2.233   6.915 -0.4034  0.8376  0.1233
 1691SOL    HW116532   1.912   2.147   6.926 -1.6399  0.2759  0.3707
 1691SOL    HW216533   1.901   2.238   6.824  1.9585 -0.1616  0.8325
 1692SOL     OW16534   2.189   1.756   4.133  0.5559  0.4646  0.1077
 1692SOL    HW116535   2.255   1.687   4.136  1.6744  1.5031 -0.2214
 1692SOL    HW216536   2.232   1.824   4.185  0.2206 -2.4152  4.0890
 1693SOL     OW16537   0.302   2.360  12.797 -0.3623 -0.3221  0.8416
 1693SOL    HW116538   0.217   2.392  12.766  0.3769  0.4562 -0.3647
 1693SOL    HW216539   0.314   2.384  12.889 -0.6503  1.0512  0.5218
 1694SOL     OW16540   3.498   2.112   6.784 -0.6167 -0.0994  0.1174
 1694SOL    HW116541   3.431   2.115   6.852  0.8795  0.5712  1.5666
 1694SOL    HW216542   3.526   2.203   6.773  0.1877 -0.3456  0.1308
 1695SOL     OW16543   0.536   3.026  10.228 -0.0655  0.4469  0.2337
 1695SOL    HW116544   0.582   3.075  10.161  2.5829 -1.6214  0.5288
 1695SOL    HW216545   0.572   3.074  10.303  0.3689  2.9792 -1.6051
 1696SOL     OW16546   2.645   4.346   5.081 -0.0440 -0.3807 -0.4523
 1696SOL    HW116547   2.686   4.327   5.165 -3.5286  0.0436  1.3555
 1696SOL    HW216548   2.561   4.302   5.097  0.0837 -0.8857 -1.1472
 1697SOL     OW16549   2.976   0.632  15.255  0.2335  0.0104  0.2347
 1697SOL    HW116550   2.998   0.725  15.244 -3.0273  0.9234  1.3973
 1697SOL    HW216551   2.890   0.623  15.214  0.8139  1.6728 -1.3825
 1698SOL     OW16552   4.535   2.321   4.024  0.2570  0.1457 -0.4262
 1698SOL    HW116553   4.592   2.356   4.092  1.2545 -1.9577 -0.1797
 1698SOL    HW216554   4.486   2.265   4.085 -1.3679  1.4515 -0.5253
 1699SOL     OW16555   1.105   3.195   8.826  0.0719 -0.3468  0.5225
 1699SOL    HW116556   1.092   3.261   8.758  2.2118  1.9628  2.3641
 1699SOL    HW216557   1.199   3.205   8.844  0.4516  1.5300 -2.4545
 1700SOL     OW16558   2.244   0.075   1.532 -0.4922  0.1776 -0.0086
 1700SOL    HW116559   2.328   0.072   1.485 -0.2462 -1.8151  0.5358
 1700SOL    HW216560   2.203   4.713   1.507 -0.7905  0.3312 -0.0284
 1701SOL     OW16561   2.562   1.214  14.897 -0.3726  1.0647 -0.2270
 1701SOL    HW116562   2.544   1.125  14.866  0.5726  0.6115  0.4940
 1701SOL    HW216563   2.555   1.198  14.992  4.7378  0.9590  0.1631
 1702SOL     OW16564   3.616   2.546   8.753  0.4220 -0.7487  0.1668
 1702SOL    HW116565   3.531   2.561   8.712  0.4563 -1.2037 -0.0761
 1702SOL    HW216566   3.600   2.472   8.812  1.2270 -0.6459  0.5196
 1703SOL     OW16567   3.270   3.368   2.326 -0.4181  0.1078 -0.6816
 1703SOL    HW116568   3.338   3.301   2.335  0.2892  1.3792  3.2901
 1703SOL    HW216569   3.194   3.321   2.293 -2.3593  1.4954  1.8488
 1704SOL     OW16570   1.388   2.886  16.670  0.0524 -0.1115 -0.1890
 1704SOL    HW116571   1.391   2.858  16.761  0.2725  1.9032  0.4214
 1704SOL    HW216572   1.424   2.975  16.676 -0.0193 -0.2981  3.2244
 1705SOL     OW16573   2.130   1.111  16.014 -0.2251 -0.0197 -0.2303
 1705SOL    HW116574   2.195   1.042  16.027  0.1442  0.2065 -0.8809
 1705SOL    HW216575   2.052   1.074  16.054 -1.0990  0.2337 -1.7100
 1706SOL     OW16576   2.562   3.741   7.928  0.0938  0.1093  0.0127
 1706SOL    HW116577   2.534   3.650   7.938 -2.6646  0.8483 -0.9055
 1706SOL    HW216578   2.636   3.737   7.989 -0.3127 -0.3478  0.4817
 1707SOL     OW16579   0.977   3.517   6.367 -0.2268 -0.5393 -0.5790
 1707SOL    HW116580   1.016   3.435   6.335 -1.0144 -1.0156 -0.3106
 1707SOL    HW216581   0.885   3.500   6.350 -0.0978 -2.0970  0.2722
 1708SOL     OW16582   0.725   2.021   9.832  0.0316 -0.3577 -0.4248
 1708SOL    HW116583   0.666   1.954   9.866 -1.8959  0.7288 -1.6391
 1708SOL    HW216584   0.680   2.033   9.749  1.7077  0.8063 -1.1691
 1709SOL     OW16585   1.605   0.619   4.817 -0.1305  0.0750 -0.3801
 1709SOL    HW116586   1.701   0.624   4.819 -0.2314  1.5427  1.5108
 1709SOL    HW216587   1.580   0.698   4.769 -1.4035 -0.2384 -0.2330
 1710SOL     OW16588   4.575   4.236   4.083  0.4025  0.1839 -0.1792
 1710SOL    HW116589   4.562   4.304   4.017 -1.1340  0.9611  0.8997
 1710SOL    HW216590   4.659   4.196   4.063  1.0058  1.2300  0.2740
 1711SOL     OW16591   0.176   3.604   1.028  0.2590 -0.0757 -0.3119
 1711SOL    HW116592   0.084   3.619   1.050  0.8127  0.6961  1.5156
 1711SOL    HW216593   0.220   3.688   1.042  0.4239 -0.1805 -0.1940
 1712SOL     OW16594   0.259   1.509   7.916 -0.4523  0.8766 -0.5112
 1712SOL    HW116595   0.240   1.537   8.006  0.2814  1.9359 -0.6893
 1712SOL    HW216596   0.305   1.585   7.881 -1.3428  2.0942  0.9407
 1713SOL     OW16597   1.161   1.890   1.955 -0.0620 -0.3341  0.4055
 1713SOL    HW116598   1.252   1.905   1.932  0.2480 -3.0852 -0.0948
 1713SOL    HW216599   1.166   1.905   2.050  1.6121  2.1546 -0.0731
 1714SOL     OW16600   3.104   2.134  17.498 -0.0477 -0.0340 -0.4162
 1714SOL    HW116601   3.127   2.143  17.590 -0.1996  0.1724 -0.3986
 1714SOL    HW216602   3.183   2.153  17.448  0.6056  0.2810  0.7469
 1715SOL     OW16603   2.140   2.749   2.795 -0.5023  0.2741  0.1726
 1715SOL    HW116604   2.086   2.825   2.819  0.7704  1.6437 -1.3102
 1715SOL    HW216605   2.226   2.785   2.819 -0.3391  0.1445 -0.2198
 1716SOL     OW16606   3.897   4.138   7.011  0.4265  0.0263  0.4142
 1716SOL    HW116607   3.953   4.125   6.935 -2.5689 -1.4269 -1.5651
 1716SOL    HW216608   3.902   4.234   7.009  0.9834 -0.0496 -1.9420
 1717SOL     OW16609   3.572   0.124   8.537  0.1530 -0.5215  0.1789
 1717SOL    HW116610   3.537   0.198   8.587  1.2887 -0.1412  0.4098
 1717SOL    HW216611   3.495   0.097   8.487 -0.2796  1.1714 -0.0712
 1718SOL     OW16612   4.557   3.772  10.882 -0.3521 -0.1922  0.2869
 1718SOL    HW116613   4.568   3.845  10.942 -3.1043 -0.8834  1.6403
 1718SOL    HW216614   4.462   3.762  10.878 -0.4282  0.1175  1.2440
 1719SOL     OW16615   4.053   3.843  17.428 -0.6102  0.2443 -0.2012
 1719SOL    HW116616   4.078   3.932  17.452  2.0444 -0.4470 -0.3554
 1719SOL    HW216617   4.135   3.796  17.445  0.0933  1.6802  0.3154
 1720SOL     OW16618   1.029   1.792   7.146  0.2834 -0.0641 -0.7587
 1720SOL    HW116619   0.969   1.733   7.100 -1.3996  1.0206  0.0340
 1720SOL    HW216620   1.084   1.818   7.072 -1.1623  0.2903 -1.7207
 1721SOL     OW16621   1.501   4.046   4.592 -1.0080  0.8912  0.1760
 1721SOL    HW116622   1.547   4.040   4.677 -0.1853  1.0550 -0.2541
 1721SOL    HW216623   1.462   3.958   4.593  0.0814  0.4128  1.9480
 1722SOL     OW16624   1.660   4.537   6.112  0.2043  0.5015 -0.5156
 1722SOL    HW116625   1.671   4.623   6.071  3.4024  0.1571 -0.3611
 1722SOL    HW216626   1.704   4.561   6.194 -2.8170  3.6231  0.2250
 1723SOL     OW16627   1.736   1.739   7.209  0.7078  0.2053 -0.5224
 1723SOL    HW116628   1.656   1.689   7.191 -0.1434  1.2200  0.4032
 1723SOL    HW216629   1.707   1.767   7.296 -0.2686  1.3710 -1.2337
 1724SOL     OW16630   2.715   3.738   4.750 -0.4308 -0.0252  0.5630
 1724SOL    HW116631   2.737   3.724   4.657  0.5508 -0.4625  0.8585
 1724SOL    HW216632   2.793   3.787   4.776 -1.4677  0.9990  1.7461
 1725SOL     OW16633   2.602   3.291  11.839 -0.2163 -0.2331 -0.0238
 1725SOL    HW116634   2.660   3.340  11.897  0.2572 -2.6192  1.5216
 1725SOL    HW216635   2.643   3.311  11.755  1.3885 -1.2014  0.5202
 1726SOL     OW16636   1.063   3.665   5.474 -0.0737 -0.1699  0.0708
 1726SOL    HW116637   1.147   3.620   5.459  0.4047  0.5801  0.4952
 1726SOL    HW216638   1.009   3.590   5.448 -0.6855  0.9413 -1.8498
 1727SOL     OW16639   4.139   2.717   8.985  0.3690 -0.2985  0.6433
 1727SOL    HW116640   4.156   2.623   8.992 -0.1380 -0.4493 -0.2202
 1727SOL    HW216641   4.175   2.742   9.070  1.2576 -1.3521  0.5829
 1728SOL     OW16642   3.607   0.835   4.784 -0.4109 -0.3257 -0.2573
 1728SOL    HW116643   3.579   0.749   4.815  1.0202 -0.4391  0.7228
 1728SOL    HW216644   3.607   0.887   4.865 -1.1691 -1.0695  0.2194
 1729SOL     OW16645   0.792   0.674   3.078 -0.4410 -0.4636  0.6354
 1729SOL    HW116646   0.835   0.737   3.019 -0.5172 -0.8844  0.1329
 1729SOL    HW216647   0.783   0.735   3.151 -1.7050 -0.4325  0.4520
 1730SOL     OW16648   4.435   2.774   2.806  0.4087 -0.5495  0.0695
 1730SOL    HW116649   4.431   2.679   2.801 -1.4644 -0.5745  2.0230
 1730SOL    HW216650   4.517   2.790   2.853  0.7038 -0.1386 -0.5902
 1731SOL     OW16651   0.015   0.994  16.086  0.3118  0.4745 -0.3782
 1731SOL    HW116652   0.098   0.968  16.045  0.8132  1.2269  0.1683
 1731SOL    HW216653   0.010   0.964  16.176 -0.3574  0.3733 -0.4540
 1732SOL     OW16654   2.701   3.911   5.580  0.3899  0.0993  0.0596
 1732SOL    HW116655   2.764   3.975   5.546 -1.2636  1.6838  0.0131
 1732SOL    HW216656   2.726   3.910   5.672 -1.3463  1.9484  0.5392
 1733SOL     OW16657   1.752   2.687  14.011  0.9338 -0.1549 -0.3756
 1733SOL    HW116658   1.793   2.761  14.055 -0.4318 -0.3589  1.2567
 1733SOL    HW216659   1.693   2.728  13.947  1.4117  0.3880 -0.4626
 1734SOL     OW16660   0.754   3.383   9.237 -0.3149  0.5188 -0.2059
 1734SOL    HW116661   0.739   3.455   9.299 -0.2481 -2.0355  2.7946
 1734SOL    HW216662   0.709   3.410   9.157  0.9329 -0.6993 -1.3132
 1735SOL     OW16663   1.790   0.548   7.450  0.2164  0.4867 -0.2877
 1735SOL    HW116664   1.766   0.531   7.541  2.1226 -2.7951 -0.4235
 1735SOL    HW216665   1.737   0.477   7.414 -0.0980  0.5372  0.0743
 1736SOL     OW16666   3.165   0.962   7.067 -0.3643 -0.1113  0.0738
 1736SOL    HW116667   3.071   0.976   7.072 -0.2794  0.0661  1.0200
 1736SOL    HW216668   3.191   1.001   7.150 -0.1426  3.1944 -1.5147
 1737SOL     OW16669   3.926   3.060   5.618  0.5503 -0.1877  0.1054
 1737SOL    HW116670   3.848   3.005   5.627 -0.3233  0.9939 -0.1011
 1737SOL    HW216671   3.875   3.139   5.595  0.7545  0.1099  0.6717
 1738SOL     OW16672   2.545   4.621   7.792  0.3058 -0.4611  0.1126
 1738SOL    HW116673   2.584   4.589   7.710  1.7812 -1.7526  1.3098
 1738SOL    HW216674   2.459   4.638   7.755  0.4258 -1.0553 -0.4431
 1739SOL     OW16675   4.486   2.252   1.682  0.0873  0.0912  0.0759
 1739SOL    HW116676   4.446   2.173   1.718 -0.4737 -0.3396 -1.4864
 1739SOL    HW216677   4.569   2.252   1.729  0.3153 -1.8358 -0.3278
 1740SOL     OW16678   1.907   3.211  13.534 -0.5521 -0.1128  0.2961
 1740SOL    HW116679   2.001   3.230  13.544 -0.9024  1.9602 -0.4043
 1740SOL    HW216680   1.909   3.201  13.439  1.6909 -2.5695  0.5861
 1741SOL     OW16681   3.850   1.779   5.272  0.2123  0.0363 -0.1928
 1741SOL    HW116682   3.811   1.860   5.305  2.4819  0.2365  2.0011
 1741SOL    HW216683   3.795   1.755   5.197 -0.8847 -0.4912  0.7871
 1742SOL     OW16684   2.096   0.663   5.896  0.6835  0.2996  0.3772
 1742SOL    HW116685   2.110   0.752   5.864 -0.4571  1.1217  2.2090
 1742SOL    HW216686   2.002   0.651   5.888  0.8853  0.0104 -1.6654
 1743SOL     OW16687   4.383   3.033   4.407  0.1137 -0.5592  0.0802
 1743SOL    HW116688   4.368   2.940   4.395 -0.5617 -0.4685  0.2605
 1743SOL    HW216689   4.292   3.062   4.411  0.6040  0.7120  2.1141
 1744SOL     OW16690   3.259   0.543   0.323 -0.2038 -0.0725  0.3169
 1744SOL    HW116691   3.182   0.546   0.380  0.2185 -0.5908  0.9289
 1744SOL    HW216692   3.235   0.459   0.284 -0.8500 -0.0320  0.6194
 1745SOL     OW16693   0.067   1.450  11.086 -0.2393  0.3050  0.4785
 1745SOL    HW116694   4.717   1.387  11.096 -1.1713  1.4442  1.0677
 1745SOL    HW216695   0.127   1.414  11.152  0.0537 -0.1829 -0.0562
 1746SOL     OW16696   0.622   1.647  12.418  0.8099 -0.8236  0.1833
 1746SOL    HW116697   0.715   1.640  12.396  0.8945 -2.5378  1.0513
 1746SOL    HW216698   0.621   1.725  12.474 -0.5475  0.3516 -1.4750
 1747SOL     OW16699   4.043   2.478   7.059 -0.1582 -0.4975 -0.2999
 1747SOL    HW116700   4.076   2.497   7.147  0.2846 -0.1710 -0.5324
 1747SOL    HW216701   4.111   2.435   7.007 -0.1413  1.4277 -1.8809
 1748SOL     OW16702   3.577   1.237  14.580  0.3233  0.4449 -0.4194
 1748SOL    HW116703   3.655   1.289  14.559  1.0717 -1.0908 -1.4040
 1748SOL    HW216704   3.603   1.220  14.670 -2.0862  0.5110  0.2706
 1749SOL     OW16705   4.339   3.933   2.629  0.6323  0.4128  0.2301
 1749SOL    HW116706   4.387   3.858   2.595  1.0759 -0.0995  1.9559
 1749SOL    HW216707   4.253   3.906   2.599  0.6632  0.0506  0.4658
 1750SOL     OW16708   2.226   1.056   4.521  0.1017 -0.5757  0.2754
 1750SOL    HW116709   2.162   1.126   4.527 -0.4439 -0.7939 -2.7326
 1750SOL    HW216710   2.308   1.105   4.522 -0.8608  0.9764  1.5872
 1751SOL     OW16711   3.258   3.529   4.563  0.2586 -0.4873 -0.2688
 1751SOL    HW116712   3.214   3.597   4.614 -0.3487  0.6993 -2.3981
 1751SOL    HW216713   3.184   3.505   4.507 -1.7136 -1.4487  2.6912
 1752SOL     OW16714   4.151   3.787   7.700 -0.2113 -0.3056  0.8687
 1752SOL    HW116715   4.232   3.756   7.659 -0.2034 -0.1675  0.7804
 1752SOL    HW216716   4.188   3.798   7.788 -0.6379  0.6230  0.9342
 1753SOL     OW16717   4.021   0.265   2.742 -0.2829 -0.5690 -0.4268
 1753SOL    HW116718   4.030   0.183   2.692 -3.4388 -2.3339  1.8823
 1753SOL    HW216719   3.931   0.268   2.775  0.3533 -0.3935  1.2409
 1754SOL     OW16720   3.606   0.382   8.162  0.7306 -0.2674 -0.3684
 1754SOL    HW116721   3.596   0.370   8.256  0.0393 -0.7602 -0.5016
 1754SOL    HW216722   3.635   0.473   8.163 -1.2822  0.3626  1.3607
 1755SOL     OW16723   1.050   1.167  11.047  0.5762 -0.0173  0.9703
 1755SOL    HW116724   1.013   1.254  11.031  0.6984  0.4047  2.8742
 1755SOL    HW216725   1.108   1.167  10.971  0.0274 -0.4435  0.5610
 1756SOL     OW16726   0.953   4.372   2.298 -0.2091 -0.0128  0.3822
 1756SOL    HW116727   0.991   4.320   2.227 -2.2090 -0.1417 -0.5896
 1756SOL    HW216728   0.882   4.425   2.262  0.4094  1.4295  1.3030
 1757SOL     OW16729   3.592   1.494  10.677 -0.3774 -0.2739  0.2547
 1757SOL    HW116730   3.686   1.480  10.684 -0.3240 -0.0122  0.0496
 1757SOL    HW216731   3.581   1.587  10.697  0.7951  0.3960 -2.3547
 1758SOL     OW16732   2.991   4.523   4.862  0.7581 -0.2748  0.1270
 1758SOL    HW116733   2.914   4.580   4.864  0.8560 -0.1890  1.5252
 1758SOL    HW216734   3.044   4.563   4.793 -0.3138 -1.3717 -1.3489
 1759SOL     OW16735   0.490   3.476   0.675 -0.5087  0.4641  0.4028
 1759SOL    HW116736   0.452   3.419   0.608 -0.5723  2.9228 -1.6733
 1759SOL    HW216737   0.432   3.447   0.746  1.8026  1.1400  2.5362
 1760SOL     OW16738   1.928   0.328   5.495  0.2453  0.0884 -0.0949
 1760SOL    HW116739   2.009   0.368   5.462 -0.4443  2.2214  0.7794
 1760SOL    HW216740   1.877   0.299   5.420 -0.0887 -0.0595  0.1914
 1761SOL     OW16741   4.510   3.643   6.470 -0.2850 -0.0253 -0.0109
 1761SOL    HW116742   4.585   3.703   6.464 -0.0699 -0.0059  2.6580
 1761SOL    HW216743   4.530   3.587   6.395  1.0156 -0.6560  0.7915
 1762SOL     OW16744   3.646   0.771   4.058 -0.3169 -0.4582  0.1280
 1762SOL    HW116745   3.724   0.820   4.029 -1.3169 -0.9360 -3.3364
 1762SOL    HW216746   3.634   0.794   4.150  1.0486 -1.1237  0.4789
 1763SOL     OW16747   2.457   0.088   3.438  0.4556  0.2567 -0.2111
 1763SOL    HW116748   2.479   0.010   3.386 -1.0816 -0.7153  0.6265
 1763SOL    HW216749   2.393   0.124   3.377  0.5166 -0.3448 -0.6400
 1764SOL     OW16750   1.528   2.283   0.525 -0.0436 -0.5060  0.3531
 1764SOL    HW116751   1.547   2.374   0.545 -1.2410  0.1068 -1.3802
 1764SOL    HW216752   1.447   2.299   0.479 -1.5426 -2.2139  2.3756
 1765SOL     OW16753   1.372   4.489  17.064  0.1944  0.2470  0.6232
 1765SOL    HW116754   1.457   4.458  17.094 -0.2281  0.8228  2.4388
 1765SOL    HW216755   1.307   4.444  17.118  0.9001  0.6288  1.7919
 1766SOL     OW16756   4.169   1.251   5.692  0.0333  0.1649  0.0008
 1766SOL    HW116757   4.113   1.197   5.748 -1.5826  1.4399 -0.3842
 1766SOL    HW216758   4.164   1.326   5.750 -1.8460 -1.0534  1.4052
 1767SOL     OW16759   2.032   1.052  10.036  0.0067  0.4064  0.1827
 1767SOL    HW116760   2.088   1.006   9.973  0.1272 -0.1146  0.6772
 1767SOL    HW216761   2.053   1.145  10.027 -0.6282  0.8902  3.8980
 1768SOL     OW16762   2.138   3.698   5.497  0.1949  0.2314  0.0284
 1768SOL    HW116763   2.165   3.611   5.527  0.8378  0.0219 -1.1769
 1768SOL    HW216764   2.086   3.728   5.572 -1.5589  1.6007 -1.7290
 1769SOL     OW16765   0.599   3.606   5.398  0.1573 -0.0893  0.3186
 1769SOL    HW116766   0.594   3.701   5.393 -0.2564 -0.1772 -1.0429
 1769SOL    HW216767   0.612   3.591   5.492  1.6614  0.0501  0.1350
 1770SOL     OW16768   0.203   2.171   4.138 -0.1343 -0.0561  0.6910
 1770SOL    HW116769   0.123   2.150   4.090  0.5006 -1.2821  0.1767
 1770SOL    HW216770   0.209   2.095   4.196  0.9935 -1.8218 -1.7580
 1771SOL     OW16771   2.982   3.327   6.501  0.0345  0.0223  0.4396
 1771SOL    HW116772   3.001   3.404   6.447 -0.9672 -0.8761 -1.2145
 1771SOL    HW216773   2.944   3.362   6.581  0.2198 -0.0657  0.5656
 1772SOL     OW16774   3.829   0.211   2.415  0.0667  0.0027 -0.0253
 1772SOL    HW116775   3.869   0.245   2.335 -0.3390 -0.4737 -0.4294
 1772SOL    HW216776   3.859   0.291   2.458  1.0787 -0.2703 -0.2193
 1773SOL     OW16777   2.265   0.367  12.887 -0.5946  0.2867 -0.0415
 1773SOL    HW116778   2.329   0.340  12.952 -0.2811  2.5329  0.5767
 1773SOL    HW216779   2.228   0.440  12.936 -4.1693 -1.5307 -0.0001
 1774SOL     OW16780   4.400   2.284   6.655 -0.5397 -0.0638 -0.0870
 1774SOL    HW116781   4.436   2.261   6.740  2.8571  1.6424 -1.0743
 1774SOL    HW216782   4.319   2.331   6.673  0.3717  0.4760  2.4859
 1775SOL     OW16783   2.962   2.517   1.220 -0.0794 -0.2769  0.7476
 1775SOL    HW116784   2.926   2.472   1.144  2.7892 -0.0268 -0.7359
 1775SOL    HW216785   2.931   2.607   1.209  1.3878  0.1049 -0.1740
 1776SOL     OW16786   3.068   3.476   4.303 -0.0382 -0.5006 -0.0155
 1776SOL    HW116787   3.026   3.448   4.222 -1.0302  0.6589  0.0953
 1776SOL    HW216788   3.067   3.570   4.284  0.3887 -0.5194 -0.1363
 1777SOL     OW16789   2.603   1.123  10.844  0.1562  0.8155 -0.5397
 1777SOL    HW116790   2.670   1.120  10.776  1.4218  0.1872  0.7005
 1777SOL    HW216791   2.521   1.113  10.797 -0.3078  0.1138  0.4054
 1778SOL     OW16792   3.026   0.914   8.294 -0.3906 -0.4638  0.3583
 1778SOL    HW116793   2.962   0.971   8.336  0.8430  1.6349 -0.6075
 1778SOL    HW216794   3.024   0.836   8.349  0.1441 -0.5912  0.1990
 1779SOL     OW16795   0.453   3.733   6.176 -0.2335 -1.0601 -0.8119
 1779SOL    HW116796   0.480   3.761   6.089 -2.7424  1.3962 -0.8313
 1779SOL    HW216797   0.475   3.805   6.235  0.8571 -2.0006 -0.0920
 1780SOL     OW16798   0.622   1.724   6.955 -0.3022  0.3435 -0.0203
 1780SOL    HW116799   0.686   1.794   6.940  0.5564  0.3138  3.5812
 1780SOL    HW216800   0.545   1.752   6.905  0.7827 -0.7967 -2.3718
 1781SOL     OW16801   3.180   4.644  11.687  0.1810  0.4884  0.2192
 1781SOL    HW116802   3.266   4.686  11.683  0.1842  0.5687  1.0772
 1781SOL    HW216803   3.138   4.684  11.611  3.0954  2.2849 -0.4455
 1782SOL     OW16804   2.030   0.310   7.411  0.3609 -0.0403 -0.4415
 1782SOL    HW116805   1.948   0.267   7.386  1.8726 -3.9493  1.2822
 1782SOL    HW216806   2.061   0.325   7.322  0.0597  1.0228 -0.3640
 1783SOL     OW16807   0.271   3.501   8.073 -0.3580 -0.4038 -0.3402
 1783SOL    HW116808   0.279   3.589   8.038 -2.7098 -0.2427 -0.4340
 1783SOL    HW216809   0.211   3.508   8.148  0.1165  0.8857 -0.0776
 1784SOL     OW16810   1.116   0.201   5.918 -0.2043  0.1452 -0.1348
 1784SOL    HW116811   1.187   0.169   5.862 -0.7668  0.4038 -0.9959
 1784SOL    HW216812   1.101   0.123   5.971  1.5238  1.2337  1.9407
 1785SOL     OW16813   3.274   0.265   3.136 -0.5143  0.0439 -0.5955
 1785SOL    HW116814   3.223   0.201   3.186 -0.1238  0.6895  0.6528
 1785SOL    HW216815   3.337   0.284   3.206 -1.2241  0.4287 -0.0503
 1786SOL     OW16816   3.302   0.551   7.372  0.7857  0.8444  0.3809
 1786SOL    HW116817   3.291   0.623   7.309  1.1466  0.8979  0.3787
 1786SOL    HW216818   3.392   0.565   7.403  0.4023  1.1741  1.3480
 1787SOL     OW16819   3.205   0.300   6.241  0.2944  0.0034 -0.3199
 1787SOL    HW116820   3.122   0.252   6.245  1.7653 -2.6495 -1.3192
 1787SOL    HW216821   3.176   0.373   6.295 -0.9942 -1.3966  0.8963
 1788SOL     OW16822   2.679   4.232   6.685  0.0961 -0.0144 -0.7783
 1788SOL    HW116823   2.596   4.277   6.671 -0.2128 -0.8203 -1.5102
 1788SOL    HW216824   2.699   4.243   6.778 -1.9319 -1.0763 -0.2081
 1789SOL     OW16825   0.639   2.156   1.127  0.1232 -0.4822 -0.1450
 1789SOL    HW116826   0.596   2.171   1.043 -1.7083  0.2102  0.9315
 1789SOL    HW216827   0.728   2.131   1.100  0.2881  0.0095 -0.0538
 1790SOL     OW16828   2.047   1.955  11.047  0.0512 -0.1342  0.3275
 1790SOL    HW116829   2.038   1.887  11.114 -3.5115  0.1969  0.1599
 1790SOL    HW216830   2.067   2.036  11.093 -1.5496  1.1043 -1.1711
 1791SOL     OW16831   3.430   3.621   8.646  0.4016 -0.3294  0.6597
 1791SOL    HW116832   3.510   3.575   8.620 -0.9508 -1.5651 -1.3497
 1791SOL    HW216833   3.403   3.569   8.722  2.4134 -0.8293  1.0182
 1792SOL     OW16834   1.994   1.900  16.856 -0.1507  0.3216  0.2085
 1792SOL    HW116835   1.970   1.840  16.926 -0.5786  2.0404  1.5292
 1792SOL    HW216836   2.081   1.918  16.893  1.2513 -3.6634 -1.1294
 1793SOL     OW16837   3.885   3.958   5.998 -0.0323 -0.2895  0.8013
 1793SOL    HW116838   3.854   3.868   6.006 -2.5938  0.3988 -1.7784
 1793SOL    HW216839   3.926   3.968   6.084  0.1383 -1.7300  0.8974
 1794SOL     OW16840   1.770   3.958  15.061  0.4651 -0.3643 -0.3089
 1794SOL    HW116841   1.797   3.952  15.153 -0.1166 -0.9648 -0.1744
 1794SOL    HW216842   1.853   3.990  15.027  0.1117  1.5440  0.6504
 1795SOL     OW16843   0.852   2.478   8.522 -0.5203 -0.6853 -0.5155
 1795SOL    HW116844   0.896   2.453   8.604 -1.7475  1.4088  0.7874
 1795SOL    HW216845   0.774   2.424   8.527 -0.1927 -1.1326 -0.2041
 1796SOL     OW16846   3.056   1.343  13.364 -0.0767 -0.2324  0.2220
 1796SOL    HW116847   2.988   1.346  13.432  0.3531  3.6873  0.4925
 1796SOL    HW216848   3.045   1.258  13.323  1.2463 -0.2694 -0.0423
 1797SOL     OW16849   0.913   3.147  10.325 -0.3568  0.0944  0.2137
 1797SOL    HW116850   0.831   3.125  10.369 -1.2133 -0.8135 -1.7928
 1797SOL    HW216851   0.969   3.093  10.380 -1.1053  1.3440  2.1811
 1798SOL     OW16852   4.501   0.685  14.451 -0.0014  0.5377 -0.2123
 1798SOL    HW116853   4.519   0.726  14.535  3.2580 -0.1646 -0.5843
 1798SOL    HW216854   4.590   0.682  14.416  0.2168 -1.1028  0.4429
 1799SOL     OW16855   1.442   4.369   1.829  0.1658  0.5193  0.1364
 1799SOL    HW116856   1.433   4.350   1.736 -0.3712 -1.6742  0.6237
 1799SOL    HW216857   1.466   4.461   1.824  0.2301  0.4520 -0.7483
 1800SOL     OW16858   2.224   0.132   2.047 -0.0027 -0.2999 -0.1191
 1800SOL    HW116859   2.318   0.118   2.043 -0.1625 -1.3196 -0.2232
 1800SOL    HW216860   2.216   0.166   1.958 -0.9377  1.9260  0.7934
 1801SOL     OW16861   1.154   2.930   7.407 -0.0469  0.0748 -0.3207
 1801SOL    HW116862   1.227   2.989   7.421  0.3432 -0.8044  1.3638
 1801SOL    HW216863   1.166   2.847   7.454 -0.7359 -0.0250 -0.3197
 1802SOL     OW16864   2.626   2.553   4.738 -0.2776 -0.6761  0.5305
 1802SOL    HW116865   2.540   2.517   4.759  0.7216 -2.8898  0.8334
 1802SOL    HW216866   2.678   2.480   4.703  0.4487  0.4384 -0.7095
 1803SOL     OW16867   3.794   0.657   6.701  0.4112  0.6521  0.1764
 1803SOL    HW116868   3.845   0.651   6.782 -0.1076  0.8704  0.5174
 1803SOL    HW216869   3.731   0.722   6.732 -0.7765 -0.2486 -0.3377
 1804SOL     OW16870   2.150   3.214  10.045 -0.2065 -0.8139 -0.0759
 1804SOL    HW116871   2.085   3.150  10.072  0.6410 -1.4354  0.4932
 1804SOL    HW216872   2.174   3.176   9.960 -2.2670 -0.8952 -0.6185
 1805SOL     OW16873   2.876   3.932   9.002  0.1619  0.1497  0.0770
 1805SOL    HW116874   2.830   3.914   8.921  1.6193 -2.2286 -0.2150
 1805SOL    HW216875   2.830   4.010   9.035  1.8572  2.0108 -1.8972
 1806SOL     OW16876   0.104   3.641   5.509 -0.2917  0.2358  0.1232
 1806SOL    HW116877   0.037   3.708   5.526 -0.6401 -0.3700  1.1380
 1806SOL    HW216878   0.184   3.690   5.528  1.3052 -3.0394  1.7899
 1807SOL     OW16879   3.626   3.272   8.494  0.5404  0.3509 -0.2603
 1807SOL    HW116880   3.586   3.247   8.411 -2.9413  2.3867  0.8127
 1807SOL    HW216881   3.639   3.189   8.540  1.1142 -0.1347 -1.3053
 1808SOL     OW16882   1.222   3.215  12.235  1.0437 -0.0273 -0.0524
 1808SOL    HW116883   1.137   3.253  12.209  1.8056  0.0627 -2.4046
 1808SOL    HW216884   1.192   3.145  12.294  2.1043 -0.6628 -0.2748
 1809SOL     OW16885   4.676   0.371   7.005  0.3339 -0.0644 -0.1293
 1809SOL    HW116886   0.047   0.393   7.020  0.1610  0.0193  0.8257
 1809SOL    HW216887   4.666   0.356   6.911 -1.2415 -1.3945  0.2427
 1810SOL     OW16888   4.496   1.618   9.027 -0.2232 -0.2224  0.1689
 1810SOL    HW116889   4.470   1.704   9.061 -0.4952  0.1409 -0.9630
 1810SOL    HW216890   4.418   1.562   9.027 -0.1649 -0.3240  1.7461
 1811SOL     OW16891   3.141   1.684   7.166  0.1597  0.5659  0.1053
 1811SOL    HW116892   3.129   1.732   7.084 -0.2304  0.1572 -0.0805
 1811SOL    HW216893   3.200   1.619   7.127  0.1475 -0.0111  1.0485
 1812SOL     OW16894   3.848   0.710   7.793 -0.9473  0.0121  0.4068
 1812SOL    HW116895   3.935   0.683   7.821 -1.2741 -3.1375 -1.7029
 1812SOL    HW216896   3.864   0.701   7.699 -0.0016  1.1028  0.4559
 1813SOL     OW16897   2.154   4.396   5.736  0.2899  0.5084 -0.3789
 1813SOL    HW116898   2.224   4.460   5.719 -0.9097  1.6233 -1.0996
 1813SOL    HW216899   2.211   4.319   5.740  0.2733  0.5428  0.5994
 1814SOL     OW16900   2.315   3.192   7.748 -0.0495  0.5413  0.7108
 1814SOL    HW116901   2.283   3.109   7.714 -2.2309  2.4936 -1.9944
 1814SOL    HW216902   2.231   3.233   7.769 -0.8183 -0.6708  0.0227
 1815SOL     OW16903   2.782   0.891   3.136 -0.2926 -0.1721 -0.2760
 1815SOL    HW116904   2.831   0.960   3.090 -0.0108  0.6850  1.3222
 1815SOL    HW216905   2.741   0.844   3.063 -0.5818  0.0138 -0.2334
 1816SOL     OW16906   1.166   1.213   2.911  0.2087 -0.2925 -0.3229
 1816SOL    HW116907   1.143   1.236   3.001  0.2108  1.3593 -0.7348
 1816SOL    HW216908   1.260   1.212   2.925  0.1015 -0.2564  0.4103
 1817SOL     OW16909   4.561   2.524   2.267  0.3421 -0.0891 -0.2187
 1817SOL    HW116910   4.606   2.540   2.184 -1.0012  1.0242 -0.7361
 1817SOL    HW216911   4.617   2.572   2.327 -0.5516  0.8300 -0.1279
 1818SOL     OW16912   2.396   1.196   6.840 -0.5704  0.2857  0.2998
 1818SOL    HW116913   2.329   1.221   6.777  3.2649  0.5741 -3.6832
 1818SOL    HW216914   2.416   1.113   6.796 -0.9093 -0.2931  1.2510
 1819SOL     OW16915   1.750   0.650   3.013 -0.6341 -0.2818 -1.0201
 1819SOL    HW116916   1.657   0.640   3.036 -0.5770  1.4550  0.0156
 1819SOL    HW216917   1.795   0.625   3.094  0.4993  2.4954 -0.7998
 1820SOL     OW16918   1.483   2.176   6.757 -0.0023 -0.1598  0.2908
 1820SOL    HW116919   1.557   2.117   6.748 -0.5823 -0.6851 -1.0876
 1820SOL    HW216920   1.516   2.241   6.820 -0.6122 -0.0358  0.4839
 1821SOL     OW16921   2.857   2.099   5.703  0.5728 -0.7775  0.2191
 1821SOL    HW116922   2.946   2.134   5.700  0.1099  0.4894  1.6457
 1821SOL    HW216923   2.854   2.076   5.795  1.3297  0.9032  0.6515
 1822SOL     OW16924   1.734   1.503   8.174 -0.0765  0.1099  0.3490
 1822SOL    HW116925   1.758   1.574   8.115 -2.9278  3.0933  2.8041
 1822SOL    HW216926   1.736   1.419   8.128 -0.4816  1.0953 -1.4198
 1823SOL     OW16927   4.158   3.801   6.652  0.5434  0.3859  0.0492
 1823SOL    HW116928   4.118   3.737   6.593  0.7314 -0.3604  0.7215
 1823SOL    HW216929   4.082   3.845   6.690  0.3503 -0.1268  0.2592
 1824SOL     OW16930   4.206   2.745   9.270 -0.0994 -0.5945  0.1324
 1824SOL    HW116931   4.264   2.676   9.302 -1.0522 -2.4047 -2.0031
 1824SOL    HW216932   4.232   2.821   9.322 -0.5855 -0.4388  0.1436
 1825SOL     OW16933   1.854   2.402   4.519 -0.5092 -0.0382  0.3073
 1825SOL    HW116934   1.924   2.338   4.509 -0.1582  0.2900  0.6551
 1825SOL    HW216935   1.787   2.348   4.560  2.3528 -1.9049  2.5073
 1826SOL     OW16936   3.520   0.337   4.455 -0.0363  0.2678 -0.5924
 1826SOL    HW116937   3.491   0.256   4.498  0.6012 -0.4964 -1.5988
 1826SOL    HW216938   3.540   0.398   4.526  0.3984 -2.8235  1.9195
 1827SOL     OW16939   0.148   4.380  13.030 -0.0445  0.1191 -0.0914
 1827SOL    HW116940   0.172   4.406  12.941  3.7203 -3.4508 -0.1030
 1827SOL    HW216941   0.213   4.311  13.042  0.0668 -0.1787 -2.3784
 1828SOL     OW16942   3.755   2.175   5.341 -0.0324  0.4074 -0.8208
 1828SOL    HW116943   3.729   2.247   5.398  0.1675 -0.0083 -0.2142
 1828SOL    HW216944   3.833   2.211   5.300  0.4210  1.6315  1.1214
 1829SOL     OW16945   3.863   0.638  13.193  0.3757  0.6665 -0.0036
 1829SOL    HW116946   3.868   0.544  13.209 -1.7655  0.5451 -0.0152
 1829SOL    HW216947   3.767   0.640  13.193  0.3491 -0.8706  0.4818
 1830SOL     OW16948   1.895   2.762   2.414  0.2725  0.1984  0.2606
 1830SOL    HW116949   1.962   2.829   2.401 -0.7711  1.4818  1.4726
 1830SOL    HW216950   1.823   2.825   2.419 -0.4241 -0.3147 -3.5077
 1831SOL     OW16951   1.543   3.876  17.191 -0.2001 -0.5680 -0.7623
 1831SOL    HW116952   1.625   3.912  17.158  0.3223 -0.5749  0.5103
 1831SOL    HW216953   1.503   3.942  17.247 -0.8731  0.0715 -2.0053
 1832SOL     OW16954   4.223   4.478   8.037  0.2420  0.1331 -0.1034
 1832SOL    HW116955   4.271   4.419   7.978  1.6789  1.4157 -0.1952
 1832SOL    HW216956   4.203   4.553   7.981  0.6438  0.2269 -0.1233
 1833SOL     OW16957   0.306   3.145   5.877 -0.1080  0.0985 -0.8215
 1833SOL    HW116958   0.288   3.217   5.816  1.3605  0.3941 -0.9192
 1833SOL    HW216959   0.337   3.197   5.951  0.1742 -0.9314 -0.2106
 1834SOL     OW16960   0.878   2.721   7.949 -0.1846 -0.4055  0.0078
 1834SOL    HW116961   0.827   2.687   7.876 -0.4614  1.0925 -0.5041
 1834SOL    HW216962   0.875   2.649   8.012 -0.7779  0.2246  0.6953
 1835SOL     OW16963   4.106   4.555   3.909 -0.5962 -0.2589  0.5470
 1835SOL    HW116964   4.084   4.604   3.830 -4.2260 -1.1390  0.9918
 1835SOL    HW216965   4.109   4.468   3.871 -0.1958 -0.4375  0.9841
 1836SOL     OW16966   3.896   0.360  13.148 -0.5084  0.1162 -0.9888
 1836SOL    HW116967   3.953   0.355  13.072 -1.4750 -0.2775 -1.6817
 1836SOL    HW216968   3.954   0.346  13.224  0.7358 -1.0594 -2.1574
 1837SOL     OW16969   3.002   0.555  11.386  0.1471  0.2093  0.3589
 1837SOL    HW116970   3.000   0.460  11.378  1.0562  0.0748  1.6101
 1837SOL    HW216971   2.934   0.579  11.324  0.9401  0.0028 -0.5938
 1838SOL     OW16972   0.937   2.936  11.188  0.3970  0.5937 -0.0873
 1838SOL    HW116973   0.927   2.957  11.281 -2.2105 -1.8971  0.2048
 1838SOL    HW216974   0.917   2.843  11.174  1.3977  0.3011  0.4800
 1839SOL     OW16975   4.494   3.710   8.514 -0.4924 -0.4070  0.2758
 1839SOL    HW116976   4.414   3.708   8.565 -1.4830  0.8314 -1.1993
 1839SOL    HW216977   4.547   3.776   8.560 -2.3374  1.9908 -1.0495
 1840SOL     OW16978   3.546   0.068  11.341  0.1582 -0.1165  0.2949
 1840SOL    HW116979   3.622   0.124  11.355  0.1880  0.3828 -1.9763
 1840SOL    HW216980   3.588   4.703  11.347  1.2061  0.4131  0.5235
 1841SOL     OW16981   0.130   3.014   1.123  0.1523 -0.0027  0.3481
 1841SOL    HW116982   0.037   3.015   1.100  0.3857 -1.6633 -0.6279
 1841SOL    HW216983   0.129   2.961   1.203 -2.8168 -1.3843 -0.6096
 1842SOL     OW16984   4.632   1.894   6.367  0.0030 -0.0883  0.0077
 1842SOL    HW116985   4.664   1.973   6.323 -1.3960  0.7125  0.4279
 1842SOL    HW216986   4.588   1.930   6.445  2.1419  0.6774  0.8493
 1843SOL     OW16987   3.409   1.611   0.838 -0.4232  0.3133  1.2060
 1843SOL    HW116988   3.469   1.680   0.868 -0.2698  0.5916  0.2715
 1843SOL    HW216989   3.468   1.537   0.823 -1.3204 -0.4647  1.5573
 1844SOL     OW16990   0.681   3.270   8.871 -0.4049  0.0028 -0.3610
 1844SOL    HW116991   0.735   3.325   8.928 -1.3644  0.1965  0.3710
 1844SOL    HW216992   0.673   3.329   8.796 -0.8134 -0.9316 -1.0583
 1845SOL     OW16993   0.957   4.227   5.363  0.5370 -0.2962 -0.6079
 1845SOL    HW116994   1.019   4.188   5.301  1.4643 -0.8417  0.6596
 1845SOL    HW216995   0.978   4.182   5.445 -1.5784  3.9741  2.2442
 1846SOL     OW16996   1.612   0.362   7.411  0.6785 -0.0813 -0.2960
 1846SOL    HW116997   1.551   0.430   7.439 -0.1900 -0.2590 -1.7479
 1846SOL    HW216998   1.553   0.338   7.339 -2.4233  1.7912  1.6468
 1847SOL     OW16999   2.298   0.835   2.434 -0.2237 -0.0704  0.4235
 1847SOL    HW117000   2.306   0.755   2.485  2.1678  0.5600  1.0031
 1847SOL    HW217001   2.204   0.856   2.436 -0.3009 -0.1612 -2.3555
 1848SOL     OW17002   1.840   1.567  15.429  0.2737  0.3046  0.5239
 1848SOL    HW117003   1.852   1.586  15.522 -1.7692  1.1924  0.5977
 1848SOL    HW217004   1.874   1.645  15.385 -1.2083 -0.5337 -2.0599
 1849SOL     OW17005   1.022   1.063   8.301 -0.0647  0.1050 -0.0488
 1849SOL    HW117006   1.027   1.150   8.341 -0.4331  0.1201 -0.0280
 1849SOL    HW217007   1.009   1.028   8.390 -0.5144 -0.7211 -0.4411
 1850SOL     OW17008   1.096   4.049  14.900  0.5564  0.0751  0.2590
 1850SOL    HW117009   1.034   4.087  14.962  0.9314  1.2403 -0.0824
 1850SOL    HW217010   1.072   4.100  14.822  1.0780  1.1634  0.8106
 1851SOL     OW17011   3.975   0.444   3.185  0.7083 -0.0347  0.2345
 1851SOL    HW117012   3.942   0.533   3.196 -3.9685 -1.3869 -2.6795
 1851SOL    HW217013   4.054   0.462   3.133 -0.2415  0.8368 -0.9117
 1852SOL     OW17014   0.296   2.446   2.288 -0.2850 -0.4042  0.0683
 1852SOL    HW117015   0.216   2.494   2.267  0.4278  1.1474  0.8956
 1852SOL    HW217016   0.253   2.360   2.296 -1.5476  0.2419  0.2789
 1853SOL     OW17017   3.785   0.209  17.397 -0.0605 -0.3356  0.4237
 1853SOL    HW117018   3.823   0.280  17.345 -1.3254 -1.6527 -2.3301
 1853SOL    HW217019   3.783   0.142  17.328  0.4321  1.2423 -1.1424
 1854SOL     OW17020   4.181   0.443   3.022 -0.1919  0.2176  0.2270
 1854SOL    HW117021   4.162   0.356   2.987  1.6249 -0.4390  0.8498
 1854SOL    HW217022   4.267   0.418   3.057 -0.5439 -0.6512  0.4862
 1855SOL     OW17023   4.316   1.801  12.618  0.1101 -0.2277  0.3781
 1855SOL    HW117024   4.311   1.893  12.595  0.0058  0.2582  2.3407
 1855SOL    HW217025   4.387   1.791  12.681  0.8166 -0.4845 -0.4708
 1856SOL     OW17026   0.580   2.492   6.292 -0.2592 -0.0611 -0.2771
 1856SOL    HW117027   0.496   2.536   6.302 -0.1100  0.2485 -0.4066
 1856SOL    HW217028   0.589   2.450   6.377  3.7875  1.4960  0.0977
 1857SOL     OW17029   1.043   3.402  14.120  0.0843 -0.2007 -0.0025
 1857SOL    HW117030   1.039   3.470  14.052  0.4685 -1.9519 -1.7890
 1857SOL    HW217031   1.135   3.398  14.144  0.3758  0.3530 -1.0013
 1858SOL     OW17032   0.521   2.697  14.464  0.0106 -0.6475  0.4545
 1858SOL    HW117033   0.479   2.769  14.417 -2.0983 -0.7317  2.1925
 1858SOL    HW217034   0.611   2.710  14.434 -0.3194 -0.7610 -0.6113
 1859SOL     OW17035   1.138   4.104   1.119 -0.7239  0.1743  0.4027
 1859SOL    HW117036   1.058   4.133   1.163 -0.7664 -1.0352  1.1037
 1859SOL    HW217037   1.186   4.187   1.115  1.0245 -0.8788 -0.4783
 1860SOL     OW17038   3.876   4.417   4.388  0.0257  0.4719  0.3412
 1860SOL    HW117039   3.912   4.375   4.310 -0.9644  0.5943 -0.1759
 1860SOL    HW217040   3.798   4.457   4.350 -0.9381 -2.4731 -0.6991
 1861SOL     OW17041   2.871   3.765   3.058 -0.3132 -0.1129 -0.0751
 1861SOL    HW117042   2.868   3.743   3.151  0.6060  2.0610  0.4699
 1861SOL    HW217043   2.879   3.677   3.022 -2.1072 -0.9869  1.6314
 1862SOL     OW17044   1.673   1.347   1.690 -0.3040  0.0677 -0.6631
 1862SOL    HW117045   1.633   1.430   1.717 -2.5278 -0.9881 -0.6836
 1862SOL    HW217046   1.740   1.371   1.625  0.9122 -0.3031  0.4645
 1863SOL     OW17047   3.011   2.859   4.869  0.2273  0.1364 -0.2572
 1863SOL    HW117048   3.046   2.909   4.795  2.9867 -2.4919 -0.7265
 1863SOL    HW217049   2.920   2.854   4.839  0.6846 -0.3373 -1.5552
 1864SOL     OW17050   2.009   2.252   6.190  0.3783  0.1283 -0.1754
 1864SOL    HW117051   1.916   2.271   6.179 -0.0680 -0.4645  2.5555
 1864SOL    HW217052   2.012   2.157   6.176  1.5256  0.0844  0.3653
 1865SOL     OW17053   3.180   0.538  12.518 -0.0934  0.0532 -0.6300
 1865SOL    HW117054   3.086   0.556  12.515  0.1469  1.5845  1.1017
 1865SOL    HW217055   3.171   0.477  12.445 -0.0778 -1.3991  0.5630
 1866SOL     OW17056   1.588   4.331   6.282 -0.1331 -0.1934  0.2317
 1866SOL    HW117057   1.495   4.333   6.258  0.1471  2.5052 -0.6143
 1866SOL    HW217058   1.625   4.411   6.243 -0.6652  0.1351  0.4001
 1867SOL     OW17059   0.230   0.076  15.206  0.4810  0.2389 -0.1456
 1867SOL    HW117060   0.254   0.044  15.293  0.0839  1.4717  0.4178
 1867SOL    HW217061   0.150   0.124  15.226  0.3730  0.0788 -0.1896
 1868SOL     OW17062   1.355   4.330   8.145  0.2355  0.3283 -0.2400
 1868SOL    HW117063   1.428   4.390   8.129  0.3802  0.7335  1.9160
 1868SOL    HW217064   1.327   4.318   8.055  0.7919 -2.0206 -0.0931
 1869SOL     OW17065   0.600   3.308   4.290  0.4402 -0.0886  0.8497
 1869SOL    HW117066   0.666   3.284   4.354  1.2877 -0.1641 -0.0524
 1869SOL    HW217067   0.537   3.237   4.302 -0.2011  0.3183 -0.0790
 1870SOL     OW17068   0.764   1.513   4.672  0.1627 -0.3641 -0.1222
 1870SOL    HW117069   0.700   1.561   4.725 -0.7240 -1.2221 -0.4249
 1870SOL    HW217070   0.788   1.579   4.607 -0.2327 -0.2460 -0.1459
 1871SOL     OW17071   0.079   1.475   6.984  0.1976 -0.5388  0.0269
 1871SOL    HW117072   0.002   1.531   6.997 -0.6353 -1.4999 -0.7481
 1871SOL    HW217073   0.129   1.518   7.053  0.6159 -0.0278 -0.5948
 1872SOL     OW17074   0.249   4.568   8.863  0.0838 -0.4982 -0.3101
 1872SOL    HW117075   0.181   4.634   8.878 -0.0267 -0.8300  0.7066
 1872SOL    HW217076   0.203   4.495   8.905  0.3709  0.6029  1.9500
 1873SOL     OW17077   1.035   0.116   4.045  0.2153 -0.4770  0.0204
 1873SOL    HW117078   1.044   0.027   4.011  1.4906 -0.3794  0.1214
 1873SOL    HW217079   0.980   0.096   4.121  0.4182 -0.8898  0.0588
 1874SOL     OW17080   2.634   2.733  13.742  0.0792  0.9532 -0.1171
 1874SOL    HW117081   2.709   2.766  13.693  0.0357  1.1274 -0.0652
 1874SOL    HW217082   2.570   2.769  13.680 -1.5198  0.1059  1.0383
 1875SOL     OW17083   1.629   3.701   9.192  0.1042  0.1338  0.6599
 1875SOL    HW117084   1.677   3.747   9.261 -0.5322  0.7021  0.7235
 1875SOL    HW217085   1.631   3.768   9.123 -1.2609  0.2419  0.7187
 1876SOL     OW17086   0.329   0.560   3.592 -0.0540  0.2227 -0.0462
 1876SOL    HW117087   0.374   0.476   3.590 -0.2403  0.1228 -0.0247
 1876SOL    HW217088   0.402   0.622   3.592 -0.9568  1.2966 -0.2122
 1877SOL     OW17089   0.967   0.383   1.451 -0.5963 -0.1150  0.2559
 1877SOL    HW117090   1.036   0.411   1.510 -0.4430 -1.0090  0.4914
 1877SOL    HW217091   0.931   0.300   1.482  2.6047 -1.8445 -0.7185
 1878SOL     OW17092   1.524   2.074   8.279  0.2560  0.1484 -0.0974
 1878SOL    HW117093   1.579   2.149   8.302 -1.2368  0.4849  2.4306
 1878SOL    HW217094   1.584   2.037   8.214 -0.6550  0.8203 -1.3228
 1879SOL     OW17095   3.766   4.669  16.177 -0.0513 -0.2985  0.1541
 1879SOL    HW117096   3.720   4.597  16.219 -0.8705 -0.3351 -0.8306
 1879SOL    HW217097   3.760   0.015  16.245 -2.9071  0.4150 -0.8298
 1880SOL     OW17098   0.219   4.656   6.448  0.3201  0.4990 -0.3936
 1880SOL    HW117099   0.305   4.643   6.489  0.3876  0.1467 -0.6435
 1880SOL    HW217100   0.227   0.022   6.411  0.4739  1.0229  0.8722
 1881SOL     OW17101   3.489   0.225   6.201  0.3040  0.3898 -0.1621
 1881SOL    HW117102   3.529   0.171   6.269 -0.5439  1.6515  1.3493
 1881SOL    HW217103   3.398   0.231   6.230  0.3578  0.1912  0.0512
 1882SOL     OW17104   3.750   1.439  12.102 -0.5117 -0.0327 -0.4940
 1882SOL    HW117105   3.702   1.431  12.185  0.6340  0.2926  0.1886
 1882SOL    HW217106   3.694   1.492  12.046 -1.4638 -2.4571 -1.8591
 1883SOL     OW17107   0.526   1.866   6.613  0.2028 -0.3044 -0.2297
 1883SOL    HW117108   0.619   1.887   6.612  0.1824 -0.1809  0.4441
 1883SOL    HW217109   0.520   1.843   6.520 -3.0175 -0.9372  0.1141
 1884SOL     OW17110   2.058   2.423   5.250 -0.2865  0.2711 -0.0704
 1884SOL    HW117111   2.002   2.484   5.298 -1.1337  0.7762 -1.7280
 1884SOL    HW217112   1.995   2.364   5.209  0.1221 -0.1201 -0.1348
 1885SOL     OW17113   3.566   1.984   8.368 -0.4337  0.1849  0.0867
 1885SOL    HW117114   3.542   2.076   8.377 -1.0867 -0.2704  3.1739
 1885SOL    HW217115   3.612   1.988   8.284 -0.0601 -1.1267  0.2257
 1886SOL     OW17116   0.448   0.368   5.132 -0.0698 -0.6828 -0.5709
 1886SOL    HW117117   0.432   0.282   5.170 -0.4709 -0.7740 -0.9428
 1886SOL    HW217118   0.368   0.398   5.088 -0.1930  2.9327  2.1477
 1887SOL     OW17119   3.804   0.941  13.296  0.4192  0.8504 -0.1633
 1887SOL    HW117120   3.716   0.979  13.291  0.2688  0.5095 -0.1119
 1887SOL    HW217121   3.823   0.940  13.390 -1.2480  0.3037  0.1645
 1888SOL     OW17122   3.397   3.733   3.427 -0.0020 -0.1226  0.0385
 1888SOL    HW117123   3.307   3.706   3.445  0.0912  1.2901  2.5959
 1888SOL    HW217124   3.378   3.799   3.361 -0.7196  1.6629  2.0181
 1889SOL     OW17125   3.095   4.366   3.147 -0.7275  0.7170 -0.1920
 1889SOL    HW117126   3.073   4.288   3.197  1.6703  0.6314  0.7407
 1889SOL    HW217127   3.098   4.424   3.223 -1.0062  0.0610  0.3149
 1890SOL     OW17128   3.661   4.352   8.232  0.9752 -0.2175  0.1119
 1890SOL    HW117129   3.578   4.399   8.246 -0.7598 -3.4571  0.7075
 1890SOL    HW217130   3.663   4.298   8.311  1.1648  1.9480  1.5704
 1891SOL     OW17131   1.944   3.217   6.142 -0.0570 -0.2956  0.3992
 1891SOL    HW117132   1.999   3.154   6.189  0.2502 -0.4612 -0.1831
 1891SOL    HW217133   2.007   3.243   6.074  0.7691  0.4781  1.4593
 1892SOL     OW17134   2.805   0.380   4.857  0.7136  0.0005 -0.1381
 1892SOL    HW117135   2.825   0.466   4.894  1.7862 -0.2679 -0.1084
 1892SOL    HW217136   2.820   0.324   4.933 -0.9996 -0.6031 -0.2390
 1893SOL     OW17137   4.453   4.342  16.189  0.5509 -0.5442 -0.0765
 1893SOL    HW117138   4.516   4.279  16.155  1.8734 -0.4342  2.1331
 1893SOL    HW217139   4.504   4.376  16.264 -2.7029 -0.9801  2.3363
 1894SOL     OW17140   2.051   1.750   9.325 -0.0630 -0.7331  0.2884
 1894SOL    HW117141   2.031   1.843   9.319  3.2111 -0.1178 -1.2021
 1894SOL    HW217142   2.016   1.726   9.411  1.5576  0.9180  1.4047
 1895SOL     OW17143   2.562   2.409   5.574 -0.2374 -0.5565  0.6509
 1895SOL    HW117144   2.505   2.485   5.565 -0.2115 -0.4561  1.3287
 1895SOL    HW217145   2.593   2.400   5.484 -0.1441  0.2722  0.5971
 1896SOL     OW17146   1.556   1.408  11.756 -0.2205  0.4413 -0.7452
 1896SOL    HW117147   1.484   1.412  11.820  1.3026 -0.2176  1.0197
 1896SOL    HW217148   1.522   1.432  11.671 -0.8021 -0.5088 -0.7800
 1897SOL     OW17149   4.357   1.392   8.149  0.0157 -0.0454 -1.2726
 1897SOL    HW117150   4.348   1.297   8.158 -0.5265 -0.0965 -2.3606
 1897SOL    HW217151   4.269   1.418   8.121  0.0401  0.2650 -1.0601
 1898SOL     OW17152   1.102   1.882   6.629  0.0912 -0.0022  1.2778
 1898SOL    HW117153   1.054   1.852   6.552 -3.4151  1.9540  2.7239
 1898SOL    HW217154   1.076   1.974   6.620  0.2278 -0.0439  0.4476
 1899SOL     OW17155   2.533   4.171  14.271  0.3798  0.3658  0.3423
 1899SOL    HW117156   2.594   4.233  14.231  0.4339 -0.5010 -0.9255
 1899SOL    HW217157   2.487   4.130  14.198 -0.6162 -1.8272  2.2196
 1900SOL     OW17158   0.529   3.294   2.504  0.0302  0.2851 -0.5187
 1900SOL    HW117159   0.577   3.289   2.587 -1.3313 -0.9054  0.2042
 1900SOL    HW217160   0.600   3.293   2.441  1.3238  2.9582  0.8749
 1901SOL     OW17161   2.993   0.490  13.606  0.5369  0.2186 -0.2027
 1901SOL    HW117162   3.084   0.498  13.575  0.9685 -1.3154  0.6366
 1901SOL    HW217163   3.008   0.492  13.701 -0.4829 -0.7164 -0.0251
 1902SOL     OW17164   0.664   3.702   3.506 -0.3905  0.6681  0.1986
 1902SOL    HW117165   0.652   3.683   3.599  0.7874 -0.7378  0.0589
 1902SOL    HW217166   0.733   3.640   3.485  0.1652  0.7371  1.8331
 1903SOL     OW17167   2.655   2.583   6.694  0.3662 -0.0965  0.0709
 1903SOL    HW117168   2.661   2.510   6.633  1.8348 -1.6250  2.0004
 1903SOL    HW217169   2.566   2.569   6.727 -0.1356  2.6238 -0.1762
 1904SOL     OW17170   3.128   4.395   3.868 -0.0891  0.3603 -0.1585
 1904SOL    HW117171   3.171   4.481   3.869  2.6822 -1.0386  0.6655
 1904SOL    HW217172   3.045   4.429   3.834 -0.5637  0.8829  1.5267
 1905SOL     OW17173   0.596   0.482   4.913 -0.2046  0.0830 -0.3961
 1905SOL    HW117174   0.567   0.507   4.825 -2.1285 -1.2577 -0.1357
 1905SOL    HW217175   0.522   0.430   4.945 -0.3889 -0.0962 -1.1028
 1906SOL     OW17176   2.652   2.663  12.733  0.1973  0.0917  0.4588
 1906SOL    HW117177   2.639   2.572  12.707  1.9878  0.1861 -0.8006
 1906SOL    HW217178   2.600   2.702  12.663 -0.1606  0.6635  1.0392
 1907SOL     OW17179   1.496   3.945   4.856  0.0184 -0.3069  0.1011
 1907SOL    HW117180   1.580   3.938   4.900 -0.3008  1.0049  0.8915
 1907SOL    HW217181   1.489   3.851   4.836 -0.8017  0.0211 -1.1746
 1908SOL     OW17182   4.626   2.583   5.285  0.1250 -0.7856 -0.2114
 1908SOL    HW117183   4.533   2.580   5.262  0.5836 -0.8264 -2.0920
 1908SOL    HW217184   4.660   2.574   5.196  0.4538 -1.3938 -0.0236
 1909SOL     OW17185   1.379   2.734   3.296  0.1675 -0.3729 -0.3863
 1909SOL    HW117186   1.428   2.686   3.363 -0.5985 -2.6135 -1.4204
 1909SOL    HW217187   1.364   2.816   3.344  0.6068 -0.1185 -0.6974
 1910SOL     OW17188   3.402   1.719   1.478  0.0642 -0.0004  0.2556
 1910SOL    HW117189   3.346   1.644   1.456 -0.0625  0.2365 -0.2277
 1910SOL    HW217190   3.338   1.787   1.456  0.3094  0.0867 -0.1875
 1911SOL     OW17191   0.367   0.741   7.004 -0.5684 -0.2961  0.0999
 1911SOL    HW117192   0.333   0.656   7.032  0.9811 -1.0513 -0.3428
 1911SOL    HW217193   0.364   0.787   7.088 -0.3002 -0.8019  0.3867
 1912SOL     OW17194   0.436   3.754   5.098 -0.0800  0.1285  0.2283
 1912SOL    HW117195   0.433   3.803   5.181 -1.1428  0.2074  0.1414
 1912SOL    HW217196   0.375   3.809   5.049  0.4107  1.4174  1.0334
 1913SOL     OW17197   3.302   1.489  17.680  0.2168 -0.4573  0.4287
 1913SOL    HW117198   3.343   1.517   0.075  2.6109 -3.0344  0.1206
 1913SOL    HW217199   3.224   1.439   0.018 -0.0465  0.9870  2.5313
 1914SOL     OW17200   3.324   0.602   3.626  0.1109 -0.4681  0.4180
 1914SOL    HW117201   3.237   0.618   3.663  0.1981  0.6294  0.1525
 1914SOL    HW217202   3.309   0.513   3.595 -2.6136  0.1339  0.0241
 1915SOL     OW17203   3.611   2.084   4.268 -0.1053  0.6138 -0.7923
 1915SOL    HW117204   3.563   2.083   4.351 -1.0073  0.7555 -1.3206
 1915SOL    HW217205   3.688   2.140   4.281 -0.2145  0.1561  1.7797
 1916SOL     OW17206   0.620   3.391   7.319 -0.5285  0.0675  0.1232
 1916SOL    HW117207   0.576   3.359   7.398 -0.3658  2.1840  1.0624
 1916SOL    HW217208   0.617   3.315   7.262 -0.5804 -0.6716  1.1119
 1917SOL     OW17209   4.250   1.145   4.932  0.0052  0.4795 -0.0698
 1917SOL    HW117210   4.170   1.092   4.935  0.8142 -0.7341  0.1130
 1917SOL    HW217211   4.222   1.236   4.943 -1.0399  0.3139 -1.3449
 1918SOL     OW17212   1.822   2.681   7.967 -0.2264 -0.1503  0.4126
 1918SOL    HW117213   1.909   2.703   7.934 -1.5874  2.3115 -1.5405
 1918SOL    HW217214   1.836   2.680   8.062  1.6428  0.7121  0.1472
 1919SOL     OW17215   2.874   1.073  10.220  0.5309  0.1165  0.4174
 1919SOL    HW117216   2.874   1.139  10.151  1.0465 -1.8768 -1.5197
 1919SOL    HW217217   2.801   1.021  10.184  1.4026  0.2930 -1.5884
 1920SOL     OW17218   4.156   0.932  11.753 -0.2983 -0.0581 -0.1106
 1920SOL    HW117219   4.151   0.837  11.765 -0.5743 -0.0301 -0.0028
 1920SOL    HW217220   4.250   0.929  11.739 -0.3330 -2.1962  0.0062
 1921SOL     OW17221   0.691   3.980   5.796  0.0121 -0.8103 -0.3603
 1921SOL    HW117222   0.767   3.966   5.739  1.4394  1.3535  1.0222
 1921SOL    HW217223   0.737   3.982   5.880 -1.3676  0.3967  0.3469
 1922SOL     OW17224   1.205   2.740   8.935  0.3801  0.0943 -0.0639
 1922SOL    HW117225   1.129   2.709   8.984  0.5129  0.0572  0.1222
 1922SOL    HW217226   1.268   2.727   9.007  0.0094 -3.3962 -0.3989
 1923SOL     OW17227   3.013   1.948   5.204 -0.3593 -0.0366 -0.1939
 1923SOL    HW117228   3.042   1.970   5.292 -2.2247 -0.0790  0.4322
 1923SOL    HW217229   2.936   1.894   5.221 -0.1573 -0.6857 -1.3179
 1924SOL     OW17230   2.193   1.344   8.223 -0.6164  0.1955 -0.0257
 1924SOL    HW117231   2.128   1.280   8.196 -1.5386  0.8605  0.5975
 1924SOL    HW217232   2.159   1.384   8.304  0.6409  1.2032  0.0118
 1925SOL     OW17233   0.044   4.078   3.994 -0.4903  0.0944  0.1704
 1925SOL    HW117234   0.107   4.092   3.924  1.0486  2.2787  1.9915
 1925SOL    HW217235   0.037   3.982   3.991 -3.2123  0.2923  0.1136
 1926SOL     OW17236   4.318   2.173  12.005 -0.1660 -0.0925  0.7249
 1926SOL    HW117237   4.383   2.106  12.025 -0.2911 -0.7673 -1.0689
 1926SOL    HW217238   4.332   2.233  12.078  0.6868 -1.9902  2.1096
 1927SOL     OW17239   1.296   2.742   1.250 -0.3191  0.0975  0.0838
 1927SOL    HW117240   1.329   2.711   1.335 -2.2293 -2.1862 -0.0082
 1927SOL    HW217241   1.362   2.811   1.239  1.3955 -1.0216  3.1441
 1928SOL     OW17242   2.966   2.449   0.332 -0.0884  0.0704 -0.0856
 1928SOL    HW117243   3.044   2.428   0.280 -0.2009 -1.4555  0.3570
 1928SOL    HW217244   2.896   2.427   0.271  0.3453 -0.4712 -0.3898
 1929SOL     OW17245   2.877   4.687   6.171 -0.8693 -0.1201 -0.6328
 1929SOL    HW117246   2.916   4.609   6.210 -0.8528  0.3271  0.2518
 1929SOL    HW217247   2.833   0.001   6.248 -0.2317  0.9988 -0.7726
 1930SOL     OW17248   1.386   3.772   3.718  0.4150  0.4804  0.5285
 1930SOL    HW117249   1.376   3.808   3.630  0.0058 -1.8602 -0.3904
 1930SOL    HW217250   1.305   3.798   3.762 -0.4908 -1.6551  0.1580
 1931SOL     OW17251   2.356   3.892   4.108 -0.1886 -0.0480 -0.9051
 1931SOL    HW117252   2.296   3.962   4.082  0.3954  0.2146 -1.5386
 1931SOL    HW217253   2.421   3.938   4.161  0.5518 -2.8373  0.5916
 1932SOL     OW17254   1.394   2.907   6.204  0.0934  0.3334 -0.6359
 1932SOL    HW117255   1.365   2.858   6.281  1.7567  2.1717  1.1491
 1932SOL    HW217256   1.449   2.841   6.163  0.0011 -0.2821  0.2352
 1933SOL     OW17257   0.738   3.247   5.961 -0.4275  0.8108  0.5334
 1933SOL    HW117258   0.786   3.221   6.041  0.9936 -1.7755 -1.1454
 1933SOL    HW217259   0.683   3.169   5.960  0.8433 -0.0492 -1.9371
 1934SOL     OW17260   4.479   0.345   7.187  0.5070 -0.0756  0.0730
 1934SOL    HW117261   4.527   0.373   7.265 -2.1773 -0.7014  1.9522
 1934SOL    HW217262   4.549   0.333   7.123  1.7111  3.3189  0.7915
 1935SOL     OW17263   2.812   1.244   3.758  0.1535  0.2497  0.1747
 1935SOL    HW117264   2.799   1.194   3.839 -1.9110  2.5378  1.2656
 1935SOL    HW217265   2.908   1.241   3.755  0.2035  0.7878  1.1732
 1936SOL     OW17266   4.517   3.562   7.203 -0.2588  0.2083 -0.7181
 1936SOL    HW117267   4.516   3.603   7.116  0.6559  0.7936 -0.4496
 1936SOL    HW217268   4.467   3.484   7.177  2.7116 -0.7068 -3.6938
 1937SOL     OW17269   3.302   4.138   7.780  0.7137  0.1085  0.1228
 1937SOL    HW117270   3.222   4.141   7.727  0.1160  2.8566  1.1369
 1937SOL    HW217271   3.346   4.063   7.741  4.8096  2.3420  0.5160
 1938SOL     OW17272   4.220   3.430   8.966 -0.0698  0.0409  0.0862
 1938SOL    HW117273   4.172   3.466   8.892  0.5196  2.1363  0.7179
 1938SOL    HW217274   4.188   3.340   8.970 -0.7366  0.2473 -0.6854
 1939SOL     OW17275   1.526   0.015   4.993  0.4135  0.5152  0.1346
 1939SOL    HW117276   1.441   0.040   4.956  0.1634  0.2416  0.5238
 1939SOL    HW217277   1.498   4.697   5.076  1.2119 -1.6439 -0.5927
 1940SOL     OW17278   4.502   0.650   3.795  0.2034 -0.2269 -0.5416
 1940SOL    HW117279   4.407   0.637   3.800  0.1632  1.0114  1.8776
 1940SOL    HW217280   4.535   0.653   3.884  0.3920  0.5778 -0.6429
 1941SOL     OW17281   4.686   1.380   7.250 -0.0079  0.4174  0.2896
 1941SOL    HW117282   4.594   1.358   7.241  0.4929 -1.6572  0.0213
 1941SOL    HW217283   4.679   1.474   7.237 -0.5598  0.1025 -1.6586
 1942SOL     OW17284   0.500   4.035   7.424 -0.2248  0.2210  0.2490
 1942SOL    HW117285   0.475   4.042   7.516  2.3012 -0.0493  0.9548
 1942SOL    HW217286   0.450   4.107   7.387  1.1565  0.2642 -1.5250
 1943SOL     OW17287   3.069   3.553   7.650 -0.5897 -0.1252 -0.6835
 1943SOL    HW117288   3.161   3.529   7.639 -0.6937 -0.9829  0.3090
 1943SOL    HW217289   3.031   3.465   7.646 -0.5911  0.0281 -3.4166
 1944SOL     OW17290   4.583   0.765   2.291 -0.3949 -0.1703  0.3579
 1944SOL    HW117291   4.603   0.706   2.363  1.1723 -0.3575 -0.2282
 1944SOL    HW217292   4.663   0.753   2.240  0.4415 -1.6097  2.0101
 1945SOL     OW17293   0.007   4.601   5.003  1.0031  0.0855 -0.3961
 1945SOL    HW117294   0.073   4.638   5.062  1.6675 -0.2459 -0.9453
 1945SOL    HW217295   4.687   4.685   4.979 -1.0106 -0.8401 -0.1887
 1946SOL     OW17296   4.389   0.772  14.222 -0.0581  0.2364  0.4375
 1946SOL    HW117297   4.438   0.744  14.299 -1.6780 -2.9545  0.3005
 1946SOL    HW217298   4.392   0.864  14.251  0.3249  0.2774  0.2655
 1947SOL     OW17299   0.891   1.343   8.108 -0.3639 -0.7983  0.0178
 1947SOL    HW117300   0.871   1.271   8.048 -2.1248 -0.1254 -0.2033
 1947SOL    HW217301   0.848   1.312   8.187  0.6104  1.4685  1.4386
 1948SOL     OW17302   0.651   2.573   4.206  0.1148 -0.0272  0.1429
 1948SOL    HW117303   0.639   2.495   4.152 -1.8450 -0.0243  0.5632
 1948SOL    HW217304   0.573   2.567   4.261 -1.2777  0.4726 -1.7858
 1949SOL     OW17305   4.102   0.630   7.747 -0.3132 -0.3339 -0.2851
 1949SOL    HW117306   4.182   0.681   7.754 -0.4639 -0.3891  1.6806
 1949SOL    HW217307   4.096   0.619   7.652 -1.4777 -0.2112 -0.2356
 1950SOL     OW17308   2.823   1.167   1.248  0.4696  0.0945 -0.2446
 1950SOL    HW117309   2.760   1.095   1.251  0.3981  0.2561  2.1434
 1950SOL    HW217310   2.909   1.126   1.242  0.2045 -0.2913 -1.4280
 1951SOL     OW17311   1.794   0.636   9.428 -0.4808 -1.3622 -0.3144
 1951SOL    HW117312   1.803   0.541   9.423 -3.5405 -1.5864 -1.2750
 1951SOL    HW217313   1.817   0.641   9.521 -1.8115 -0.5707 -0.0312
 1952SOL     OW17314   0.497   1.490   2.247 -0.6441  0.1931 -0.0845
 1952SOL    HW117315   0.572   1.476   2.189 -0.7275  0.3555 -0.2310
 1952SOL    HW217316   0.438   1.521   2.178 -0.1981  0.9292 -0.1301
 1953SOL     OW17317   0.330   2.604   4.042  0.5361 -0.0975 -0.3610
 1953SOL    HW117318   0.412   2.628   3.997 -1.3962  3.2250 -2.0941
 1953SOL    HW217319   0.268   2.565   3.981  1.5655 -2.4777  0.1107
 1954SOL     OW17320   4.050   4.061   5.423 -0.2173  0.4094 -0.1982
 1954SOL    HW117321   4.106   4.007   5.368 -2.5627 -0.4895 -1.7124
 1954SOL    HW217322   4.090   4.059   5.510  0.1078 -1.9113 -0.4064
 1955SOL     OW17323   4.364   4.489   8.445 -0.2802 -0.4743 -0.4223
 1955SOL    HW117324   4.435   4.547   8.419 -1.6967  1.3797 -0.1647
 1955SOL    HW217325   4.326   4.465   8.361  0.2197 -0.9572 -0.5077
 1956SOL     OW17326   4.516   1.184  10.406  0.5202 -0.4605  0.0240
 1956SOL    HW117327   4.484   1.101  10.443  0.3729 -0.2036  0.4660
 1956SOL    HW217328   4.607   1.182  10.438 -0.3145 -0.4134  2.3888
 1957SOL     OW17329   1.332   2.906  12.110 -0.8144  0.0364  0.3485
 1957SOL    HW117330   1.347   2.816  12.137 -2.1826 -0.8877 -1.9220
 1957SOL    HW217331   1.276   2.929  12.183 -0.9700  1.4041 -0.1916
 1958SOL     OW17332   0.731   3.053   8.575  0.4319  0.3770  0.0614
 1958SOL    HW117333   0.792   3.127   8.574  0.1434  0.5874 -1.5636
 1958SOL    HW217334   0.701   3.064   8.485 -0.9390  2.1237  0.7405
 1959SOL     OW17335   2.166   2.066   0.549  0.6685  0.1782  0.0961
 1959SOL    HW117336   2.106   2.014   0.602  2.3022 -0.5545  1.2144
 1959SOL    HW217337   2.115   2.072   0.468 -1.0663  2.2249  1.3406
 1960SOL     OW17338   1.265   1.407   6.254  0.4149  0.7935  0.0081
 1960SOL    HW117339   1.305   1.410   6.167 -0.5950  0.9823 -0.4528
 1960SOL    HW217340   1.177   1.436   6.232 -0.4777 -0.8566  1.4401
 1961SOL     OW17341   4.155   2.085   3.143  0.0457  0.3559  0.3601
 1961SOL    HW117342   4.180   2.099   3.234  2.0205  0.6316 -0.2281
 1961SOL    HW217343   4.244   2.094   3.110  0.8538 -1.0002  2.1341
 1962SOL     OW17344   0.543   3.564   7.133  0.6452  0.5571  0.2648
 1962SOL    HW117345   0.584   3.507   7.198 -1.8616 -0.1182  1.2292
 1962SOL    HW217346   0.451   3.557   7.155  1.1319 -1.1099  1.7214
 1963SOL     OW17347   2.280   0.628   8.450  0.1888 -0.0131  0.6024
 1963SOL    HW117348   2.261   0.540   8.420 -0.2030  0.2800 -0.0138
 1963SOL    HW217349   2.354   0.623   8.510 -0.4215  1.4515  1.4720
 1964SOL     OW17350   2.405   4.357  13.945 -0.1569 -0.0653  0.1811
 1964SOL    HW117351   2.323   4.332  13.986  0.4859  0.3013  1.6986
 1964SOL    HW217352   2.387   4.378  13.853 -2.0216  0.4639  0.6684
 1965SOL     OW17353   2.448   1.414   5.655 -0.3062 -0.3003 -0.4775
 1965SOL    HW117354   2.500   1.430   5.577 -2.5837 -0.7326 -2.0767
 1965SOL    HW217355   2.515   1.383   5.716 -0.4390 -0.7628 -0.5616
 1966SOL     OW17356   1.557   0.078   3.564  0.0983 -0.0066 -0.6642
 1966SOL    HW117357   1.596   4.713   3.576 -0.3996  0.0093  1.0750
 1966SOL    HW217358   1.530   0.103   3.652  3.3852  0.8454  0.1140
 1967SOL     OW17359   2.581   3.300   3.737  0.2372 -0.2070 -0.4276
 1967SOL    HW117360   2.614   3.227   3.789  1.1325 -1.6856 -3.0911
 1967SOL    HW217361   2.498   3.316   3.783 -1.0926  0.3048 -3.0009
 1968SOL     OW17362   2.184   0.483   5.408  0.0067  0.2213 -0.1266
 1968SOL    HW117363   2.160   0.524   5.325  1.0874 -2.4931 -1.7624
 1968SOL    HW217364   2.219   0.555   5.461  2.6223 -1.5292  0.4984
 1969SOL     OW17365   0.637   1.788   6.337  0.4175  0.1961  0.4183
 1969SOL    HW117366   0.662   1.726   6.269  0.9071  0.3605  0.4474
 1969SOL    HW217367   0.555   1.819   6.300 -0.1991 -1.9120  0.0472
 1970SOL     OW17368   2.076   3.241   2.697 -0.3048  0.0059  0.8252
 1970SOL    HW117369   2.115   3.185   2.763  0.4577  0.9428  1.1772
 1970SOL    HW217370   2.006   3.277   2.752 -1.0420 -0.5795  0.2642
 1971SOL     OW17371   4.500   1.838   1.982  0.2343 -0.0429 -0.0986
 1971SOL    HW117372   4.416   1.795   1.998  0.1714  0.0762 -0.1080
 1971SOL    HW217373   4.552   1.792   2.048  0.4693  1.1799  0.5746
 1972SOL     OW17374   0.949   3.940   7.843  0.0506 -0.4320 -0.2246
 1972SOL    HW117375   0.903   3.953   7.760  1.8229 -2.5906 -1.5072
 1972SOL    HW217376   0.985   3.855   7.821  1.3268  0.3969 -1.2929
 1973SOL     OW17377   0.970   4.469  12.613  0.6647 -0.1225  0.4040
 1973SOL    HW117378   0.968   4.547  12.557 -4.4647 -0.9231 -0.4773
 1973SOL    HW217379   0.878   4.445  12.622  0.1846  1.8559  0.8819
 1974SOL     OW17380   2.892   4.572   5.756 -0.2323  0.1072  0.3389
 1974SOL    HW117381   2.940   4.538   5.832 -0.6959 -1.0985  0.0868
 1974SOL    HW217382   2.941   4.529   5.686  1.3537  1.6725  0.4837
 1975SOL     OW17383   3.707   4.548   4.210 -0.0453 -0.2158 -0.3820
 1975SOL    HW117384   3.654   4.538   4.132 -1.1168  0.4969  0.2542
 1975SOL    HW217385   3.703   4.643   4.220 -3.3716 -0.3431 -0.5540
 1976SOL     OW17386   3.686   2.804   8.276  0.5694  0.5390 -0.5159
 1976SOL    HW117387   3.749   2.874   8.294  0.2879  1.0286 -1.4203
 1976SOL    HW217388   3.740   2.746   8.223 -1.9773 -3.6998  1.5103
 1977SOL     OW17389   0.225   3.855   1.617  0.2870  0.1851 -0.6751
 1977SOL    HW117390   0.303   3.875   1.565  1.5501 -0.9298  0.7892
 1977SOL    HW217391   0.166   3.875   1.544 -1.1085  0.8792  0.6396
 1978SOL     OW17392   1.563   4.507   2.155  0.0641  0.1785 -0.6535
 1978SOL    HW117393   1.657   4.490   2.157  0.5239  2.6333 -1.8496
 1978SOL    HW217394   1.556   4.567   2.229  0.9531 -3.5818  2.4637
 1979SOL     OW17395   4.166   1.989   9.622  0.2248 -0.1816 -0.7232
 1979SOL    HW117396   4.147   1.959   9.533 -4.5761  0.8561 -0.0336
 1979SOL    HW217397   4.149   1.907   9.667  1.7921 -0.6012 -0.8931
 1980SOL     OW17398   1.340   2.678  17.125  0.1538  0.5693 -0.6737
 1980SOL    HW117399   1.358   2.761  17.081 -0.5060  1.4354  0.7081
 1980SOL    HW217400   1.249   2.690  17.152  0.1170 -0.3088 -0.4201
 1981SOL     OW17401   0.534   2.718   5.098 -0.1443 -0.0375  0.0612
 1981SOL    HW117402   0.497   2.799   5.063  3.6440  0.1646 -3.3977
 1981SOL    HW217403   0.464   2.654   5.088  1.0582 -1.0677 -1.7584
 1982SOL     OW17404   0.885   3.059   8.249  0.1344 -0.2307 -0.1772
 1982SOL    HW117405   0.964   3.096   8.209  0.6087 -1.0449  0.0234
 1982SOL    HW217406   0.928   3.001   8.311  0.0683  0.4105  0.4635
 1983SOL     OW17407   1.814   2.659   6.204  0.0782 -0.4787 -0.4108
 1983SOL    HW117408   1.873   2.658   6.279 -0.7463 -0.3084  0.2367
 1983SOL    HW217409   1.866   2.613   6.138 -0.4758 -0.0133 -1.1695
 1984SOL     OW17410   3.871   0.381   2.172 -0.1577 -0.1041  0.1976
 1984SOL    HW117411   3.957   0.394   2.211  0.2479  1.7558 -1.3017
 1984SOL    HW217412   3.816   0.450   2.210  2.3527  0.6844  2.3901
 1985SOL     OW17413   2.156   2.428  14.482  0.0731 -0.8930  0.4403
 1985SOL    HW117414   2.081   2.420  14.541  0.4196 -3.0378  0.6092
 1985SOL    HW217415   2.131   2.349  14.433  0.6195 -1.5552  1.2410
 1986SOL     OW17416   0.739   1.632   7.701  0.3078 -0.5265  0.1690
 1986SOL    HW117417   0.656   1.585   7.710 -1.0866  1.6754 -1.0060
 1986SOL    HW217418   0.797   1.557   7.687 -0.1203 -0.5654 -1.3904
 1987SOL     OW17419   4.033   4.014  13.757  0.3222  0.8415 -0.0768
 1987SOL    HW117420   4.008   3.956  13.829 -1.4638  0.8253 -0.6842
 1987SOL    HW217421   3.995   3.979  13.676 -1.6252  1.9105  0.3620
 1988SOL     OW17422   0.808   1.269   3.060 -0.2106  0.3495 -0.1548
 1988SOL    HW117423   0.773   1.295   2.975 -0.7058 -0.4782 -0.1989
 1988SOL    HW217424   0.735   1.235   3.111  0.7433  0.6406  1.4251
 1989SOL     OW17425   4.514   2.196   7.340  0.2018 -0.0773 -0.1254
 1989SOL    HW117426   4.551   2.275   7.382  0.7508 -1.8378  2.6778
 1989SOL    HW217427   4.425   2.197   7.374  0.1106  3.8047 -0.4357
 1990SOL     OW17428   2.340   4.712   3.714 -0.4602 -0.5847 -0.5177
 1990SOL    HW117429   2.368   4.721   3.623  0.8503 -0.6045 -0.1151
 1990SOL    HW217430   2.251   0.018   3.691 -0.2094 -1.0943 -2.1042
 1991SOL     OW17431   2.090   2.722  13.776  0.4581 -0.2675 -0.2387
 1991SOL    HW117432   2.183   2.720  13.753  0.6363  0.9869  0.4016
 1991SOL    HW217433   2.058   2.752  13.691  0.0407  0.1119  0.0541
 1992SOL     OW17434   3.616   4.624   5.060  0.6998 -0.2962 -0.1131
 1992SOL    HW117435   3.534   4.665   5.035  0.7357  0.9536  1.8377
 1992SOL    HW217436   3.671   4.640   4.983 -0.9395  0.0287 -1.2106
 1993SOL     OW17437   2.553   0.768   3.589 -0.1782 -0.0719 -0.1351
 1993SOL    HW117438   2.511   0.694   3.545  1.5425 -0.4544 -1.1265
 1993SOL    HW217439   2.550   0.747   3.682 -1.0807 -3.2356 -0.9036
 1994SOL     OW17440   3.772   1.454   4.642 -0.2944  0.0038  0.2955
 1994SOL    HW117441   3.688   1.453   4.687 -1.3932  2.0603 -1.7166
 1994SOL    HW217442   3.818   1.378   4.677  0.3886 -0.0387 -0.6954
 1995SOL     OW17443   0.175   2.152   5.867  0.0314  0.3999  0.8652
 1995SOL    HW117444   0.253   2.184   5.912 -0.4025  3.0239 -0.3016
 1995SOL    HW217445   0.109   2.150   5.937  0.1647  0.4794  0.9939
 1996SOL     OW17446   0.006   4.117   1.677 -0.2912 -0.2785  0.3586
 1996SOL    HW117447   4.673   4.196   1.687 -1.0833 -0.4685 -2.4073
 1996SOL    HW217448   0.069   4.139   1.745 -1.8457  0.7959  1.4590
 1997SOL     OW17449   3.168   4.700   2.623  0.0305 -0.0021 -0.7330
 1997SOL    HW117450   3.133   4.636   2.562 -1.4802  0.0890  0.0270
 1997SOL    HW217451   3.214   0.043   2.569  1.2993 -2.2084 -2.2515
 1998SOL     OW17452   2.491   0.341   8.385 -0.5631 -0.0264  0.3842
 1998SOL    HW117453   2.402   0.344   8.421 -0.4069  2.2736  0.6134
 1998SOL    HW217454   2.469   0.299   8.302 -0.0684 -0.7578  0.6238
 1999SOL     OW17455   4.074   2.821   4.925 -0.0134  0.2330  0.1032
 1999SOL    HW117456   4.167   2.804   4.943 -0.6128 -2.7328  0.3535
 1999SOL    HW217457   4.041   2.846   5.011  1.1154  0.9365  0.3403
 2000SOL     OW17458   1.570   0.497   8.957 -0.2032 -0.0993 -0.0339
 2000SOL    HW117459   1.576   0.470   8.865  0.4168  0.3132 -0.1181
 2000SOL    HW217460   1.551   0.591   8.951  1.3511  0.2900  0.9715
 2001SOL     OW17461   4.109   1.648   5.072  0.0326 -0.7308  0.6182
 2001SOL    HW117462   4.036   1.684   5.021 -1.2973 -2.5063  1.2590
 2001SOL    HW217463   4.175   1.715   5.057 -0.9587  0.1240  0.0072
 2002SOL     OW17464   0.469   2.280   1.822 -0.3624 -0.1215  0.0441
 2002SOL    HW117465   0.544   2.261   1.766 -1.8840 -0.3449 -1.8965
 2002SOL    HW217466   0.395   2.250   1.769 -1.8874 -1.2609  2.8052
 2003SOL     OW17467   1.646   1.940   8.056 -0.3044  0.4247 -0.3971
 2003SOL    HW117468   1.739   1.960   8.065 -0.3795  1.8824 -3.1061
 2003SOL    HW217469   1.647   1.847   8.033  0.8237  1.2368 -3.4697
 2004SOL     OW17470   1.267   0.975   6.714 -0.1526 -0.7349 -0.1085
 2004SOL    HW117471   1.325   0.918   6.764  0.6733 -0.6977 -1.0407
 2004SOL    HW217472   1.332   1.029   6.670 -1.9743  0.5833 -1.2050
 2005SOL     OW17473   2.680   2.702   4.519 -0.3717  0.3358  0.1595
 2005SOL    HW117474   2.702   2.652   4.597  1.2892  0.0223 -0.5287
 2005SOL    HW217475   2.587   2.680   4.524 -0.8056  2.2787  0.7899
 2006SOL     OW17476   2.130   1.938   6.575  0.0217  0.3980  0.4770
 2006SOL    HW117477   2.186   1.918   6.500  0.0069  0.1927  0.5197
 2006SOL    HW217478   2.187   1.963   6.647  0.4669 -0.2227  0.3413
 2007SOL     OW17479   0.839   1.109   7.098  0.0440 -0.0678  0.1640
 2007SOL    HW117480   0.777   1.182   7.094 -1.4897 -1.3113  1.4330
 2007SOL    HW217481   0.913   1.171   7.092 -0.5729  0.8073  1.5745
 2008SOL     OW17482   1.838   3.227  11.822  0.2980  0.0910  0.1569
 2008SOL    HW117483   1.766   3.286  11.847 -0.0875 -0.4597  0.3524
 2008SOL    HW217484   1.892   3.295  11.782 -2.1974  1.1420 -1.4112
 2009SOL     OW17485   3.340   4.209   3.908 -0.6217  0.3145  0.1722
 2009SOL    HW117486   3.344   4.218   4.003  1.2988  0.6969  0.0495
 2009SOL    HW217487   3.293   4.287   3.879  1.1904  0.9005 -1.2222
 2010SOL     OW17488   2.151   0.588   1.532 -0.0503 -0.8210 -0.2936
 2010SOL    HW117489   2.059   0.560   1.534 -1.1896  3.0045 -0.8677
 2010SOL    HW217490   2.181   0.529   1.602 -0.5315 -0.6734  0.0384
 2011SOL     OW17491   1.154   2.206   6.024 -0.3532 -1.2305 -0.2469
 2011SOL    HW117492   1.097   2.173   5.954 -0.9932  2.0928 -1.3067
 2011SOL    HW217493   1.240   2.183   5.990  0.9381  1.9558  0.9021
 2012SOL     OW17494   4.057   0.969   6.304  0.6206 -0.2811  0.0766
 2012SOL    HW117495   4.147   0.948   6.330  0.6081 -0.5780 -0.1208
 2012SOL    HW217496   4.017   0.885   6.327  1.1854 -0.2909  1.0108
 2013SOL     OW17497   1.024   3.774   9.268  0.1981  0.1091 -0.0446
 2013SOL    HW117498   1.072   3.699   9.303 -0.1272 -0.5613 -1.0607
 2013SOL    HW217499   1.070   3.774   9.184  0.2052 -2.0380 -0.0380
 2014SOL     OW17500   3.042   4.491   5.555 -0.2656  0.4593 -0.0333
 2014SOL    HW117501   3.054   4.517   5.464 -0.8966  3.6566  0.8077
 2014SOL    HW217502   3.120   4.436   5.567 -1.6158 -1.9245 -2.2650
 2015SOL     OW17503   0.311   3.458  16.765 -0.2933 -0.2683  0.2370
 2015SOL    HW117504   0.386   3.507  16.730 -1.0898  2.0629  1.7761
 2015SOL    HW217505   0.333   3.376  16.722 -0.2684  0.1215 -0.4916
 2016SOL     OW17506   3.956   4.470   8.526 -0.1306 -0.5125  0.4612
 2016SOL    HW117507   3.958   4.374   8.524 -0.9462 -0.5662  2.0454
 2016SOL    HW217508   3.944   4.480   8.621 -2.4396 -0.7439  0.2019
 2017SOL     OW17509   0.746   4.093  13.810  0.6688 -0.1102 -0.6710
 2017SOL    HW117510   0.760   4.077  13.903  1.6124  0.3946 -0.7284
 2017SOL    HW217511   0.726   4.004  13.783 -1.2065 -0.6708  2.5867
 2018SOL     OW17512   1.271   3.600   0.649  0.2038 -0.0904 -0.6146
 2018SOL    HW117513   1.266   3.696   0.644 -1.7445 -0.1086  0.9649
 2018SOL    HW217514   1.354   3.587   0.603  0.4027 -1.7845  0.2719
 2019SOL     OW17515   2.955   2.843   8.293  0.1515  0.0864  0.1418
 2019SOL    HW117516   3.030   2.902   8.292  1.1949 -1.2222  1.0432
 2019SOL    HW217517   2.941   2.831   8.387 -1.3117  3.2652  0.3207
 2020SOL     OW17518   3.090   1.076   4.479  0.0147 -0.2034  0.5104
 2020SOL    HW117519   3.105   1.007   4.544 -0.1267 -0.3801  0.3579
 2020SOL    HW217520   3.087   1.019   4.402  1.7442 -1.3246  1.2683
 2021SOL     OW17521   1.606   1.814   6.455  0.0102  0.0524 -0.0165
 2021SOL    HW117522   1.516   1.785   6.442 -0.9850  1.9507  2.7242
 2021SOL    HW217523   1.645   1.729   6.474 -2.6811 -0.9332  1.0744
 2022SOL     OW17524   0.193   2.589  15.972  0.2285  0.0525 -0.1830
 2022SOL    HW117525   0.194   2.584  15.876  1.1175 -0.8316 -0.1271
 2022SOL    HW217526   0.106   2.554  15.990  1.6408 -2.4934  1.7754
 2023SOL     OW17527   0.948   0.887   6.991 -0.0155  0.6411 -0.5760
 2023SOL    HW117528   0.894   0.954   7.033 -1.3889  0.2469 -1.7232
 2023SOL    HW217529   0.960   0.929   6.906  1.0290  0.3638 -0.5668
 2024SOL     OW17530   2.440   3.040   3.209 -0.1714  0.2372  0.2271
 2024SOL    HW117531   2.472   2.950   3.216  0.2529  0.0737 -3.7793
 2024SOL    HW217532   2.381   3.029   3.284 -0.2311  0.9746  0.2854
 2025SOL     OW17533   3.315   1.483  16.922 -0.2741 -0.0849 -0.3353
 2025SOL    HW117534   3.318   1.563  16.869  1.2312 -0.1797 -0.4106
 2025SOL    HW217535   3.251   1.505  16.988  1.3726 -0.2533  1.3296
 2026SOL     OW17536   4.255   4.700  16.272  0.0344 -0.0948 -0.4157
 2026SOL    HW117537   4.213   0.064  16.280 -0.7116 -0.6944  2.0382
 2026SOL    HW217538   4.181   4.641  16.255  2.1025 -2.7134 -0.3501
 2027SOL     OW17539   1.262   4.211  12.892  0.1637 -0.0866  0.2314
 2027SOL    HW117540   1.268   4.208  12.797 -2.4875 -0.4586  0.0733
 2027SOL    HW217541   1.353   4.191  12.913  1.1867  1.6048 -2.5884
 2028SOL     OW17542   4.221   3.692  16.840 -0.0905  0.0739 -1.0543
 2028SOL    HW117543   4.139   3.708  16.794  0.1410  0.4267 -1.3390
 2028SOL    HW217544   4.227   3.755  16.912 -0.3740 -2.3285  1.1030
 2029SOL     OW17545   0.641   2.339   4.046  0.1732 -0.2879 -0.4663
 2029SOL    HW117546   0.659   2.339   3.952  2.0820  0.6311 -0.1092
 2029SOL    HW217547   0.687   2.257   4.066 -1.6836 -1.0588  0.5995
 2030SOL     OW17548   2.419   1.865   7.782  0.0673 -0.3560 -0.2023
 2030SOL    HW117549   2.485   1.915   7.734 -0.8581 -1.7552 -2.9844
 2030SOL    HW217550   2.378   1.821   7.707  1.2925 -1.6531 -0.1085
 2031SOL     OW17551   1.762   1.923  14.663 -0.0364 -0.5945 -0.2161
 2031SOL    HW117552   1.775   1.847  14.720  1.6076  0.9411  1.4676
 2031SOL    HW217553   1.710   1.881  14.595  0.4192 -1.4023 -0.0686
 2032SOL     OW17554   1.113   3.270   7.087  0.1632 -1.1612  0.8390
 2032SOL    HW117555   1.093   3.277   7.180  0.1732  0.8505  0.6877
 2032SOL    HW217556   1.029   3.292   7.047 -0.3213 -0.7086  2.1142
 2033SOL     OW17557   0.632   2.681   1.505 -0.3799 -0.2013 -0.1054
 2033SOL    HW117558   0.646   2.657   1.596 -1.2078  0.5338  0.2128
 2033SOL    HW217559   0.574   2.752   1.531 -0.5074 -0.0631 -0.7496
 2034SOL     OW17560   2.170   3.074   9.825 -0.5534  0.0765  0.2253
 2034SOL    HW117561   2.205   2.995   9.784  0.7810  0.5792  0.4075
 2034SOL    HW217562   2.110   3.104   9.757 -2.7468 -2.5890  1.0124
 2035SOL     OW17563   0.845   2.943  12.663  0.6177  0.1181 -0.0070
 2035SOL    HW117564   0.838   2.891  12.743  0.7078 -1.1087 -0.7904
 2035SOL    HW217565   0.767   2.914  12.617  0.4430 -0.2404  0.5120
 2036SOL     OW17566   2.816   2.702  10.189 -0.8659  0.4115 -0.2359
 2036SOL    HW117567   2.907   2.720  10.165 -0.7315  1.4741  1.0380
 2036SOL    HW217568   2.817   2.614  10.153 -2.5457 -0.0209  0.8082
 2037SOL     OW17569   1.785   3.563   7.538 -0.2461  0.0751 -0.1071
 2037SOL    HW117570   1.756   3.610   7.615  3.2090  0.3777  0.9871
 2037SOL    HW217571   1.879   3.578   7.543  0.2195 -3.8152  2.8628
 2038SOL     OW17572   0.877   3.208   6.189 -0.6958  0.4039 -0.4983
 2038SOL    HW117573   0.898   3.223   6.281 -3.3100  1.1339 -0.0237
 2038SOL    HW217574   0.917   3.121   6.191  0.7544  1.0805  0.7612
 2039SOL     OW17575   2.534   4.452   1.175  0.3977  0.1941  0.7359
 2039SOL    HW117576   2.507   4.485   1.089  2.9502  1.9003  0.6136
 2039SOL    HW217577   2.519   4.523   1.237  0.5216 -0.8584  1.9711
 2040SOL     OW17578   0.455   3.357   4.723  0.2350 -0.5871 -0.4160
 2040SOL    HW117579   0.535   3.386   4.679  0.5117  1.6343  1.4818
 2040SOL    HW217580   0.438   3.432   4.781  1.3348  0.5114 -1.5156
 2041SOL     OW17581   1.589   4.714   9.060  0.1718 -0.3810  0.1289
 2041SOL    HW117582   1.510   4.690   9.110  0.1727  0.1996  0.4160
 2041SOL    HW217583   1.643   0.041   9.123  0.7779  0.3220 -0.9363
 2042SOL     OW17584   0.219   3.663   9.141 -0.0990  0.2261  0.3625
 2042SOL    HW117585   0.220   3.619   9.227  0.0830  1.2560  0.8927
 2042SOL    HW217586   0.285   3.605   9.103 -0.6211 -2.6177  3.7521
 2043SOL     OW17587   1.614   3.678   6.318 -0.7391  0.0290  0.1950
 2043SOL    HW117588   1.611   3.584   6.333 -1.8246  0.0899  0.3184
 2043SOL    HW217589   1.523   3.701   6.303 -0.6206  0.8871  0.7721
 2044SOL     OW17590   3.760   0.264  11.982  0.2761 -0.3912  0.3808
 2044SOL    HW117591   3.703   0.320  12.035  1.5827  1.0851  0.2064
 2044SOL    HW217592   3.770   0.189  12.041  2.1270  0.9950  1.8464
 2045SOL     OW17593   2.597   3.037  15.052  0.0404 -0.6708  0.7068
 2045SOL    HW117594   2.522   3.092  15.029  0.2151 -0.7138  0.0268
 2045SOL    HW217595   2.655   3.103  15.090  0.0543 -0.7320  0.7913
 2046SOL     OW17596   4.716   3.532  11.895 -0.2285 -0.4206  0.1437
 2046SOL    HW117597   4.636   3.574  11.926  1.0198  0.5459  2.0876
 2046SOL    HW217598   4.681   3.507  11.810 -2.4192  2.4748  0.1942
 2047SOL     OW17599   3.267   1.499   5.880 -0.2105  0.3065 -0.6701
 2047SOL    HW117600   3.326   1.444   5.933 -0.3544 -1.0139 -1.8747
 2047SOL    HW217601   3.247   1.435   5.812 -1.7626  0.0142  0.0825
 2048SOL     OW17602   0.194   0.718  15.194 -0.0716 -0.7968  0.4505
 2048SOL    HW117603   0.187   0.723  15.099  0.1835  0.4580  0.4931
 2048SOL    HW217604   0.149   0.796  15.228  1.8338  0.7999 -0.6777
 2049SOL     OW17605   1.833   2.232   6.434 -0.2862  0.2262 -0.0570
 2049SOL    HW117606   1.888   2.166   6.391  0.0736 -1.7540  3.4406
 2049SOL    HW217607   1.819   2.296   6.365 -0.4410  0.3987  0.1357
 2050SOL     OW17608   3.962   0.334   5.729 -0.5179  0.7320  0.1433
 2050SOL    HW117609   4.003   0.393   5.792 -1.0255  3.8589 -2.4253
 2050SOL    HW217610   3.956   0.249   5.773  2.6258  0.0257 -0.7658
 2051SOL     OW17611   4.301   1.834   8.447 -0.1786  0.6437 -0.0953
 2051SOL    HW117612   4.277   1.907   8.390 -0.6019  2.1481  2.0161
 2051SOL    HW217613   4.388   1.821   8.410  0.6363  1.9711  1.3401
 2052SOL     OW17614   4.600   2.525  10.667  0.1148 -0.0184  0.1282
 2052SOL    HW117615   4.551   2.506  10.747  0.2721  0.4536  0.3361
 2052SOL    HW217616   4.541   2.488  10.601 -0.4057 -0.6914  0.9781
 2053SOL     OW17617   3.442   3.875   2.367 -0.1610 -0.1135 -0.3661
 2053SOL    HW117618   3.350   3.891   2.390 -0.3422 -0.2285 -1.0185
 2053SOL    HW217619   3.426   3.834   2.282  0.2660 -1.3194  0.1459
 2054SOL     OW17620   2.152   0.493  10.036 -0.3977  0.1841  0.3562
 2054SOL    HW117621   2.237   0.452  10.052 -0.7922 -0.7014  0.1956
 2054SOL    HW217622   2.178   0.579  10.002  2.7634 -0.7023  0.5930
 2055SOL     OW17623   2.434   1.210  11.975 -0.4457 -0.1403 -0.4375
 2055SOL    HW117624   2.344   1.233  11.950 -0.9665 -0.6636  0.9367
 2055SOL    HW217625   2.445   1.127  11.930 -0.6909 -0.9891  1.0745
 2056SOL     OW17626   2.207   0.532   1.909  0.2262 -0.5292  0.2019
 2056SOL    HW117627   2.255   0.613   1.929  0.4315 -0.6316  0.1302
 2056SOL    HW217628   2.258   0.475   1.966  1.7591 -1.1004 -1.7325
 2057SOL     OW17629   3.785   4.610   8.238 -0.0888 -0.1369  0.1302
 2057SOL    HW117630   3.752   4.522   8.220  0.0279 -0.1675  0.0653
 2057SOL    HW217631   3.724   4.673   8.199 -2.2322 -2.5164 -0.3836
 2058SOL     OW17632   1.525   4.574  17.457  0.2621 -0.1100 -0.5363
 2058SOL    HW117633   1.621   4.572  17.458  0.2298 -0.8535  0.6735
 2058SOL    HW217634   1.513   4.636  17.529 -1.9680  0.2440 -1.2256
 2059SOL     OW17635   1.877   2.670   8.246  0.4443 -0.0477  0.5309
 2059SOL    HW117636   1.799   2.636   8.290  0.0324  1.1322  0.7019
 2059SOL    HW217637   1.894   2.735   8.314 -1.8152 -1.5080  2.4922
 2060SOL     OW17638   1.573   1.608  13.868  0.2981 -0.1776 -0.1110
 2060SOL    HW117639   1.590   1.519  13.834  0.6321 -0.9314  2.0279
 2060SOL    HW217640   1.489   1.599  13.912  0.8212  1.4830  1.1907
 2061SOL     OW17641   0.027   2.033   0.278  0.2579  0.2580 -0.4588
 2061SOL    HW117642   0.036   2.070   0.365 -0.3717  0.8742 -0.6630
 2061SOL    HW217643   0.107   2.069   0.239 -0.6553  2.5060 -0.2066
 2062SOL     OW17644   3.514   4.349  13.471  0.2750 -0.1312 -0.4028
 2062SOL    HW117645   3.424   4.375  13.450  0.8145  2.9223  1.1613
 2062SOL    HW217646   3.554   4.344  13.384  1.0075 -3.8958  0.1135
 2063SOL     OW17647   1.100   3.226   1.215  0.3363  0.3778  0.2061
 2063SOL    HW117648   1.018   3.273   1.203  0.3065 -0.2384 -1.8729
 2063SOL    HW217649   1.162   3.279   1.166  0.2290 -0.0659 -0.4046
 2064SOL     OW17650   2.488   3.115   4.234  0.1548  0.1052 -0.6594
 2064SOL    HW117651   2.422   3.100   4.167 -1.6105  1.4607  0.7963
 2064SOL    HW217652   2.480   3.031   4.281 -0.1389  1.5969  1.9409
 2065SOL     OW17653   0.323   3.919  16.442  0.1842 -0.1038  0.5226
 2065SOL    HW117654   0.317   3.846  16.380  0.5972  0.5811 -0.3326
 2065SOL    HW217655   0.255   3.974  16.404 -1.2529 -3.4341 -1.7296
 2066SOL     OW17656   2.035   1.176   7.522  0.0808  0.3544 -0.9987
 2066SOL    HW117657   2.010   1.084   7.535  0.4567  0.1658 -1.5868
 2066SOL    HW217658   2.020   1.212   7.609  1.1562 -2.3496  0.3350
 2067SOL     OW17659   0.370   2.249   7.442 -0.1820 -0.2768 -0.6194
 2067SOL    HW117660   0.426   2.308   7.391 -0.0395 -1.0866 -1.4067
 2067SOL    HW217661   0.279   2.271   7.422 -0.5006 -1.6520 -0.6704
 2068SOL     OW17662   3.071   4.425   5.940  0.3363 -0.6540 -0.1844
 2068SOL    HW117663   3.155   4.467   5.921 -0.0377  0.3572  0.4058
 2068SOL    HW217664   3.083   4.391   6.028  2.6954 -0.6516 -0.5004
 2069SOL     OW17665   3.356   0.453   1.466 -0.1640 -0.3846 -0.5144
 2069SOL    HW117666   3.346   0.396   1.542 -1.5780  0.1393 -0.3041
 2069SOL    HW217667   3.287   0.415   1.411 -1.3938  0.7479  0.2734
 2070SOL     OW17668   2.149   4.401   4.205 -0.2311 -0.5396  0.0768
 2070SOL    HW117669   2.088   4.401   4.132  0.2969 -0.4013 -0.3676
 2070SOL    HW217670   2.188   4.315   4.190 -3.2577 -1.3633 -3.0687
 2071SOL     OW17671   3.270   3.765   8.336 -0.0039 -0.2154  0.0125
 2071SOL    HW117672   3.268   3.784   8.242 -1.0054  0.7105  0.2158
 2071SOL    HW217673   3.314   3.840   8.375  1.7977 -1.4612  0.3759
 2072SOL     OW17674   3.202   4.504   0.903  0.1413  0.0159 -0.3032
 2072SOL    HW117675   3.284   4.505   0.952  1.0447  2.7625 -1.8782
 2072SOL    HW217676   3.157   4.424   0.932 -0.1967 -0.4858 -2.1942
 2073SOL     OW17677   1.802   0.772   3.718  0.8301  0.0681 -0.5110
 2073SOL    HW117678   1.858   0.848   3.700 -0.8476  1.5499  0.5048
 2073SOL    HW217679   1.717   0.809   3.693 -0.0491 -1.5362  0.0918
 2074SOL     OW17680   0.552   2.984   2.068  0.0779 -0.2545  0.0404
 2074SOL    HW117681   0.524   3.071   2.096  2.0525  0.4884 -0.3140
 2074SOL    HW217682   0.620   3.006   2.004 -0.1547 -0.4591 -0.2773
 2075SOL     OW17683   3.309   3.405  15.407  0.1378 -0.2754 -0.0182
 2075SOL    HW117684   3.267   3.319  15.409 -2.2520  0.9093  0.6902
 2075SOL    HW217685   3.302   3.429  15.315  0.5783 -1.2457 -0.3064
 2076SOL     OW17686   2.345   2.948   1.095  0.1807  0.2391  0.0933
 2076SOL    HW117687   2.334   2.966   1.002 -2.1082 -1.9944 -0.0318
 2076SOL    HW217688   2.277   2.997   1.142 -0.4418  0.4637 -1.0538
 2077SOL     OW17689   1.783   4.667   1.626  0.1575 -0.0067 -0.1300
 2077SOL    HW117690   1.737   0.023   1.660 -0.3410  1.0490 -3.1239
 2077SOL    HW217691   1.797   4.625   1.710 -1.7695  0.5157  0.4619
 2078SOL     OW17692   0.518   1.197  12.345 -0.3997  0.3262  0.3243
 2078SOL    HW117693   0.446   1.160  12.396  0.0189 -1.1135 -0.1363
 2078SOL    HW217694   0.543   1.138  12.274  0.1717 -1.2543  1.8484
 2079SOL     OW17695   1.994   2.355   0.507 -0.1541 -0.4817  0.4383
 2079SOL    HW117696   1.962   2.292   0.572 -0.3311  1.6523  2.4326
 2079SOL    HW217697   1.980   2.291   0.438 -1.5299 -0.3379  0.5647
 2080SOL     OW17698   2.403   1.956   0.341 -0.4016  0.3351 -0.6788
 2080SOL    HW117699   2.361   2.024   0.394 -0.3199 -0.7556  0.7624
 2080SOL    HW217700   2.406   1.986   0.250  0.7972 -1.7413 -1.3198
 2081SOL     OW17701   1.327   1.727   5.526  0.0884  0.3089 -0.4106
 2081SOL    HW117702   1.383   1.751   5.452 -0.1659 -0.5360 -0.8832
 2081SOL    HW217703   1.397   1.678   5.568  0.2501 -0.4331 -1.5392
 2082SOL     OW17704   2.453   2.522  15.513  0.5679  0.0635  0.0757
 2082SOL    HW117705   2.470   2.449  15.572 -1.7006  2.6528  3.9266
 2082SOL    HW217706   2.358   2.513  15.499  0.3591 -0.6672  1.9850
 2083SOL     OW17707   1.070   0.092   9.690  0.6077  0.5986  0.3438
 2083SOL    HW117708   1.095   0.174   9.648  0.2337 -0.3305 -1.6965
 2083SOL    HW217709   1.137   0.092   9.759  3.2688  0.2040 -2.2017
 2084SOL     OW17710   0.293   0.471   7.462 -0.0287  0.7261 -0.0245
 2084SOL    HW117711   0.210   0.517   7.469 -0.3014  0.1651  0.4726
 2084SOL    HW217712   0.275   0.427   7.379  0.4415  2.0068 -0.8108
 2085SOL     OW17713   3.760   4.141   8.875 -0.2536  0.1984  0.3242
 2085SOL    HW117714   3.805   4.080   8.933  0.5880  0.6901  0.1806
 2085SOL    HW217715   3.678   4.093   8.862  0.3791 -1.2320  1.5204
 2086SOL     OW17716   0.685   4.211   8.372 -0.1862 -0.7345 -0.0479
 2086SOL    HW117717   0.761   4.250   8.329 -0.3280 -1.4727 -0.9972
 2086SOL    HW217718   0.628   4.287   8.380  2.4542  1.4925 -2.6830
 2087SOL     OW17719   3.426   0.504   3.253  0.2761 -0.4650  0.4416
 2087SOL    HW117720   3.371   0.502   3.332  0.5276 -0.1600  0.6254
 2087SOL    HW217721   3.508   0.492   3.300  1.5861  1.2244 -1.4304
 2088SOL     OW17722   2.790   2.238   8.842 -0.1436  0.0515  0.0391
 2088SOL    HW117723   2.819   2.326   8.818  1.3575 -0.6560 -0.6926
 2088SOL    HW217724   2.866   2.182   8.856 -0.0497  0.3238  0.6132
 2089SOL     OW17725   2.336   1.297   4.223 -0.0244 -0.2598  0.3314
 2089SOL    HW117726   2.343   1.365   4.156 -0.6137  1.7783  2.3252
 2089SOL    HW217727   2.246   1.268   4.204  0.3628 -1.5656  0.4738
 2090SOL     OW17728   3.791   4.399   8.786 -0.2668 -0.5814  0.1472
 2090SOL    HW117729   3.807   4.305   8.795 -0.4939 -0.4925  1.4523
 2090SOL    HW217730   3.856   4.434   8.846  1.2352 -2.5446 -0.3306
 2091SOL     OW17731   0.398   3.527   9.011 -0.1972  0.2023  0.0667
 2091SOL    HW117732   0.493   3.541   9.010 -0.2232  0.4052  0.7903
 2091SOL    HW217733   0.396   3.461   8.941 -0.2553  0.3951 -0.1147
 2092SOL     OW17734   4.326   3.691   4.087 -0.3844  0.1810  0.4088
 2092SOL    HW117735   4.366   3.778   4.088  1.4763 -0.7146  2.9031
 2092SOL    HW217736   4.239   3.712   4.121 -0.7864 -0.8637  0.0579
 2093SOL     OW17737   0.464   4.294  12.704  0.1594 -0.2916 -0.2237
 2093SOL    HW117738   0.484   4.247  12.624  2.9496 -1.5421  1.1814
 2093SOL    HW217739   0.535   4.260  12.759 -0.5218  0.4739  1.1278
 2094SOL     OW17740   3.372   2.314   0.550 -0.1760 -0.0983  0.1035
 2094SOL    HW117741   3.435   2.296   0.619  1.0437 -1.2021 -1.2945
 2094SOL    HW217742   3.298   2.259   0.574  0.5104 -0.9156  0.3104
 2095SOL     OW17743   3.101   0.072   3.267  0.1281  0.3110 -0.3205
 2095SOL    HW117744   3.069   0.095   3.354  1.5994  0.1997  0.2485
 2095SOL    HW217745   3.020   0.041   3.226 -0.8842  1.5506  0.7266
 2096SOL     OW17746   0.047   3.811   8.182 -0.6656 -0.5629  0.3911
 2096SOL    HW117747   0.096   3.890   8.205 -2.3496  0.8689 -0.9746
 2096SOL    HW217748   0.056   3.770   8.268 -1.7944  0.3682  0.9472
 2097SOL     OW17749   0.457   3.433  14.869 -0.8554 -0.4415  0.4562
 2097SOL    HW117750   0.378   3.473  14.832 -1.2500 -1.7564 -0.1253
 2097SOL    HW217751   0.442   3.441  14.963 -0.8955  0.2001  0.3931
 2098SOL     OW17752   4.464   4.679   1.844  0.4892  0.2747 -0.1509
 2098SOL    HW117753   4.411   4.602   1.823  0.9087 -0.4170  1.3546
 2098SOL    HW217754   4.551   4.638   1.843  1.2577  1.8769  1.3457
 2099SOL     OW17755   2.471   0.172   6.271 -0.7419 -0.4301  0.5910
 2099SOL    HW117756   2.473   0.245   6.332 -0.1695  1.2779 -1.4796
 2099SOL    HW217757   2.502   0.208   6.188 -0.9906  0.1647  0.7552
 2100SOL     OW17758   1.113   4.115   9.636 -0.5198  0.5555  0.6188
 2100SOL    HW117759   1.202   4.128   9.606  0.0710 -4.4600  0.1665
 2100SOL    HW217760   1.087   4.197   9.679  1.1935  0.4562  1.8534
 2101SOL     OW17761   0.799   4.441   6.334 -0.6106 -0.1892  0.7223
 2101SOL    HW117762   0.842   4.477   6.412 -0.3218  2.4421 -0.6478
 2101SOL    HW217763   0.741   4.515   6.318 -1.5340 -1.2904 -0.9587
 2102SOL     OW17764   3.479   3.907   6.210 -0.0802 -0.2520 -0.5643
 2102SOL    HW117765   3.391   3.918   6.246 -0.4820 -0.0348 -1.6300
 2102SOL    HW217766   3.530   3.975   6.253 -0.3033 -0.0239 -0.6607
 2103SOL     OW17767   1.163   1.934   8.424 -0.6427 -0.0882  0.2808
 2103SOL    HW117768   1.127   1.883   8.496  0.3618 -2.2447 -0.7560
 2103SOL    HW217769   1.084   1.981   8.394  0.0589  1.3726  0.7211
 2104SOL     OW17770   4.365   0.983   2.192 -0.1077  0.8161 -0.8760
 2104SOL    HW117771   4.298   0.919   2.168  1.2549 -1.1064  0.4042
 2104SOL    HW217772   4.431   0.924   2.229  0.2362  2.6987  1.5230
 2105SOL     OW17773   2.181   1.037   8.889  0.2360  0.8613 -0.0027
 2105SOL    HW117774   2.242   0.977   8.932 -1.7523  1.2173  3.2830
 2105SOL    HW217775   2.222   1.048   8.803 -0.4419  1.9637 -0.1744
 2106SOL     OW17776   0.614   1.001   2.255 -0.5888 -0.0464 -0.4445
 2106SOL    HW117777   0.579   0.948   2.327 -1.2858 -0.2834 -0.9568
 2106SOL    HW217778   0.538   1.054   2.230  0.8622  1.1674 -2.3139
 2107SOL     OW17779   2.792   1.281   7.576 -0.1453  0.3966 -0.1648
 2107SOL    HW117780   2.750   1.300   7.660 -0.9386  1.3408 -0.7671
 2107SOL    HW217781   2.882   1.299   7.601  0.0639  0.7721 -1.1641
 2108SOL     OW17782   3.109   2.818   1.578 -0.1561 -0.8951  0.1755
 2108SOL    HW117783   3.182   2.865   1.619  1.0892 -2.1865 -0.5651
 2108SOL    HW217784   3.153   2.758   1.518  1.4280  2.8817 -2.4312
 2109SOL     OW17785   1.571   0.911   8.219  0.2240  0.0821 -0.1677
 2109SOL    HW117786   1.570   0.817   8.239  0.1433 -0.1235 -1.1543
 2109SOL    HW217787   1.487   0.938   8.256  0.5541 -0.5031  1.0108
 2110SOL     OW17788   1.071   1.216  12.324  0.5069 -0.0252  0.0478
 2110SOL    HW117789   1.105   1.294  12.368 -0.5083  0.1565  0.5124
 2110SOL    HW217790   1.154   1.169  12.321 -0.4495 -1.6361 -1.1844
 2111SOL     OW17791   0.679   2.041   7.956  0.0200 -0.0470 -0.0008
 2111SOL    HW117792   0.676   1.959   8.004 -0.3054 -0.2146 -0.3026
 2111SOL    HW217793   0.749   2.027   7.892  0.9173  0.9893  0.7564
 2112SOL     OW17794   0.545   4.401   4.960 -1.0020 -0.2855  0.2203
 2112SOL    HW117795   0.633   4.435   4.941 -0.9543 -0.1766  0.6333
 2112SOL    HW217796   0.533   4.426   5.052 -0.9839 -2.1383  0.7137
 2113SOL     OW17797   4.068   0.408  12.100  0.1329 -0.4901  0.3793
 2113SOL    HW117798   4.113   0.374  12.177 -0.6607 -1.4756  0.4019
 2113SOL    HW217799   3.979   0.436  12.121  0.1980 -0.2594  0.3544
 2114SOL     OW17800   2.968   2.714   6.995 -0.5937 -0.2672 -0.3327
 2114SOL    HW117801   3.006   2.693   7.080  0.1921 -1.6231 -1.0270
 2114SOL    HW217802   2.975   2.809   6.992 -0.8149 -0.2148  0.7107
 2115SOL     OW17803   0.740   4.281  12.849  0.0912  0.2573  0.0685
 2115SOL    HW117804   0.834   4.269  12.839  0.2882  2.1723 -0.4426
 2115SOL    HW217805   0.722   4.339  12.774 -1.4876 -1.0825 -0.5863
 2116SOL     OW17806   1.633   0.938   3.158 -0.4121 -0.2101  0.0953
 2116SOL    HW117807   1.585   0.911   3.236 -1.3904  1.1714 -0.0310
 2116SOL    HW217808   1.590   0.873   3.102  1.5366 -1.7359  0.3591
 2117SOL     OW17809   4.295   4.606   7.537  0.1970 -0.2064  0.0106
 2117SOL    HW117810   4.233   4.677   7.553  2.5596  1.2790  2.4827
 2117SOL    HW217811   4.236   4.533   7.557  1.0402 -0.7612  0.4690
 2118SOL     OW17812   0.308   2.987   6.213  0.0516 -0.1095  0.3746
 2118SOL    HW117813   0.228   2.975   6.264  0.3184 -1.0798  0.5797
 2118SOL    HW217814   0.285   3.044   6.140  0.4786 -1.5485 -0.8889
 2119SOL     OW17815   2.119   3.901   6.087  0.5634  0.3634 -0.7045
 2119SOL    HW117816   2.040   3.881   6.139  0.4213  1.8655 -0.3240
 2119SOL    HW217817   2.179   3.920   6.159  0.0591 -2.3626  0.4494
 2120SOL     OW17818   1.482   0.704   3.071 -0.4086 -0.3459  0.1134
 2120SOL    HW117819   1.448   0.728   2.985 -0.3456  0.0990  0.2122
 2120SOL    HW217820   1.400   0.678   3.113 -1.2897 -1.0389 -2.0529
 2121SOL     OW17821   2.377   4.148   5.978  0.1528  0.4457  0.1188
 2121SOL    HW117822   2.434   4.171   5.905 -0.2058  1.6467  0.2129
 2121SOL    HW217823   2.403   4.059   6.002 -0.8699  0.7747  2.4737
 2122SOL     OW17824   1.663   3.253   2.221 -0.7931  0.5139  0.9272
 2122SOL    HW117825   1.678   3.159   2.212  0.0954  1.1002 -3.6879
 2122SOL    HW217826   1.741   3.289   2.263 -1.6358  1.2619  1.8409
 2123SOL     OW17827   4.633   0.570   2.477 -0.0530  0.5787  0.1020
 2123SOL    HW117828   4.570   0.547   2.546  2.1038  0.0321  1.8842
 2123SOL    HW217829   4.614   0.507   2.408 -1.6347  0.8134  0.3305
 2124SOL     OW17830   0.683   4.381   9.074  0.0023  0.0074  0.3182
 2124SOL    HW117831   0.729   4.308   9.117  0.3150  0.7692  1.2795
 2124SOL    HW217832   0.604   4.390   9.128 -0.3702  0.1678 -0.2520
 2125SOL     OW17833   2.469   4.168   9.082 -0.0899  0.4023  0.0154
 2125SOL    HW117834   2.415   4.238   9.119 -1.2236 -0.5690  0.1862
 2125SOL    HW217835   2.458   4.177   8.987 -0.5490 -0.9296 -0.0556
 2126SOL     OW17836   2.033   1.346   2.091  0.1096  0.4068 -0.3131
 2126SOL    HW117837   2.035   1.363   1.997 -2.7679  2.1066 -0.0881
 2126SOL    HW217838   2.038   1.251   2.091 -1.3268  0.3172  0.3720
 2127SOL     OW17839   0.483   0.700   5.129 -0.0968  0.1762 -0.0772
 2127SOL    HW117840   0.418   0.630   5.115  0.4483 -0.7457  2.0797
 2127SOL    HW217841   0.498   0.689   5.223 -1.0962 -2.4191 -0.1952
 2128SOL     OW17842   3.141   4.420   7.748  0.5744 -0.5954  0.1994
 2128SOL    HW117843   3.123   4.340   7.697  1.0226  0.4187 -1.5593
 2128SOL    HW217844   3.130   4.390   7.838 -0.1053  1.0892  0.6786
 2129SOL     OW17845   2.584   2.606   0.424 -0.6874  0.0290 -0.4169
 2129SOL    HW117846   2.602   2.556   0.344 -0.1901  2.0035 -1.5279
 2129SOL    HW217847   2.503   2.565   0.455 -0.6988  0.2803 -0.1149
 2130SOL     OW17848   2.236   2.781   6.287  0.1284 -0.4058 -0.0246
 2130SOL    HW117849   2.237   2.690   6.256 -0.2962  0.2194 -1.9027
 2130SOL    HW217850   2.221   2.821   6.201 -3.0204  1.1766  1.2673
 2131SOL     OW17851   0.541   2.829   7.528  0.3555  0.2189 -0.1501
 2131SOL    HW117852   0.590   2.890   7.583  1.4838  0.6753 -1.6589
 2131SOL    HW217853   0.517   2.774   7.602  1.8181 -1.3687 -0.8474
 2132SOL     OW17854   4.009   1.653   8.801 -0.0328  0.1797 -0.1888
 2132SOL    HW117855   3.976   1.615   8.882 -1.3627 -0.9495 -1.2574
 2132SOL    HW217856   3.929   1.682   8.756 -0.6962 -1.0200  0.2156
 2133SOL     OW17857   4.344   4.066   1.096 -0.0674 -0.0161  0.3538
 2133SOL    HW117858   4.427   4.050   1.049  0.1427 -0.4582  0.8713
 2133SOL    HW217859   4.370   4.078   1.187 -1.6176  2.1797  0.4890
 2134SOL     OW17860   2.929   1.062   2.939  0.2144  0.4827 -0.5684
 2134SOL    HW117861   2.876   1.041   2.863  1.7765  0.5149 -1.6605
 2134SOL    HW217862   2.939   1.156   2.927  2.2049  0.4251  0.6861
 2135SOL     OW17863   0.617   0.968   4.170 -0.1789  0.0360 -0.7750
 2135SOL    HW117864   0.563   0.947   4.247  0.4832 -1.4186 -0.7087
 2135SOL    HW217865   0.612   1.063   4.185 -2.4060 -0.3476  1.0908
 2136SOL     OW17866   0.822   4.720   1.093 -0.2799 -0.6448 -0.3920
 2136SOL    HW117867   0.908   4.703   1.054  0.7325  0.6326  1.3158
 2136SOL    HW217868   0.770   4.696   1.016 -1.9529  1.0184  0.2391
 2137SOL     OW17869   3.480   2.232  11.462 -0.5573  0.0088  0.4375
 2137SOL    HW117870   3.551   2.285  11.498  0.3294 -0.7608 -0.1609
 2137SOL    HW217871   3.477   2.242  11.367  0.8031 -1.9762  0.1957
 2138SOL     OW17872   4.342   3.755   5.584 -0.0660  0.2630 -0.2337
 2138SOL    HW117873   4.261   3.787   5.622 -0.4924 -0.4918 -0.4929
 2138SOL    HW217874   4.311   3.664   5.584 -0.7522  0.5003  0.1150
 2139SOL     OW17875   2.597   1.591  16.292  0.0922 -0.1157  0.8423
 2139SOL    HW117876   2.674   1.568  16.240  0.6263 -1.2475  2.1593
 2139SOL    HW217877   2.532   1.588  16.221  0.5955  0.4607  0.3504
 2140SOL     OW17878   0.886   0.911   7.367 -0.2001  0.3068 -1.0487
 2140SOL    HW117879   0.881   1.000   7.333 -2.0312  0.4007 -0.5488
 2140SOL    HW217880   0.801   0.878   7.336 -0.7610  0.2509  0.5729
 2141SOL     OW17881   2.839   2.056   1.253  0.7514 -0.2776 -0.3925
 2141SOL    HW117882   2.876   2.113   1.320 -1.8389  0.6175  0.2388
 2141SOL    HW217883   2.877   1.970   1.269  1.5476  0.1239 -0.1287
 2142SOL     OW17884   3.622   0.898   8.238 -0.4086  0.1425 -0.4751
 2142SOL    HW117885   3.700   0.935   8.198  2.0145 -2.8584  1.4842
 2142SOL    HW217886   3.561   0.945   8.181 -0.8169 -0.6101 -0.6550
 2143SOL     OW17887   4.444   4.405   2.039 -0.0227  0.5671 -0.2621
 2143SOL    HW117888   4.404   4.472   2.095  0.4278  0.6612 -0.0587
 2143SOL    HW217889   4.394   4.425   1.960 -0.4540  1.6366  0.2812
 2144SOL     OW17890   1.204   2.454   8.657 -0.0880  0.4196 -0.3052
 2144SOL    HW117891   1.232   2.537   8.695 -1.4043  1.1833 -1.0050
 2144SOL    HW217892   1.129   2.433   8.714 -0.0284  0.2810 -0.2777
 2145SOL     OW17893   4.421   2.504   1.583  0.2065 -0.6584  0.1347
 2145SOL    HW117894   4.326   2.510   1.588  0.3911  2.0690  0.7748
 2145SOL    HW217895   4.438   2.438   1.651 -2.3064  1.0608  2.4002
 2146SOL     OW17896   3.179   4.075   5.904 -0.4555  0.0772 -0.7376
 2146SOL    HW117897   3.152   4.051   5.993 -1.3112  0.3343 -0.9287
 2146SOL    HW217898   3.100   4.115   5.867  0.1116  1.8186 -0.0313
 2147SOL     OW17899   2.253   2.909   4.844 -0.7602 -0.1932  0.1467
 2147SOL    HW117900   2.199   2.854   4.788  0.7056 -1.8877  0.3886
 2147SOL    HW217901   2.278   2.846   4.911  1.4279  0.4471 -0.0855
 2148SOL     OW17902   2.127   4.574  11.060  0.0010 -0.0706  0.5542
 2148SOL    HW117903   2.180   4.556  10.983 -1.7015  0.7287 -0.7808
 2148SOL    HW217904   2.038   4.542  11.047 -0.6410  0.1737  4.2158
 2149SOL     OW17905   0.229   4.653   0.899  0.3298  0.4619 -0.5065
 2149SOL    HW117906   0.266   4.649   0.987 -2.3530  1.9187  0.6977
 2149SOL    HW217907   0.304   4.688   0.852  2.4024 -1.6116  1.2341
 2150SOL     OW17908   1.501   4.210   6.699  0.0493 -0.3792  0.7535
 2150SOL    HW117909   1.427   4.235   6.644  0.4399 -0.6995  0.0695
 2150SOL    HW217910   1.542   4.139   6.649 -0.5575 -2.1523  2.7788
 2151SOL     OW17911   2.463   3.248  11.415 -0.0357 -0.1297 -0.4302
 2151SOL    HW117912   2.411   3.205  11.348  0.9290 -0.4702 -0.9577
 2151SOL    HW217913   2.550   3.207  11.415 -0.4009 -0.9097  0.0552
 2152SOL     OW17914   0.989   2.527   7.200 -0.3517  0.0462 -0.1005
 2152SOL    HW117915   0.979   2.620   7.179  0.7991 -0.4342 -2.7399
 2152SOL    HW217916   0.945   2.513   7.284 -0.4341 -0.9504 -0.3065
 2153SOL     OW17917   1.470   1.265   4.131  0.6417  0.2104  0.4179
 2153SOL    HW117918   1.506   1.211   4.060 -0.2754 -0.8935  0.7917
 2153SOL    HW217919   1.540   1.327   4.152  1.0440 -0.6915  1.7403
 2154SOL     OW17920   0.960   3.369  12.223 -0.1367 -0.2367  0.1542
 2154SOL    HW117921   0.949   3.400  12.313 -2.5193  0.3246 -0.3248
 2154SOL    HW217922   0.900   3.294  12.227 -0.9419  0.2828 -1.9299
 2155SOL     OW17923   2.195   3.642   5.229 -0.0534 -0.6654 -0.2623
 2155SOL    HW117924   2.185   3.663   5.322 -0.4026 -2.6960  0.1593
 2155SOL    HW217925   2.205   3.547   5.239 -1.0103 -1.0195 -2.6304
 2156SOL     OW17926   4.241   2.549   3.247  0.0254 -0.1118 -0.2141
 2156SOL    HW117927   4.195   2.583   3.170 -0.0908 -2.2442 -1.0876
 2156SOL    HW217928   4.190   2.573   3.325 -2.7566  0.7908 -2.3307
 2157SOL     OW17929   1.903   2.559   5.706 -0.5314 -0.1413 -0.1089
 2157SOL    HW117930   1.841   2.626   5.733  1.5497  1.1956  1.3607
 2157SOL    HW217931   1.925   2.527   5.794 -2.2102  0.8836  0.6625
 2158SOL     OW17932   1.920   1.983   8.063 -0.3246  0.8038  0.0526
 2158SOL    HW117933   1.895   2.074   8.073 -0.0744  0.6771  1.9522
 2158SOL    HW217934   2.008   1.993   8.101  0.0375  0.3725 -0.6577
 2159SOL     OW17935   0.329   4.247   7.068  0.1778 -0.0135  0.3081
 2159SOL    HW117936   0.321   4.152   7.079 -2.4268  0.3065  1.1675
 2159SOL    HW217937   0.394   4.270   7.135  0.6287 -1.0905  0.2410
 2160SOL     OW17938   2.660   0.391   6.459 -0.0745  0.2991 -0.0646
 2160SOL    HW117939   2.665   0.473   6.508  1.6642 -0.0070  0.2679
 2160SOL    HW217940   2.572   0.363   6.483 -1.3502  1.7420 -3.0937
 2161SOL     OW17941   0.566   0.713  11.050  0.3839  1.1064 -0.3088
 2161SOL    HW117942   0.597   0.624  11.031 -1.4756 -0.0160  1.8544
 2161SOL    HW217943   0.509   0.701  11.126 -0.0134 -2.4681 -1.1570
 2162SOL     OW17944   3.792   1.747  16.032 -0.3324  0.0104 -0.7126
 2162SOL    HW117945   3.854   1.808  16.072  0.3054  0.1718 -1.9476
 2162SOL    HW217946   3.745   1.729  16.114 -1.0574  0.1197 -1.1081
 2163SOL     OW17947   0.770   1.162  11.290 -0.0057 -0.2721 -0.1941
 2163SOL    HW117948   0.805   1.177  11.378  0.3481  2.2582 -0.7742
 2163SOL    HW217949   0.725   1.245  11.276  1.6682  0.7419  0.3742
 2164SOL     OW17950   2.060   0.844   5.693  0.5384 -0.0944  0.1858
 2164SOL    HW117951   2.003   0.857   5.618  0.0378 -3.3114  0.0248
 2164SOL    HW217952   2.119   0.919   5.680  0.0174  0.2381 -0.2667
 2165SOL     OW17953   2.104   0.498   3.248  0.2203 -0.2287 -0.1822
 2165SOL    HW117954   2.036   0.431   3.245 -2.2104  2.2617 -0.7553
 2165SOL    HW217955   2.042   0.571   3.240 -0.0161 -0.2616  1.4320
 2166SOL     OW17956   3.649   2.772   6.473 -0.3582 -0.2493 -0.0761
 2166SOL    HW117957   3.633   2.834   6.544  0.3398  1.7010 -1.6241
 2166SOL    HW217958   3.745   2.780   6.474 -0.3419 -0.2867 -1.6303
 2167SOL     OW17959   4.457   1.704  10.277 -0.5155  0.0239  0.5990
 2167SOL    HW117960   4.481   1.616  10.307  0.1272 -0.1457 -0.3946
 2167SOL    HW217961   4.506   1.753  10.343 -0.2501  0.5922 -0.0138
 2168SOL     OW17962   3.950   2.899  17.367  0.5314 -0.3311  0.0925
 2168SOL    HW117963   3.892   2.932  17.299 -0.1639 -1.2673  0.2302
 2168SOL    HW217964   3.889   2.841  17.413  0.0468 -1.0629 -1.4613
 2169SOL     OW17965   0.353   4.482   3.045  0.3912  0.1141 -0.6282
 2169SOL    HW117966   0.400   4.548   2.994  0.5087 -0.5424 -1.3754
 2169SOL    HW217967   0.403   4.401   3.043  0.7052  0.2987 -0.3249
 2170SOL     OW17968   1.939   3.427   6.770 -0.1181  0.6218  0.3883
 2170SOL    HW117969   2.029   3.419   6.801  0.6255  0.9922 -1.7444
 2170SOL    HW217970   1.900   3.354   6.820  0.6237  0.7323  1.1376
 2171SOL     OW17971   3.868   3.614  13.824 -0.1653  0.5117  0.3846
 2171SOL    HW117972   3.846   3.590  13.914  0.1411 -1.2994 -0.0079
 2171SOL    HW217973   3.846   3.532  13.778  1.4209  1.0137 -1.2733
 2172SOL     OW17974   2.671   3.624  12.809  0.1940  0.5844 -0.1734
 2172SOL    HW117975   2.595   3.649  12.861  1.1946  1.2683  0.9394
 2172SOL    HW217976   2.667   3.685  12.735  0.2364 -1.3211 -1.7524
 2173SOL     OW17977   3.647   2.589  12.389 -0.6841  0.1758  0.1468
 2173SOL    HW117978   3.557   2.621  12.381 -0.3933  1.0422  0.3466
 2173SOL    HW217979   3.676   2.611  12.301  0.6413  3.5719  1.4114
 2174SOL     OW17980   2.403   3.937   7.930 -0.2633 -0.2411  0.2253
 2174SOL    HW117981   2.453   3.857   7.943 -3.7598 -2.5989 -0.7367
 2174SOL    HW217982   2.319   3.906   7.895 -0.5816  0.3055  0.4951
 2175SOL     OW17983   0.990   0.228  15.622 -0.1639 -0.0515 -0.2065
 2175SOL    HW117984   0.923   0.182  15.673  0.2803  1.2045  1.4898
 2175SOL    HW217985   0.935   0.289  15.572 -0.5186 -2.7401 -3.1159
 2176SOL     OW17986   3.095   2.426   4.401 -0.0366 -0.5390  0.0201
 2176SOL    HW117987   3.160   2.487   4.435 -0.1548 -0.4641  0.1128
 2176SOL    HW217988   3.105   2.356   4.466  2.7904 -0.1654  0.0015
 2177SOL     OW17989   4.670   3.044   2.340 -0.0184  0.1760  0.1054
 2177SOL    HW117990   4.580   3.060   2.315  0.3744  2.7605  0.3403
 2177SOL    HW217991   4.650   3.018   2.430  0.9158 -0.1124  0.2347
 2178SOL     OW17992   4.314   2.651   6.650  0.1540  0.3692 -0.3199
 2178SOL    HW117993   4.408   2.666   6.656  0.6679 -3.0258  0.2973
 2178SOL    HW217994   4.300   2.687   6.563 -3.5284 -3.3969 -1.3042
 2179SOL     OW17995   3.664   1.073   2.135 -0.0911  0.4655  0.7663
 2179SOL    HW117996   3.721   1.081   2.059 -2.1747  1.9279 -0.6577
 2179SOL    HW217997   3.618   0.991   2.118  0.7153  0.5910 -1.9933
 2180SOL     OW17998   4.606   4.409   0.395  0.8234  0.2827  0.4813
 2180SOL    HW117999   4.548   4.413   0.319 -1.4084  0.7914  2.2330
 2180SOL    HW218000   4.602   4.316   0.420  2.9536 -0.5644 -2.2452
 2181SOL     OW18001   3.407   2.975  12.298  0.6747  0.0047 -0.0515
 2181SOL    HW118002   3.502   2.981  12.307  0.7385 -0.7870 -0.1578
 2181SOL    HW218003   3.406   2.928  12.215 -0.0868 -2.6201  1.4179
 2182SOL     OW18004   3.781   0.797   1.094 -0.0074  0.1978  0.0541
 2182SOL    HW118005   3.831   0.781   1.014 -1.2253 -1.9013 -0.2721
 2182SOL    HW218006   3.752   0.709   1.116  1.1668 -0.1360  0.2891
 2183SOL     OW18007   1.178   3.568  14.857  0.3190  0.5701  0.3176
 2183SOL    HW118008   1.240   3.607  14.796 -2.1078  0.6843 -2.0684
 2183SOL    HW218009   1.165   3.635  14.924  0.1462  1.0401 -0.1948
 2184SOL     OW18010   3.530   0.933  11.009 -0.4745  0.2008 -0.0095
 2184SOL    HW118011   3.602   0.916  11.069 -0.8497  1.3693  0.7765
 2184SOL    HW218012   3.467   0.866  11.036  1.0555 -0.3750  2.1406
 2185SOL     OW18013   2.209   0.543   9.450  0.1015 -0.7815 -0.0675
 2185SOL    HW118014   2.186   0.550   9.543  0.8709 -3.7943  0.3724
 2185SOL    HW218015   2.172   0.457   9.426 -0.3561 -0.7629  0.5786
 2186SOL     OW18016   3.335   0.052   7.258 -0.0933 -0.1725  0.5100
 2186SOL    HW118017   3.372   0.040   7.345  1.1705  1.1811  0.1643
 2186SOL    HW218018   3.254   0.003   7.268 -0.7696  1.0927  1.1500
 2187SOL     OW18019   4.428   2.310   8.838 -0.3214 -0.2105  0.2998
 2187SOL    HW118020   4.448   2.379   8.776 -0.2253 -3.1889 -2.9873
 2187SOL    HW218021   4.344   2.338   8.873 -1.3727 -1.4641 -1.2566
 2188SOL     OW18022   0.259   3.038   1.621 -0.6713  0.4593 -0.0269
 2188SOL    HW118023   0.184   3.013   1.675 -0.6737 -0.8426 -0.6500
 2188SOL    HW218024   0.241   3.132   1.613  1.4435  1.0155  1.7960
 2189SOL     OW18025   3.485   4.572   7.093 -0.8130 -0.4338 -0.0493
 2189SOL    HW118026   3.435   4.654   7.096  0.2573  0.2059  0.1282
 2189SOL    HW218027   3.550   4.579   7.162  0.0018  2.7627 -1.1573
 2190SOL     OW18028   0.200   0.898   1.881  0.6738 -0.2883  0.7183
 2190SOL    HW118029   0.238   0.824   1.833  1.4173 -0.0405  0.9298
 2190SOL    HW218030   0.117   0.898   1.833  0.7199  0.0350  0.6409
 2191SOL     OW18031   1.124   4.704   6.096 -0.3135 -0.1020  0.4270
 2191SOL    HW118032   1.197   4.656   6.057  0.5979  2.6647 -1.3222
 2191SOL    HW218033   1.165   0.028   6.169 -2.2963  1.1808  0.7608
 2192SOL     OW18034   4.379   3.260   4.151  0.2419  0.5985 -0.0788
 2192SOL    HW118035   4.467   3.275   4.186  0.9580  0.1151 -1.6773
 2192SOL    HW218036   4.343   3.190   4.206 -1.2913  1.8405  0.5105
 2193SOL     OW18037   0.954   4.321   1.969 -0.0618  0.3759 -0.2934
 2193SOL    HW118038   0.892   4.394   1.973 -0.1573  0.2787 -0.0287
 2193SOL    HW218039   0.893   4.251   1.991  3.0975 -2.0986  0.5326
 2194SOL     OW18040   4.332   0.846   9.541  0.4138 -0.1163  0.6114
 2194SOL    HW118041   4.417   0.890   9.536  0.9706 -1.3618 -1.0075
 2194SOL    HW218042   4.272   0.918   9.559  0.2659  0.0752 -0.6236
 2195SOL     OW18043   2.490   2.501   5.135 -0.5088  0.0182 -0.5660
 2195SOL    HW118044   2.511   2.414   5.101  1.0455 -0.4685  1.6191
 2195SOL    HW218045   2.572   2.520   5.181 -1.0326  1.3952 -0.2093
 2196SOL     OW18046   3.406   2.919  17.131  0.0651 -0.2632 -0.7527
 2196SOL    HW118047   3.472   2.874  17.183  1.4601 -0.0862 -2.3483
 2196SOL    HW218048   3.398   2.850  17.065 -1.8005  1.2555 -2.1150
 2197SOL     OW18049   1.611   2.181   4.918  0.5889 -0.4078  0.4802
 2197SOL    HW118050   1.572   2.144   4.997  0.8871 -2.2608 -0.2509
 2197SOL    HW218051   1.549   2.250   4.892 -0.4701 -0.7022  2.2144
 2198SOL     OW18052   3.537   3.974   3.277 -0.2966 -0.5396 -0.3109
 2198SOL    HW118053   3.585   4.039   3.225 -1.3323  0.0893 -0.4860
 2198SOL    HW218054   3.613   3.944   3.327 -2.2514 -2.1028  1.6932
 2199SOL     OW18055   3.245   3.924   7.168 -0.0939  0.3009 -0.3325
 2199SOL    HW118056   3.245   3.931   7.263  0.3439  3.2458 -0.5575
 2199SOL    HW218057   3.323   3.870   7.158 -0.9126 -1.5895  3.7356
 2200SOL     OW18058   3.065   3.667   4.931 -0.1671 -0.9786  0.0021
 2200SOL    HW118059   3.127   3.667   5.004  0.2920  2.2911 -0.3736
 2200SOL    HW218060   2.996   3.617   4.974 -1.0332 -1.0948 -1.5400
 2201SOL     OW18061   2.781   2.369   4.415  0.6093  0.4060  0.3267
 2201SOL    HW118062   2.811   2.294   4.364 -1.0146 -0.0940  0.1079
 2201SOL    HW218063   2.854   2.428   4.399  1.9565 -1.7226 -1.3432
 2202SOL     OW18064   0.819   1.386  12.466  0.2980 -0.1837  0.2735
 2202SOL    HW118065   0.816   1.444  12.542  1.4784  0.5279 -0.2322
 2202SOL    HW218066   0.869   1.311  12.497  2.6367  0.5173 -1.8618
 2203SOL     OW18067   0.042   0.595   2.810 -0.0947 -0.0244 -0.0674
 2203SOL    HW118068   4.684   0.573   2.859 -0.8654  3.1555  0.1553
 2203SOL    HW218069   0.106   0.532   2.842 -0.6144 -0.7385 -0.4230
 2204SOL     OW18070   1.011   2.061   5.810  0.1507 -0.3446 -0.4049
 2204SOL    HW118071   1.084   2.056   5.748  0.3819  0.2643 -0.1778
 2204SOL    HW218072   0.952   2.119   5.762  0.1092  0.0301  0.1051
 2205SOL     OW18073   4.568   1.647   7.286 -0.1022  0.7157  0.2704
 2205SOL    HW118074   4.497   1.587   7.266 -0.5433  1.2941  0.0836
 2205SOL    HW218075   4.522   1.721   7.325  0.3438  0.8980  0.4562
 2206SOL     OW18076   4.673   4.533  16.048 -0.2122  0.0049  0.1765
 2206SOL    HW118077   0.015   4.604  16.056  3.1225 -2.9310 -0.1295
 2206SOL    HW218078   4.587   4.573  16.064  0.1645  0.4515  1.0431
 2207SOL     OW18079   1.910   2.948   3.839  0.2580 -0.1959  0.1047
 2207SOL    HW118080   1.908   2.890   3.763 -2.2890 -0.4828  0.3951
 2207SOL    HW218081   1.897   2.880   3.904  0.2132 -1.3175 -1.0724
 2208SOL     OW18082   0.799   2.504  17.538  0.6012  0.8355 -0.3102
 2208SOL    HW118083   0.727   2.478  17.595 -1.1646  0.2412 -2.7889
 2208SOL    HW218084   0.861   2.432  17.549 -1.0476 -0.3046  1.4782
 2209SOL     OW18085   2.192   4.439   6.855  0.4824 -0.1653 -0.0114
 2209SOL    HW118086   2.130   4.511   6.861  0.9989  0.3894 -1.3552
 2209SOL    HW218087   2.162   4.368   6.912 -0.6017  0.7019  0.4973
 2210SOL     OW18088   0.711   2.052  11.882 -0.3316  0.1424  0.1219
 2210SOL    HW118089   0.701   1.999  11.802 -0.3430 -1.3273  1.0967
 2210SOL    HW218090   0.621   2.036  11.910 -0.4606 -0.0606 -0.4045
 2211SOL     OW18091   2.493   0.075   1.982  0.0398 -0.5406  0.4033
 2211SOL    HW118092   2.519   0.137   1.914 -0.3870 -0.4781  0.2989
 2211SOL    HW218093   2.521   4.713   1.944 -0.8515 -0.8488  0.4206
 2212SOL     OW18094   4.156   2.025   2.445  0.1553 -0.2612 -0.3603
 2212SOL    HW118095   4.110   2.061   2.369 -2.8361  0.1159  1.6046
 2212SOL    HW218096   4.181   1.935   2.423  1.4095 -0.0578  0.2852
 2213SOL     OW18097   3.766   3.613   4.818  0.0723  0.3985 -0.6167
 2213SOL    HW118098   3.776   3.570   4.903  1.9135  1.7994 -0.1142
 2213SOL    HW218099   3.725   3.696   4.842  1.2543  0.6930  0.4289
 2214SOL     OW18100   4.572   4.359  15.660 -0.3418 -0.0308 -0.1935
 2214SOL    HW118101   4.653   4.409  15.652 -0.3961  0.2186  0.7885
 2214SOL    HW218102   4.515   4.425  15.699  0.6500  0.6628  0.0735
 2215SOL     OW18103   1.467   1.634   2.531 -0.7140  0.0405 -0.2231
 2215SOL    HW118104   1.479   1.556   2.477 -0.2192  0.6455 -0.9729
 2215SOL    HW218105   1.477   1.705   2.469 -0.6773 -1.7879 -2.3079
 2216SOL     OW18106   2.317   1.302   7.526 -0.0102 -0.3602 -0.2280
 2216SOL    HW118107   2.405   1.300   7.489 -0.0755 -2.0190 -0.3046
 2216SOL    HW218108   2.300   1.208   7.535  0.5907 -0.6989 -2.6761
 2217SOL     OW18109   2.324   1.242   1.507 -0.0370  0.2722 -0.0505
 2217SOL    HW118110   2.365   1.156   1.500  0.1164  0.1725  1.9938
 2217SOL    HW218111   2.256   1.229   1.440 -0.7160  0.7727  0.5399
 2218SOL     OW18112   3.886   1.956   2.988  0.1864 -0.5200  0.0235
 2218SOL    HW118113   3.976   1.989   2.981  0.1814 -0.9716 -1.9720
 2218SOL    HW218114   3.878   1.908   2.906  1.0524  1.0644 -0.9879
 2219SOL     OW18115   3.980   2.123  14.595 -0.3380  0.0827 -0.6415
 2219SOL    HW118116   3.896   2.165  14.614  0.0975  0.3935  0.6046
 2219SOL    HW218117   4.022   2.189  14.539  1.9620  0.6620  1.7394
 2220SOL     OW18118   2.783   3.857   2.784  0.1582 -1.0079  0.5427
 2220SOL    HW118119   2.797   3.798   2.858 -1.1005 -1.9576  0.0070
 2220SOL    HW218120   2.699   3.895   2.808  1.6504  1.4686  1.8456
 2221SOL     OW18121   0.879   4.118   4.544 -0.2604 -0.0943  0.0027
 2221SOL    HW118122   0.810   4.134   4.480  0.7878  1.1864 -0.7994
 2221SOL    HW218123   0.959   4.123   4.492  0.6370  0.1963  1.4142
 2222SOL     OW18124   0.936   3.861   9.556 -0.1260  0.0461  0.2745
 2222SOL    HW118125   0.926   3.880   9.462  1.9875  1.4279  0.3288
 2222SOL    HW218126   1.025   3.890   9.576 -1.7293  2.9115  3.1962
 2223SOL     OW18127   2.342   2.641   4.271 -0.0264 -0.3760 -0.0409
 2223SOL    HW118128   2.377   2.597   4.349  0.4974  0.3544  0.1426
 2223SOL    HW218129   2.341   2.579   4.199  3.5610 -0.5145 -0.0042
 2224SOL     OW18130   3.732   0.131  15.946 -0.5161  0.0517  0.6592
 2224SOL    HW118131   3.734   0.079  16.027 -0.8837 -1.8070 -0.5389
 2224SOL    HW218132   3.826   0.143  15.929 -0.9803  1.9488 -0.5643
 2225SOL     OW18133   2.660   2.626  15.361 -0.1556  0.3700 -0.8129
 2225SOL    HW118134   2.641   2.556  15.299 -0.3561 -0.1118 -0.2061
 2225SOL    HW218135   2.592   2.608  15.426  1.0582 -0.4061  0.2381
 2226SOL     OW18136   0.103   2.251   4.652  0.9706 -1.0485 -0.2580
 2226SOL    HW118137   0.190   2.278   4.621  0.9474 -1.6835 -0.8959
 2226SOL    HW218138   0.101   2.159   4.624  1.3218 -1.1014 -0.1040
 2227SOL     OW18139   1.698   0.150  16.417 -0.3704 -0.9793 -0.0310
 2227SOL    HW118140   1.664   0.215  16.355  0.3062 -0.5473  0.0475
 2227SOL    HW218141   1.621   0.095  16.406  0.2483 -1.9734  0.6485
 2228SOL     OW18142   3.890   3.915  16.986  0.0856 -0.3783  0.1820
 2228SOL    HW118143   3.940   3.849  17.034 -0.3041 -0.1460  0.9133
 2228SOL    HW218144   3.958   3.959  16.935  1.4522 -0.0607  2.2518
 2229SOL     OW18145   0.853   1.049  12.439  0.2629  0.6601  0.9651
 2229SOL    HW118146   0.912   1.113  12.400  1.4045 -1.6624 -1.1683
 2229SOL    HW218147   0.889   0.967  12.404 -1.6014  0.7601 -1.1539
 2230SOL     OW18148   0.238   0.004   2.522  0.6109 -0.2892 -0.6951
 2230SOL    HW118149   0.329   0.021   2.546 -0.3499  0.9302  2.0964
 2230SOL    HW218150   0.194   0.010   2.607 -0.1974  0.5654 -1.1731
 2231SOL     OW18151   2.185   0.869   9.489 -0.1459 -0.1963 -0.2294
 2231SOL    HW118152   2.122   0.913   9.432  1.2922  1.1375 -0.7914
 2231SOL    HW218153   2.254   0.934   9.502  1.4589 -1.3153 -3.0737
 2232SOL     OW18154   2.523   2.863   5.460  0.3736 -0.3446  0.0810
 2232SOL    HW118155   2.611   2.895   5.443  0.2250  1.2008  2.2221
 2232SOL    HW218156   2.471   2.929   5.506  1.0740  0.1336  0.1928
 2233SOL     OW18157   3.753   1.114   7.759  0.5604 -0.3534  0.5374
 2233SOL    HW118158   3.692   1.041   7.747  0.9386 -0.7136  0.8291
 2233SOL    HW218159   3.734   1.169   7.683 -2.2637 -0.4321  1.1983
 2234SOL     OW18160   2.183   4.270   0.024 -0.0457  0.2415  0.3746
 2234SOL    HW118161   2.091   4.268   0.049 -0.3175  0.2270 -0.6349
 2234SOL    HW218162   2.207   4.363   0.018 -1.2600  0.5950  1.0418
 2235SOL     OW18163   1.913   0.188   6.519  0.4225 -0.6943 -0.0098
 2235SOL    HW118164   1.856   0.114   6.541  0.4550  0.2705  3.3648
 2235SOL    HW218165   1.987   0.160   6.573  0.5966  0.9827  0.6021
 2236SOL     OW18166   2.602   0.626   1.914 -0.2244  0.1119 -0.2415
 2236SOL    HW118167   2.597   0.539   1.875 -1.6065 -0.2329  0.6823
 2236SOL    HW218168   2.509   0.646   1.927  0.7066  2.5411  2.5936
 2237SOL     OW18169   2.847   2.376   1.012  0.0463 -0.4426  0.4177
 2237SOL    HW118170   2.756   2.349   1.027 -0.7147  1.1908 -1.1546
 2237SOL    HW218171   2.838   2.448   0.949  0.4472  1.0399  2.0527
 2238SOL     OW18172   3.176   0.801  13.449 -0.6778 -0.6417  0.5097
 2238SOL    HW118173   3.146   0.890  13.469 -0.4271 -0.4248 -0.0919
 2238SOL    HW218174   3.249   0.804  13.511  1.1388  1.3669 -1.7030
 2239SOL     OW18175   1.385   1.143   2.661 -0.2199 -0.1243  0.5885
 2239SOL    HW118176   1.399   1.191   2.743  1.6540  0.4929 -0.0735
 2239SOL    HW218177   1.334   1.207   2.610  0.8789 -0.4483 -0.9226
 2240SOL     OW18178   3.698   2.643   4.073  0.1116  0.8348 -0.7289
 2240SOL    HW118179   3.616   2.655   4.025  0.8999  0.6834 -2.1223
 2240SOL    HW218180   3.741   2.725   4.047  1.9138 -0.5466 -2.1575
 2241SOL     OW18181   3.464   1.921   8.000  0.4718  0.3931  0.2955
 2241SOL    HW118182   3.557   1.906   8.018  1.2367  3.1100 -1.4808
 2241SOL    HW218183   3.433   1.832   8.018  0.1770  0.5690  0.6603
 2242SOL     OW18184   1.557   2.947   8.003 -0.1843 -0.0712  0.3399
 2242SOL    HW118185   1.602   3.023   7.965 -1.4100 -0.1259 -1.2435
 2242SOL    HW218186   1.616   2.926   8.075  1.5522  4.5343  0.2647
 2243SOL     OW18187   3.406   0.212   4.114  0.5084  0.1228 -1.1018
 2243SOL    HW118188   3.325   0.207   4.165  2.1742 -1.7567  1.3990
 2243SOL    HW218189   3.428   0.302   4.138 -2.6041  0.8713 -1.1115
 2244SOL     OW18190   1.569   4.033   6.503  0.2763 -0.1808 -0.7042
 2244SOL    HW118191   1.512   4.041   6.426  0.2694  1.1817 -0.5612
 2244SOL    HW218192   1.552   3.942   6.528  1.6543  0.2563  1.7639
 2245SOL     OW18193   3.371   0.152   7.826 -0.9742  0.2916 -0.1029
 2245SOL    HW118194   3.365   0.057   7.837 -0.7854  0.3195  0.2565
 2245SOL    HW218195   3.295   0.172   7.880 -0.6876 -0.2740  0.5104
 2246SOL     OW18196   3.151   3.143  15.405  0.2641  0.0019 -0.5363
 2246SOL    HW118197   3.171   3.049  15.408  0.9496  0.2075  1.1059
 2246SOL    HW218198   3.058   3.148  15.426 -0.1130  0.0940 -2.2239
 2247SOL     OW18199   3.869   4.473  16.485 -0.2392  0.0398  0.9719
 2247SOL    HW118200   3.819   4.493  16.564 -2.6060 -0.8606 -0.3043
 2247SOL    HW218201   3.799   4.458  16.422  0.3403  0.6871  0.1823
 2248SOL     OW18202   2.530   1.255   5.306 -0.5973  0.4573  0.0051
 2248SOL    HW118203   2.451   1.300   5.278  1.0880  1.8690 -2.4629
 2248SOL    HW218204   2.603   1.315   5.291  0.9170 -1.3413  0.0933
 2249SOL     OW18205   3.582   1.492   7.879 -0.4492 -0.7551  0.0945
 2249SOL    HW118206   3.543   1.435   7.812 -0.6756  0.2328 -0.6081
 2249SOL    HW218207   3.637   1.549   7.826 -0.1553 -0.4571  0.7198
 2250SOL     OW18208   2.292   2.560   6.139 -0.4078  0.8544  0.3929
 2250SOL    HW118209   2.262   2.481   6.093  2.3120 -1.1047  2.0331
 2250SOL    HW218210   2.242   2.629   6.095  0.4427  0.4544 -1.1845
 2251SOL     OW18211   1.661   0.285  17.675  0.0994 -0.0536 -0.0831
 2251SOL    HW118212   1.741   0.233  17.679 -1.5197 -2.7351 -2.1694
 2251SOL    HW218213   1.677   0.355  17.613 -0.5450  0.0048 -0.1829
 2252SOL     OW18214   4.191   2.383   7.904 -0.1196 -0.0965  0.3009
 2252SOL    HW118215   4.234   2.464   7.929 -1.0100  0.2998  0.5556
 2252SOL    HW218216   4.245   2.331   7.964  0.3539 -0.7130 -0.6618
 2253SOL     OW18217   2.282   3.604   6.481 -0.2152 -0.4880 -0.1247
 2253SOL    HW118218   2.197   3.577   6.448 -0.5373  1.4660 -0.9017
 2253SOL    HW218219   2.266   3.696   6.502  0.8527 -0.1903 -0.5913
 2254SOL     OW18220   3.174   1.555   0.682  0.0057 -0.0319 -0.5803
 2254SOL    HW118221   3.233   1.533   0.755 -0.1013 -1.2747 -0.8599
 2254SOL    HW218222   3.150   1.645   0.704  0.9272 -0.5818  2.6859
 2255SOL     OW18223   2.413   0.004  11.576  0.1736  0.4570  0.2085
 2255SOL    HW118224   2.420   0.037  11.666  0.5682 -1.7886  1.0311
 2255SOL    HW218225   2.338   0.056  11.550  0.7664  0.7868 -0.8014
 2256SOL     OW18226   3.192   4.422  14.528  0.0463  0.2627  0.1554
 2256SOL    HW118227   3.126   4.423  14.597  0.0138 -0.8861  0.1454
 2256SOL    HW218228   3.140   4.409  14.448  0.3755 -1.1110  0.1612
 2257SOL     OW18229   0.213   3.206   7.207  0.2602 -0.1507  0.1249
 2257SOL    HW118230   0.239   3.296   7.189  0.6186 -0.5472 -1.3399
 2257SOL    HW218231   0.121   3.207   7.183  0.5741 -1.3610 -1.1146
 2258SOL     OW18232   0.212   4.190   3.017 -0.2922  0.0339 -0.0594
 2258SOL    HW118233   0.303   4.216   3.001 -0.3928  0.4990  0.1220
 2258SOL    HW218234   0.174   4.234   2.941  0.4904  0.8333  0.0076
 2259SOL     OW18235   3.974   4.200   8.237  0.3927 -0.0536 -0.1908
 2259SOL    HW118236   3.910   4.270   8.227 -0.5653 -1.0109 -0.8278
 2259SOL    HW218237   3.993   4.217   8.329 -1.1919 -0.7305  0.2788
 2260SOL     OW18238   2.298   1.539   6.869 -0.2634 -0.7795 -0.0583
 2260SOL    HW118239   2.259   1.453   6.884  0.6675 -1.2460 -0.3440
 2260SOL    HW218240   2.226   1.599   6.890 -0.4797 -1.2799  0.6403
 2261SOL     OW18241   4.277   0.239   3.924 -0.0962  0.5025 -0.2942
 2261SOL    HW118242   4.192   0.243   3.881 -0.1822 -0.0276 -0.1700
 2261SOL    HW218243   4.276   0.149   3.958 -1.0390 -0.1775 -2.1281
 2262SOL     OW18244   1.618   0.282   3.217  0.0862 -0.1193 -0.0588
 2262SOL    HW118245   1.579   0.195   3.226  0.4597 -0.3436 -0.5582
 2262SOL    HW218246   1.554   0.313   3.154  0.2067  1.0996  0.4253
 2263SOL     OW18247   3.333   2.291   6.162 -0.6642  0.4196  0.0696
 2263SOL    HW118248   3.346   2.198   6.141 -0.7715  0.5002 -0.3539
 2263SOL    HW218249   3.239   2.298   6.145 -0.6902 -0.2761 -0.0995
 2264SOL     OW18250   2.940   2.349   5.429 -0.0371 -0.2983  0.0399
 2264SOL    HW118251   2.907   2.361   5.518  0.0073  2.5863 -0.3319
 2264SOL    HW218252   3.032   2.367   5.450  0.0525 -0.8271  0.1043
 2265SOL     OW18253   1.916   0.965   8.792  0.0360 -0.4522  0.0348
 2265SOL    HW118254   2.011   0.954   8.789  0.0587  0.0757 -1.1771
 2265SOL    HW218255   1.907   1.028   8.863 -1.6390 -0.4855 -0.1591
 2266SOL     OW18256   3.547   2.476  15.701 -0.1088 -0.5123  0.1320
 2266SOL    HW118257   3.606   2.542  15.738 -1.1778  0.2727  0.4370
 2266SOL    HW218258   3.503   2.532  15.637 -0.3502 -1.0982 -0.2069
 2267SOL     OW18259   0.654   2.296   8.511  0.7334  0.0344 -0.3188
 2267SOL    HW118260   0.580   2.287   8.451  3.0167 -1.9937 -2.7980
 2267SOL    HW218261   0.687   2.207   8.522 -1.7054 -0.9872 -1.2421
 2268SOL     OW18262   4.549   0.672   8.361  0.1126 -0.0264 -0.5303
 2268SOL    HW118263   4.582   0.626   8.439  0.3181 -0.8771 -1.1132
 2268SOL    HW218264   4.600   0.752   8.368  1.4885 -0.9021 -0.5376
 2269SOL     OW18265   4.115   3.859   5.704  0.0106  0.5037 -0.3924
 2269SOL    HW118266   4.029   3.895   5.728 -0.0366  0.1126  0.0129
 2269SOL    HW218267   4.149   3.866   5.793  1.3296 -0.7144 -0.8075
 2270SOL     OW18268   3.363   0.970   2.843 -0.1239 -0.6797 -0.4432
 2270SOL    HW118269   3.319   1.038   2.894  1.3437  1.0833 -1.4838
 2270SOL    HW218270   3.293   0.905   2.843 -0.9200  0.1951  1.1396
 2271SOL     OW18271   0.103   4.644   3.881 -0.2531  0.1289 -0.3344
 2271SOL    HW118272   0.181   4.610   3.836 -1.0171 -1.1850 -0.6859
 2271SOL    HW218273   0.050   4.658   3.802 -1.7005  1.8119  0.9490
 2272SOL     OW18274   3.396   4.089   1.663 -0.8927  0.2073 -0.1305
 2272SOL    HW118275   3.474   4.063   1.614  0.3114  1.1114  1.3016
 2272SOL    HW218276   3.418   4.071   1.754 -1.0235  1.5124  0.1541
 2273SOL     OW18277   2.596   4.493  14.555  0.2127  0.1569 -0.2354
 2273SOL    HW118278   2.633   4.491  14.643 -0.6949  1.1232  0.1759
 2273SOL    HW218279   2.669   4.476  14.496  0.0562 -0.9198 -0.1287
 2274SOL     OW18280   3.548   0.066   1.675 -0.3550  0.2485 -0.1224
 2274SOL    HW118281   3.550   0.042   1.582 -2.5705  0.0968 -0.1323
 2274SOL    HW218282   3.478   0.011   1.711  0.9561 -0.7455  0.9355
 2275SOL     OW18283   1.729   1.866  10.815  0.6135  0.1799  0.4948
 2275SOL    HW118284   1.709   1.866  10.908 -0.4588 -2.9664  0.2579
 2275SOL    HW218285   1.811   1.818  10.819  1.1799  0.9920 -1.0748
 2276SOL     OW18286   3.442   1.638   8.077 -0.3017  0.0628  0.3940
 2276SOL    HW118287   3.449   1.568   8.142 -3.4892 -0.6743 -0.0320
 2276SOL    HW218288   3.505   1.597   8.018 -0.8839  0.4967 -0.5336
 2277SOL     OW18289   3.213   1.416  13.110  0.8024 -0.6533  0.6252
 2277SOL    HW118290   3.191   1.409  13.202  0.3536  0.3870  0.5975
 2277SOL    HW218291   3.173   1.502  13.097  0.7640 -0.3301  2.9747
 2278SOL     OW18292   0.549   4.367   7.616 -0.3085 -0.6081 -0.1275
 2278SOL    HW118293   0.486   4.297   7.630 -0.4789 -0.4198  0.0383
 2278SOL    HW218294   0.521   4.423   7.688  2.1967  0.9250 -0.3323
 2279SOL     OW18295   3.316   0.780  11.043  0.1217  0.3508 -0.4797
 2279SOL    HW118296   3.371   0.702  11.044  0.3589  0.5369  0.3563
 2279SOL    HW218297   3.231   0.753  11.077 -0.2768  3.8701  1.3339
 2280SOL     OW18298   2.690   2.072  16.861  0.0667  0.3945 -0.6820
 2280SOL    HW118299   2.611   2.126  16.867  0.4573  0.8362  0.4027
 2280SOL    HW218300   2.691   2.055  16.766  0.3314  0.6007 -0.7152
 2281SOL     OW18301   0.072   0.905   7.722 -0.1714 -0.0283 -0.0984
 2281SOL    HW118302   0.079   0.810   7.737  1.3433  0.0856 -0.0310
 2281SOL    HW218303   0.015   0.910   7.645  0.1312  1.4955 -0.2065
 2282SOL     OW18304   3.531   3.693   5.497 -0.2254  0.5392 -0.0732
 2282SOL    HW118305   3.596   3.763   5.490 -1.0810  1.5305  1.6901
 2282SOL    HW218306   3.472   3.724   5.428  0.7172  0.1553 -1.0556
 2283SOL     OW18307   0.008   0.320   3.517  0.3428 -0.5290  0.8435
 2283SOL    HW118308   0.080   0.344   3.576  1.6137  2.0866 -1.7953
 2283SOL    HW218309   0.023   0.374   3.440  2.0815  0.5488  1.9211
 2284SOL     OW18310   0.426   0.185  10.685  0.5398 -0.3179  0.4164
 2284SOL    HW118311   0.370   0.255  10.651  0.1582 -2.1267 -2.7280
 2284SOL    HW218312   0.432   0.227  10.771  1.9504  1.9607 -0.8020
 2285SOL     OW18313   1.780   0.377   4.178 -0.5208 -0.1892 -0.3816
 2285SOL    HW118314   1.709   0.438   4.155 -2.1036 -1.8922  0.0438
 2285SOL    HW218315   1.793   0.340   4.090 -0.1664 -2.1752  0.5235
 2286SOL     OW18316   1.556   3.699   5.491 -0.3741  0.4927 -0.1265
 2286SOL    HW118317   1.625   3.687   5.557 -0.5041  0.1783 -0.0503
 2286SOL    HW218318   1.498   3.744   5.552  1.4291  0.6672  1.4767
 2287SOL     OW18319   4.026   1.105   7.774  0.3027  0.0335 -0.4362
 2287SOL    HW118320   4.023   1.104   7.870 -0.0616 -0.8284 -0.4578
 2287SOL    HW218321   3.933   1.123   7.758 -0.7295 -3.4563  1.7489
 2288SOL     OW18322   4.520   0.612   6.944  0.5108  0.2717 -0.0760
 2288SOL    HW118323   4.512   0.669   7.020 -2.6658 -0.4325  0.1518
 2288SOL    HW218324   4.578   0.547   6.985  0.6644  0.7834  0.5077
 2289SOL     OW18325   2.511   2.244   3.170 -0.0123 -0.4130  0.4548
 2289SOL    HW118326   2.445   2.259   3.103 -0.5562 -1.7002  0.6993
 2289SOL    HW218327   2.569   2.314   3.141 -1.5662  0.7258  0.1056
 2290SOL     OW18328   3.875   1.131   8.009 -0.3187  0.0020  0.7198
 2290SOL    HW118329   3.862   1.218   8.046  3.3979 -0.4912  3.1941
 2290SOL    HW218330   3.825   1.134   7.927  1.2035  1.0308 -0.1763
 2291SOL     OW18331   0.698   3.164  12.835 -0.0959 -0.2856 -0.0664
 2291SOL    HW118332   0.616   3.175  12.787  0.9188  0.5729 -1.6063
 2291SOL    HW218333   0.726   3.078  12.805  0.1892 -0.8111  1.7063
 2292SOL     OW18334   3.283   1.155   3.020  0.4379 -0.0515  0.6242
 2292SOL    HW118335   3.264   1.249   3.013  0.3869 -0.2326 -1.6156
 2292SOL    HW218336   3.269   1.141   3.114 -1.0575 -2.5625  0.0120
 2293SOL     OW18337   1.586   0.556   4.097  1.1509 -0.8165 -0.4364
 2293SOL    HW118338   1.613   0.543   4.006  1.4055  2.8167 -0.8784
 2293SOL    HW218339   1.535   0.635   4.080  0.2184 -1.1009  1.0060
 2294SOL     OW18340   3.830   4.446   5.524 -0.7345 -0.5310  0.4093
 2294SOL    HW118341   3.825   4.504   5.448 -0.1980  0.7065  1.3162
 2294SOL    HW218342   3.913   4.473   5.563 -0.9643  0.5229  0.1673
 2295SOL     OW18343   4.534   1.175   6.331 -0.0687 -0.3869  0.8982
 2295SOL    HW118344   4.528   1.261   6.373  0.5138 -0.0164  0.2263
 2295SOL    HW218345   4.630   1.175   6.330 -0.0788 -1.6815 -0.4018
 2296SOL     OW18346   2.687   4.475   6.304 -0.0387  0.2234  0.2657
 2296SOL    HW118347   2.690   4.490   6.398  2.0251 -0.2998  0.2683
 2296SOL    HW218348   2.628   4.549   6.287  1.5429  1.0129 -1.7205
 2297SOL     OW18349   3.956   1.378   6.123  0.3847  0.0984 -0.1624
 2297SOL    HW118350   3.952   1.322   6.201 -0.0928 -0.1024 -0.3333
 2297SOL    HW218351   3.981   1.311   6.060 -0.7913 -1.5608  1.1208
 2298SOL     OW18352   2.442   1.518   8.905  0.2768 -0.1692  0.2782
 2298SOL    HW118353   2.480   1.498   8.990  0.2561 -0.1244  0.2976
 2298SOL    HW218354   2.373   1.452   8.896 -1.9526  2.2190 -0.2917
 2299SOL     OW18355   3.354   2.117   4.976  0.5423 -0.0288  0.4153
 2299SOL    HW118356   3.293   2.150   4.910  0.1727  0.4185  0.9767
 2299SOL    HW218357   3.339   2.168   5.056  0.8394 -1.4573  1.3989
 2300SOL     OW18358   2.089   2.338  10.637 -0.1951  0.6257 -0.2199
 2300SOL    HW118359   2.062   2.286  10.563  0.0727 -0.3461  0.3636
 2300SOL    HW218360   2.181   2.363  10.625 -0.4132  1.2953 -0.4719
 2301SOL     OW18361   1.737   2.194   4.683 -0.2153 -0.3791  0.1065
 2301SOL    HW118362   1.679   2.180   4.758 -1.2760 -3.2597 -1.2812
 2301SOL    HW218363   1.754   2.107   4.648 -1.3356 -0.0529 -1.1964
 2302SOL     OW18364   1.811   3.890   9.731 -0.8616 -0.7063 -0.3192
 2302SOL    HW118365   1.875   3.889   9.802  0.1081 -0.8329 -1.1992
 2302SOL    HW218366   1.867   3.891   9.653 -0.7580 -0.0107 -0.2352
 2303SOL     OW18367   1.644   2.541   4.290  0.9131 -0.3181  0.0498
 2303SOL    HW118368   1.574   2.500   4.240  1.6569 -2.2303  0.5575
 2303SOL    HW218369   1.722   2.494   4.261 -0.2440 -1.8967 -0.5034
 2304SOL     OW18370   1.639   2.875   6.668 -0.4102 -0.4499 -0.7620
 2304SOL    HW118371   1.588   2.810   6.716 -0.0181  0.5904  1.0882
 2304SOL    HW218372   1.637   2.825   6.587 -1.3633  0.9778 -1.6205
 2305SOL     OW18373   2.498   2.100   3.395 -0.4125 -0.6111 -0.4544
 2305SOL    HW118374   2.463   2.017   3.363  1.4801 -1.8417  0.7025
 2305SOL    HW218375   2.513   2.150   3.315 -2.2877 -0.7700 -0.9204
 2306SOL     OW18376   3.947   3.752   5.510 -0.1162 -0.8136  0.6534
 2306SOL    HW118377   3.886   3.812   5.467 -0.3972 -0.7615  1.1246
 2306SOL    HW218378   4.018   3.810   5.537 -0.3975 -0.7155  1.1809
 2307SOL     OW18379   2.818   1.081   4.725 -0.0729 -0.4073 -0.5058
 2307SOL    HW118380   2.799   1.089   4.632  0.4535 -1.0984 -0.6709
 2307SOL    HW218381   2.901   1.033   4.724  0.6081  0.7293  0.9073
 2308SOL     OW18382   4.035   0.358   6.826  0.0671  0.1041 -0.0228
 2308SOL    HW118383   4.119   0.356   6.870 -0.2184  1.0614  0.5629
 2308SOL    HW218384   4.037   0.447   6.790  1.0305  0.1482  0.1533
 2309SOL     OW18385   4.035   1.522  13.352 -0.3519  0.0023 -0.1781
 2309SOL    HW118386   4.112   1.490  13.399 -0.4890  0.9169  0.6719
 2309SOL    HW218387   4.071   1.529  13.263 -1.3061  0.6658 -0.5152
 2310SOL     OW18388   2.517   0.739  10.183  0.7593 -0.0719  0.7916
 2310SOL    HW118389   2.441   0.731  10.240  0.5478 -0.1924  0.4904
 2310SOL    HW218390   2.499   0.657  10.138 -2.8732  0.6856  0.8721
 2311SOL     OW18391   3.839   4.719  16.910  0.1059  0.4072 -0.6619
 2311SOL    HW118392   3.921   4.669  16.903 -1.8564 -3.0191  0.7628
 2311SOL    HW218393   3.791   4.678  16.838 -0.0920 -1.8971  0.7678
 2312SOL     OW18394   4.007   1.474   4.411 -0.1987 -0.3985  0.2264
 2312SOL    HW118395   3.935   1.486   4.474 -0.3310  0.8995 -0.1578
 2312SOL    HW218396   4.004   1.379   4.404  0.3798 -0.5253  1.4958
 2313SOL     OW18397   0.119   4.499   7.312  0.0606  0.7498 -0.0118
 2313SOL    HW118398   0.104   4.510   7.406  0.6815 -1.6259  0.3806
 2313SOL    HW218399   0.203   4.542   7.296  0.1156 -0.3213 -2.6142
 2314SOL     OW18400   4.640   3.327   5.749 -0.4484 -0.3614  0.0674
 2314SOL    HW118401   4.640   3.232   5.743  2.4527 -0.3853  0.0137
 2314SOL    HW218402   4.663   3.350   5.659 -1.0980 -0.1842 -0.0526
 2315SOL     OW18403   2.194   2.963   8.051 -0.1395 -0.4124 -0.0571
 2315SOL    HW118404   2.255   2.986   7.981  0.2457  1.2139  0.8066
 2315SOL    HW218405   2.251   2.926   8.118  1.4514  0.9868 -0.6444
 2316SOL     OW18406   2.275   0.604  15.466  0.4190 -0.0147 -0.1008
 2316SOL    HW118407   2.210   0.644  15.408 -1.3833 -0.2542  1.7217
 2316SOL    HW218408   2.227   0.576  15.544 -0.1820  0.3458 -0.3382
 2317SOL     OW18409   3.642   4.337   5.012  0.4658  0.7282  0.6316
 2317SOL    HW118410   3.653   4.282   5.090  0.8298  1.2574  0.9500
 2317SOL    HW218411   3.612   4.418   5.052  0.6362  1.2676 -0.3357
 2318SOL     OW18412   1.888   2.584   2.086 -0.4332  0.1162 -0.6343
 2318SOL    HW118413   1.879   2.675   2.113  1.0361  0.0585  0.0158
 2318SOL    HW218414   1.961   2.553   2.139 -0.4687 -0.7038 -1.0625
 2319SOL     OW18415   2.592   4.605   6.906 -0.2885  0.3237 -0.4104
 2319SOL    HW118416   2.612   4.686   6.953  0.1086 -0.4867  0.8154
 2319SOL    HW218417   2.662   4.615   6.842 -0.1835 -0.6237 -0.4378
 2320SOL     OW18418   0.858   0.940  10.910  0.8186  0.5072 -0.0899
 2320SOL    HW118419   0.950   0.934  10.884  0.7132 -0.9291 -0.1138
 2320SOL    HW218420   0.832   0.869  10.852  1.4162 -0.7758  1.2288
 2321SOL     OW18421   3.222   0.979   7.349 -0.4367  0.2805 -0.0065
 2321SOL    HW118422   3.295   1.017   7.397  0.5383 -0.8678 -0.5657
 2321SOL    HW218423   3.145   1.005   7.400  0.1448  2.7743 -0.3789
 2322SOL     OW18424   1.471   0.010  13.344 -0.2136  0.0577  0.0490
 2322SOL    HW118425   1.548   0.063  13.367 -0.0893  0.3721 -1.0802
 2322SOL    HW218426   1.404   0.079  13.339  1.3606  1.6374  0.4197
 2323SOL     OW18427   1.546   0.757   7.365 -0.5004  0.2212 -0.1815
 2323SOL    HW118428   1.626   0.786   7.322 -1.7165  0.2118 -2.4402
 2323SOL    HW218429   1.561   0.777   7.458 -0.9240  0.3999 -0.1525
 2324SOL     OW18430   2.440   4.352   7.877 -0.1377  0.1404 -0.1480
 2324SOL    HW118431   2.487   4.435   7.867  0.3714 -0.2706 -1.2618
 2324SOL    HW218432   2.354   4.381   7.905 -0.1177  0.0707 -0.0123
 2325SOL     OW18433   0.030   3.599   3.406 -0.0738  0.1754  0.3073
 2325SOL    HW118434   0.105   3.584   3.464  0.3643 -1.4681 -0.6869
 2325SOL    HW218435   0.058   3.672   3.350  0.4496  0.5310  1.0355
 2326SOL     OW18436   3.389   1.101  10.763  0.0719  0.2596  0.2372
 2326SOL    HW118437   3.312   1.068  10.810 -0.3658  1.8003  0.6166
 2326SOL    HW218438   3.361   1.108  10.672 -0.9239 -2.5312  0.3427
 2327SOL     OW18439   3.624   3.565   6.694 -0.0817  0.3172 -0.2165
 2327SOL    HW118440   3.580   3.490   6.656  2.3110 -1.7329  1.0199
 2327SOL    HW218441   3.611   3.546   6.787 -1.1375 -1.3217 -0.7090
 2328SOL     OW18442   3.207   0.931  14.984  0.1008  0.2977 -0.0201
 2328SOL    HW118443   3.179   1.020  15.005 -1.6304 -0.1416 -0.4086
 2328SOL    HW218444   3.301   0.940  14.976 -0.0584  2.6221  0.7899
 2329SOL     OW18445   0.649   1.086   6.770 -0.0625 -0.1924 -0.0431
 2329SOL    HW118446   0.665   1.103   6.863 -1.9468  2.3280 -0.1901
 2329SOL    HW218447   0.560   1.051   6.766  0.5089 -1.6697  0.1292
 2330SOL     OW18448   4.301   0.134   2.492  0.2250  0.1703 -0.2425
 2330SOL    HW118449   4.276   0.122   2.584  1.4269  0.0398  0.0604
 2330SOL    HW218450   4.242   0.081   2.438 -0.4237 -0.8613  1.4792
 2331SOL     OW18451   2.998   0.210   7.088  0.2074  0.0870 -0.4079
 2331SOL    HW118452   3.011   0.190   7.181 -0.1766  1.4828 -0.0549
 2331SOL    HW218453   3.032   0.129   7.051 -1.5141 -0.7269 -0.2141
 2332SOL     OW18454   0.977   3.666   8.176 -0.4723 -0.1248 -0.5373
 2332SOL    HW118455   0.970   3.751   8.220 -1.4586 -1.2438  1.4678
 2332SOL    HW218456   0.899   3.670   8.121 -2.8641 -0.7019  2.8565
 2333SOL     OW18457   2.924   2.641   6.450  0.0972  0.0307 -0.4410
 2333SOL    HW118458   2.934   2.736   6.451 -0.1502  0.0552 -0.0694
 2333SOL    HW218459   2.912   2.631   6.545 -0.4551  3.9478 -0.0848
 2334SOL     OW18460   2.490   2.225   0.253  0.1012 -0.2826  0.0377
 2334SOL    HW118461   2.495   2.151   0.192 -0.7101 -0.8364  0.6268
 2334SOL    HW218462   2.515   2.296   0.195  0.4878 -0.4956 -0.0578
 2335SOL     OW18463   1.167   1.451   8.098  0.1738  0.8652 -0.2707
 2335SOL    HW118464   1.188   1.540   8.126  0.9103 -0.4981  3.5792
 2335SOL    HW218465   1.084   1.445   8.146  0.8259 -0.3234  0.7126
 2336SOL     OW18466   1.642   3.758   5.240 -0.3385  0.2479 -0.3363
 2336SOL    HW118467   1.597   3.732   5.321  1.4039  2.0953  1.2342
 2336SOL    HW218468   1.646   3.851   5.263  0.8100  0.0714  0.1824
 2337SOL     OW18469   2.864   1.222  10.003  0.8979  0.4399  0.1733
 2337SOL    HW118470   2.952   1.194   9.977  1.1208  1.7247 -0.4133
 2337SOL    HW218471   2.815   1.152   9.960  1.9636 -0.3089  0.1545
 2338SOL     OW18472   3.577   0.880   3.288  0.2065  0.1251 -0.2826
 2338SOL    HW118473   3.501   0.842   3.333  1.7392 -0.4115  1.8160
 2338SOL    HW218474   3.555   0.865   3.196  0.5597  2.8028 -0.8012
 2339SOL     OW18475   2.951   4.093  15.074 -0.0241 -0.3196  0.6299
 2339SOL    HW118476   3.022   4.129  15.127  0.3562  0.0654 -0.1406
 2339SOL    HW218477   2.989   4.094  14.986  0.0808  0.1590  0.6795
 2340SOL     OW18478   3.541   4.487   4.023  0.2701 -0.0962 -0.1672
 2340SOL    HW118479   3.453   4.448   4.020  0.5664 -0.6515 -1.9934
 2340SOL    HW218480   3.567   4.493   3.931  1.2360  1.1554  0.1767
 2341SOL     OW18481   0.509   2.111   2.434 -0.8243  0.6569 -0.8172
 2341SOL    HW118482   0.520   2.140   2.344  4.4869  3.0507  0.6176
 2341SOL    HW218483   0.521   2.196   2.476 -0.6300  0.8120 -1.1920
 2342SOL     OW18484   0.294   3.454  16.287  0.2916  0.3977 -0.5057
 2342SOL    HW118485   0.271   3.376  16.337  2.2208 -0.2790 -0.6694
 2342SOL    HW218486   0.258   3.444  16.199 -2.6234  0.0948  0.7404
 2343SOL     OW18487   0.750   3.820   7.282  0.1089 -0.2182 -0.6798
 2343SOL    HW118488   0.778   3.744   7.332 -0.3683  0.3324  0.4417
 2343SOL    HW218489   0.798   3.890   7.328 -1.3487  0.2767  0.0836
 2344SOL     OW18490   0.656   0.501  12.157  0.5109  0.4750 -0.4207
 2344SOL    HW118491   0.622   0.513  12.246 -0.8069 -1.5927 -0.6266
 2344SOL    HW218492   0.750   0.514  12.164  0.6232 -1.1737  1.3569
 2345SOL     OW18493   0.643   4.258   0.720 -0.7495  0.6169 -0.1530
 2345SOL    HW118494   0.712   4.304   0.768 -0.6672  1.5762 -1.1941
 2345SOL    HW218495   0.578   4.241   0.788  1.0450  2.4913  2.0432
 2346SOL     OW18496   3.409   3.536  15.772 -0.2392 -0.5276  0.2024
 2346SOL    HW118497   3.456   3.608  15.815  0.3083  0.6084 -2.2682
 2346SOL    HW218498   3.331   3.537  15.828  0.5840 -0.0927  1.3383
 2347SOL     OW18499   0.234   2.941   3.833  0.3648 -0.0799  0.1345
 2347SOL    HW118500   0.160   2.882   3.827  0.1274  0.3376 -0.9679
 2347SOL    HW218501   0.290   2.895   3.771 -0.6679 -0.6017 -0.3983
 2348SOL     OW18502   0.482   0.788   1.727  0.7493 -0.7104  0.1074
 2348SOL    HW118503   0.411   0.725   1.710  0.2725  0.2405 -1.3731
 2348SOL    HW218504   0.558   0.734   1.707 -1.2928 -3.2652 -0.7760
 2349SOL     OW18505   0.115   1.463   4.971 -0.3539 -0.6674  0.0937
 2349SOL    HW118506   0.134   1.369   4.965  0.5508 -0.5624  1.3369
 2349SOL    HW218507   0.075   1.488   4.888 -1.0482  0.3751  0.7420
 2350SOL     OW18508   0.112   4.153   1.954 -0.2812 -0.1430  0.0926
 2350SOL    HW118509   0.112   4.239   1.997  1.2030 -0.1228  0.0467
 2350SOL    HW218510   0.207   4.142   1.959 -0.4803 -1.9062  0.1523
 2351SOL     OW18511   1.752   4.720   5.928  0.6363 -0.2270  0.3274
 2351SOL    HW118512   1.686   0.031   5.866  2.5700 -0.5228 -1.9173
 2351SOL    HW218513   1.832   0.044   5.901  0.1593  0.8561  0.7231
 2352SOL     OW18514   1.093   0.818   1.741 -0.2476  0.1208 -0.2206
 2352SOL    HW118515   1.051   0.733   1.756  1.8821 -0.8608  0.2498
 2352SOL    HW218516   1.152   0.831   1.815 -0.1537 -0.3876 -0.2033
 2353SOL     OW18517   2.461   2.841  10.655  0.8196 -0.3710  0.4381
 2353SOL    HW118518   2.524   2.825  10.725 -1.0107  2.1697  2.6706
 2353SOL    HW218519   2.469   2.759  10.606  0.1830 -0.0241 -0.2578
 2354SOL     OW18520   1.657   3.282  16.536 -0.4621 -0.5074 -0.5684
 2354SOL    HW118521   1.610   3.351  16.490 -0.2293  0.3677  0.4999
 2354SOL    HW218522   1.746   3.311  16.514 -0.0323 -0.4623  1.2140
 2355SOL     OW18523   0.468   4.256   2.982  0.0404 -0.3001 -0.1514
 2355SOL    HW118524   0.544   4.209   3.018 -0.4192 -2.3509 -1.8522
 2355SOL    HW218525   0.461   4.196   2.907  2.1241 -1.2629  0.4092
 2356SOL     OW18526   3.254   3.599  16.059 -0.2738  0.2088 -0.2749
 2356SOL    HW118527   3.232   3.683  16.101 -1.5156  0.1036 -0.6989
 2356SOL    HW218528   3.172   3.552  16.071 -0.4468  0.9839  1.6230
 2357SOL     OW18529   3.389   0.278  15.356  0.5409  0.0862 -0.9041
 2357SOL    HW118530   3.391   0.269  15.451  0.5031  2.9584 -0.6477
 2357SOL    HW218531   3.323   0.345  15.340 -0.6005 -1.0072 -0.7676
 2358SOL     OW18532   1.687   3.156   6.184 -0.1438 -0.2260 -0.6051
 2358SOL    HW118533   1.782   3.166   6.177 -0.3717  1.1950 -1.8152
 2358SOL    HW218534   1.697   3.079   6.240 -1.2523  1.7093  2.2703
 2359SOL     OW18535   3.609   2.567   4.766 -0.0553 -0.3458  0.2441
 2359SOL    HW118536   3.649   2.650   4.792 -0.5323 -0.7066  2.0909
 2359SOL    HW218537   3.619   2.518   4.848 -0.6492  1.4861  1.4000
 2360SOL     OW18538   1.370   0.199   3.426  0.0213  0.2091  0.4146
 2360SOL    HW118539   1.437   0.139   3.458 -0.4407 -0.5499 -0.0401
 2360SOL    HW218540   1.414   0.284   3.414 -0.9174  0.2878 -2.6027
 2361SOL     OW18541   0.628   3.773   3.243  0.3197 -0.2020 -0.2314
 2361SOL    HW118542   0.638   3.741   3.333  1.5375 -0.0777 -0.3210
 2361SOL    HW218543   0.551   3.726   3.212  0.9282 -1.3585 -0.0264
 2362SOL     OW18544   4.670   0.726   5.092 -0.0279 -0.0779  0.5651
 2362SOL    HW118545   4.605   0.753   5.027  1.5653  0.4863 -0.8003
 2362SOL    HW218546   4.655   0.790   5.162  3.3340  2.5556 -1.1163
 2363SOL     OW18547   3.843   1.705  13.203 -0.5662 -0.1333  0.8599
 2363SOL    HW118548   3.873   1.789  13.237  0.5196 -0.0865 -0.2061
 2363SOL    HW218549   3.919   1.650  13.222 -0.2460 -0.6714 -1.8823
 2364SOL     OW18550   4.500   4.544   4.385 -0.2602  0.7169  0.9345
 2364SOL    HW118551   4.422   4.490   4.377  0.9618 -0.7878 -0.8698
 2364SOL    HW218552   4.561   4.471   4.373 -0.2388  0.6338  1.5361
 2365SOL     OW18553   3.635   0.336  13.187  0.4562  0.5513 -0.3407
 2365SOL    HW118554   3.601   0.335  13.098 -0.3112 -2.1597 -0.0462
 2365SOL    HW218555   3.729   0.317  13.183  0.6440  1.5345 -0.5123
 2366SOL     OW18556   3.110   0.393   8.952  0.5865  0.2993  0.2087
 2366SOL    HW118557   3.045   0.380   9.021 -0.6514 -0.3982 -1.0841
 2366SOL    HW218558   3.128   0.485   8.970 -2.2417  1.6295 -3.8148
 2367SOL     OW18559   2.010   0.882   9.687 -0.1975 -0.0477  0.7176
 2367SOL    HW118560   2.061   0.860   9.609  2.0342  1.0915  1.8443
 2367SOL    HW218561   2.069   0.897   9.760 -0.1070  2.1580  0.2150
 2368SOL     OW18562   1.579   2.920   3.669 -1.0032  0.0684 -0.4162
 2368SOL    HW118563   1.641   2.967   3.612 -0.3069  0.1431  0.3962
 2368SOL    HW218564   1.612   2.831   3.656 -2.2455 -0.5173  0.5635
 2369SOL     OW18565   4.055   1.297   0.107  0.0244  0.0848  0.8395
 2369SOL    HW118566   4.041   1.214   0.062 -0.0348  1.5017 -1.7315
 2369SOL    HW218567   3.970   1.311   0.148 -1.2342  1.9393 -2.4535
 2370SOL     OW18568   1.016   3.647   2.814  0.5148 -0.0099  0.5041
 2370SOL    HW118569   1.111   3.636   2.824  0.4712 -1.4685 -0.6377
 2370SOL    HW218570   0.996   3.575   2.754  0.1340  1.0468 -0.6235
 2371SOL     OW18571   1.437   2.823   3.054 -0.4653  0.0145 -0.5517
 2371SOL    HW118572   1.400   2.806   3.140  0.4678  0.5369 -0.0510
 2371SOL    HW218573   1.437   2.737   3.010  1.8137 -1.7640  2.9712
 2372SOL     OW18574   0.666   0.252   7.166  0.2210  0.2015  0.1929
 2372SOL    HW118575   0.730   0.210   7.109 -0.7000 -0.4209 -0.3914
 2372SOL    HW218576   0.720   0.329   7.185  0.0720  0.5933 -0.9688
 2373SOL     OW18577   1.950   3.036   6.546  0.2862  0.4066  0.3284
 2373SOL    HW118578   1.983   3.125   6.557 -1.3026  1.0351  0.0251
 2373SOL    HW218579   1.961   2.995   6.631 -0.1171  0.6498  0.5009
 2374SOL     OW18580   2.348   3.108   5.964 -0.0406  0.3252 -0.3695
 2374SOL    HW118581   2.405   3.094   6.040  1.3740 -0.9880 -1.6630
 2374SOL    HW218582   2.397   3.069   5.891 -0.7333 -1.4743  0.1464
 2375SOL     OW18583   2.267   1.444  15.872  0.3657  0.0439  0.1693
 2375SOL    HW118584   2.229   1.531  15.859 -1.1945 -0.4705  1.2973
 2375SOL    HW218585   2.345   1.471  15.922 -0.3513 -2.6301  2.7583
 2376SOL     OW18586   3.212   3.438   6.196  0.5488 -0.3348  0.4333
 2376SOL    HW118587   3.269   3.384   6.251  1.3112 -1.2667 -1.2652
 2376SOL    HW218588   3.269   3.479   6.132 -1.2887  1.7088  0.0714
 2377SOL     OW18589   4.403   4.139  15.904 -0.2756 -0.3155  0.2213
 2377SOL    HW118590   4.311   4.165  15.905 -0.0511  0.4409  0.6428
 2377SOL    HW218591   4.408   4.094  15.988 -0.1551  1.3387  1.0826
 2378SOL     OW18592   3.474   1.781   3.162 -0.1784 -0.0134 -0.0442
 2378SOL    HW118593   3.381   1.775   3.139 -0.3539  2.2199  0.0896
 2378SOL    HW218594   3.463   1.809   3.253  1.3037 -1.6465  0.6266
 2379SOL     OW18595   0.701   1.038   1.049  0.3248  0.1655  0.4364
 2379SOL    HW118596   0.767   1.005   0.987  1.0110  1.0132  0.7180
 2379SOL    HW218597   0.662   1.106   0.993  1.1655  0.6653  0.4547
 2380SOL     OW18598   0.134   2.292   2.555 -0.6118 -0.0846  0.7879
 2380SOL    HW118599   0.219   2.303   2.598 -0.2308  2.8117 -0.7258
 2380SOL    HW218600   0.101   2.230   2.620  1.1464 -0.6426  1.1698
 2381SOL     OW18601   1.693   0.518  11.739 -0.8181  0.4293  0.0621
 2381SOL    HW118602   1.691   0.597  11.793  1.2893 -2.0166  3.6983
 2381SOL    HW218603   1.781   0.519  11.703 -0.3217 -1.3289  1.2365
 2382SOL     OW18604   0.103   1.263   7.457 -0.7862  0.1340 -0.1763
 2382SOL    HW118605   0.138   1.343   7.497  0.8022  0.0690 -1.3984
 2382SOL    HW218606   0.047   1.300   7.388  0.8082  1.5556 -0.7286
 2383SOL     OW18607   0.795   4.461  14.713 -0.3184  0.8899 -0.0752
 2383SOL    HW118608   0.885   4.496  14.715  0.9220 -2.3519  0.9357
 2383SOL    HW218609   0.767   4.477  14.803  1.2369  0.9741  0.4043
 2384SOL     OW18610   2.194   4.543   0.873 -0.3376 -0.6689 -0.0929
 2384SOL    HW118611   2.189   4.618   0.933  0.2571 -0.3792 -0.4007
 2384SOL    HW218612   2.240   4.472   0.919 -0.0461 -0.3976  0.0314
 2385SOL     OW18613   4.352   0.095  13.233 -0.4081  0.2566  0.6728
 2385SOL    HW118614   4.416   0.163  13.250 -0.8555  0.7386  0.4149
 2385SOL    HW218615   4.398   0.011  13.227 -0.8072  0.1420 -0.8497
 2386SOL     OW18616   4.550   0.719   4.681  0.0283 -0.0465  0.4616
 2386SOL    HW118617   4.511   0.702   4.595  0.1584 -1.4838  0.6730
 2386SOL    HW218618   4.613   0.646   4.687  0.9860  0.9005  2.0050
 2387SOL     OW18619   0.837   1.598   7.991 -0.3947  0.2672  0.1584
 2387SOL    HW118620   0.921   1.621   8.030 -0.3210 -1.0972  0.8138
 2387SOL    HW218621   0.845   1.503   7.994  1.9811  0.4470 -0.7024
 2388SOL     OW18622   4.436   0.319   0.413 -0.2356  0.4651  0.3284
 2388SOL    HW118623   4.390   0.275   0.341 -0.8306  0.2031  0.8665
 2388SOL    HW218624   4.480   0.392   0.370  0.4911  0.3161  0.8244
 2389SOL     OW18625   0.964   0.826  15.002  0.3718 -0.2322 -0.5625
 2389SOL    HW118626   1.032   0.794  15.061  0.1966  2.5100  1.1505
 2389SOL    HW218627   0.945   0.755  14.940  0.1217  0.9138 -1.8170
 2390SOL     OW18628   0.410   3.743   1.837 -0.2598  0.0477  0.0517
 2390SOL    HW118629   0.492   3.771   1.796 -0.8391  0.8929 -0.5361
 2390SOL    HW218630   0.354   3.753   1.760 -0.7209 -0.1118  0.3666
 2391SOL     OW18631   1.062   1.989   9.938 -0.1671 -0.1907 -0.1211
 2391SOL    HW118632   1.064   1.990   9.842  0.4554 -1.4699 -0.1300
 2391SOL    HW218633   1.143   1.943   9.960 -1.5019 -0.4803  4.0464
 2392SOL     OW18634   3.606   3.706   3.591 -0.3713  0.0780  0.2171
 2392SOL    HW118635   3.527   3.702   3.536  0.9129  0.9943 -1.6849
 2392SOL    HW218636   3.594   3.794   3.626 -1.1638  0.4481 -0.9719
 2393SOL     OW18637   0.404   3.117   0.419  0.0591 -0.6009 -1.2706
 2393SOL    HW118638   0.467   3.142   0.352  1.1677  0.2975  0.0920
 2393SOL    HW218639   0.440   3.034   0.450 -0.1727 -0.2114  0.0681
 2394SOL     OW18640   0.308   3.420   0.888 -0.3322 -0.2646  0.0385
 2394SOL    HW118641   0.248   3.472   0.941 -0.5893 -1.5687  1.0335
 2394SOL    HW218642   0.376   3.416   0.955  0.2453 -1.0044 -0.5952
 2395SOL     OW18643   2.327   0.836  15.779  0.6230 -0.2500  0.3220
 2395SOL    HW118644   2.316   0.831  15.874  0.6355  0.2464  0.3484
 2395SOL    HW218645   2.301   0.925  15.755 -1.8331 -0.9434  0.4708
 2396SOL     OW18646   3.646   4.717   6.009  0.3707  0.1828 -0.1816
 2396SOL    HW118647   3.632   0.050   6.087 -0.5673 -0.0122 -0.2140
 2396SOL    HW218648   3.666   4.629   6.040 -0.3063 -0.4414 -1.5399
 2397SOL     OW18649   1.243   3.942   2.559 -0.0319  0.1622 -0.8390
 2397SOL    HW118650   1.331   3.976   2.572  0.2674 -0.5082 -1.1174
 2397SOL    HW218651   1.262   3.848   2.553  2.1595  0.5341  0.3799
 2398SOL     OW18652   2.849   0.186   6.701  0.3436 -0.6848 -0.2309
 2398SOL    HW118653   2.928   0.189   6.754 -0.5525  1.5695  1.0238
 2398SOL    HW218654   2.828   0.278   6.684  1.2268 -1.1214 -3.6165
 2399SOL     OW18655   2.660   3.413   5.375  0.1372  0.1683 -0.5148
 2399SOL    HW118656   2.649   3.475   5.304  2.5835  1.0395 -0.1407
 2399SOL    HW218657   2.691   3.330   5.338 -0.6901  1.4352 -3.9673
 2400SOL     OW18658   2.139   1.913   2.471  0.0980 -0.5613 -0.0639
 2400SOL    HW118659   2.133   1.924   2.376 -0.9899 -1.3107 -0.0904
 2400SOL    HW218660   2.141   2.005   2.496 -0.5246 -0.4628 -0.3618
 2401SOL     OW18661   2.404   2.766   7.550  0.7438 -0.0321  0.1934
 2401SOL    HW118662   2.375   2.811   7.470  1.3480 -0.0379 -0.0288
 2401SOL    HW218663   2.344   2.691   7.550 -1.1316  1.4594 -0.8025
 2402SOL     OW18664   3.076   2.536  16.194 -0.0292  0.1954  0.5057
 2402SOL    HW118665   3.014   2.555  16.265 -2.5220 -0.8216 -1.3904
 2402SOL    HW218666   3.126   2.618  16.189  0.1685 -0.0737 -1.6436
 2403SOL     OW18667   0.953   3.779   6.797 -0.4331 -0.1279  0.3494
 2403SOL    HW118668   0.980   3.715   6.731 -0.7285  0.4237 -0.3043
 2403SOL    HW218669   0.972   3.737   6.880 -0.6102 -1.2020 -0.1589
 2404SOL     OW18670   3.681   3.037   2.945  0.0862 -0.1232  0.5696
 2404SOL    HW118671   3.751   3.098   2.967  1.1695 -1.0056 -0.4675
 2404SOL    HW218672   3.658   3.071   2.859  0.0361 -1.4954  0.0426
 2405SOL     OW18673   3.091   4.345   4.583  0.2115 -0.4142  0.5502
 2405SOL    HW118674   3.113   4.430   4.620  2.6329  0.5113 -3.0518
 2405SOL    HW218675   3.037   4.364   4.506 -0.3061  1.4912  1.3941
 2406SOL     OW18676   4.621   0.083   7.425 -0.0804 -0.1963  0.3864
 2406SOL    HW118677   4.588   0.014   7.483  3.6599 -0.1189  2.5968
 2406SOL    HW218678   4.705   0.107   7.463 -0.8441  3.6434 -0.3289
 2407SOL     OW18679   4.609   2.901   2.634 -0.1643 -0.1218  0.5757
 2407SOL    HW118680   4.546   2.846   2.680  1.3126 -2.0786  0.2334
 2407SOL    HW218681   4.600   2.976   2.694 -0.4145 -0.7225  1.2915
 2408SOL     OW18682   2.914   3.456  15.232  0.1848 -0.2259 -0.9472
 2408SOL    HW118683   2.917   3.549  15.209  0.8743  0.5273  2.2037
 2408SOL    HW218684   2.875   3.468  15.319  0.6087 -0.7774 -0.6726
 2409SOL     OW18685   0.895   4.465   4.602  0.1279 -0.4571  0.0589
 2409SOL    HW118686   0.902   4.372   4.624 -0.7795 -1.4973 -4.0703
 2409SOL    HW218687   0.989   4.481   4.603 -0.0527  0.5730  0.9759
 2410SOL     OW18688   0.421   1.953  13.650 -0.0848  0.0335  0.7955
 2410SOL    HW118689   0.468   1.897  13.588  2.5931  2.6601  0.4458
 2410SOL    HW218690   0.435   1.904  13.731 -2.2750 -2.3426 -0.2700
 2411SOL     OW18691   4.364   3.925   9.127 -0.4100 -0.7985  0.9845
 2411SOL    HW118692   4.444   3.906   9.176  0.5796 -1.5749 -0.9558
 2411SOL    HW218693   4.362   4.020   9.143  0.3150 -0.6661  0.2658
 2412SOL     OW18694   3.746   1.644   0.684 -0.2980 -0.4766  0.0137
 2412SOL    HW118695   3.653   1.622   0.677 -0.7332  1.6081 -0.7331
 2412SOL    HW218696   3.782   1.606   0.604 -0.3282  0.3987 -0.4223
 2413SOL     OW18697   2.217   4.345   6.520  0.3249 -0.1596  0.2422
 2413SOL    HW118698   2.148   4.294   6.562  0.3875 -1.2295 -0.9571
 2413SOL    HW218699   2.209   4.312   6.430 -1.2842  1.1788 -0.1040
 2414SOL     OW18700   2.939   0.702   9.839 -0.3096  0.1008  0.1067
 2414SOL    HW118701   2.941   0.757   9.916  0.8695  0.2676 -0.0429
 2414SOL    HW218702   2.929   0.768   9.770  2.2575 -0.2666 -0.6357
 2415SOL     OW18703   4.106   2.472   2.355 -0.0564 -0.3268  0.2961
 2415SOL    HW118704   4.035   2.523   2.394  0.8704  2.0870 -1.1839
 2415SOL    HW218705   4.109   2.510   2.267  2.6023 -2.5198 -0.5729
 2416SOL     OW18706   0.594   3.402  10.366 -0.1021  0.0652 -0.2589
 2416SOL    HW118707   0.689   3.396  10.352  0.0873 -2.9108  2.3442
 2416SOL    HW218708   0.563   3.459  10.296  0.2781 -1.1684 -1.4322
 2417SOL     OW18709   1.593   2.750   2.449 -0.6432 -0.0192  0.1841
 2417SOL    HW118710   1.612   2.676   2.507  1.0173  0.8494  0.7461
 2417SOL    HW218711   1.511   2.720   2.409 -1.7430  3.5850 -0.2401
 2418SOL     OW18712   3.134   3.073  17.181  0.2070 -0.5905 -0.3076
 2418SOL    HW118713   3.039   3.069  17.176  0.0635  3.6805 -1.2816
 2418SOL    HW218714   3.148   2.986  17.218 -2.7572 -1.1686 -0.5267
 2419SOL     OW18715   4.214   2.521   4.029 -0.9094 -0.1569 -0.0290
 2419SOL    HW118716   4.227   2.562   3.944 -0.4920  0.5730  0.3934
 2419SOL    HW218717   4.262   2.589   4.075 -0.8381 -0.4442  0.3259
 2420SOL     OW18718   3.541   1.621  12.005  0.2534 -0.3779 -0.0365
 2420SOL    HW118719   3.492   1.548  12.042 -1.4041  0.1725 -1.1311
 2420SOL    HW218720   3.470   1.655  11.951 -0.4293  0.1785  1.2143
 2421SOL     OW18721   1.119   2.258   9.936 -0.0358 -0.2533  0.9225
 2421SOL    HW118722   1.209   2.282   9.960  0.5671 -1.9799  0.3671
 2421SOL    HW218723   1.103   2.188   9.999 -2.9421 -0.8213 -0.4303
 2422SOL     OW18724   4.237   4.613  13.004  0.2082  0.1303 -0.1652
 2422SOL    HW118725   4.154   4.638  13.044  1.1535  1.0727  1.2341
 2422SOL    HW218726   4.251   4.520  13.025  0.1165  0.2596  0.4767
 2423SOL     OW18727   0.032   3.635   5.206  0.3015 -0.0847 -0.1192
 2423SOL    HW118728   0.034   3.730   5.196 -2.6796  0.0506  0.4043
 2423SOL    HW218729   0.071   3.622   5.292 -0.6626  0.8442  0.4679
 2424SOL     OW18730   3.480   0.175  16.837  0.2462  0.1184 -1.0126
 2424SOL    HW118731   3.569   0.141  16.849  0.3218  0.9763  0.9472
 2424SOL    HW218732   3.481   0.219  16.752 -1.7305  1.1318 -0.5000
 2425SOL     OW18733   1.585   2.808  13.482  0.6202  0.4981 -0.6117
 2425SOL    HW118734   1.653   2.798  13.549  0.6980  0.6626 -0.6662
 2425SOL    HW218735   1.607   2.728  13.434  0.7191  0.5822 -0.7056
 2426SOL     OW18736   4.117   2.535   2.762 -0.1215 -0.3139 -0.1515
 2426SOL    HW118737   4.095   2.596   2.692 -1.5489 -0.8557 -0.1780
 2426SOL    HW218738   4.039   2.479   2.756 -1.4101  1.6409 -1.5763
 2427SOL     OW18739   3.954   3.678   4.633 -0.2120 -0.0290 -0.2394
 2427SOL    HW118740   4.040   3.665   4.672  0.3495 -0.7206 -1.7425
 2427SOL    HW218741   3.903   3.649   4.709 -0.2231  0.4263 -0.0689
 2428SOL     OW18742   0.165   4.419   3.513 -0.0481  1.0055  0.4513
 2428SOL    HW118743   0.215   4.409   3.432 -0.5166 -2.4557  0.6204
 2428SOL    HW218744   0.114   4.339   3.510  0.6086  0.5107  2.6996
 2429SOL     OW18745   4.531   4.008   6.307  0.0144  0.0979 -0.1806
 2429SOL    HW118746   4.523   3.955   6.228 -2.1896  0.5787 -0.2552
 2429SOL    HW218747   4.584   3.953   6.366  1.6732  2.1890  0.2905
 2430SOL     OW18748   3.652   2.785   3.018  0.1746  0.2902 -0.0749
 2430SOL    HW118749   3.672   2.788   3.112 -0.0075  0.0963 -0.0318
 2430SOL    HW218750   3.665   2.876   2.989  1.3389  0.0560 -0.2722
 2431SOL     OW18751   3.621   0.151   8.854 -0.6236  0.3322 -0.6704
 2431SOL    HW118752   3.560   0.080   8.835  0.7449 -1.1016  0.2921
 2431SOL    HW218753   3.566   0.229   8.842 -0.2557  0.8318  0.8658
 2432SOL     OW18754   4.378   2.292  12.284 -0.0945 -0.3740 -0.3382
 2432SOL    HW118755   4.362   2.343  12.364  2.2190  0.9492 -0.7514
 2432SOL    HW218756   4.398   2.211  12.332  2.4100 -0.1124 -0.9383
 2433SOL     OW18757   0.343   4.193   8.766 -0.3230  0.1295  0.1986
 2433SOL    HW118758   0.413   4.258   8.752 -0.7389  0.4869 -0.1984
 2433SOL    HW218759   0.274   4.235   8.714 -0.9323 -2.2378 -0.8875
 2434SOL     OW18760   0.058   1.091  12.215  0.1225 -0.3320 -0.5410
 2434SOL    HW118761   4.710   1.031  12.244 -1.3167  0.8689 -1.4908
 2434SOL    HW218762   0.123   1.030  12.181  1.1799  1.1708 -1.2320
 2435SOL     OW18763   2.728   0.581   7.438 -0.7945  0.2058 -0.1955
 2435SOL    HW118764   2.820   0.557   7.425 -1.4315 -2.2934  0.0918
 2435SOL    HW218765   2.692   0.494   7.454 -0.4041  0.1601  0.4224
 2436SOL     OW18766   4.488   0.773   7.174  0.1387 -0.3303 -0.3450
 2436SOL    HW118767   4.443   0.782   7.258  1.8454  0.2662  0.5000
 2436SOL    HW218768   4.555   0.841   7.179 -0.6343  0.3050  1.2692
 2437SOL     OW18769   3.130   0.809   2.849  0.2056  0.5436  0.0845
 2437SOL    HW118770   3.058   0.817   2.786 -0.7766  1.8539  1.3774
 2437SOL    HW218771   3.102   0.834   2.937  0.6457  0.1702  0.3316
 2438SOL     OW18772   4.504   4.715  12.465  0.2256 -0.2230  0.7301
 2438SOL    HW118773   4.574   4.690  12.525 -0.2211 -2.1066  0.4620
 2438SOL    HW218774   4.499   4.636  12.411  0.0023  0.4977 -0.3062
 2439SOL     OW18775   3.300   2.876   4.966 -0.5261  0.0505  0.5704
 2439SOL    HW118776   3.268   2.797   4.923 -1.2440  0.0142  1.1727
 2439SOL    HW218777   3.213   2.917   4.964 -0.6664 -0.2948 -0.3947
 2440SOL     OW18778   3.279   4.461   1.609  0.2086  0.0049  0.1890
 2440SOL    HW118779   3.344   4.498   1.669  0.8292 -1.3546  0.3447
 2440SOL    HW218780   3.199   4.494   1.651  0.6755  1.5593 -0.1393
 2441SOL     OW18781   1.704   2.645   0.232  0.2506 -0.5523 -0.7396
 2441SOL    HW118782   1.783   2.693   0.256 -0.8943 -0.0349  1.9771
 2441SOL    HW218783   1.729   2.629   0.141 -1.4114  0.5429 -1.4060
 2442SOL     OW18784   2.319   3.776  13.430  0.4300 -0.1468 -0.5667
 2442SOL    HW118785   2.256   3.759  13.500  0.6026  1.0868 -0.1231
 2442SOL    HW218786   2.405   3.744  13.458  0.3248  0.6278  0.6169
 2443SOL     OW18787   1.310   1.706   3.903  0.0918 -0.0823  0.2603
 2443SOL    HW118788   1.366   1.782   3.920  1.4543 -0.4499 -2.4662
 2443SOL    HW218789   1.229   1.733   3.945 -1.2718 -0.4455 -2.1453
 2444SOL     OW18790   4.025   0.918   3.968 -0.2709 -0.1028  0.4486
 2444SOL    HW118791   3.968   0.948   4.038 -0.0289  2.9718 -0.6344
 2444SOL    HW218792   4.006   0.988   3.905  0.8308  1.8614  2.2693
 2445SOL     OW18793   0.565   2.440   8.932  0.2287  0.1947 -0.0159
 2445SOL    HW118794   0.634   2.384   8.965 -0.2030 -0.6921 -0.6241
 2445SOL    HW218795   0.617   2.487   8.866 -0.2826  0.5588 -0.1616
 2446SOL     OW18796   4.345   3.427   3.392  0.0485  0.0097  0.0721
 2446SOL    HW118797   4.301   3.510   3.376 -1.3116 -0.3960  1.6478
 2446SOL    HW218798   4.400   3.449   3.468  0.7345 -0.1871 -0.3696
 2447SOL     OW18799   2.262   3.286   4.676  0.2704  0.4395 -0.5294
 2447SOL    HW118800   2.257   3.208   4.622 -2.2039  0.0789  0.2370
 2447SOL    HW218801   2.329   3.264   4.741 -0.1819 -0.6771 -0.4449
 2448SOL     OW18802   3.506   3.439   8.155  0.4206  0.1041 -0.4199
 2448SOL    HW118803   3.586   3.389   8.137  0.5778  0.2130 -0.0324
 2448SOL    HW218804   3.469   3.381   8.222  0.6727  2.4893  1.8087
 2449SOL     OW18805   3.453   0.374  10.810 -0.1709 -0.0855  0.3898
 2449SOL    HW118806   3.412   0.291  10.786 -2.3347  0.9366  0.5741
 2449SOL    HW218807   3.388   0.411  10.869 -0.7207 -1.9386  0.9737
 2450SOL     OW18808   0.128   4.673   2.135 -0.4213 -0.0487 -0.3783
 2450SOL    HW118809   0.065   4.699   2.202 -1.6671 -0.1539 -1.5072
 2450SOL    HW218810   0.106   0.021   2.071 -0.2643  1.6082  1.3401
 2451SOL     OW18811   0.821   2.434   4.732 -0.2053 -0.6500  0.1074
 2451SOL    HW118812   0.912   2.410   4.748  0.4361  1.7544  0.0549
 2451SOL    HW218813   0.776   2.350   4.745  0.2749 -0.9071  0.1442
 2452SOL     OW18814   3.219   3.045   0.914  0.1755 -0.4583 -0.1142
 2452SOL    HW118815   3.158   3.030   0.841  0.7605 -1.1938 -0.4446
 2452SOL    HW218816   3.171   3.078   0.990  0.0352 -3.6945  1.1800
 2453SOL     OW18817   0.322   3.871   4.342 -0.6624 -0.6773 -0.0357
 2453SOL    HW118818   0.234   3.852   4.312 -0.5025  0.3054 -1.1433
 2453SOL    HW218819   0.371   3.846   4.264  0.2475  0.1185  0.2696
 2454SOL     OW18820   3.318   4.455   5.265  0.1185 -0.2508 -0.4868
 2454SOL    HW118821   3.259   4.406   5.208  0.2734 -0.2071 -0.6895
 2454SOL    HW218822   3.303   4.420   5.352 -2.1052  2.7038  0.3285
 2455SOL     OW18823   1.453   1.859  11.835  0.1086  0.7015  0.4801
 2455SOL    HW118824   1.547   1.873  11.820 -0.4421  0.8877 -2.8213
 2455SOL    HW218825   1.450   1.891  11.925  0.7381  0.2524  0.6693
 2456SOL     OW18826   1.602   0.894   7.942 -0.2733  0.0980  0.1391
 2456SOL    HW118827   1.585   0.908   8.036 -1.0867 -0.1122  0.0245
 2456SOL    HW218828   1.519   0.850   7.922  0.7158 -1.6047 -0.1537
 2457SOL     OW18829   3.914   2.120   3.318  0.4153 -0.5216 -0.1043
 2457SOL    HW118830   3.827   2.088   3.294  0.1609  0.0062  0.1009
 2457SOL    HW218831   3.924   2.189   3.252 -1.8284  0.0834  0.1690
 2458SOL     OW18832   1.660   3.889   9.000  0.1062  0.3600  0.1468
 2458SOL    HW118833   1.752   3.903   8.978 -0.3497 -1.4535 -2.9060
 2458SOL    HW218834   1.641   3.977   9.035 -1.5534  1.0439 -2.4925
 2459SOL     OW18835   2.019   4.525   7.487  0.2364  0.0822  0.6770
 2459SOL    HW118836   2.074   4.572   7.424  2.0184  0.3242  2.4322
 2459SOL    HW218837   2.013   4.435   7.455 -0.1124 -0.2552  1.7125
 2460SOL     OW18838   3.648   4.041   7.025 -0.6667  0.6310  0.1015
 2460SOL    HW118839   3.741   4.053   7.007 -0.0854  0.7340  3.2859
 2460SOL    HW218840   3.624   4.134   7.028 -0.5558  0.5714  2.3218
 2461SOL     OW18841   1.078   1.848  16.414  0.2413  0.2334  0.4867
 2461SOL    HW118842   0.997   1.900  16.418  0.0987 -0.1137  2.1255
 2461SOL    HW218843   1.149   1.912  16.413 -0.5356  1.0208 -3.5910
 2462SOL     OW18844   0.657   0.453   2.376  0.0215  0.4388  0.5877
 2462SOL    HW118845   0.681   0.454   2.283  0.0812 -1.3637  0.5827
 2462SOL    HW218846   0.623   0.542   2.384  2.0616  1.2028  0.6652
 2463SOL     OW18847   2.125   0.049   1.070  0.4684 -0.0772  0.0532
 2463SOL    HW118848   2.177   4.702   1.113  0.2334 -1.2375 -1.5099
 2463SOL    HW218849   2.083   0.089   1.147  0.5654  1.4147 -0.6689
 2464SOL     OW18850   1.308   2.458   5.210 -0.1255  0.0113 -0.4365
 2464SOL    HW118851   1.249   2.511   5.156  2.1941  1.0517 -1.9367
 2464SOL    HW218852   1.249   2.405   5.263 -1.9639  1.9962 -0.4714
 2465SOL     OW18853   3.861   4.309  17.669  0.7012  0.3416 -0.6153
 2465SOL    HW118854   3.815   4.268  17.596 -1.4209 -2.4318  2.2935
 2465SOL    HW218855   3.874   4.397  17.632  2.4222 -0.5095 -2.0359
 2466SOL     OW18856   3.747   1.066   0.070 -0.0291  0.4199  0.3370
 2466SOL    HW118857   3.722   1.030  17.672  0.0063 -0.3704  0.6662
 2466SOL    HW218858   3.678   1.133   0.067  1.5842  2.0563 -0.0231
 2467SOL     OW18859   3.906   2.365   8.834  0.0564  0.1345  0.2160
 2467SOL    HW118860   3.927   2.290   8.889  1.4802  1.9452  2.1176
 2467SOL    HW218861   3.810   2.360   8.832  0.0441  0.7049 -0.6972
 2468SOL     OW18862   4.228   0.004   0.079  0.4237 -0.1845 -0.6703
 2468SOL    HW118863   4.227   4.639   0.121  1.5665  0.7308  1.2571
 2468SOL    HW218864   4.273   0.053   0.148  1.0394  0.5335 -1.5846
 2469SOL     OW18865   1.101   3.042  11.728 -0.2288 -0.2545  0.3355
 2469SOL    HW118866   1.155   2.971  11.764 -2.6755 -2.0852  0.4693
 2469SOL    HW218867   1.128   3.122  11.773 -1.4625 -0.5157  1.5438
 2470SOL     OW18868   2.024   3.700   4.531  0.6103 -0.4781  0.3107
 2470SOL    HW118869   2.110   3.663   4.553  0.7567  0.0094  0.5434
 2470SOL    HW218870   1.982   3.681   4.615  0.1701  0.8928  0.3923
 2471SOL     OW18871   1.756   3.027   4.888 -0.2824 -0.0953 -0.0805
 2471SOL    HW118872   1.741   3.102   4.946  3.3043  0.4583  0.1355
 2471SOL    HW218873   1.850   3.008   4.898 -0.4317 -0.9610 -0.2866
 2472SOL     OW18874   0.236   1.507   8.586  0.0597 -0.2336 -0.1832
 2472SOL    HW118875   0.207   1.594   8.612  0.5130  0.1291 -0.8984
 2472SOL    HW218876   0.307   1.487   8.647  0.2646  1.3042  0.0733
 2473SOL     OW18877   0.415   3.366   8.340 -0.5491 -0.2808 -0.5128
 2473SOL    HW118878   0.474   3.426   8.386  0.3401 -2.6537  1.4518
 2473SOL    HW218879   0.335   3.383   8.390  0.3402  1.2463  0.3853
 2474SOL     OW18880   0.703   0.653   8.180  0.0470 -0.0003 -0.2288
 2474SOL    HW118881   0.626   0.702   8.153 -0.9354 -2.2253 -1.3712
 2474SOL    HW218882   0.707   0.586   8.112 -1.2775 -1.1545  0.8263
 2475SOL     OW18883   1.795   1.045   7.796 -0.2665 -0.2622 -0.3056
 2475SOL    HW118884   1.855   0.971   7.794  1.0821  0.8353 -0.0811
 2475SOL    HW218885   1.720   1.002   7.838 -1.0617 -1.0837 -2.5277
 2476SOL     OW18886   0.149   4.178  10.824  0.4556 -0.1291 -0.6702
 2476SOL    HW118887   0.213   4.233  10.780 -0.1546 -1.3081 -3.0483
 2476SOL    HW218888   0.165   4.095  10.777 -0.8145 -1.5765  1.4628
 2477SOL     OW18889   0.537   3.536   1.951  0.0833  0.0165  0.2328
 2477SOL    HW118890   0.491   3.616   1.927 -1.3100 -1.2199 -1.2027
 2477SOL    HW218891   0.493   3.475   1.891  0.3976 -0.6758  0.7027
 2478SOL     OW18892   3.405   1.142   3.985 -0.2799 -0.2040  0.4140
 2478SOL    HW118893   3.310   1.141   4.000 -0.6448  0.8871 -1.7496
 2478SOL    HW218894   3.428   1.116   4.074 -1.3410 -3.2588 -0.1920
 2479SOL     OW18895   0.990   0.612   9.302 -0.1066 -0.0056 -0.5061
 2479SOL    HW118896   1.027   0.524   9.318 -0.1595  0.5973  2.9185
 2479SOL    HW218897   0.940   0.630   9.381  2.5886  4.2305  0.2081
 2480SOL     OW18898   3.132   2.345   5.154 -0.5547 -0.3152 -0.3911
 2480SOL    HW118899   3.170   2.342   5.242  0.4916 -0.8488 -0.8632
 2480SOL    HW218900   3.135   2.436   5.125 -0.0676 -0.7914 -1.8446
 2481SOL     OW18901   3.025   1.310   2.878 -0.3512  0.0235  0.6040
 2481SOL    HW118902   3.102   1.309   2.820  0.6611  0.6776  1.9267
 2481SOL    HW218903   3.004   1.401   2.858  0.7735 -0.1759 -1.5724
 2482SOL     OW18904   0.797   4.482   2.813 -0.0106 -0.0795  0.4224
 2482SOL    HW118905   0.890   4.466   2.798  0.0916  1.9810 -1.1032
 2482SOL    HW218906   0.790   4.487   2.909  1.9259  0.1008  0.5569
 2483SOL     OW18907   3.717   0.377   6.741 -0.3630 -0.2357  0.1970
 2483SOL    HW118908   3.770   0.351   6.666 -1.1796 -0.1750 -0.3937
 2483SOL    HW218909   3.748   0.466   6.760 -0.7919  0.3046 -1.6937
 2484SOL     OW18910   1.007   1.808  16.098 -0.2361  0.5048  0.4252
 2484SOL    HW118911   0.920   1.824  16.134 -0.1369  0.9032  0.4896
 2484SOL    HW218912   0.983   1.774  16.012 -1.1893  1.4495  0.3168
 2485SOL     OW18913   1.952   0.256   4.629 -0.1032 -0.0365 -0.0238
 2485SOL    HW118914   1.923   0.191   4.693 -2.4652 -0.2935 -1.3672
 2485SOL    HW218915   1.885   0.249   4.561 -1.6405 -1.5040  1.6414
 2486SOL     OW18916   2.873   0.618   4.057  0.3224 -0.5364 -0.0615
 2486SOL    HW118917   2.873   0.548   3.992 -0.3249 -1.1710  0.6223
 2486SOL    HW218918   2.930   0.575   4.121  0.3916  0.1631  0.3435
 2487SOL     OW18919   4.361   2.567  15.057  0.0346 -0.1345 -0.2045
 2487SOL    HW118920   4.367   2.594  14.965 -1.1603  1.7360  0.2769
 2487SOL    HW218921   4.434   2.614  15.098  1.4205 -1.2236 -1.3852
 2488SOL     OW18922   1.906   1.992  14.341 -0.0065 -0.1588 -0.6455
 2488SOL    HW118923   1.834   1.998  14.404  1.6004  2.4853  0.9106
 2488SOL    HW218924   1.855   2.023  14.266 -1.8443 -1.1273  0.2036
 2489SOL     OW18925   3.891   0.509   4.665  0.5223  0.4783 -0.0312
 2489SOL    HW118926   3.983   0.511   4.638  0.4582  2.7106 -0.0467
 2489SOL    HW218927   3.862   0.438   4.607  0.2538 -1.4661  2.5020
 2490SOL     OW18928   1.798   2.517   2.355  0.3378  0.7127 -0.6155
 2490SOL    HW118929   1.833   2.605   2.350 -0.1054  0.9554  0.5531
 2490SOL    HW218930   1.762   2.522   2.444 -0.9543 -2.6044 -0.9506
 2491SOL     OW18931   2.433   3.435   4.311 -0.0811  0.8995 -0.2431
 2491SOL    HW118932   2.349   3.391   4.300  2.2598 -3.2469 -1.8667
 2491SOL    HW218933   2.412   3.509   4.368 -0.1206  2.0137 -1.7026
 2492SOL     OW18934   4.507   4.522   2.476  0.3833 -0.6192  0.2982
 2492SOL    HW118935   4.559   4.558   2.548  0.5549  1.3167 -0.7854
 2492SOL    HW218936   4.467   4.455   2.531  0.7752 -0.9160  0.2310
 2493SOL     OW18937   4.209   4.569   0.902  0.5532  0.6608 -0.1799
 2493SOL    HW118938   4.151   4.494   0.909  2.2271 -0.6308 -0.1899
 2493SOL    HW218939   4.259   4.538   0.826  0.6089  1.1811 -0.3576
 2494SOL     OW18940   2.664   1.969   7.968  0.7626 -0.2995 -0.2352
 2494SOL    HW118941   2.660   1.916   7.888 -1.4844 -1.6742  0.7874
 2494SOL    HW218942   2.733   1.924   8.016 -0.2850 -3.8246 -2.0384
 2495SOL     OW18943   1.601   2.343   7.778 -0.4202 -0.0443  0.4744
 2495SOL    HW118944   1.627   2.384   7.861  0.5893  1.4936 -0.6083
 2495SOL    HW218945   1.508   2.366   7.773 -0.2877  0.5388  0.6112
 2496SOL     OW18946   2.180   1.479   7.690  0.0323 -0.2136  0.5005
 2496SOL    HW118947   2.229   1.417   7.636 -0.5645  1.2598 -1.7279
 2496SOL    HW218948   2.206   1.453   7.779  0.8969 -1.5499 -0.1427
 2497SOL     OW18949   0.601   0.488   4.187  0.0324  0.1240  0.3382
 2497SOL    HW118950   0.553   0.476   4.269 -0.1731 -2.5920 -0.1955
 2497SOL    HW218951   0.638   0.404   4.160 -2.2936 -1.1573  1.1159
 2498SOL     OW18952   4.353   1.442   2.276 -0.3384 -0.3281  0.0044
 2498SOL    HW118953   4.431   1.435   2.222 -0.2223 -1.8676  0.3545
 2498SOL    HW218954   4.361   1.358   2.321 -3.0977  0.8896  2.8031
 2499SOL     OW18955   4.093   0.908   4.950 -0.1465 -0.0501  0.1336
 2499SOL    HW118956   4.172   0.879   4.995  1.2483  2.1817 -0.8449
 2499SOL    HW218957   4.021   0.892   5.011  1.0413  1.3255  1.8977
 2500SOL     OW18958   0.416   4.360   5.564 -0.1196 -0.1557  0.3521
 2500SOL    HW118959   0.342   4.307   5.533  0.3963 -1.1876  0.8653
 2500SOL    HW218960   0.369   4.441   5.582 -2.7888 -1.6485  0.1407
 2501SOL     OW18961   4.108   0.236  13.325 -0.2957  0.2323 -0.1267
 2501SOL    HW118962   4.194   0.205  13.295  0.4356  1.1432  1.0071
 2501SOL    HW218963   4.115   0.219  13.419  2.2351  1.4497 -0.0803
 2502SOL     OW18964   2.441   2.809   3.896  0.2682 -0.2297  0.1725
 2502SOL    HW118965   2.382   2.822   3.970 -1.6540 -2.2548 -1.0009
 2502SOL    HW218966   2.478   2.897   3.888  0.8558 -0.3026  2.1786
 2503SOL     OW18967   3.961   2.041  16.493  0.7503 -0.0963 -0.2905
 2503SOL    HW118968   3.875   1.999  16.487  0.6167 -0.1731  2.0981
 2503SOL    HW218969   3.970   2.053  16.587 -0.2883  0.4840 -0.2616
 2504SOL     OW18970   2.249   1.130  12.940  0.1726 -0.4686  0.0941
 2504SOL    HW118971   2.160   1.110  12.911  0.3720  0.4705 -1.1215
 2504SOL    HW218972   2.253   1.065  13.011  2.3856  0.9701  1.2586
 2505SOL     OW18973   1.817   0.966   9.849 -0.3534  0.8196  0.2650
 2505SOL    HW118974   1.735   0.949   9.802  0.4175  0.2610 -0.8704
 2505SOL    HW218975   1.887   0.950   9.786 -1.7036 -2.4299 -0.3818
 2506SOL     OW18976   3.545   1.382   7.151  0.3827 -0.4330  0.2168
 2506SOL    HW118977   3.631   1.376   7.110 -0.5945 -2.0497 -1.5389
 2506SOL    HW218978   3.553   1.456   7.211  1.0258  0.4390 -0.9416
 2507SOL     OW18979   3.230   3.054   2.067  0.3391 -0.0774  0.1838
 2507SOL    HW118980   3.194   3.110   2.135 -0.0420  1.3660 -1.1977
 2507SOL    HW218981   3.171   2.978   2.061 -0.5745  0.6129  0.4182
 2508SOL     OW18982   2.414   2.218   2.373  0.5687 -0.0264 -0.3410
 2508SOL    HW118983   2.455   2.300   2.403 -2.5256  1.6744 -0.7068
 2508SOL    HW218984   2.372   2.190   2.454  1.4131  1.1873  0.5217
 2509SOL     OW18985   3.624   1.397   3.390 -0.2815 -0.4126  0.2517
 2509SOL    HW118986   3.620   1.426   3.299  1.3276 -0.3406  0.1972
 2509SOL    HW218987   3.645   1.304   3.380 -0.5269 -0.3635 -0.7793
 2510SOL     OW18988   4.316   2.769   2.439  0.1739  0.1781 -0.7622
 2510SOL    HW118989   4.338   2.728   2.355 -2.8742 -0.5737 -1.1734
 2510SOL    HW218990   4.359   2.705   2.496  0.5913  0.2437 -1.0011
 2511SOL     OW18991   2.271   3.176   6.297 -0.0900  0.5313  0.0790
 2511SOL    HW118992   2.340   3.115   6.322  0.4537  1.2113  0.2522
 2511SOL    HW218993   2.198   3.119   6.272  0.8747 -0.2243 -0.9671
 2512SOL     OW18994   2.107   2.802   3.352  0.3097 -0.0626 -0.4700
 2512SOL    HW118995   2.017   2.834   3.347 -0.2348 -1.8023 -1.6908
 2512SOL    HW218996   2.136   2.836   3.437  0.0558 -0.1282 -0.3560
 2513SOL     OW18997   4.585   2.846  13.506 -0.0367 -0.0371 -0.0569
 2513SOL    HW118998   4.561   2.896  13.584 -1.8212 -0.6422 -0.2195
 2513SOL    HW218999   4.653   2.901  13.468 -0.1812  0.9301  1.0708
 2514SOL     OW19000   2.910   1.732   7.968 -0.5171 -0.1917  0.2407
 2514SOL    HW119001   2.877   1.731   7.878 -1.3882  1.5208  0.5408
 2514SOL    HW219002   3.002   1.703   7.971 -0.6596 -0.5392  1.3003
 2515SOL     OW19003   2.873   2.673   5.598 -0.5153  0.3540  0.1730
 2515SOL    HW119004   2.851   2.591   5.641  2.2243 -1.6537 -2.2381
 2515SOL    HW219005   2.823   2.732   5.654  1.3370  0.8396  1.3247
 2516SOL     OW19006   2.583   2.189   3.654  0.5423  0.8920  0.3272
 2516SOL    HW119007   2.537   2.162   3.574  0.8553 -0.9627  0.7812
 2516SOL    HW219008   2.669   2.216   3.623 -0.0202  0.6217 -1.5174
 2517SOL     OW19009   1.600   2.572  14.616 -0.0841 -0.5306 -0.4493
 2517SOL    HW119010   1.564   2.542  14.532 -1.4553 -1.7264  0.5727
 2517SOL    HW219011   1.622   2.496  14.670 -1.9719 -0.5832  0.2620
 2518SOL     OW19012   3.233   1.812   7.769 -0.6886 -0.2031  0.2486
 2518SOL    HW119013   3.150   1.842   7.730  0.3686  1.2942 -0.8305
 2518SOL    HW219014   3.298   1.865   7.724  0.6085 -1.6660  0.4023
 2519SOL     OW19015   0.299   4.305  10.664 -0.0747  0.4914  1.0696
 2519SOL    HW119016   0.228   4.370  10.660 -0.8881 -0.3880  1.1277
 2519SOL    HW219017   0.302   4.283  10.571 -1.6275  2.6355  0.5242
 2520SOL     OW19018   1.211   0.824   2.326  0.4454 -0.7816  0.1497
 2520SOL    HW119019   1.242   0.865   2.407 -0.4903 -1.5206  0.8817
 2520SOL    HW219020   1.264   0.745   2.312  0.3986 -0.5619 -1.2570
 2521SOL     OW19021   2.207   0.075   6.319 -0.1522 -0.0391  0.1954
 2521SOL    HW119022   2.290   0.115   6.344 -0.4182  1.7883 -1.8293
 2521SOL    HW219023   2.179   0.030   6.399  0.7028  0.7586  0.9365
 2522SOL     OW19024   3.526   1.185   4.528  0.1515 -0.2023  0.1418
 2522SOL    HW119025   3.460   1.171   4.596 -0.8770 -1.1464 -1.0415
 2522SOL    HW219026   3.521   1.280   4.513  2.4678 -0.1645 -0.3074
 2523SOL     OW19027   2.934   0.735   3.536  0.1186  0.2939  0.0404
 2523SOL    HW119028   2.853   0.786   3.541  0.2547  0.5153 -0.0240
 2523SOL    HW219029   2.961   0.766   3.450  0.0694 -1.2847 -0.5289
 2524SOL     OW19030   2.150   2.891   3.969 -0.2781  0.3835  0.2325
 2524SOL    HW119031   2.119   2.845   4.047 -1.3946  0.6489 -0.0613
 2524SOL    HW219032   2.079   2.952   3.948  1.6583  1.7087 -2.4619
 2525SOL     OW19033   3.769   2.796  13.249 -0.1832 -0.6478 -0.0694
 2525SOL    HW119034   3.849   2.743  13.255 -1.2446 -2.1438  0.8906
 2525SOL    HW219035   3.761   2.811  13.155 -0.5822  2.3685  0.4657
 2526SOL     OW19036   2.369   2.761   7.258 -0.5523 -0.1402 -0.0014
 2526SOL    HW119037   2.445   2.790   7.207 -1.1500  0.2261 -0.6832
 2526SOL    HW219038   2.397   2.675   7.290  0.9207  0.0815 -0.6775
 2527SOL     OW19039   3.768   0.405   5.543  0.0816 -0.2189 -0.0243
 2527SOL    HW119040   3.779   0.332   5.482 -0.5442 -0.1528 -0.2195
 2527SOL    HW219041   3.839   0.380   5.602  0.8720 -0.2751 -1.0076
 2528SOL     OW19042   1.104   0.177   1.644  0.2229  0.8063  0.2327
 2528SOL    HW119043   1.097   0.156   1.737  2.2635  0.3758  0.2987
 2528SOL    HW219044   1.029   0.128   1.610  0.1125  1.9337 -1.1096
 2529SOL     OW19045   0.990   2.896   2.201 -0.2107  0.1963  0.1543
 2529SOL    HW119046   0.927   2.942   2.256 -1.7347 -0.3504 -1.1250
 2529SOL    HW219047   0.969   2.939   2.117 -0.1517  0.6088  0.3520
 2530SOL     OW19048   1.163   1.867   3.062  0.0348  0.8308 -0.0926
 2530SOL    HW119049   1.133   1.776   3.061  0.9148  0.5286  0.5044
 2530SOL    HW219050   1.100   1.896   2.997  1.0707  0.6957 -1.1464
 2531SOL     OW19051   0.774   3.508   3.327 -0.0413 -0.1503 -0.1344
 2531SOL    HW119052   0.852   3.458   3.352  0.8616  1.1795 -0.3110
 2531SOL    HW219053   0.796   3.508   3.234 -1.5279 -0.9895 -0.4868
 2532SOL     OW19054   3.402   3.446  12.547  0.1859  0.0403 -0.4648
 2532SOL    HW119055   3.354   3.459  12.629  2.1582  2.3729  0.3109
 2532SOL    HW219056   3.353   3.367  12.525  0.0570  0.4730 -1.7274
 2533SOL     OW19057   1.360   0.659  14.429 -0.4297 -0.0972 -0.6833
 2533SOL    HW119058   1.363   0.677  14.523 -1.8808  1.2444 -0.9037
 2533SOL    HW219059   1.286   0.716  14.411  1.4451  1.7260 -2.6269
 2534SOL     OW19060   2.040   3.029   0.343 -0.7623 -0.0343 -0.3539
 2534SOL    HW119061   2.117   3.062   0.296 -0.3586 -1.1029 -0.4398
 2534SOL    HW219062   2.025   3.102   0.404 -1.3530  0.6457 -1.3096
 2535SOL     OW19063   3.233   3.533  11.644  0.3522 -0.2269 -0.2915
 2535SOL    HW119064   3.157   3.477  11.660  0.6015 -1.4687 -3.5850
 2535SOL    HW219065   3.315   3.485  11.655 -0.0572 -0.4270  1.8937
 2536SOL     OW19066   3.491   3.187   2.436  0.0287 -0.4171 -0.5483
 2536SOL    HW119067   3.498   3.116   2.371 -0.5972 -0.1461 -0.9210
 2536SOL    HW219068   3.584   3.203   2.452 -0.1891  0.9821 -0.7495
 2537SOL     OW19069   0.636   1.450   0.681 -0.1408 -0.2078  0.3972
 2537SOL    HW119070   0.579   1.392   0.732 -0.4983  0.3672  0.6482
 2537SOL    HW219071   0.572   1.505   0.636  1.4264 -0.1214 -1.7108
 2538SOL     OW19072   4.642   3.922   8.849 -0.0358  0.0140 -0.1973
 2538SOL    HW119073   4.656   3.978   8.925 -0.5637  1.6624 -1.3125
 2538SOL    HW219074   4.682   3.959   8.770  1.2867  0.7392  0.8282
 2539SOL     OW19075   4.248   4.057  13.329  0.6638 -0.7504  0.0075
 2539SOL    HW119076   4.287   4.139  13.358  1.8709 -1.8501  1.4401
 2539SOL    HW219077   4.249   4.067  13.233 -2.1210  1.0094  0.1456
 2540SOL     OW19078   4.295   2.018   4.278  0.3059 -0.2905 -0.1743
 2540SOL    HW119079   4.270   1.936   4.235 -1.5311  0.2682 -0.1767
 2540SOL    HW219080   4.277   2.089   4.216 -0.8877 -0.8801 -0.5034
 2541SOL     OW19081   2.733   0.792   0.990  0.0985 -0.0657  0.2874
 2541SOL    HW119082   2.748   0.859   0.923 -1.9597  0.9218  0.8102
 2541SOL    HW219083   2.737   0.708   0.945  2.2148  0.5660 -0.6834
 2542SOL     OW19084   3.823   3.031  16.677 -0.6642  0.1159 -0.1035
 2542SOL    HW119085   3.881   3.104  16.697  0.5763 -0.7910 -0.4145
 2542SOL    HW219086   3.847   2.991  16.594 -0.9980  0.8430 -0.5473
 2543SOL     OW19087   3.959   1.580   1.614 -0.8018 -0.2183 -0.1411
 2543SOL    HW119088   4.001   1.496   1.635 -2.5215 -0.5524  2.0517
 2543SOL    HW219089   4.033   1.640   1.620 -0.8959 -0.2933  1.7723
 2544SOL     OW19090   2.613   1.775  11.298  0.1206 -0.0089  0.1508
 2544SOL    HW119091   2.694   1.825  11.304 -0.3766  0.8592 -0.4549
 2544SOL    HW219092   2.645   1.712  11.234 -1.2133 -0.0326 -0.5012
 2545SOL     OW19093   1.950   0.528   3.759 -0.3301 -0.2552  0.2705
 2545SOL    HW119094   1.941   0.620   3.785  1.7294  0.5287 -1.7894
 2545SOL    HW219095   1.985   0.490   3.840 -1.1614 -0.5707  0.4828
 2546SOL     OW19096   2.106   2.426   6.406  0.1697  0.3163  0.1476
 2546SOL    HW119097   2.086   2.386   6.322 -0.4546  1.4251 -0.2245
 2546SOL    HW219098   2.049   2.503   6.413  0.4808  0.3888  1.8699
 2547SOL     OW19099   3.909   4.390  13.797 -0.6422  0.3460  0.5856
 2547SOL    HW119100   3.852   4.344  13.736 -0.4376 -0.3165  0.8950
 2547SOL    HW219101   3.987   4.335  13.799 -1.4134 -0.7686 -0.2077
 2548SOL     OW19102   1.498   0.671   2.582 -0.8502  0.4965 -0.2623
 2548SOL    HW119103   1.508   0.766   2.586  0.6402  0.3231 -0.0378
 2548SOL    HW219104   1.436   0.662   2.509 -2.2296 -1.2513  1.1080
 2549SOL     OW19105   2.338   1.770   5.040 -0.0898  0.5616  0.0227
 2549SOL    HW119106   2.315   1.801   4.952  1.5996 -1.2459 -1.0556
 2549SOL    HW219107   2.255   1.729   5.064  0.3706  0.8552  2.1061
 2550SOL     OW19108   0.877   0.063   5.021  0.2677  0.2083 -0.2939
 2550SOL    HW119109   0.856   0.091   5.111 -1.7053 -0.7141 -0.4730
 2550SOL    HW219110   0.900   4.693   5.038 -1.4724  0.0667  1.4048
 2551SOL     OW19111   2.794   0.176  17.461  0.7508 -0.2671  0.1382
 2551SOL    HW119112   2.785   0.081  17.469 -0.1392 -0.2005 -0.0987
 2551SOL    HW219113   2.726   0.196  17.525  0.2815 -1.0217 -0.1294
 2552SOL     OW19114   2.066   0.916   1.463 -0.4483  0.7947  0.0528
 2552SOL    HW119115   2.061   0.941   1.370 -0.4424  0.6916  0.0253
 2552SOL    HW219116   2.052   0.822   1.456 -1.1796  0.9808 -1.0975
 2553SOL     OW19117   4.370   3.940   4.176 -0.0941  0.8491 -0.0472
 2553SOL    HW119118   4.288   3.991   4.178 -0.5021  0.1127  2.1907
 2553SOL    HW219119   4.421   3.978   4.248  0.7965  0.2966 -0.4003
 2554SOL     OW19120   4.298   2.751   4.664  0.0844  0.4674  0.7194
 2554SOL    HW119121   4.380   2.741   4.616 -0.0581 -0.8701  0.7501
 2554SOL    HW219122   4.238   2.689   4.622 -1.0461  0.6163  2.1286
 2555SOL     OW19123   2.697   0.662   6.580  0.1589  0.2644 -0.1928
 2555SOL    HW119124   2.667   0.691   6.493  0.6994  0.2261 -0.3901
 2555SOL    HW219125   2.736   0.749   6.591  0.2517  0.2741 -0.5742
 2556SOL     OW19126   1.819   1.871   4.876 -0.3040  0.3463 -0.2229
 2556SOL    HW119127   1.856   1.824   4.950 -0.9875 -0.9952 -0.7313
 2556SOL    HW219128   1.873   1.950   4.877  0.3629 -0.1065 -1.0290
 2557SOL     OW19129   0.065   2.600   8.257 -0.8409 -0.6770  0.6518
 2557SOL    HW119130   0.146   2.621   8.303  0.5263 -2.8267 -0.7912
 2557SOL    HW219131   0.051   2.689   8.226  1.8699 -0.7986 -0.9274
 2558SOL     OW19132   3.212   2.620   3.945 -0.7793 -0.2981 -0.2457
 2558SOL    HW119133   3.119   2.644   3.939 -1.0745 -0.2360  4.5715
 2558SOL    HW219134   3.216   2.559   4.018 -2.2867 -0.3287 -0.1915
 2559SOL     OW19135   2.431   3.672   3.604  0.0335 -0.1062 -0.0428
 2559SOL    HW119136   2.377   3.710   3.535 -1.2428  0.3352  1.2094
 2559SOL    HW219137   2.406   3.733   3.674  1.1103 -0.6187  0.7990
 2560SOL     OW19138   0.149   4.567   8.606 -0.0419  0.4433 -0.6197
 2560SOL    HW119139   0.190   4.651   8.588 -0.8931  0.8003 -0.9125
 2560SOL    HW219140   0.105   4.596   8.686 -0.4026 -0.5327 -0.4572
 2561SOL     OW19141   3.749   0.786   9.377  0.0501  0.4997  0.4069
 2561SOL    HW119142   3.796   0.709   9.409 -0.9336 -0.3038 -0.0521
 2561SOL    HW219143   3.824   0.825   9.333  1.2555 -2.9577 -0.6276
 2562SOL     OW19144   4.100   2.662   3.018  0.2830 -0.2492 -0.0813
 2562SOL    HW119145   4.079   2.745   2.976 -0.1389 -0.0789  0.4589
 2562SOL    HW219146   4.098   2.602   2.944  0.8823  1.7580 -1.7259
 2563SOL     OW19147   3.212   2.050   1.880  0.2624  0.3002  0.3943
 2563SOL    HW119148   3.191   2.021   1.791  1.5966  0.7673 -0.0791
 2563SOL    HW219149   3.275   2.121   1.865  1.0519 -0.6747 -1.0026
 2564SOL     OW19150   0.230   0.318   6.866 -0.4447  0.2044  0.2080
 2564SOL    HW119151   0.203   0.312   6.774 -1.1801 -2.5299  0.6098
 2564SOL    HW219152   0.253   0.227   6.886  0.2579  1.1387  3.5862
 2565SOL     OW19153   2.797   0.695   8.826  0.1209 -0.2587  0.1519
 2565SOL    HW119154   2.849   0.775   8.826  1.0422 -0.8523  0.4930
 2565SOL    HW219155   2.707   0.726   8.828 -0.3202 -1.5216 -0.8893
 2566SOL     OW19156   0.399   0.804   9.446  0.3961 -0.3530 -0.1657
 2566SOL    HW119157   0.392   0.712   9.472  0.6064 -1.0824 -2.7078
 2566SOL    HW219158   0.403   0.851   9.529  0.4365 -2.3540  0.9563
 2567SOL     OW19159   2.612   1.039   4.517  0.6929 -0.4310 -0.6881
 2567SOL    HW119160   2.583   1.045   4.426  1.8047  0.6024 -0.9728
 2567SOL    HW219161   2.602   0.946   4.534 -2.5909 -0.2259 -1.6200
 2568SOL     OW19162   0.312   0.027   6.793 -0.4014  0.1936 -0.0552
 2568SOL    HW119163   0.296   4.692   6.718  0.3752  3.3094 -2.5732
 2568SOL    HW219164   0.264   4.708   6.866 -2.9763 -0.4970 -2.1183
 2569SOL     OW19165   2.623   0.667  14.881  0.8246  0.5545 -0.7246
 2569SOL    HW119166   2.658   0.753  14.907 -0.4933  0.9984 -0.3944
 2569SOL    HW219167   2.570   0.683  14.803 -1.0888 -1.3566  0.1922
 2570SOL     OW19168   4.272   2.851   1.746 -0.2144 -0.0216 -0.4008
 2570SOL    HW119169   4.218   2.825   1.821 -1.6851 -1.2510 -1.8817
 2570SOL    HW219170   4.212   2.812   1.682 -0.5790 -0.4328  0.1942
 2571SOL     OW19171   4.673   4.586   8.056  0.3894  0.4500 -0.1342
 2571SOL    HW119172   0.002   4.608   8.134 -0.1048  0.5889  0.1457
 2571SOL    HW219173   4.643   4.495   8.062  0.3296  0.4910  0.1488
 2572SOL     OW19174   2.340   4.334   7.437  0.3452  0.3344 -0.1725
 2572SOL    HW119175   2.345   4.275   7.362 -2.9989 -2.1106  1.5479
 2572SOL    HW219176   2.344   4.264   7.503  0.9032  1.4990  1.0331
 2573SOL     OW19177   1.140   4.220   7.964 -0.1645  0.1109 -0.6073
 2573SOL    HW119178   1.051   4.198   7.993  0.1921  2.0103  1.9841
 2573SOL    HW219179   1.186   4.145   8.002  0.8077  1.1515  0.3095
 2574SOL     OW19180   1.226   1.715   6.954 -0.6308 -0.4365 -0.1427
 2574SOL    HW119181   1.244   1.809   6.948  0.6922 -0.6310  0.6242
 2574SOL    HW219182   1.200   1.692   6.865 -0.6514  0.2146 -0.3008
 2575SOL     OW19183   3.208   3.756   5.179 -0.1783 -0.1302  0.3433
 2575SOL    HW119184   3.243   3.807   5.253 -0.9169  2.6064 -1.1919
 2575SOL    HW219185   3.119   3.731   5.207 -0.0817 -1.1425 -0.2799
 2576SOL     OW19186   2.548   4.398   1.474  0.0253 -0.4132  0.1388
 2576SOL    HW119187   2.556   4.313   1.429 -0.1089 -0.0295 -0.6061
 2576SOL    HW219188   2.522   4.459   1.406  1.8653 -1.3910 -1.4615
 2577SOL     OW19189   2.319   0.817  16.048  0.4880 -0.6374 -0.8713
 2577SOL    HW119190   2.407   0.780  16.056  0.4730 -0.6865 -0.9339
 2577SOL    HW219191   2.304   0.842  16.139  3.6390  1.3478 -0.9172
 2578SOL     OW19192   2.730   0.905   1.446 -0.4545  0.8756  0.8008
 2578SOL    HW119193   2.775   0.855   1.377  2.4305  3.2100  0.9567
 2578SOL    HW219194   2.776   0.866   1.520  1.8289  3.7527  0.9245
 2579SOL     OW19195   3.662   1.737  15.237  0.0982  0.3443  0.2798
 2579SOL    HW119196   3.571   1.764  15.228  0.5297  2.3948  2.0947
 2579SOL    HW219197   3.695   1.761  15.151 -0.1455  2.0246  0.6587
 2580SOL     OW19198   1.761   1.816  13.791  0.8386 -0.3870 -0.0004
 2580SOL    HW119199   1.711   1.742  13.824 -1.0950  1.1115  0.4005
 2580SOL    HW219200   1.710   1.813  13.711  0.0089  0.4942  0.5025
 2581SOL     OW19201   0.744   1.662   2.491 -0.1261  0.4277 -0.0064
 2581SOL    HW119202   0.663   1.711   2.500 -0.4976 -0.2398  0.3385
 2581SOL    HW219203   0.736   1.640   2.398  0.3853  1.9090 -0.3905
 2582SOL     OW19204   0.433   3.869   5.886  0.4064  0.3897  0.7209
 2582SOL    HW119205   0.406   3.947   5.933 -0.8936  0.0408  0.5612
 2582SOL    HW219206   0.525   3.889   5.870  0.7290 -2.5369 -1.2456
 2583SOL     OW19207   0.084   1.590   5.819 -0.1638  0.4232  0.0475
 2583SOL    HW119208   0.046   1.677   5.814 -0.2144  0.4436  0.8896
 2583SOL    HW219209   0.012   1.545   5.776  0.3346 -0.6124  0.2914
 2584SOL     OW19210   3.849   0.124   5.051  0.1733 -0.0969 -0.7298
 2584SOL    HW119211   3.876   0.051   4.994  0.6144 -0.2856 -0.2779
 2584SOL    HW219212   3.762   0.128   5.011 -0.5734 -0.2471  0.9163
 2585SOL     OW19213   0.378   0.128   8.082 -0.5357 -0.1962  0.0331
 2585SOL    HW119214   0.457   0.074   8.074 -0.3029  0.4246 -1.7380
 2585SOL    HW219215   0.420   0.205   8.119 -1.5014 -0.4454  1.6819
 2586SOL     OW19216   0.899   3.008  13.020 -0.3165 -0.1015 -0.2975
 2586SOL    HW119217   0.977   3.036  13.069 -0.6507 -1.2657  0.9001
 2586SOL    HW219218   0.887   3.079  12.956  1.9847  0.4317 -0.1259
 2587SOL     OW19219   0.763   1.954   6.537  0.1269  0.6837 -0.3369
 2587SOL    HW119220   0.748   1.963   6.442 -1.9411 -0.8997 -0.1598
 2587SOL    HW219221   0.853   1.987   6.544 -0.1143  1.3594 -0.3942
 2588SOL     OW19222   4.461   2.675   1.092 -0.2007 -0.5102 -0.0941
 2588SOL    HW119223   4.545   2.647   1.130 -0.4491  1.0778  1.5798
 2588SOL    HW219224   4.470   2.626   1.010  2.5082  0.6091 -0.4661
 2589SOL     OW19225   1.166   0.052   5.301  0.0710 -0.5556  0.0411
 2589SOL    HW119226   1.071   0.057   5.312  0.0032  0.5728 -1.0083
 2589SOL    HW219227   1.196   0.119   5.363  2.9732 -1.4544 -0.4037
 2590SOL     OW19228   1.760   1.196   6.615  0.0295  0.1075 -0.2894
 2590SOL    HW119229   1.672   1.205   6.651  0.1506 -2.0335  0.5367
 2590SOL    HW219230   1.777   1.107   6.647 -1.6337 -1.5898 -4.1288
 2591SOL     OW19231   1.424   2.597   7.373 -0.0634 -0.2265 -0.2381
 2591SOL    HW119232   1.498   2.596   7.314  0.6981  0.6226  0.7081
 2591SOL    HW219233   1.374   2.521   7.343  0.0515 -1.0025  1.5083
 2592SOL     OW19234   1.051   0.667   6.070  0.7650  0.0162  0.7010
 2592SOL    HW119235   0.990   0.708   6.131  0.3945  1.1011 -0.4013
 2592SOL    HW219236   1.110   0.620   6.129  1.5666  0.2741  0.1117
 2593SOL     OW19237   2.311   2.825   8.259  0.0646  0.1131  0.3394
 2593SOL    HW119238   2.401   2.793   8.256  0.6683  1.9392 -1.0172
 2593SOL    HW219239   2.284   2.794   8.346  0.5813 -0.0997  0.4224
 2594SOL     OW19240   3.213   4.146   2.603  0.4872 -0.0137 -0.5115
 2594SOL    HW119241   3.198   4.198   2.681 -1.1972 -0.0902 -0.7780
 2594SOL    HW219242   3.232   4.060   2.641 -0.4195 -0.4185 -0.9514
 2595SOL     OW19243   3.470   2.272  11.191 -0.3874  0.6228  0.2182
 2595SOL    HW119244   3.484   2.353  11.142 -0.0002  1.8505  2.4013
 2595SOL    HW219245   3.442   2.215  11.119 -0.4679 -1.0404  1.5757
 2596SOL     OW19246   2.301   3.337   6.714 -0.4397 -0.8151 -0.4094
 2596SOL    HW119247   2.239   3.298   6.653 -0.0834 -0.7952 -0.7795
 2596SOL    HW219248   2.383   3.341   6.666 -0.0416 -0.3809  0.2943
 2597SOL     OW19249   4.491   1.164   6.692  0.1484  0.5173 -0.2535
 2597SOL    HW119250   4.478   1.243   6.639 -1.0575  1.3741  1.3270
 2597SOL    HW219251   4.587   1.161   6.697  0.0619 -1.0265  0.4623
 2598SOL     OW19252   0.163   2.836   4.580  0.6934  0.1274 -0.1532
 2598SOL    HW119253   0.081   2.856   4.535  1.0292 -0.7202 -1.1378
 2598SOL    HW219254   0.194   2.761   4.528 -1.0998  0.6012 -1.9027
 2599SOL     OW19255   3.799   0.762   3.395  0.5031  0.3831  0.2521
 2599SOL    HW119256   3.750   0.720   3.465  1.7357 -0.7246  0.4454
 2599SOL    HW219257   3.732   0.798   3.337 -2.5735 -0.9575  2.9682
 2600SOL     OW19258   0.824   4.468   4.903  0.5236  0.4863 -0.0298
 2600SOL    HW119259   0.846   4.449   4.994  1.8911  2.3501  0.0416
 2600SOL    HW219260   0.862   4.394   4.856  3.5794  3.4270 -2.2123
 2601SOL     OW19261   3.207   0.719   1.727 -0.2580 -0.3190  0.6906
 2601SOL    HW119262   3.191   0.797   1.779  0.0576  1.2606 -1.5708
 2601SOL    HW219263   3.129   0.713   1.672  1.3961 -0.2418 -1.6610
 2602SOL     OW19264   0.116   4.060   6.189  0.0016  0.1388  0.2142
 2602SOL    HW119265   0.034   4.030   6.227 -0.7931 -1.2630 -2.5894
 2602SOL    HW219266   0.092   4.135   6.134 -1.3150  0.6556  1.5015
 2603SOL     OW19267   2.624   2.529   8.137 -0.8709  0.0747 -0.0347
 2603SOL    HW119268   2.692   2.555   8.199 -2.8025  2.9803  0.8551
 2603SOL    HW219269   2.554   2.520   8.202  0.1537  0.0996  1.0716
 2604SOL     OW19270   4.437   4.476   6.123 -0.1288 -0.0543 -0.9791
 2604SOL    HW119271   4.390   4.481   6.206  1.0242  0.3938 -0.3440
 2604SOL    HW219272   4.465   4.385   6.120 -0.3738 -0.1977  0.7830
 2605SOL     OW19273   0.529   4.132  12.492 -0.1173  0.9342 -0.6666
 2605SOL    HW119274   0.448   4.121  12.443 -0.1936 -0.0415 -0.3158
 2605SOL    HW219275   0.546   4.044  12.524  0.9288  1.9858  1.6601
 2606SOL     OW19276   3.131   4.718   8.624  0.2412 -0.0312 -0.5669
 2606SOL    HW119277   3.072   0.018   8.551 -0.3904  1.0754  0.2681
 2606SOL    HW219278   3.161   0.083   8.653  3.7711 -0.2450 -3.5299
 2607SOL     OW19279   2.936   1.387   2.227  0.5322 -0.1726  0.0279
 2607SOL    HW119280   2.923   1.301   2.187 -0.5140 -0.7245  1.5609
 2607SOL    HW219281   2.949   1.355   2.317 -0.9067  1.1235  0.6974
 2608SOL     OW19282   3.087   4.114   3.225 -0.0419  0.0841  0.5510
 2608SOL    HW119283   3.082   4.052   3.298  0.7909 -0.6958 -0.0544
 2608SOL    HW219284   3.170   4.083   3.189 -0.7051 -0.8620 -0.1653
 2609SOL     OW19285   1.114   3.692   6.043 -0.5735  0.9464 -0.1687
 2609SOL    HW119286   1.088   3.618   6.097 -3.4474  2.3536  0.3654
 2609SOL    HW219287   1.140   3.642   5.965  0.1834 -0.2125  0.8199
 2610SOL     OW19288   1.817   3.937   2.144  0.1616 -0.3830  0.2676
 2610SOL    HW119289   1.815   3.889   2.227 -0.6300 -0.3276  0.2775
 2610SOL    HW219290   1.871   3.876   2.094  2.1334 -0.3629  2.3623
 2611SOL     OW19291   2.376   2.624  13.728 -0.1949  0.4202  0.5569
 2611SOL    HW119292   2.470   2.634  13.744  0.0833  0.1332 -0.9513
 2611SOL    HW219293   2.364   2.536  13.763  0.9631  0.7282  1.7374
 2612SOL     OW19294   4.359   1.944  16.295  0.2252 -0.5453  0.4819
 2612SOL    HW119295   4.332   1.932  16.204 -0.2038  1.4137  0.3477
 2612SOL    HW219296   4.292   2.008  16.319  1.3479  0.7185  0.2622
 2613SOL     OW19297   3.687   1.103   3.383  0.3544 -0.1305  0.4886
 2613SOL    HW119298   3.770   1.108   3.335 -0.7320 -2.1531 -1.5820
 2613SOL    HW219299   3.661   1.016   3.353  0.9564 -0.0604 -0.2490
 2614SOL     OW19300   3.272   3.291  10.384  0.5260 -0.1905 -0.0483
 2614SOL    HW119301   3.234   3.213  10.423 -0.9313  0.7302  0.3585
 2614SOL    HW219302   3.240   3.355  10.447 -0.6137 -2.1053  1.3144
 2615SOL     OW19303   1.563   0.180   5.354  0.2892  0.1611 -0.6890
 2615SOL    HW119304   1.496   0.200   5.288  0.6787  0.9615 -0.8396
 2615SOL    HW219305   1.503   0.170   5.428  0.1708 -0.8200 -0.9120
 2616SOL     OW19306   4.118   2.200   9.040 -0.5338  0.2499 -0.6937
 2616SOL    HW119307   4.135   2.190   9.133 -0.7371 -0.3225 -0.7157
 2616SOL    HW219308   4.099   2.109   9.016  1.1954 -0.7487  1.7807
 2617SOL     OW19309   3.749   4.020  10.188  0.2789  0.2640  0.8305
 2617SOL    HW119310   3.692   4.085  10.145 -0.4251 -1.3380 -0.6677
 2617SOL    HW219311   3.689   3.946  10.189 -1.2449  1.4856  0.8366
 2618SOL     OW19312   1.275   0.672  13.220  0.0362  0.0877  0.3093
 2618SOL    HW119313   1.219   0.729  13.271  0.6976 -0.8942  2.1328
 2618SOL    HW219314   1.329   0.734  13.171 -0.9735  0.7437  0.0294
 2619SOL     OW19315   0.444   4.328   2.283  0.4879  0.8119 -0.0548
 2619SOL    HW119316   0.448   4.271   2.360  1.2003 -1.1551 -1.5306
 2619SOL    HW219317   0.393   4.405   2.308  0.9127  0.1913  2.7262
 2620SOL     OW19318   0.560   3.457   8.066 -0.2339 -0.0677 -0.4345
 2620SOL    HW119319   0.520   3.441   8.151  0.8004 -0.6716 -0.0651
 2620SOL    HW219320   0.477   3.463   8.019 -1.0783  0.7539  1.1659
 2621SOL     OW19321   3.931   1.094   3.760  0.7549  0.0848 -0.4458
 2621SOL    HW119322   3.853   1.042   3.740 -0.1749  1.3491 -0.0935
 2621SOL    HW219323   3.942   1.130   3.673  3.4587  2.7703  1.0234
 2622SOL     OW19324   1.554   1.659   5.617  0.2837 -0.0276  0.1042
 2622SOL    HW119325   1.588   1.713   5.688 -0.4728  0.2219  0.2769
 2622SOL    HW219326   1.632   1.611   5.589  0.0069 -0.3009 -0.1967
 2623SOL     OW19327   3.020   4.560   5.303  0.0643 -0.4948 -0.1439
 2623SOL    HW119328   2.961   4.632   5.280 -1.7660 -1.9772 -0.0650
 2623SOL    HW219329   3.049   4.525   5.218  0.1771 -0.9842  0.0988
 2624SOL     OW19330   0.706   3.983  10.879  0.1702 -0.6556  0.2010
 2624SOL    HW119331   0.672   4.037  10.808  1.0617 -0.3252  0.0257
 2624SOL    HW219332   0.690   3.895  10.847  1.9122 -0.9455  0.1581
 2625SOL     OW19333   1.490   2.012   8.773  0.1127 -0.5043 -0.1751
 2625SOL    HW119334   1.580   2.032   8.748 -0.4122  0.5791 -1.1743
 2625SOL    HW219335   1.464   1.961   8.696 -0.3390  1.2212 -1.1649
 2626SOL     OW19336   4.065   0.312  17.494  0.2665 -0.2140  0.5079
 2626SOL    HW119337   4.119   0.347  17.423  0.1763  1.7026  1.4086
 2626SOL    HW219338   3.985   0.276  17.455 -0.2177  1.4468 -0.0339
 2627SOL     OW19339   4.563   0.718   6.669 -0.2040  0.5794 -0.0978
 2627SOL    HW119340   4.521   0.689   6.751 -0.0395  0.6554  0.0137
 2627SOL    HW219341   4.646   0.678   6.694  0.5627  0.2812 -3.1501
 2628SOL     OW19342   1.071   0.519  12.809  0.6034  0.4432 -0.1739
 2628SOL    HW119343   0.984   0.549  12.784  0.3025 -1.2093 -1.0861
 2628SOL    HW219344   1.078   0.572  12.889  1.3589  0.0418  0.0301
 2629SOL     OW19345   2.269   2.701   2.320  0.0135  0.2002 -0.0264
 2629SOL    HW119346   2.199   2.762   2.345 -0.2457  0.4575 -1.4098
 2629SOL    HW219347   2.348   2.752   2.336  0.8439 -1.0914 -0.0060
 2630SOL     OW19348   0.217   0.219   2.322  0.2088 -0.2532  0.6581
 2630SOL    HW119349   0.183   0.132   2.344 -1.7716  0.2272 -0.4947
 2630SOL    HW219350   0.261   0.208   2.238  0.7469  0.5463  0.8291
 2631SOL     OW19351   0.609   1.575   1.163 -0.3529 -0.1955  0.3358
 2631SOL    HW119352   0.571   1.657   1.193  2.5576  0.6720  1.6543
 2631SOL    HW219353   0.611   1.522   1.243  0.0480  0.8342  1.0139
 2632SOL     OW19354   1.290   0.216   5.486 -0.0508 -0.4384 -0.8118
 2632SOL    HW119355   1.310   0.302   5.449  0.0401  0.0546  0.3978
 2632SOL    HW219356   1.241   0.246   5.563 -0.8015  0.3984 -1.6165
 2633SOL     OW19357   3.668   2.883   1.998  0.0564 -0.5650  0.3498
 2633SOL    HW119358   3.648   2.880   1.905 -1.9309  1.7923  0.7309
 2633SOL    HW219359   3.730   2.810   2.005 -0.3314 -1.0176 -1.0627
 2634SOL     OW19360   2.286   1.912   4.772 -0.5744  0.6405 -0.2130
 2634SOL    HW119361   2.323   1.868   4.696 -0.7407 -0.5838  0.4085
 2634SOL    HW219362   2.360   1.964   4.803 -0.1492 -0.1826  0.1494
 2635SOL     OW19363   2.850   4.344  11.538  0.0581 -0.1543 -0.7169
 2635SOL    HW119364   2.875   4.402  11.610  1.8117 -0.0430 -1.4176
 2635SOL    HW219365   2.766   4.308  11.567  0.3967  0.7995  1.5188
 2636SOL     OW19366   4.083   2.026   5.950 -0.5094  0.1637  0.6285
 2636SOL    HW119367   3.998   2.066   5.932 -0.8074  0.3826  2.5189
 2636SOL    HW219368   4.147   2.097   5.956  0.5869 -0.8013  0.2793
 2637SOL     OW19369   2.216   2.016  16.357 -0.1110 -0.4523  0.1001
 2637SOL    HW119370   2.280   1.997  16.289  0.6446 -0.1973  0.7306
 2637SOL    HW219371   2.184   2.099  16.322 -0.0042  0.4119  2.0150
 2638SOL     OW19372   2.271   3.050  12.048 -0.0289 -0.1262  0.0702
 2638SOL    HW119373   2.365   3.063  12.057 -0.3769  2.8588 -0.6924
 2638SOL    HW219374   2.253   3.116  11.981 -2.1864 -1.0954 -0.3090
 2639SOL     OW19375   4.235   2.901   4.069  0.1056  0.4062  0.2516
 2639SOL    HW119376   4.278   2.936   3.991 -1.4980  1.7527 -0.0338
 2639SOL    HW219377   4.310   2.872   4.121 -0.6711 -1.2355  0.4372
 2640SOL     OW19378   1.712   4.358   2.922 -0.4967  0.1617  0.0793
 2640SOL    HW119379   1.781   4.300   2.953 -0.3950  1.0469  1.4722
 2640SOL    HW219380   1.653   4.345   2.996 -0.2604  0.1520  0.2622
 2641SOL     OW19381   2.351   0.165   7.309  0.6134  0.0202  0.4300
 2641SOL    HW119382   2.312   0.161   7.222  0.2811  2.4409  0.4642
 2641SOL    HW219383   2.384   0.254   7.307  1.6659 -0.3589  0.9224
 2642SOL     OW19384   1.810   0.572   5.586 -0.5872  0.2366 -0.3068
 2642SOL    HW119385   1.827   0.622   5.506 -1.9905  1.0258 -0.1072
 2642SOL    HW219386   1.854   0.489   5.570 -0.3828  0.4916 -1.0650
 2643SOL     OW19387   2.927   3.041   3.459 -0.3312 -0.0894 -0.7542
 2643SOL    HW119388   3.019   3.065   3.467 -0.8130  0.4928  2.8174
 2643SOL    HW219389   2.882   3.068   3.539 -0.7561  0.5979 -1.2333
 2644SOL     OW19390   3.830   0.188  12.527  0.3303  0.5413  0.2772
 2644SOL    HW119391   3.763   0.124  12.501  1.5949 -0.8566  0.4362
 2644SOL    HW219392   3.897   0.167  12.462  0.5837 -3.0959  1.7142
 2645SOL     OW19393   4.085   2.734   2.184 -0.5746  0.4898  0.1940
 2645SOL    HW119394   4.081   2.825   2.211 -0.8536  1.1189 -1.9183
 2645SOL    HW219395   4.177   2.713   2.172 -0.2165  3.6367 -2.5860
 2646SOL     OW19396   3.563   0.852   5.893  0.2311 -0.3277 -0.9650
 2646SOL    HW119397   3.628   0.783   5.903 -0.3159 -0.4653  1.7411
 2646SOL    HW219398   3.502   0.797   5.843  1.5311 -2.3274 -0.3541
 2647SOL     OW19399   0.554   0.247   1.572 -0.2336 -0.2917 -0.3512
 2647SOL    HW119400   0.549   0.296   1.654  1.6839 -1.0012  0.1657
 2647SOL    HW219401   0.486   0.185   1.597  0.2248  0.0160  1.6583
 2648SOL     OW19402   0.875   1.422   4.242  0.1999  0.4119  0.2500
 2648SOL    HW119403   0.789   1.446   4.278  2.0178  4.1173  2.0585
 2648SOL    HW219404   0.938   1.469   4.296  0.3115  0.7570 -0.1835
 2649SOL     OW19405   0.296   3.772   2.853 -0.1091 -0.1632  0.1159
 2649SOL    HW119406   0.313   3.811   2.938  0.4061  0.8130 -0.4310
 2649SOL    HW219407   0.382   3.781   2.813  0.7654 -1.8523  1.6008
 2650SOL     OW19408   2.703   2.506  13.893 -1.0797 -0.0302 -0.3264
 2650SOL    HW119409   2.698   2.589  13.846 -1.2291 -0.7656 -1.6129
 2650SOL    HW219410   2.717   2.453  13.814 -2.7091  0.2849 -0.8157
 2651SOL     OW19411   1.835   0.544  14.519  0.0702 -0.2570 -0.4667
 2651SOL    HW119412   1.742   0.520  14.517  0.4140 -1.5130 -1.1721
 2651SOL    HW219413   1.857   0.512  14.607  0.9669 -2.8715 -1.6352
 2652SOL     OW19414   1.379   0.298  14.316 -0.2510  0.3034 -0.1248
 2652SOL    HW119415   1.365   0.207  14.343  2.8012 -0.6737 -1.8400
 2652SOL    HW219416   1.344   0.312  14.228 -0.0907  0.6757 -0.1320
 2653SOL     OW19417   4.209   2.015  13.193 -0.0940  0.4491  0.1840
 2653SOL    HW119418   4.197   1.924  13.218 -0.5428  0.8765  1.5395
 2653SOL    HW219419   4.274   2.042  13.258 -1.5477  0.8012  1.4914
 2654SOL     OW19420   1.651   4.482   8.254 -0.1252 -0.0608 -0.1565
 2654SOL    HW119421   1.705   4.556   8.279  0.6270  0.0238 -2.0409
 2654SOL    HW219422   1.589   4.472   8.327  0.4316 -0.7152  0.2307
 2655SOL     OW19423   4.365   1.212   2.391 -0.0965 -0.6905 -0.3988
 2655SOL    HW119424   4.445   1.179   2.351  0.9513  1.0475  0.2689
 2655SOL    HW219425   4.333   1.127   2.420 -2.5618  0.2015 -0.4939
 2656SOL     OW19426   2.080   2.057  11.592 -0.3467 -0.3113 -0.0739
 2656SOL    HW119427   2.028   1.980  11.614 -0.0228  0.1110  2.2409
 2656SOL    HW219428   2.078   2.098  11.679 -1.1896 -0.0089 -0.2357
 2657SOL     OW19429   3.009   1.603   5.844  0.1909  0.2668  0.2073
 2657SOL    HW119430   3.096   1.573   5.870 -0.4594  0.9435  3.2065
 2657SOL    HW219431   3.021   1.698   5.849 -0.2239  0.2822  1.0283
 2658SOL     OW19432   3.333   3.076   7.074 -0.3190 -0.4224  0.4403
 2658SOL    HW119433   3.357   3.135   7.003 -0.5190  0.7559  1.3446
 2658SOL    HW219434   3.316   3.004   7.013  0.3680 -0.2346  0.0294
 2659SOL     OW19435   0.943   1.104  13.433 -0.0161 -0.0598 -0.4631
 2659SOL    HW119436   0.919   1.059  13.352  1.3783 -0.9108 -0.3968
 2659SOL    HW219437   1.038   1.102  13.422  0.1352 -0.2780  0.8911
 2660SOL     OW19438   2.811   0.743   7.007 -0.5137 -0.0752 -0.0325
 2660SOL    HW119439   2.822   0.785   7.092 -1.3281  0.1856 -0.0599
 2660SOL    HW219440   2.848   0.658   7.032  1.7963  0.6031 -1.1124
 2661SOL     OW19441   0.562   1.805  13.834 -0.0277 -0.5922  0.7300
 2661SOL    HW119442   0.507   1.740  13.878 -1.4507  0.9357  1.1720
 2661SOL    HW219443   0.621   1.837  13.902  0.6039  1.6525 -0.8710
 2662SOL     OW19444   1.918   2.365   7.149  0.6128 -0.0250 -0.4058
 2662SOL    HW119445   1.905   2.313   7.070 -3.0464  1.1931 -0.6310
 2662SOL    HW219446   2.013   2.363   7.156  0.3719 -1.1487  2.5250
 2663SOL     OW19447   4.009   4.692   3.713 -0.2987 -0.2882 -0.3963
 2663SOL    HW119448   4.037   4.699   3.622 -0.6078 -0.6248 -0.5175
 2663SOL    HW219449   4.026   0.058   3.747 -1.6089 -0.5848  1.0437
 2664SOL     OW19450   1.685   2.979   1.631  0.0863  0.2301 -0.3424
 2664SOL    HW119451   1.764   2.928   1.651  0.4275  1.2674  0.9459
 2664SOL    HW219452   1.713   3.059   1.676 -2.1906  0.0029  1.4678
 2665SOL     OW19453   0.126   0.823   8.297 -0.3999  0.2108 -0.4646
 2665SOL    HW119454   0.139   0.900   8.352 -0.4357 -0.7528  0.8875
 2665SOL    HW219455   0.089   0.754   8.352  0.0986  0.4695  0.1878
 2666SOL     OW19456   0.933   1.232   6.499  0.9296  0.6303  0.9436
 2666SOL    HW119457   0.964   1.229   6.409 -1.2718  1.4900  0.1539
 2666SOL    HW219458   0.994   1.166   6.532  1.5323  0.7493  0.0615
 2667SOL     OW19459   4.140   0.102   4.839 -0.2268  0.5891 -0.5337
 2667SOL    HW119460   4.225   0.117   4.799 -0.1943  1.6093 -0.0797
 2667SOL    HW219461   4.079   0.106   4.766 -2.6919 -0.4415  1.4436
 2668SOL     OW19462   4.221   3.958   5.199  0.2223  0.2035  0.1421
 2668SOL    HW119463   4.285   3.895   5.166  0.4334 -0.0924  1.1075
 2668SOL    HW219464   4.224   4.028   5.134  1.3866 -0.8166 -0.8945
 2669SOL     OW19465   3.425   4.121   1.932  0.3316  0.8908  0.0585
 2669SOL    HW119466   3.454   4.078   2.012 -0.8877 -0.8862 -0.4801
 2669SOL    HW219467   3.364   4.188   1.963  1.3984  2.6361 -1.5926
 2670SOL     OW19468   0.486   0.454  13.804  0.1675 -0.0287 -0.0924
 2670SOL    HW119469   0.480   0.367  13.843 -1.0639  0.3373  0.5227
 2670SOL    HW219470   0.579   0.465  13.787  0.4090 -1.7393  0.0929
 2671SOL     OW19471   2.637   0.368  17.209 -0.2517 -0.1750  0.7727
 2671SOL    HW119472   2.708   0.336  17.264  0.1078 -2.5005 -1.0689
 2671SOL    HW219473   2.668   0.348  17.120  0.1211 -0.4694  0.9673
 2672SOL     OW19474   2.467   3.934  12.543 -0.4936 -0.6938  0.4164
 2672SOL    HW119475   2.556   3.898  12.540 -0.4345 -0.4968 -0.2415
 2672SOL    HW219476   2.424   3.869  12.599 -1.1451 -1.6021 -1.1590
 2673SOL     OW19477   3.403   4.224   5.922 -0.3199 -0.0566 -0.3497
 2673SOL    HW119478   3.319   4.182   5.902 -0.9049  0.4508  1.0076
 2673SOL    HW219479   3.410   4.304   5.870 -3.9415  0.3249 -0.2455
 2674SOL     OW19480   1.507   2.797   1.543  0.1763 -0.3072  0.2572
 2674SOL    HW119481   1.558   2.870   1.578 -0.6219 -0.1045  1.0127
 2674SOL    HW219482   1.447   2.773   1.614  2.8305 -1.0389  2.2415
 2675SOL     OW19483   1.781   4.042   8.138  0.0589 -0.2424  0.2551
 2675SOL    HW119484   1.713   4.064   8.201  1.0142  1.2737  0.7621
 2675SOL    HW219485   1.863   4.041   8.188 -1.1713  3.7768  2.3297
 2676SOL     OW19486   1.192   0.109   3.209  0.0045 -0.7192  0.0921
 2676SOL    HW119487   1.284   0.134   3.197 -0.2548  0.4700  0.5223
 2676SOL    HW219488   1.165   0.143   3.294  1.1918 -0.4033  0.3511
 2677SOL     OW19489   3.689   0.291   1.725 -0.0611 -0.2049  0.4941
 2677SOL    HW119490   3.664   0.203   1.754 -0.1576 -0.2773  0.1932
 2677SOL    HW219491   3.662   0.278   1.634 -1.9165  3.4668  0.5397
 2678SOL     OW19492   1.559   3.153   0.754  0.2740  0.2929  0.6032
 2678SOL    HW119493   1.605   3.235   0.770  2.3557 -0.5088 -1.3622
 2678SOL    HW219494   1.486   3.151   0.816 -0.3647 -3.2024 -0.2880
 2679SOL     OW19495   2.523   0.024   5.180 -0.2490  0.6328 -0.1763
 2679SOL    HW119496   2.470   0.010   5.259 -0.5702 -1.2992 -0.7334
 2679SOL    HW219497   2.447   0.021   5.122  1.2138  0.4402 -2.0501
 2680SOL     OW19498   3.930   4.375   5.858  0.6866  0.1215 -0.2716
 2680SOL    HW119499   4.012   4.361   5.811  1.4854 -0.8869  1.3826
 2680SOL    HW219500   3.942   4.334   5.944  0.0981  1.4653  0.4553
 2681SOL     OW19501   1.245   0.850  11.115  0.1668 -0.2630 -0.0070
 2681SOL    HW119502   1.325   0.888  11.080  0.3988  0.2278  1.0516
 2681SOL    HW219503   1.178   0.881  11.053 -1.2943 -2.5159  0.4378
 2682SOL     OW19504   2.214   0.117   9.020  0.1899  0.3706 -0.2793
 2682SOL    HW119505   2.136   0.111   9.075  0.0416  0.0153 -0.5255
 2682SOL    HW219506   2.233   0.207   9.044  1.4500  0.6616 -2.4070
 2683SOL     OW19507   0.451   0.101   3.057  0.1459 -0.2937 -0.1448
 2683SOL    HW119508   0.535   0.145   3.043  1.3947 -2.1737  1.5334
 2683SOL    HW219509   0.459   0.042   2.983 -0.9537 -1.7917  0.9314
 2684SOL     OW19510   1.325   4.029   2.260 -0.0669  0.4603  0.4647
 2684SOL    HW119511   1.354   3.943   2.229 -1.5407  1.0736 -2.6198
 2684SOL    HW219512   1.381   4.040   2.337  0.1663 -0.8438  0.4869
 2685SOL     OW19513   1.040   2.374   5.237 -0.0961 -0.2421  0.5560
 2685SOL    HW119514   1.005   2.420   5.161  1.8702  1.7983  0.8774
 2685SOL    HW219515   1.026   2.437   5.307  1.0505  1.1777 -0.5057
 2686SOL     OW19516   0.716   2.913   4.572  0.0252  0.5750  0.2443
 2686SOL    HW119517   0.738   2.823   4.596  1.4109  0.4715 -1.3622
 2686SOL    HW219518   0.786   2.941   4.513  0.9562  1.2748  1.7146
 2687SOL     OW19519   3.642   4.120  13.004  0.2905  0.1868  0.0031
 2687SOL    HW119520   3.729   4.089  13.030  0.3363 -0.8002 -1.2683
 2687SOL    HW219521   3.657   4.118  12.909 -0.2604  0.6627 -0.0965
 2688SOL     OW19522   0.067   0.754   3.987  0.1641 -0.0483  0.0078
 2688SOL    HW119523   4.715   0.702   4.020 -1.2043  1.1163 -1.2231
 2688SOL    HW219524   0.066   0.815   4.060 -0.1739  0.4951 -0.4502
 2689SOL     OW19525   4.656   4.476  13.984  0.0150  0.0637  0.2116
 2689SOL    HW119526   4.670   4.529  13.906 -0.4425  0.9200  0.7187
 2689SOL    HW219527   4.592   4.533  14.026  0.1633 -0.6547  1.4060
 2690SOL     OW19528   3.535   2.634   5.135  0.0607  0.3570 -0.2002
 2690SOL    HW119529   3.608   2.690   5.160  0.2550 -0.5298  1.2149
 2690SOL    HW219530   3.581   2.574   5.075  1.1035  0.6466  0.3092
 2691SOL     OW19531   3.878   1.644   6.105  0.0859 -0.9077  0.1332
 2691SOL    HW119532   3.966   1.679   6.093 -0.2556  0.1315  0.6455
 2691SOL    HW219533   3.900   1.552   6.120 -1.6476 -1.3900 -0.2459
 2692SOL     OW19534   4.297   3.028   2.518  0.4020 -0.2218  0.8445
 2692SOL    HW119535   4.370   3.081   2.485 -0.0602  0.2569  0.5783
 2692SOL    HW219536   4.303   2.943   2.476  0.0580 -0.8863  2.1516
 2693SOL     OW19537   1.534   4.669   7.420 -0.0126  0.0873 -0.2838
 2693SOL    HW119538   1.471   0.015   7.394 -1.3022 -1.4102 -1.0187
 2693SOL    HW219539   1.478   4.595   7.444 -0.5703  0.4288 -0.5297
 2694SOL     OW19540   1.742   1.871  11.097 -0.3528 -0.0638 -0.0309
 2694SOL    HW119541   1.817   1.813  11.112  1.2033  1.9366 -0.0315
 2694SOL    HW219542   1.664   1.817  11.109 -0.6168  0.3529  0.0961
 2695SOL     OW19543   3.266   1.134   7.921 -0.5876  0.1091  0.3518
 2695SOL    HW119544   3.220   1.217   7.913  1.4040  1.0360 -1.4130
 2695SOL    HW219545   3.192   1.082   7.953  1.3476 -2.2828  0.9609
 2696SOL     OW19546   2.221   0.358   8.427  0.2004 -0.2088  0.1093
 2696SOL    HW119547   2.152   0.335   8.365  1.0759  4.2857 -2.5533
 2696SOL    HW219548   2.203   0.287   8.488  2.3568 -1.1037 -0.2931
 2697SOL     OW19549   2.449   0.904   5.114  0.0429 -0.2990 -0.7247
 2697SOL    HW119550   2.365   0.881   5.153  0.4793 -0.0847  0.3623
 2697SOL    HW219551   2.462   0.831   5.054  0.3714 -0.8867  0.0561
 2698SOL     OW19552   0.983   1.773  12.883  0.5642 -0.3522  0.4661
 2698SOL    HW119553   0.996   1.856  12.836 -2.3061  0.3423  0.8908
 2698SOL    HW219554   0.910   1.792  12.943 -0.2115 -0.4182 -0.4457
 2699SOL     OW19555   1.785   4.689   6.632  0.2253 -0.3525 -0.0361
 2699SOL    HW119556   1.733   4.609   6.632  1.8499 -1.3993  0.2608
 2699SOL    HW219557   1.771   4.706   6.725 -1.8442  3.2425 -0.9926
 2700SOL     OW19558   0.633   2.372  16.252 -0.2617 -0.1499 -0.7837
 2700SOL    HW119559   0.671   2.459  16.245 -1.2187  0.1459 -2.2459
 2700SOL    HW219560   0.543   2.403  16.257 -0.5211 -1.0711  0.3516
 2701SOL     OW19561   3.166   2.418   7.108  0.3099 -0.4077  0.0237
 2701SOL    HW119562   3.217   2.431   7.188  1.7661  0.7303 -1.0631
 2701SOL    HW219563   3.225   2.458   7.043  0.3539  0.8910  0.8724
 2702SOL     OW19564   2.154   4.588   3.436 -0.3326  0.2318 -0.3198
 2702SOL    HW119565   2.211   4.624   3.368 -0.2372 -1.8249 -1.3433
 2702SOL    HW219566   2.125   4.510   3.389  1.3147 -0.2659 -0.4995
 2703SOL     OW19567   1.825   1.578   2.116  0.2363 -0.7303 -0.2544
 2703SOL    HW119568   1.834   1.593   2.022  1.9322 -0.4074 -0.0335
 2703SOL    HW219569   1.826   1.665   2.156  0.6287 -0.3470 -1.0928
 2704SOL     OW19570   1.385   1.745   2.188  0.1784 -0.3481 -0.0048
 2704SOL    HW119571   1.328   1.682   2.143 -1.3022  0.5500  0.6053
 2704SOL    HW219572   1.426   1.778   2.109  0.6963 -0.2643  0.2983
 2705SOL     OW19573   2.597   1.590   6.058  0.2416  0.5033 -0.1934
 2705SOL    HW119574   2.532   1.564   6.123  2.0170 -0.2206  1.2994
 2705SOL    HW219575   2.668   1.527   6.067 -0.9442 -0.3039  3.3305
 2706SOL     OW19576   1.076   2.862   4.714  0.3525 -0.1314  0.0993
 2706SOL    HW119577   0.984   2.833   4.717  0.2692  0.3956  2.9455
 2706SOL    HW219578   1.090   2.925   4.785  0.8617 -0.9871  0.7589
 2707SOL     OW19579   4.029   3.649   0.481 -0.1975  0.1478 -0.1567
 2707SOL    HW119580   3.973   3.726   0.490 -0.0263  0.5976 -2.8701
 2707SOL    HW219581   4.034   3.625   0.573 -1.1669 -0.7111 -0.3314
 2708SOL     OW19582   2.900   3.290  13.738  0.5577  0.7641 -0.5984
 2708SOL    HW119583   2.881   3.213  13.791 -1.3738  1.0046 -0.9504
 2708SOL    HW219584   2.970   3.261  13.679  3.0391  1.2802  2.1278
 2709SOL     OW19585   3.111   4.374  17.080  0.2953 -0.0215 -0.2992
 2709SOL    HW119586   3.120   4.295  17.027  1.9758 -0.7325  1.0256
 2709SOL    HW219587   3.063   4.342  17.157  1.9335 -0.7516  0.4242
 2710SOL     OW19588   0.832   0.148   7.989 -0.1041  0.3270  0.4601
 2710SOL    HW119589   0.913   0.099   7.975  1.1209  2.0904  1.3534
 2710SOL    HW219590   0.759   0.087   7.986  0.1631 -0.0865  2.3002
 2711SOL     OW19591   2.370   4.120   8.469 -0.0594  0.0818 -0.0253
 2711SOL    HW119592   2.450   4.171   8.477  0.4952 -0.8979  0.6564
 2711SOL    HW219593   2.362   4.108   8.374  1.9663 -2.2540  0.1078
 2712SOL     OW19594   2.417   1.031   1.362  0.0602 -0.4937 -0.4143
 2712SOL    HW119595   2.457   1.029   1.275  2.7908 -4.3202  0.8932
 2712SOL    HW219596   2.427   0.937   1.379 -0.6787 -0.8682 -2.1195
 2713SOL     OW19597   3.762   3.956   7.620  0.2919  0.1285  0.1953
 2713SOL    HW119598   3.775   3.908   7.702 -0.0178  2.4944  1.6210
 2713SOL    HW219599   3.804   4.037   7.650  1.9466 -0.4731 -0.5022
 2714SOL     OW19600   2.281   0.050  13.366 -0.2930 -0.0349  0.2797
 2714SOL    HW119601   2.218   0.023  13.432  0.4888 -1.2128  0.5426
 2714SOL    HW219602   2.295   4.695  13.309 -1.9657 -0.1795  0.0667
 2715SOL     OW19603   3.478   2.127  13.469  0.6900 -0.3630 -0.9934
 2715SOL    HW119604   3.557   2.171  13.437  1.0420  0.4816  1.0677
 2715SOL    HW219605   3.416   2.146  13.399 -0.5084  0.5328  0.3167
 2716SOL     OW19606   0.429   1.921   9.424 -0.5665 -0.3855 -0.4884
 2716SOL    HW119607   0.386   1.837   9.405 -1.4281 -0.5040  1.9839
 2716SOL    HW219608   0.382   1.953   9.500 -1.4461 -0.3411 -1.0462
 2717SOL     OW19609   2.726   2.526   7.870  0.4234  0.2123  0.1738
 2717SOL    HW119610   2.687   2.522   7.957  0.6800  0.0345  0.2789
 2717SOL    HW219611   2.768   2.612   7.875 -1.7805  1.4351 -2.3542
 2718SOL     OW19612   1.542   0.074   4.361 -0.0508  0.4676 -0.5360
 2718SOL    HW119613   1.511   0.025   4.285 -2.2851 -0.1360  0.7608
 2718SOL    HW219614   1.470   0.129   4.390 -1.4034 -1.5586 -0.0994
 2719SOL     OW19615   0.027   2.002  15.246  0.0499  0.3091  0.4854
 2719SOL    HW119616   4.668   2.024  15.198  1.0144  0.1487 -1.2118
 2719SOL    HW219617   0.071   2.080  15.211 -0.2476  0.8622  1.3555
 2720SOL     OW19618   1.223   0.614   5.162  0.3130 -0.1419  0.0816
 2720SOL    HW119619   1.154   0.560   5.123 -1.2493 -0.2369  3.0232
 2720SOL    HW219620   1.184   0.700   5.182  2.7577  1.4910 -2.1064
 2721SOL     OW19621   1.278   3.426   7.284 -0.0582  0.7030 -0.3109
 2721SOL    HW119622   1.313   3.490   7.221  1.3418  1.1964  0.9496
 2721SOL    HW219623   1.184   3.443   7.286 -0.2404 -0.6365  2.4718
 2722SOL     OW19624   0.683   1.835  14.085 -0.3316  0.6575  0.3226
 2722SOL    HW119625   0.675   1.845  14.180 -1.7347  0.7970  0.1796
 2722SOL    HW219626   0.767   1.791  14.068 -1.6294 -1.6023 -0.1866
 2723SOL     OW19627   1.012   1.028  13.863  0.0003  0.2651  0.2248
 2723SOL    HW119628   1.030   1.051  13.954  3.3194  0.0371 -0.3909
 2723SOL    HW219629   1.018   1.112  13.817 -1.4907  1.2294  1.8132
 2724SOL     OW19630   3.217   2.061   4.344 -0.8039 -0.8078  0.4281
 2724SOL    HW119631   3.158   2.118   4.393 -0.9042  0.7661 -1.5220
 2724SOL    HW219632   3.299   2.085   4.388 -1.0837 -1.7462  1.4714
 2725SOL     OW19633   4.197   1.399   4.950  0.5624  0.1967 -0.3509
 2725SOL    HW119634   4.192   1.465   5.019 -2.2118  2.0407 -2.3283
 2725SOL    HW219635   4.213   1.447   4.868 -0.7596 -0.2382 -0.8602
 2726SOL     OW19636   1.450   0.750   5.046 -0.3379 -0.5823  0.6210
 2726SOL    HW119637   1.391   0.674   5.049  1.6932 -2.1650  0.0089
 2726SOL    HW219638   1.535   0.709   5.034 -0.2694 -1.3330  3.5289
 2727SOL     OW19639   3.345   0.309   1.698  0.7326 -0.1622 -0.0547
 2727SOL    HW119640   3.397   0.231   1.717  1.9639  1.0469  1.5069
 2727SOL    HW219641   3.348   0.351   1.784 -2.3437 -0.7750  0.3408
 2728SOL     OW19642   0.748   2.603   2.919 -0.1031  0.1270  0.3360
 2728SOL    HW119643   0.672   2.614   2.862 -0.6357  0.2117  1.0630
 2728SOL    HW219644   0.812   2.555   2.866 -0.6991  0.2145 -0.4573
 2729SOL     OW19645   2.639   1.464   0.281  0.4562  0.2382  0.4994
 2729SOL    HW119646   2.701   1.395   0.305 -0.0225  0.0140  1.0921
 2729SOL    HW219647   2.571   1.443   0.345 -1.5175  0.2923 -1.5667
 2730SOL     OW19648   4.231   4.335   6.823  0.0744 -0.5311 -0.5789
 2730SOL    HW119649   4.293   4.345   6.896  1.2392  0.8317 -1.7559
 2730SOL    HW219650   4.259   4.249   6.792 -0.9247 -0.7884 -0.7803
 2731SOL     OW19651   4.383   0.387   2.154  0.2163 -0.5181 -0.1796
 2731SOL    HW119652   4.433   0.468   2.144 -1.6673  0.7756  0.8564
 2731SOL    HW219653   4.382   0.380   2.249 -0.7521  0.0786 -0.1479
 2732SOL     OW19654   4.401   2.845   6.981 -0.0601  0.4143  0.0909
 2732SOL    HW119655   4.423   2.916   6.921 -1.7145  1.2680  0.5018
 2732SOL    HW219656   4.328   2.876   7.034 -0.5681  0.1628 -0.4635
 2733SOL     OW19657   3.324   2.079   2.212 -0.1051  0.1543  0.5421
 2733SOL    HW119658   3.249   2.020   2.218 -0.9272  1.2159  0.6470
 2733SOL    HW219659   3.317   2.093   2.118  0.6605  2.1003  0.7810
 2734SOL     OW19660   2.434   2.347  14.434  0.9486  0.0596  0.5472
 2734SOL    HW119661   2.429   2.437  14.401  0.0261  0.7549  2.5852
 2734SOL    HW219662   2.370   2.345  14.506 -0.2478 -1.0629 -0.5368
 2735SOL     OW19663   2.833   4.626   3.510  0.1797 -0.0767  0.0941
 2735SOL    HW119664   2.868   4.714   3.495  1.3744 -0.2664  1.7651
 2735SOL    HW219665   2.741   4.649   3.523 -0.5458 -3.3532  0.6584
 2736SOL     OW19666   3.022   1.575   2.543 -0.0486  0.1634  0.3662
 2736SOL    HW119667   3.063   1.596   2.627  1.4035 -1.1618 -0.0039
 2736SOL    HW219668   2.935   1.553   2.575  0.5807 -2.3656  0.3272
 2737SOL     OW19669   1.711   2.802   7.280 -0.0150  0.3671  0.3476
 2737SOL    HW119670   1.687   2.788   7.372 -0.2945 -0.2101  0.1869
 2737SOL    HW219671   1.717   2.711   7.251  0.1111  0.5136 -0.0817
 2738SOL     OW19672   2.553   1.788  13.554  0.1696 -0.6233 -0.2156
 2738SOL    HW119673   2.523   1.785  13.645  0.9803  1.5902  0.1277
 2738SOL    HW219674   2.624   1.853  13.556 -0.5326  0.1269  0.1467
 2739SOL     OW19675   3.644   4.408   2.326 -0.0415 -0.3322 -0.5835
 2739SOL    HW119676   3.572   4.443   2.274  0.1461  0.7483 -0.1330
 2739SOL    HW219677   3.708   4.407   2.254 -0.7468  0.5582 -1.2228
 2740SOL     OW19678   1.025   0.226   2.999  0.1829  0.6837 -0.0051
 2740SOL    HW119679   1.087   0.178   3.054 -0.5981 -1.9479 -1.4000
 2740SOL    HW219680   1.037   0.317   3.028  2.5389  0.6886 -0.9662
 2741SOL     OW19681   0.824   4.214   4.783  0.0252 -0.2470  0.2502
 2741SOL    HW119682   0.748   4.168   4.816 -0.5835 -1.3758 -2.6749
 2741SOL    HW219683   0.833   4.178   4.695 -2.1651 -0.5661  0.1731
 2742SOL     OW19684   2.584   1.448   1.556 -0.8242  0.1885  0.2011
 2742SOL    HW119685   2.576   1.359   1.522  2.8834  1.2155 -3.3192
 2742SOL    HW219686   2.644   1.443   1.631  0.2379  1.3941 -0.5635
 2743SOL     OW19687   2.099   0.997  16.704 -0.4225  0.6607  0.7136
 2743SOL    HW119688   2.043   0.931  16.744 -0.6697 -0.0309 -0.7755
 2743SOL    HW219689   2.163   1.012  16.773 -2.1910 -0.9662  2.7101
 2744SOL     OW19690   3.980   4.051   9.028  0.5329 -0.2427  0.2240
 2744SOL    HW119691   4.058   4.102   9.011 -0.6196  1.2429 -0.6144
 2744SOL    HW219692   4.014   3.976   9.076 -0.2261 -2.4130 -2.6479
 2745SOL     OW19693   3.493   1.708   2.375  0.4227  0.5417 -0.0284
 2745SOL    HW119694   3.474   1.687   2.284 -1.6301 -0.3547  0.5979
 2745SOL    HW219695   3.493   1.616   2.402  0.1393  0.3731 -0.6125
 2746SOL     OW19696   0.525   1.070  11.470  0.3972 -0.1036  0.4715
 2746SOL    HW119697   0.588   1.014  11.515  0.1067  0.2594  1.3326
 2746SOL    HW219698   0.577   1.105  11.398 -0.9945  0.2606 -0.3573
 2747SOL     OW19699   1.276   3.869   0.603 -0.2678  0.2301 -0.0860
 2747SOL    HW119700   1.332   3.947   0.602 -1.1862  0.8558 -1.9435
 2747SOL    HW219701   1.260   3.842   0.513 -0.3044  1.7395 -0.5449
 2748SOL     OW19702   0.419   3.475   3.361  0.6567  0.6317  0.3977
 2748SOL    HW119703   0.394   3.550   3.308 -0.7845 -0.9509 -1.1727
 2748SOL    HW219704   0.428   3.409   3.292 -1.2378  0.7152  0.0561
 2749SOL     OW19705   3.624   2.783   3.352 -0.1480 -0.3327 -0.4675
 2749SOL    HW119706   3.644   2.869   3.314 -1.6636  0.5180  0.6398
 2749SOL    HW219707   3.531   2.795   3.373  0.1068 -0.4316  0.7493
 2750SOL     OW19708   2.193   2.887  10.170 -0.0073  0.0304  0.0872
 2750SOL    HW119709   2.239   2.910  10.251  0.6487 -0.9350 -0.0129
 2750SOL    HW219710   2.103   2.899  10.201 -0.1449 -3.6080  1.0921
 2751SOL     OW19711   4.308   3.176   7.993 -0.4913  0.0860  0.4371
 2751SOL    HW119712   4.323   3.164   8.086  0.5742 -1.9359 -0.0010
 2751SOL    HW219713   4.392   3.141   7.963 -0.9442 -1.1129  0.5637
 2752SOL     OW19714   1.502   1.985  10.218  0.2028 -0.1359 -0.0700
 2752SOL    HW119715   1.594   1.959  10.224 -0.1710 -1.5350 -0.3507
 2752SOL    HW219716   1.481   1.991  10.311  0.7722 -1.7511  0.1625
 2753SOL     OW19717   1.132   3.256   6.354  0.0915  0.5248 -0.1523
 2753SOL    HW119718   1.193   3.241   6.426 -0.5622 -1.5993 -0.0298
 2753SOL    HW219719   1.121   3.168   6.317  0.2355 -0.0383  1.1595
 2754SOL     OW19720   0.650   2.504   2.012 -0.4414 -0.1126  0.0661
 2754SOL    HW119721   0.738   2.541   2.001  0.3996 -2.2163 -0.1676
 2754SOL    HW219722   0.644   2.438   1.943 -1.3458 -0.2253  0.2604
 2755SOL     OW19723   3.832   4.226   5.311 -0.1189 -0.2947 -0.3167
 2755SOL    HW119724   3.895   4.156   5.328 -1.4303 -1.2929  0.4692
 2755SOL    HW219725   3.804   4.249   5.400 -1.6964  0.8606 -1.1032
 2756SOL     OW19726   4.693   2.408  16.692 -0.1519  0.1180 -0.5370
 2756SOL    HW119727   0.064   2.431  16.687  0.1602 -0.5013  2.4354
 2756SOL    HW219728   4.692   2.338  16.758  0.2516 -0.7493 -1.4582
 2757SOL     OW19729   2.554   3.193   7.249  0.2200  0.5666  0.0410
 2757SOL    HW119730   2.618   3.178   7.319 -1.1025  2.0294  1.5800
 2757SOL    HW219731   2.481   3.144   7.286 -0.9275  1.9328 -0.4352
 2758SOL     OW19732   3.471   1.733   8.861 -0.2592 -0.3258 -0.4860
 2758SOL    HW119733   3.388   1.750   8.906  0.1335 -0.2129  0.2061
 2758SOL    HW219734   3.474   1.796   8.789  0.2284 -0.6958 -0.7899
 2759SOL     OW19735   4.013   4.350  13.504 -0.1503  0.4648 -0.1003
 2759SOL    HW119736   3.941   4.396  13.461 -0.1259  1.6249  1.1145
 2759SOL    HW219737   4.080   4.359  13.436  1.0955  0.2599  1.1012
 2760SOL     OW19738   3.041   3.219   9.511  0.4809 -0.3280 -0.1986
 2760SOL    HW119739   2.999   3.244   9.428 -0.4665  0.5632  0.5522
 2760SOL    HW219740   3.092   3.146   9.477 -1.3165 -1.0284 -1.4157
 2761SOL     OW19741   2.935   2.557  15.586 -0.2478  0.3135  0.2452
 2761SOL    HW119742   3.021   2.546  15.626 -0.2384 -0.2403  0.0749
 2761SOL    HW219743   2.906   2.647  15.603  1.2493  0.8690 -0.1607
 2762SOL     OW19744   3.059   1.334   7.666 -0.7308  0.1549  0.0293
 2762SOL    HW119745   3.109   1.334   7.748 -0.4897 -1.6384 -0.1197
 2762SOL    HW219746   3.041   1.427   7.653 -1.3459 -0.2158 -1.7961
 2763SOL     OW19747   3.588   3.925   9.005 -0.2810  0.1778 -0.4506
 2763SOL    HW119748   3.513   3.892   8.955 -0.2552 -0.4127 -0.1029
 2763SOL    HW219749   3.642   3.846   9.005 -1.6751 -0.7676  0.6142
 2764SOL     OW19750   1.769   1.533  11.864  0.1634 -0.5509 -0.0563
 2764SOL    HW119751   1.853   1.488  11.859 -0.9931 -2.7304  0.2118
 2764SOL    HW219752   1.708   1.467  11.832  2.4000 -0.7553 -3.8602
 2765SOL     OW19753   0.402   4.049   9.995  0.0645 -0.3599  0.0578
 2765SOL    HW119754   0.470   4.012   9.939 -0.4398 -0.5726 -0.4233
 2765SOL    HW219755   0.336   3.979   9.996 -1.3664  0.9719 -0.3980
 2766SOL     OW19756   1.907   1.219   3.830 -0.3009  0.2372 -0.2395
 2766SOL    HW119757   1.998   1.242   3.807  0.8741 -1.4321  2.7889
 2766SOL    HW219758   1.866   1.303   3.849 -0.2729 -0.3380  2.2322
 2767SOL     OW19759   2.870   4.690  12.366  0.0632 -0.2520 -1.0152
 2767SOL    HW119760   2.926   4.633  12.420  1.3927 -1.2347 -3.4398
 2767SOL    HW219761   2.796   4.632  12.345 -0.5569  0.8394 -1.8263
 2768SOL     OW19762   3.027   1.398   8.453  0.1290 -0.5094 -0.0675
 2768SOL    HW119763   3.008   1.409   8.546  0.1550 -0.0207 -0.1234
 2768SOL    HW219764   3.029   1.490   8.426  2.1228 -0.8718 -1.2057
 2769SOL     OW19765   0.966   0.684   8.098 -0.7563 -0.0343  0.0354
 2769SOL    HW119766   0.876   0.669   8.128 -0.7222  0.9071  0.6419
 2769SOL    HW219767   0.944   0.765   8.051  0.6787  0.7589  0.7299
 2770SOL     OW19768   1.117   3.050   3.753  0.2642  0.5262  0.0482
 2770SOL    HW119769   1.184   2.982   3.757  0.7421  1.0513  0.8787
 2770SOL    HW219770   1.071   3.020   3.831 -0.4263  1.1941 -0.0915
 2771SOL     OW19771   0.853   3.834   1.918 -0.0974  0.2615  0.5739
 2771SOL    HW119772   0.948   3.836   1.908 -0.0427  0.3758  1.1535
 2771SOL    HW219773   0.851   3.831   2.014 -0.5654  1.8864  0.6140
 2772SOL     OW19774   3.712   3.383   6.218 -0.4814 -0.3622 -0.5804
 2772SOL    HW119775   3.671   3.453   6.269  0.3350 -0.3952  0.1236
 2772SOL    HW219776   3.723   3.428   6.134  2.9054 -0.2420 -0.1038
 2773SOL     OW19777   1.093   2.345  15.371  0.5152 -0.2763  0.3324
 2773SOL    HW119778   1.039   2.354  15.293 -0.1691 -1.4960  0.6647
 2773SOL    HW219779   1.133   2.258  15.364  1.3500  0.1593 -0.2679
 2774SOL     OW19780   2.675   2.843   7.547 -0.6351  0.1421  0.1045
 2774SOL    HW119781   2.746   2.779   7.547 -0.5621  0.2236  0.8198
 2774SOL    HW219782   2.597   2.789   7.562  0.1799 -1.7949 -2.4488
 2775SOL     OW19783   0.661   4.099  16.288 -0.6314  0.0822  0.4968
 2775SOL    HW119784   0.689   4.029  16.228  1.3475  1.5418 -0.2829
 2775SOL    HW219785   0.727   4.165  16.268 -0.9189  0.3469  0.4405
 2776SOL     OW19786   1.260   1.239  11.449 -0.4872  0.4601 -0.2629
 2776SOL    HW119787   1.239   1.164  11.393 -1.2270 -0.6904  1.5688
 2776SOL    HW219788   1.324   1.196  11.504  1.3023  0.3869 -2.4217
 2777SOL     OW19789   2.690   0.027   2.187  0.8644  0.3853 -0.4725
 2777SOL    HW119790   2.647   0.074   2.116  0.0338  0.2007 -0.0939
 2777SOL    HW219791   2.649   0.054   2.269 -2.5371 -0.9320 -1.7339
 2778SOL     OW19792   3.891   0.574   2.756  0.4782 -0.3424  0.5245
 2778SOL    HW119793   3.852   0.660   2.774  0.2719 -0.2750 -0.2230
 2778SOL    HW219794   3.821   0.516   2.785  0.0567 -0.3422 -0.4788
 2779SOL     OW19795   1.546   0.825   4.140  0.2645 -0.0322 -0.1565
 2779SOL    HW119796   1.490   0.900   4.158 -2.0448 -1.4039 -1.6865
 2779SOL    HW219797   1.526   0.818   4.047 -1.9890 -0.8889  0.4094
 2780SOL     OW19798   2.478   0.024  11.154  0.2801  0.2964  0.0031
 2780SOL    HW119799   2.403   0.031  11.213 -1.9117  0.9102 -2.8543
 2780SOL    HW219800   2.436   0.071  11.082  0.1380  1.1015  0.6110
 2781SOL     OW19801   2.077   4.255   7.007  0.3450  0.1407  0.1822
 2781SOL    HW119802   2.014   4.287   7.071 -0.2863  0.5611 -0.6456
 2781SOL    HW219803   2.038   4.169   6.989 -1.2782  1.4905 -2.8956
 2782SOL     OW19804   4.333   0.542  10.422  0.0495 -0.2959 -0.3939
 2782SOL    HW119805   4.324   0.502  10.508 -1.5785 -0.8360 -0.8120
 2782SOL    HW219806   4.391   0.477  10.384 -0.2929 -0.2866 -0.9292
 2783SOL     OW19807   0.340   3.571   1.341  0.1865 -0.1555 -0.1391
 2783SOL    HW119808   0.402   3.597   1.409  0.3593  0.3729 -0.5097
 2783SOL    HW219809   0.272   3.637   1.335  1.7025  1.4117  0.0747
 2784SOL     OW19810   4.539   1.746   4.196  0.1178 -0.1239 -0.2386
 2784SOL    HW119811   4.578   1.755   4.109 -0.5755  0.8122 -0.4556
 2784SOL    HW219812   4.447   1.750   4.168 -0.1126 -1.5619  0.3078
 2785SOL     OW19813   0.910   2.449   8.808 -0.4839 -0.2476  0.0217
 2785SOL    HW119814   0.837   2.510   8.798  1.8365  2.6997  0.8575
 2785SOL    HW219815   0.935   2.470   8.898 -0.0524 -0.0604 -0.1385
 2786SOL     OW19816   1.765   0.427  17.469 -0.7044 -0.2199  0.9883
 2786SOL    HW119817   1.847   0.380  17.453 -0.4507  0.2695  0.8365
 2786SOL    HW219818   1.787   0.518  17.486  2.8926 -1.0362  0.5767
 2787SOL     OW19819   2.852   2.277   2.323  0.3633  0.4725 -0.4225
 2787SOL    HW119820   2.830   2.224   2.400 -0.7158 -1.1254 -1.8459
 2787SOL    HW219821   2.944   2.252   2.313  0.5917  1.0448  0.2473
 2788SOL     OW19822   3.165   1.094   2.070 -0.4409 -0.1455 -0.2213
 2788SOL    HW119823   3.133   1.008   2.043  0.5479 -0.9309  1.0968
 2788SOL    HW219824   3.134   1.150   1.999 -0.4064 -1.0505 -0.9476
 2789SOL     OW19825   0.863   2.074   0.990  0.0506 -0.1378  0.2722
 2789SOL    HW119826   0.920   2.112   0.923  1.2937  0.2635  1.5593
 2789SOL    HW219827   0.852   1.983   0.966  2.7780 -0.3639 -0.0814
 2790SOL     OW19828   1.138   3.703   3.508 -0.8547 -0.0754  0.2662
 2790SOL    HW119829   1.048   3.727   3.482 -1.0541 -3.5660 -2.3320
 2790SOL    HW219830   1.125   3.703   3.603 -0.1745  1.4095  0.3570
 2791SOL     OW19831   2.117   3.562  16.534 -0.0350 -0.1908 -0.1651
 2791SOL    HW119832   2.183   3.631  16.524 -1.2014  0.8979 -0.3190
 2791SOL    HW219833   2.132   3.516  16.452  0.9306  0.9747 -0.6530
 2792SOL     OW19834   1.757   4.119  10.510  0.3148 -0.3160  0.3514
 2792SOL    HW119835   1.747   4.027  10.488 -0.6469 -0.5532  1.8154
 2792SOL    HW219836   1.719   4.119  10.598  0.5474 -4.2412  0.4222
 2793SOL     OW19837   1.581   1.610   3.697  0.7488  0.7665 -0.4488
 2793SOL    HW119838   1.590   1.705   3.687 -1.5430  1.2172  1.8593
 2793SOL    HW219839   1.549   1.612   3.787  1.2226 -0.5907 -0.2559
 2794SOL     OW19840   2.730   1.089   5.188 -0.3829 -0.7186 -0.1453
 2794SOL    HW119841   2.649   1.140   5.200 -0.2581 -0.5157 -0.1572
 2794SOL    HW219842   2.701   0.998   5.186 -1.5169 -0.3140 -2.4439
 2795SOL     OW19843   3.397   4.325   9.788 -0.0995  0.3061  0.0056
 2795SOL    HW119844   3.472   4.271   9.761  1.2449  2.5514 -0.7039
 2795SOL    HW219845   3.327   4.260   9.796  0.5650 -0.3025  0.9390
 2796SOL     OW19846   2.364   0.283  13.984 -0.1546  0.1795  0.4234
 2796SOL    HW119847   2.407   0.352  13.934  0.5393 -0.3138  0.3382
 2796SOL    HW219848   2.282   0.297  13.935 -0.8855 -0.9125  1.3312
 2797SOL     OW19849   3.052   3.746   7.357  0.0012 -0.2935 -0.0156
 2797SOL    HW119850   2.968   3.741   7.312 -0.1848 -0.3605  0.3409
 2797SOL    HW219851   3.048   3.669   7.414 -0.6415 -1.3860 -1.5407
 2798SOL     OW19852   2.787   4.399   7.331 -0.5526  0.0332  0.5409
 2798SOL    HW119853   2.757   4.328   7.387 -1.6060  0.0366 -0.0155
 2798SOL    HW219854   2.808   4.345   7.254  1.4651 -0.6392  1.5584
 2799SOL     OW19855   1.594   1.226   1.912  0.4657  0.3975 -0.2167
 2799SOL    HW119856   1.640   1.257   1.835  1.7870  0.5386  0.6305
 2799SOL    HW219857   1.506   1.201   1.884 -0.1661 -0.3209  2.3192
 2800SOL     OW19858   1.993   1.351   1.549  0.2413  0.0709  0.0341
 2800SOL    HW119859   2.070   1.391   1.511 -0.2046 -1.1494 -2.1354
 2800SOL    HW219860   1.924   1.373   1.486  1.2075 -0.7929 -1.3088
 2801SOL     OW19861   4.623   1.192   9.046  0.2513 -0.6245  0.5631
 2801SOL    HW119862   4.686   1.260   9.023  2.9752 -2.6590  1.9451
 2801SOL    HW219863   4.574   1.234   9.117  2.4382  0.5555  1.3690
 2802SOL     OW19864   4.182   1.716   1.634 -0.3617  0.5662 -0.4203
 2802SOL    HW119865   4.270   1.716   1.670 -1.8505  2.1642  3.2760
 2802SOL    HW219866   4.162   1.809   1.644  0.2720  0.5151  1.3368
 2803SOL     OW19867   2.555   1.248   1.901 -0.3144 -0.0516  0.0618
 2803SOL    HW119868   2.528   1.172   1.953 -0.5359  0.1520  0.2437
 2803SOL    HW219869   2.638   1.224   1.859 -0.1958  1.8147 -0.7786
 2804SOL     OW19870   0.063   0.621   7.466 -0.0220  0.1007  0.6912
 2804SOL    HW119871   0.002   0.694   7.455 -0.0912 -0.2721 -1.4543
 2804SOL    HW219872   0.087   0.621   7.558 -1.1623 -2.1092  0.9798
 2805SOL     OW19873   3.203   0.937   8.644  0.4922 -0.1060  0.0386
 2805SOL    HW119874   3.218   0.941   8.550 -1.3226 -0.1924 -0.2592
 2805SOL    HW219875   3.108   0.947   8.653  0.2728 -1.2670 -0.9529
 2806SOL     OW19876   2.572   3.966   7.502 -0.5691  0.4309  0.3524
 2806SOL    HW119877   2.553   4.018   7.580 -2.4241 -0.3507  0.4291
 2806SOL    HW219878   2.602   3.882   7.539 -0.2889  0.1228 -0.5886
 2807SOL     OW19879   0.454   1.127  17.234  0.2084  0.5336 -0.1713
 2807SOL    HW119880   0.381   1.172  17.192 -0.2736  1.4466  1.6309
 2807SOL    HW219881   0.466   1.183  17.311 -0.1428 -0.8186  0.8723
 2808SOL     OW19882   1.217   0.777  10.583  0.4684  0.8657  0.3837
 2808SOL    HW119883   1.258   0.838  10.521  1.3712  0.1508  0.2756
 2808SOL    HW219884   1.236   0.700  10.528  0.1111  1.5335 -0.6765
 2809SOL     OW19885   3.009   1.845   6.382  0.1704  0.1376  0.3598
 2809SOL    HW119886   3.007   1.794   6.462  0.0556 -1.3436 -0.5890
 2809SOL    HW219887   2.930   1.805   6.345 -1.0834  1.6665  1.3445
 2810SOL     OW19888   1.989   0.838   8.344 -0.9019 -0.1944  0.2132
 2810SOL    HW119889   2.050   0.830   8.417  0.8808  0.5900 -1.1926
 2810SOL    HW219890   1.923   0.772   8.364  0.1209 -0.7950  1.5725
 2811SOL     OW19891   1.212   2.177   1.358 -0.5092  0.0821 -0.4157
 2811SOL    HW119892   1.169   2.253   1.320 -2.1346 -0.5732  0.1295
 2811SOL    HW219893   1.141   2.128   1.401  1.6481 -1.4981  1.3721
 2812SOL     OW19894   4.440   3.746   8.849  0.1294 -0.1716 -0.6976
 2812SOL    HW119895   4.373   3.815   8.852 -0.7494 -1.1057  0.9366
 2812SOL    HW219896   4.517   3.802   8.860 -0.1756 -0.1248  1.2830
 2813SOL     OW19897   4.703   4.556   3.651  0.0742 -0.2183 -0.0264
 2813SOL    HW119898   4.644   4.595   3.587  0.9512  0.2105 -0.5724
 2813SOL    HW219899   0.042   4.512   3.591  0.1514  0.4607 -0.4458
 2814SOL     OW19900   4.452   0.836   9.166  0.4458  0.0440 -0.7903
 2814SOL    HW119901   4.453   0.929   9.145  0.4659  0.3941  0.7681
 2814SOL    HW219902   4.388   0.811   9.099 -1.7419 -0.0048  1.3315
 2815SOL     OW19903   0.263   2.454  13.062  0.1814 -0.1618 -0.8108
 2815SOL    HW119904   0.199   2.525  13.068 -1.2336 -1.4419 -0.7093
 2815SOL    HW219905   0.340   2.485  13.110  2.6434 -1.2841 -4.0338
 2816SOL     OW19906   3.622   3.332  11.388 -0.0058  0.0563  0.3354
 2816SOL    HW119907   3.629   3.360  11.297 -0.1831  0.2588  0.3855
 2816SOL    HW219908   3.702   3.364  11.430 -0.7028  0.8980  1.0136
 2817SOL     OW19909   3.716   0.729  13.530 -1.0390 -0.6082 -0.3090
 2817SOL    HW119910   3.734   0.823  13.526  0.9106 -1.0074 -0.9530
 2817SOL    HW219911   3.668   0.720  13.448  1.8299  1.1043 -2.1758
 2818SOL     OW19912   0.529   3.100   1.404  0.5736  0.1049  0.8588
 2818SOL    HW119913   0.499   3.050   1.480 -0.9729 -0.0174  0.1747
 2818SOL    HW219914   0.524   3.038   1.331  1.1274  0.4386  0.5386
 2819SOL     OW19915   1.532   0.835   4.632 -0.2225  0.0374  0.0554
 2819SOL    HW119916   1.466   0.868   4.571  0.9649 -1.0862 -1.8397
 2819SOL    HW219917   1.587   0.786   4.570  1.5122  0.8530  0.9631
 2820SOL     OW19918   4.233   2.663   7.966  0.0508 -0.4423 -0.2717
 2820SOL    HW119919   4.228   2.682   8.060  0.6123  0.3452 -0.4004
 2820SOL    HW219920   4.328   2.671   7.955 -0.2832  1.1593 -2.0210
 2821SOL     OW19921   3.305   3.541   7.991  0.2120 -0.2207  0.3278
 2821SOL    HW119922   3.361   3.513   8.063 -0.7258 -0.7575  0.8467
 2821SOL    HW219923   3.281   3.456   7.954 -0.5028 -0.2812  0.9454
 2822SOL     OW19924   2.862   0.585   6.111 -0.3751  0.5042 -0.0892
 2822SOL    HW119925   2.869   0.494   6.080 -0.1177  0.4835  0.0270
 2822SOL    HW219926   2.814   0.627   6.040  0.9414  1.0900 -0.6306
 2823SOL     OW19927   0.797   0.904   8.788  0.7426  0.3458 -0.2468
 2823SOL    HW119928   0.784   0.878   8.879  0.4633 -1.4573 -0.8073
 2823SOL    HW219929   0.705   0.901   8.760  0.4147 -0.6377  0.9696
 2824SOL     OW19930   1.777   3.675  12.390  0.3947  0.0525  0.3953
 2824SOL    HW119931   1.826   3.756  12.383 -1.6181  1.3750  1.6211
 2824SOL    HW219932   1.814   3.651  12.475 -2.7539  2.0227  2.3197
 2825SOL     OW19933   1.063   0.910   5.357 -0.0469  0.2748  0.3198
 2825SOL    HW119934   0.984   0.963   5.353  0.3991  0.9165 -0.0065
 2825SOL    HW219935   1.042   0.824   5.321  0.4215  1.4616 -2.8035
 2826SOL     OW19936   0.197   0.585   2.524  0.1661 -0.1624  0.2592
 2826SOL    HW119937   0.110   0.624   2.524 -0.2567 -1.1085 -0.9362
 2826SOL    HW219938   0.173   0.495   2.543 -1.8058  0.2061 -0.5365
 2827SOL     OW19939   0.225   4.661   5.148 -0.4210 -0.3972 -0.1143
 2827SOL    HW119940   0.318   4.646   5.131 -0.8870 -0.2802 -2.8137
 2827SOL    HW219941   0.190   4.596   5.209 -1.1395 -0.4117 -0.5388
 2828SOL     OW19942   3.777   3.870   1.810 -0.6217  0.5684  0.0589
 2828SOL    HW119943   3.781   3.952   1.859 -1.0107  0.9720 -0.5831
 2828SOL    HW219944   3.759   3.909   1.725 -2.8396  0.6138  0.5550
 2829SOL     OW19945   2.544   4.206   5.761  0.0655  0.1671  0.3136
 2829SOL    HW119946   2.563   4.298   5.743 -0.0516 -0.0647 -0.9787
 2829SOL    HW219947   2.469   4.187   5.705  1.1437  0.2416 -1.1650
 2830SOL     OW19948   2.069   2.447   3.597 -0.0379 -0.1066  0.3186
 2830SOL    HW119949   2.075   2.383   3.668 -1.4091  0.5697  1.0444
 2830SOL    HW219950   2.115   2.408   3.523  2.4601  0.1919  1.7393
 2831SOL     OW19951   4.646   4.406   7.155  0.0665  0.1318 -0.0115
 2831SOL    HW119952   4.713   4.438   7.215 -0.2264 -0.9274  0.8749
 2831SOL    HW219953   4.601   4.348   7.216 -0.1093  1.2870  0.9647
 2832SOL     OW19954   0.287   2.942   9.203 -0.1604  0.0555  0.3704
 2832SOL    HW119955   0.349   2.907   9.139 -1.3207 -0.9257 -0.2026
 2832SOL    HW219956   0.355   2.988   9.253 -0.0030  1.2900 -0.9701
 2833SOL     OW19957   2.855   0.853   2.396 -0.2217 -0.0948  0.5269
 2833SOL    HW119958   2.790   0.788   2.422 -0.8167  0.8568  1.4148
 2833SOL    HW219959   2.815   0.892   2.319  1.5107  0.1325 -0.2543
 2834SOL     OW19960   3.524   4.532  13.920  0.1745 -0.2172  0.3435
 2834SOL    HW119961   3.510   4.542  13.825  2.9216  0.2080 -0.0161
 2834SOL    HW219962   3.439   4.501  13.951  0.5250 -0.2847  1.2076
 2835SOL     OW19963   1.779   1.830  13.353 -0.3574 -0.4752  0.6229
 2835SOL    HW119964   1.842   1.764  13.325 -0.1018 -0.6856  1.6813
 2835SOL    HW219965   1.825   1.901  13.309 -0.4240 -0.9020 -0.1188
 2836SOL     OW19966   2.756   2.965   8.728 -0.0017  0.2766 -0.5262
 2836SOL    HW119967   2.704   3.043   8.711 -2.1319 -1.0053  0.1815
 2836SOL    HW219968   2.739   2.943   8.820 -0.1496 -0.3787 -0.7179
 2837SOL     OW19969   1.324   0.113   7.384 -0.2558  0.4897  0.2125
 2837SOL    HW119970   1.293   0.196   7.347  1.4322 -0.0178 -2.3143
 2837SOL    HW219971   1.237   0.073   7.384  0.8041 -1.7619  0.6215
 2838SOL     OW19972   3.192   3.065   3.561 -0.0746 -0.1393  0.2781
 2838SOL    HW119973   3.269   3.121   3.549  0.0483  0.2718  2.8831
 2838SOL    HW219974   3.132   3.121   3.610 -1.1853 -0.4946 -0.6846
 2839SOL     OW19975   1.481   3.816   5.978  0.4807  0.6417  0.3743
 2839SOL    HW119976   1.502   3.910   5.984  1.0800  0.6096 -1.3834
 2839SOL    HW219977   1.416   3.812   6.049 -2.5762 -2.2406 -2.6044
 2840SOL     OW19978   1.304   3.446  14.180  0.1764 -0.5766 -0.1666
 2840SOL    HW119979   1.344   3.518  14.132  0.5702  0.7277  2.0994
 2840SOL    HW219980   1.284   3.484  14.266  2.7097  2.9962 -1.1923
 2841SOL     OW19981   2.826   1.125   2.109 -0.2288 -0.1998 -0.1084
 2841SOL    HW119982   2.793   1.038   2.089  0.2400 -1.1825  3.4318
 2841SOL    HW219983   2.886   1.137   2.036 -0.1378  3.4319  0.5182
 2842SOL     OW19984   2.382   2.636   5.528  0.3733  0.6548 -0.4274
 2842SOL    HW119985   2.332   2.602   5.454 -0.3523 -1.0356  0.8277
 2842SOL    HW219986   2.426   2.713   5.491 -1.1040  0.9414 -1.5831
 2843SOL     OW19987   3.147   0.374   2.909  0.3239  0.2375 -0.5173
 2843SOL    HW119988   3.199   0.439   2.956  0.3836  1.2717 -1.9966
 2843SOL    HW219989   3.161   0.300   2.968  0.0213  1.0776  0.6063
 2844SOL     OW19990   1.995   4.602   7.782  0.5211  0.3923 -0.3186
 2844SOL    HW119991   1.950   4.681   7.751  0.4978  0.7401  0.6133
 2844SOL    HW219992   2.009   4.568   7.694 -0.4156  0.6234 -0.5643
 2845SOL     OW19993   0.533   2.879   1.038 -0.1998  0.3925  0.2475
 2845SOL    HW119994   0.518   2.849   1.127  0.4828 -1.1962 -0.1601
 2845SOL    HW219995   0.475   2.955   1.033 -0.0126  0.4636 -1.0506
 2846SOL     OW19996   4.690   1.538   6.700  0.1509  0.3359 -0.0976
 2846SOL    HW119997   4.643   1.618   6.723 -0.5495 -0.5830  1.6618
 2846SOL    HW219998   4.706   1.508   6.790  1.1422  0.3874 -0.2561
 2847SOL     OW19999   3.597   0.816   6.189 -0.8606 -0.2532 -0.1918
 2847SOL    HW120000   3.559   0.821   6.102  0.7034  0.1507 -0.8417
 2847SOL    HW220001   3.546   0.751   6.238 -0.5310  0.6553  1.3443
 2848SOL     OW20002   1.586   3.399   8.375  0.1760  0.2700 -0.2518
 2848SOL    HW120003   1.640   3.409   8.454 -1.5477  2.8392  0.5762
 2848SOL    HW220004   1.534   3.325   8.405 -0.5957  1.3216  0.9900
 2849SOL     OW20005   4.495   0.558  16.006 -0.4094  0.5928 -0.6202
 2849SOL    HW120006   4.547   0.605  16.071  0.7319  0.8458 -1.7165
 2849SOL    HW220007   4.553   0.553  15.930 -0.4247  1.5129 -0.6936
 2850SOL     OW20008   0.849   2.496   6.158  0.4492  0.0721 -0.2356
 2850SOL    HW120009   0.836   2.477   6.066 -0.1028 -0.3513 -0.0726
 2850SOL    HW220010   0.760   2.495   6.193 -0.6958  1.8568 -3.1703
 2851SOL     OW20011   0.692   0.703   7.024 -0.1012 -0.4521  0.3319
 2851SOL    HW120012   0.615   0.657   7.057 -1.3030 -0.2320 -2.2003
 2851SOL    HW220013   0.662   0.729   6.937 -0.9937 -2.7963 -0.0550
 2852SOL     OW20014   2.114   1.517   3.529  0.1953 -0.6195 -0.1029
 2852SOL    HW120015   2.019   1.517   3.516  0.1406  0.0408  0.2792
 2852SOL    HW220016   2.119   1.584   3.598  0.3239 -1.0526  0.3125
 2853SOL     OW20017   2.929   1.396   6.890  0.1869  0.0853  0.0044
 2853SOL    HW120018   2.991   1.374   6.961  0.1658  1.8063  0.5757
 2853SOL    HW220019   2.888   1.476   6.925  0.2625  0.6244 -1.1613
 2854SOL     OW20020   2.684   1.841  16.196  0.4688 -0.1435 -0.0286
 2854SOL    HW120021   2.774   1.869  16.215  0.3645  0.0206  0.2264
 2854SOL    HW220022   2.675   1.774  16.263  0.7517 -1.0260 -0.8600
 2855SOL     OW20023   2.412   2.016   0.055  0.1934 -0.1331 -0.3327
 2855SOL    HW120024   2.327   1.997   0.016 -0.0596 -1.8040  1.0418
 2855SOL    HW220025   2.458   2.045  17.663  1.4531  0.6328  0.6782
 2856SOL     OW20026   2.544   4.251   2.169  0.1461 -0.3117 -0.8511
 2856SOL    HW120027   2.584   4.195   2.235 -0.9748  0.5066  0.5506
 2856SOL    HW220028   2.621   4.269   2.116  0.2803  0.2072 -0.4861
 2857SOL     OW20029   2.252   2.705   9.741 -0.1597 -0.0663 -0.0542
 2857SOL    HW120030   2.217   2.756   9.668 -0.3065 -1.9364 -1.2687
 2857SOL    HW220031   2.316   2.652   9.692 -0.9292 -1.2181  0.2034
 2858SOL     OW20032   0.706   2.961   5.346 -0.0656 -0.0750  0.7315
 2858SOL    HW120033   0.783   3.017   5.334 -3.2024  4.1486  0.0571
 2858SOL    HW220034   0.667   2.995   5.426  1.3266  2.4360  0.3507
 2859SOL     OW20035   0.873   1.085   5.750  0.1605  0.2903 -0.2660
 2859SOL    HW120036   0.913   1.148   5.690 -0.0511  0.9092  0.2404
 2859SOL    HW220037   0.949   1.062   5.804  0.2656 -0.0882 -0.5754
 2860SOL     OW20038   3.032   1.624   4.644  0.4177 -0.2299  0.3442
 2860SOL    HW120039   2.972   1.567   4.692 -0.7218  0.4519 -0.2776
 2860SOL    HW220040   3.055   1.573   4.566 -0.3365 -0.7550  0.4597
 2861SOL     OW20041   2.356   2.113   7.283  0.3985 -0.0930 -0.8893
 2861SOL    HW120042   2.383   2.200   7.313 -0.5173 -0.0579 -0.1564
 2861SOL    HW220043   2.385   2.055   7.354 -1.8758  1.4428  1.3080
 2862SOL     OW20044   2.774   1.113  10.633  0.2453 -0.3957 -0.2283
 2862SOL    HW120045   2.723   1.042  10.595 -0.2213  0.3754 -1.0386
 2862SOL    HW220046   2.744   1.181  10.573  1.6266  0.1800 -0.2851
 2863SOL     OW20047   2.825   1.909   4.929  0.2568 -0.2336  0.1486
 2863SOL    HW120048   2.759   1.843   4.909  0.7386  0.0061 -2.2801
 2863SOL    HW220049   2.762   1.977   4.954 -0.1730  0.1341 -1.8667
 2864SOL     OW20050   0.175   0.655   7.711 -0.0624  0.3201  0.2836
 2864SOL    HW120051   0.264   0.634   7.739 -1.0494 -0.7066  2.6113
 2864SOL    HW220052   0.133   0.627   7.792  1.7948 -1.6597  0.5699
 2865SOL     OW20053   3.833   1.124   6.223 -0.3491 -0.2169  0.0191
 2865SOL    HW120054   3.917   1.081   6.239 -0.2713 -0.2120 -0.3878
 2865SOL    HW220055   3.815   1.093   6.135 -0.2877 -0.5079  0.1103
 2866SOL     OW20056   3.465   1.356   6.024 -0.1230  0.2724 -0.3353
 2866SOL    HW120057   3.536   1.378   5.964  1.8150 -0.1168  1.8345
 2866SOL    HW220058   3.454   1.263   6.008  1.5322 -0.3963  2.4480
 2867SOL     OW20059   1.702   0.931   6.713 -0.0981 -0.2329  0.5424
 2867SOL    HW120060   1.706   0.945   6.807 -1.9103  2.3264  0.2444
 2867SOL    HW220061   1.755   0.853   6.694 -0.7326 -1.0074  1.9657
 2868SOL     OW20062   1.919   4.697   3.019  0.7522  0.4724  0.2489
 2868SOL    HW120063   1.862   0.047   2.989  0.2187  0.1547  0.5162
 2868SOL    HW220064   1.995   0.028   3.045 -0.3416  1.4152  1.5268
 2869SOL     OW20065   4.609   4.068   7.014  0.2980 -0.5879  0.3133
 2869SOL    HW120066   4.594   4.136   6.948 -0.4606 -1.2414 -0.1822
 2869SOL    HW220067   4.519   4.037   7.018  1.0115 -2.7234  0.0198
 2870SOL     OW20068   1.592   0.746   7.661 -0.1233 -0.1921 -0.3261
 2870SOL    HW120069   1.666   0.725   7.718 -0.6017  1.3217  0.8711
 2870SOL    HW220070   1.520   0.745   7.724 -1.4793  3.4319 -1.7942
 2871SOL     OW20071   4.662   1.664   1.018 -0.7487 -0.4076 -0.0492
 2871SOL    HW120072   4.716   1.595   1.057  0.1274  0.0668 -0.4385
 2871SOL    HW220073   4.710   1.747   1.015 -0.6071 -0.3945  2.8032
 2872SOL     OW20074   4.365   3.492  15.773 -0.4281 -0.0602 -0.3843
 2872SOL    HW120075   4.293   3.541  15.735  0.3825  1.0099 -0.5292
 2872SOL    HW220076   4.352   3.397  15.778  1.0269 -0.1625  1.7016
 2873SOL     OW20077   3.754   2.404  16.017  0.2569 -0.2398 -0.6471
 2873SOL    HW120078   3.799   2.439  15.940 -0.7662  0.6050 -0.8637
 2873SOL    HW220079   3.818   2.348  16.060  0.1985 -2.4130 -3.3990
 2874SOL     OW20080   1.729   3.739  15.562  0.2610 -0.0545 -0.6985
 2874SOL    HW120081   1.657   3.680  15.583  0.4199 -0.3921 -1.1157
 2874SOL    HW220082   1.690   3.808  15.508  0.4885 -1.3790 -2.5580
 2875SOL     OW20083   3.364   2.744  13.517 -0.2816 -0.1767  0.1415
 2875SOL    HW120084   3.421   2.707  13.585 -1.1916  1.3726  1.7539
 2875SOL    HW220085   3.433   2.783  13.464 -1.5460  0.2740 -1.1798
 2876SOL     OW20086   0.813   2.254   2.127  0.3821 -0.7816  0.0308
 2876SOL    HW120087   0.793   2.178   2.072  2.3926  0.5210 -2.5073
 2876SOL    HW220088   0.906   2.244   2.149 -0.0328 -2.7311  0.9064
 2877SOL     OW20089   4.696   0.566   5.666  0.3212 -0.0197 -0.3969
 2877SOL    HW120090   4.657   0.555   5.579  1.5633 -1.1066 -0.8113
 2877SOL    HW220091   0.038   0.494   5.659  2.1260  1.7121 -1.8925
 2878SOL     OW20092   4.577   3.301   2.985 -0.4595  0.2988 -0.4474
 2878SOL    HW120093   4.534   3.383   2.959  0.5724  1.1401  0.4895
 2878SOL    HW220094   4.526   3.291   3.066  0.8035  3.7498  0.8012
 2879SOL     OW20095   3.597   0.165   4.968 -0.5143 -0.1444  0.7344
 2879SOL    HW120096   3.614   0.259   4.979 -0.5027  0.0976 -1.3551
 2879SOL    HW220097   3.503   0.168   4.955 -0.2483  3.2848 -0.5073
 2880SOL     OW20098   4.359   0.154   3.337  0.0739  0.0446  0.1757
 2880SOL    HW120099   4.359   0.073   3.286 -0.7371  0.4815 -0.5224
 2880SOL    HW220100   4.272   0.147   3.375 -1.0169  0.1279 -2.2828
 2881SOL     OW20101   3.733   2.096  14.312 -0.1475 -0.3992  0.1929
 2881SOL    HW120102   3.776   2.016  14.340 -1.0027 -0.5420  1.0734
 2881SOL    HW220103   3.803   2.160  14.320 -0.4169  0.0095 -0.6666
 2882SOL     OW20104   3.926   3.529   2.157  0.2188 -0.4259 -0.7532
 2882SOL    HW120105   3.863   3.596   2.132  1.7207  2.0173  2.0404
 2882SOL    HW220106   3.984   3.526   2.081 -0.0206 -1.4735 -0.9007
 2883SOL     OW20107   0.875   3.126  11.988  0.3943 -0.1170  0.4888
 2883SOL    HW120108   0.786   3.120  11.955 -0.3115  3.1974  1.7009
 2883SOL    HW220109   0.911   3.198  11.935  0.5731 -0.6515 -0.1123
 2884SOL     OW20110   3.576   0.950  17.521  0.0530 -0.2889 -0.6803
 2884SOL    HW120111   3.640   0.911  17.462  0.0078 -1.7654  0.2513
 2884SOL    HW220112   3.530   0.873  17.554  0.9612  0.7825  3.0298
 2885SOL     OW20113   2.277   1.307   8.845  0.2179  0.5629 -0.4867
 2885SOL    HW120114   2.293   1.224   8.889  0.6928  0.3148 -1.1458
 2885SOL    HW220115   2.184   1.301   8.822  0.9087  1.1121 -3.4687
 2886SOL     OW20116   2.385   0.648   8.127  0.0919  0.1070  0.2605
 2886SOL    HW120117   2.459   0.663   8.186  0.7800  1.0656 -0.8329
 2886SOL    HW220118   2.427   0.667   8.043 -1.0050 -0.9515 -0.5185
 2887SOL     OW20119   0.215   3.449   3.539 -0.0698  0.3675 -0.4441
 2887SOL    HW120120   0.296   3.463   3.489 -0.7370 -0.5928 -1.8176
 2887SOL    HW220121   0.202   3.355   3.525 -0.7886  0.2870  0.7546
 2888SOL     OW20122   3.870   0.328   4.211  0.5665  0.3172 -0.5250
 2888SOL    HW120123   3.874   0.339   4.306  1.1237  1.4757 -0.6886
 2888SOL    HW220124   3.956   0.366   4.195  1.1703 -0.7475  0.1610
 2889SOL     OW20125   0.213   2.661   5.695 -0.3598  0.0157  0.6357
 2889SOL    HW120126   0.148   2.680   5.627  1.0965 -0.6025 -0.9307
 2889SOL    HW220127   0.223   2.748   5.733 -1.8576  0.8477 -0.8785
 2890SOL     OW20128   1.643   2.654   6.490 -0.0103  0.1609  0.3101
 2890SOL    HW120129   1.691   2.609   6.420  0.3323  0.4684  0.3457
 2890SOL    HW220130   1.684   2.601   6.558  0.8486 -0.7995 -0.9360
 2891SOL     OW20131   1.337   0.596  10.888 -0.2885 -0.2308 -0.5033
 2891SOL    HW120132   1.306   0.562  10.804 -0.2390 -1.0527 -0.1967
 2891SOL    HW220133   1.407   0.653  10.856  0.9394 -1.2845  0.3139
 2892SOL     OW20134   3.137   0.414   5.504  0.1601  0.1290  0.3893
 2892SOL    HW120135   3.054   0.373   5.528 -0.4050 -0.3970 -2.5443
 2892SOL    HW220136   3.197   0.369   5.564  0.0165 -0.0869  0.3695
 2893SOL     OW20137   2.410   3.140   8.044 -0.2520  0.0244 -0.1146
 2893SOL    HW120138   2.468   3.120   7.971  1.7074 -2.9768  2.2893
 2893SOL    HW220139   2.452   3.214   8.089  3.0827  0.0149 -3.2423
 2894SOL     OW20140   1.843   0.876   2.143  0.2371 -0.2732 -0.4043
 2894SOL    HW120141   1.778   0.811   2.168  0.3859  1.0643  3.5314
 2894SOL    HW220142   1.781   0.943   2.115  0.8156  0.6338  0.4413
 2895SOL     OW20143   3.200   4.124   9.801 -0.0111 -0.1674 -0.7284
 2895SOL    HW120144   3.144   4.080   9.865  0.9813 -1.4448 -0.7279
 2895SOL    HW220145   3.231   4.047   9.753 -1.6382 -0.3723 -1.4397
 2896SOL     OW20146   1.735   2.875   9.573  0.0719  0.1905  0.0893
 2896SOL    HW120147   1.686   2.794   9.576 -1.9200  1.3421 -2.2006
 2896SOL    HW220148   1.822   2.849   9.541  0.6687 -0.3930  2.1388
 2897SOL     OW20149   3.066   1.104   7.518  0.1480 -0.7261 -0.0248
 2897SOL    HW120150   3.066   1.187   7.566  2.1237 -1.0793  0.5637
 2897SOL    HW220151   3.038   1.048   7.590  1.4637 -1.5162 -0.1198
 2898SOL     OW20152   0.988   0.427   4.045  0.0407  0.2637  0.4686
 2898SOL    HW120153   1.018   0.475   4.122 -2.9882  2.2572  0.4055
 2898SOL    HW220154   1.019   0.338   4.061 -0.3904 -0.1290 -0.8193
 2899SOL     OW20155   0.572   2.396  17.679 -0.5079  0.3363 -0.2872
 2899SOL    HW120156   0.504   2.331  17.666 -1.6756  1.2034  1.4949
 2899SOL    HW220157   0.513   2.470   0.008  2.4640  2.2008  2.0798
 2900SOL     OW20158   4.664   0.686   9.832  0.0115  0.0463  0.5256
 2900SOL    HW120159   4.617   0.617   9.877  2.1505 -0.7568  1.5371
 2900SOL    HW220160   0.030   0.654   9.857 -0.7279 -0.6426  2.1483
 2901SOL     OW20161   2.383   1.830   0.585 -0.0316  0.4339  0.1630
 2901SOL    HW120162   2.393   1.860   0.495 -0.5023  0.9043  0.2682
 2901SOL    HW220163   2.413   1.910   0.629  1.4177  1.5984 -2.9122
 2902SOL     OW20164   2.734   3.265  14.669  0.1418 -0.3024  0.4329
 2902SOL    HW120165   2.682   3.187  14.649 -0.3871  0.4917 -1.2656
 2902SOL    HW220166   2.653   3.317  14.675  0.1252  0.0080 -2.2688
 2903SOL     OW20167   0.129   0.298   2.580 -0.3266  0.1649  0.0275
 2903SOL    HW120168   0.045   0.253   2.588  0.1074 -1.0980 -2.3068
 2903SOL    HW220169   0.153   0.284   2.488 -3.6575  0.6172 -0.9148
 2904SOL     OW20170   0.514   4.523   5.809 -0.5516 -0.2665 -0.3689
 2904SOL    HW120171   0.429   4.530   5.766 -1.2649 -0.9596  0.9336
 2904SOL    HW220172   0.511   4.433   5.841 -0.3970 -0.1034  0.1129
 2905SOL     OW20173   0.670   4.609   6.759 -0.3526  0.7720  0.2485
 2905SOL    HW120174   0.652   4.567   6.843 -1.6430  0.7045 -0.0580
 2905SOL    HW220175   0.680   4.703   6.773 -2.6550  1.2173 -1.0942
 2906SOL     OW20176   0.791   0.960  12.939  0.2612 -0.0762 -0.1810
 2906SOL    HW120177   0.704   0.961  12.899 -0.5284  0.9479  1.5419
 2906SOL    HW220178   0.842   0.997  12.867 -2.2142  3.5721 -0.0806
 2907SOL     OW20179   4.151   3.482   8.042 -0.0773 -0.1724  0.0549
 2907SOL    HW120180   4.125   3.569   8.013  0.2380 -0.1112 -0.0505
 2907SOL    HW220181   4.069   3.461   8.087 -1.0666 -0.6376 -1.9724
 2908SOL     OW20182   3.185   4.643   0.667 -0.2491  0.0791  0.3674
 2908SOL    HW120183   3.245   4.584   0.622 -0.4669  0.2000 -0.0847
 2908SOL    HW220184   3.180   4.594   0.749  0.2271  0.4578  0.6207
 2909SOL     OW20185   1.808   0.361   5.995 -0.7780  0.1333 -0.1081
 2909SOL    HW120186   1.890   0.322   5.964 -0.5771  0.4106  0.0618
 2909SOL    HW220187   1.740   0.306   5.957  0.6377 -1.5471 -0.2485
 2910SOL     OW20188   3.312   3.157   2.946  0.3548 -0.3648  0.2438
 2910SOL    HW120189   3.353   3.090   2.891 -1.8257 -0.8263 -0.8418
 2910SOL    HW220190   3.373   3.230   2.943 -1.2139  0.8348 -2.2923
 2911SOL     OW20191   1.227   4.175   8.935  0.2057  0.3906 -0.5350
 2911SOL    HW120192   1.289   4.202   9.003 -1.2978  1.9951  0.2106
 2911SOL    HW220193   1.286   4.151   8.865 -0.4198  1.1135 -1.3142
 2912SOL     OW20194   2.206   1.705  13.631  0.5858  0.1410 -0.4434
 2912SOL    HW120195   2.170   1.619  13.654 -3.0317  1.7595  0.0174
 2912SOL    HW220196   2.286   1.694  13.682  1.8314 -0.2563 -2.4882
 2913SOL     OW20197   2.620   4.373  14.094  0.3121 -0.5233  0.0260
 2913SOL    HW120198   2.544   4.360  14.036  1.7585  3.7818 -2.8639
 2913SOL    HW220199   2.606   4.456  14.139  0.6909  0.5518 -1.8065
 2914SOL     OW20200   1.084   0.501   1.831  0.1033  0.6749  0.3379
 2914SOL    HW120201   1.125   0.474   1.749  0.5073 -4.2830  2.1888
 2914SOL    HW220202   1.167   0.528   1.870  0.6248 -2.4923  1.3949
 2915SOL     OW20203   2.771   0.412  12.597  0.0783  0.6132  0.2549
 2915SOL    HW120204   2.754   0.343  12.532 -3.5764  1.5148  0.2366
 2915SOL    HW220205   2.806   0.488  12.551 -2.3683  1.2457 -0.5612
 2916SOL     OW20206   4.219   2.074  12.914 -0.3222 -0.2857 -0.0636
 2916SOL    HW120207   4.230   2.077  13.009  3.1728 -0.7659 -0.4380
 2916SOL    HW220208   4.182   1.986  12.903  0.8547 -0.9076  0.9523
 2917SOL     OW20209   1.240   3.555   1.576  0.0725 -0.0468  0.0410
 2917SOL    HW120210   1.263   3.644   1.604 -1.4279  0.5581 -0.6483
 2917SOL    HW220211   1.156   3.564   1.531 -1.2007  1.6594  2.7192
 2918SOL     OW20212   2.886   3.412   2.273  0.2087 -0.0754  0.6614
 2918SOL    HW120213   2.902   3.500   2.307  0.9835 -1.1754  3.1832
 2918SOL    HW220214   2.805   3.424   2.224  1.6381  1.3516 -1.3363
 2919SOL     OW20215   2.252   1.795   6.131  0.0831 -0.4223  0.6051
 2919SOL    HW120216   2.193   1.840   6.069  1.8874 -0.3391 -1.0379
 2919SOL    HW220217   2.308   1.752   6.066 -0.3979  0.1723 -0.2097
 2920SOL     OW20218   3.252   2.553  12.312 -0.2849  0.2739 -0.3809
 2920SOL    HW120219   3.315   2.565  12.241 -0.1265 -2.9029 -0.7833
 2920SOL    HW220220   3.226   2.645  12.313  1.1285  0.6685 -0.1372
 2921SOL     OW20221   2.118   4.014   5.833  0.5964  0.2874  0.6978
 2921SOL    HW120222   2.026   3.988   5.835  0.2630  1.2312 -1.4544
 2921SOL    HW220223   2.149   3.984   5.918 -0.6892  1.7001  1.6422
 2922SOL     OW20224   4.594   0.922   5.310 -0.5648 -0.1678 -0.3416
 2922SOL    HW120225   4.639   0.961   5.385  1.0331 -1.2606 -0.7395
 2922SOL    HW220226   4.537   0.996   5.288 -0.6226 -0.1442 -0.1170
 2923SOL     OW20227   3.204   3.954   8.135  0.3329 -0.0483  0.0096
 2923SOL    HW120228   3.281   4.007   8.115  0.9119 -1.6402 -2.0311
 2923SOL    HW220229   3.180   3.911   8.053 -0.9553 -0.7450  0.7460
 2924SOL     OW20230   0.316   3.987   6.786  0.7247 -0.3508  0.1282
 2924SOL    HW120231   0.321   3.989   6.881 -0.5054 -0.3044  0.1871
 2924SOL    HW220232   0.390   3.929   6.767  1.2831 -0.0632  1.4159
 2925SOL     OW20233   4.206   1.071  10.280 -0.7819  0.2514  0.2872
 2925SOL    HW120234   4.197   1.166  10.280 -0.3155  0.2924 -0.0221
 2925SOL    HW220235   4.132   1.033  10.233 -1.5323  0.5616  1.2072
 2926SOL     OW20236   3.773   3.150   2.011  0.3899 -0.4138  0.1203
 2926SOL    HW120237   3.716   3.187   1.943 -2.4282  0.5831  2.9879
 2926SOL    HW220238   3.748   3.058   2.017  3.1335 -1.2156 -0.7970
 2927SOL     OW20239   3.015   4.258  12.741 -0.1715 -0.5521  0.1336
 2927SOL    HW120240   3.109   4.275  12.748 -0.4322  1.0096 -0.0007
 2927SOL    HW220241   3.002   4.230  12.651 -1.6753  1.7603 -0.3763
 2928SOL     OW20242   1.783   0.885   9.220  0.0029  0.1568 -0.0071
 2928SOL    HW120243   1.741   0.820   9.163 -1.0208 -0.8480  1.8914
 2928SOL    HW220244   1.805   0.824   9.290 -0.4677  0.6077  0.5344
 2929SOL     OW20245   0.821   2.289   8.184 -0.4073  0.0108  0.0850
 2929SOL    HW120246   0.881   2.282   8.258  0.7949 -2.1394 -1.0706
 2929SOL    HW220247   0.776   2.205   8.190  1.1076 -0.9068 -1.3899
 2930SOL     OW20248   1.252   1.717   7.758  0.0835 -0.2809 -0.4083
 2930SOL    HW120249   1.254   1.739   7.665 -0.7426 -1.2235 -0.6506
 2930SOL    HW220250   1.311   1.782   7.795  1.0297  0.0358 -2.4528
 2931SOL     OW20251   0.798   2.892   7.423  0.0432  0.0977 -0.1965
 2931SOL    HW120252   0.723   2.861   7.473 -0.8241 -1.1628 -2.2683
 2931SOL    HW220253   0.860   2.842   7.476 -0.2318  0.1340  0.1552
 2932SOL     OW20254   0.819   4.544   8.913 -0.2804  0.6479 -0.2452
 2932SOL    HW120255   0.911   4.516   8.922 -0.3582  0.6345  0.4988
 2932SOL    HW220256   0.768   4.481   8.963 -0.2501  1.0791  0.3285
 2933SOL     OW20257   1.318   3.574   5.396  0.5004  0.1698  0.2369
 2933SOL    HW120258   1.308   3.492   5.443 -0.4800  0.5256  0.6498
 2933SOL    HW220259   1.410   3.599   5.404  0.9491 -1.1460 -0.8886
 2934SOL     OW20260   1.851   3.421   4.541 -0.8694  0.0062 -0.5291
 2934SOL    HW120261   1.899   3.354   4.590 -0.2645  1.2027  0.5175
 2934SOL    HW220262   1.843   3.496   4.599  1.3491  0.1598 -0.4075
 2935SOL     OW20263   0.946   1.961   6.241 -0.2473  0.2006 -0.0443
 2935SOL    HW120264   1.014   2.018   6.276  3.0123 -2.0383 -2.6802
 2935SOL    HW220265   0.998   1.927   6.168 -1.4570  0.0578 -0.8298
 2936SOL     OW20266   0.521   3.590  10.131  0.5832  0.3709  0.0192
 2936SOL    HW120267   0.566   3.671  10.108  0.4701 -0.0457 -1.6502
 2936SOL    HW220268   0.457   3.590  10.060 -0.0251  0.3997  0.5605
 2937SOL     OW20269   0.868   0.967   2.114 -0.4967 -0.0756  0.1648
 2937SOL    HW120270   0.853   0.959   2.020 -1.8137  0.5223  0.3150
 2937SOL    HW220271   0.795   1.023   2.141  0.6254  0.8582  1.2856
 2938SOL     OW20272   4.077   0.549   5.263  0.5016 -0.3382  0.2472
 2938SOL    HW120273   4.132   0.515   5.193  0.8866  0.4299  0.1764
 2938SOL    HW220274   4.098   0.485   5.332  4.4604  1.7495  0.9909
 2939SOL     OW20275   3.323   2.320   0.005 -0.6841  0.0777 -0.5040
 2939SOL    HW120276   3.232   2.350   0.012 -1.3026 -1.5167 -1.5922
 2939SOL    HW220277   3.353   2.323   0.095 -0.9818  0.8328 -0.4269
 2940SOL     OW20278   3.841   3.494   7.272  0.1177  0.1279  0.1127
 2940SOL    HW120279   3.870   3.454   7.190  2.0468  2.8746 -0.5251
 2940SOL    HW220280   3.921   3.496   7.325 -0.1239  2.1630  0.3869
 2941SOL     OW20281   3.837   1.949   9.939 -0.3805 -0.1921 -0.3085
 2941SOL    HW120282   3.792   2.021   9.982 -0.3236 -0.1274 -0.3564
 2941SOL    HW220283   3.781   1.933   9.864  0.7093 -0.7068 -1.0127
 2942SOL     OW20284   4.376   4.383   6.579 -0.4995  0.1506 -0.4137
 2942SOL    HW120285   4.468   4.411   6.581 -0.1909 -0.8484 -0.4159
 2942SOL    HW220286   4.355   4.390   6.672  2.1212  2.2573  0.0412
 2943SOL     OW20287   4.165   4.280  13.732 -0.0781  0.5588  0.1740
 2943SOL    HW120288   4.141   4.190  13.752  0.7789 -0.0682 -1.7105
 2943SOL    HW220289   4.134   4.284  13.642  0.7071 -0.8743 -0.1548
 2944SOL     OW20290   1.446   4.571   8.799 -0.5106 -0.3033 -0.6288
 2944SOL    HW120291   1.377   4.535   8.743 -0.8663 -1.3935  0.5051
 2944SOL    HW220292   1.383   4.606   8.861  0.4085 -0.8838  0.6317
 2945SOL     OW20293   0.188   2.161   8.072 -0.1209 -0.0394 -0.2314
 2945SOL    HW120294   0.209   2.191   7.984  0.8561  0.2737  0.1082
 2945SOL    HW220295   0.126   2.229   8.097  1.4018  1.3921 -0.3873
 2946SOL     OW20296   4.363   0.409   4.878  0.1487  0.3929  0.1848
 2946SOL    HW120297   4.458   0.408   4.862 -0.1097 -0.6291 -1.2037
 2946SOL    HW220298   4.321   0.351   4.816  2.4057  1.1805 -2.1010
 2947SOL     OW20299   0.366   4.337   3.879  0.3089  0.2873 -0.2598
 2947SOL    HW120300   0.456   4.358   3.853  1.0178 -3.0511 -0.5188
 2947SOL    HW220301   0.388   4.309   3.968  0.9674 -0.3707 -0.6345
 2948SOL     OW20302   3.326   4.662   1.790 -0.3321  0.4824  0.0640
 2948SOL    HW120303   3.300   4.673   1.881  3.5618  0.9105  1.1356
 2948SOL    HW220304   3.237   4.672   1.756 -0.4277  1.3443  0.5652
 2949SOL     OW20305   1.059   1.761   8.094  0.8912  0.2673 -0.7753
 2949SOL    HW120306   1.141   1.781   8.139  0.7009  1.4328 -0.9392
 2949SOL    HW220307   1.064   1.825   8.023 -0.5531  0.8249 -0.3829
 2950SOL     OW20308   0.018   0.061   8.278 -0.4065  0.5091 -0.0779
 2950SOL    HW120309   0.071   0.012   8.341  0.0833 -1.2009 -1.8434
 2950SOL    HW220310   4.690   0.122   8.333 -0.2509  0.5230  0.0484
 2951SOL     OW20311   2.959   3.899   4.374  0.1529  0.3485  0.1443
 2951SOL    HW120312   2.884   3.939   4.329  0.7577  2.1702  0.7305
 2951SOL    HW220313   2.972   3.977   4.429  1.7129 -0.3741  0.7845
 2952SOL     OW20314   1.473   2.567   7.075 -0.4015  0.1653  0.1476
 2952SOL    HW120315   1.554   2.520   7.092 -1.4249 -0.6047  2.9224
 2952SOL    HW220316   1.419   2.501   7.032  0.2952 -0.2764 -0.0412
 2953SOL     OW20317   0.972   3.417   2.149  0.2439 -0.2477 -0.4292
 2953SOL    HW120318   1.050   3.471   2.137  0.2206  0.0532  0.7397
 2953SOL    HW220319   0.912   3.460   2.088  0.4251  1.0026  0.2845
 2954SOL     OW20320   2.206   1.467   9.400  0.1471 -0.0658 -0.7111
 2954SOL    HW120321   2.255   1.504   9.473 -1.8820  1.4429 -0.1232
 2954SOL    HW220322   2.128   1.522   9.405 -0.7889 -1.4461 -0.0091
 2955SOL     OW20323   2.734   3.139   5.316 -0.0486 -0.0796 -0.2903
 2955SOL    HW120324   2.761   3.117   5.227  3.2621 -1.0212  0.9571
 2955SOL    HW220325   2.768   3.060   5.358 -0.3996 -0.2437 -0.3174
 2956SOL     OW20326   4.254   4.500  13.877 -0.8969 -0.4536  0.3392
 2956SOL    HW120327   4.240   4.410  13.850  0.3101 -1.3977  2.8751
 2956SOL    HW220328   4.164   4.525  13.855 -1.1015 -1.4050  0.0991
 2957SOL     OW20329   3.489   1.374   8.981 -0.3382 -0.6259  0.3419
 2957SOL    HW120330   3.547   1.407   8.913 -0.7143 -0.7458 -0.0346
 2957SOL    HW220331   3.411   1.393   8.930  1.3646 -0.1319 -2.0397
 2958SOL     OW20332   1.650   1.106   4.505 -0.0888  0.2899 -0.3431
 2958SOL    HW120333   1.659   1.043   4.577  1.5176  0.4621 -0.4027
 2958SOL    HW220334   1.674   1.057   4.426  0.3600  0.0025 -0.0318
 2959SOL     OW20335   3.794   1.775   8.700  0.4304  0.0765 -0.8469
 2959SOL    HW120336   3.768   1.862   8.729  0.0528  0.3204 -1.9455
 2959SOL    HW220337   3.755   1.772   8.613  0.4219 -2.7036 -0.7660
 2960SOL     OW20338   4.718   4.657   5.543  0.5754  1.3672 -0.7888
 2960SOL    HW120339   0.005   0.030   5.526  0.6209  1.4885 -0.0729
 2960SOL    HW220340   4.625   4.638   5.553  0.5206  1.8411 -0.4093
 2961SOL     OW20341   3.692   2.034   3.158 -0.5285 -0.5865 -0.9728
 2961SOL    HW120342   3.628   1.969   3.128  0.0293 -0.6313 -2.0633
 2961SOL    HW220343   3.752   2.020   3.084  1.0418 -3.1636  0.8214
 2962SOL     OW20344   3.884   1.809  16.722 -0.1871 -0.1978  0.0974
 2962SOL    HW120345   3.883   1.836  16.813  0.5382 -1.7202  0.5520
 2962SOL    HW220346   3.971   1.769  16.713 -0.7008 -0.9813 -1.3904
 2963SOL     OW20347   1.325   4.424   6.233 -0.1150 -0.0735 -0.7869
 2963SOL    HW120348   1.332   4.497   6.171 -1.7477  2.0400  1.4859
 2963SOL    HW220349   1.275   4.355   6.190 -2.8693  1.9079 -0.7168
 2964SOL     OW20350   2.891   1.511   9.028 -0.3834  0.2424 -0.5266
 2964SOL    HW120351   2.842   1.591   9.047 -0.7815  0.1863 -1.3321
 2964SOL    HW220352   2.963   1.518   9.092 -1.0135  1.9478 -0.0106
 2965SOL     OW20353   2.586   4.262  10.649 -0.1104  0.0896  0.0792
 2965SOL    HW120354   2.562   4.179  10.690  2.3125 -0.6356  0.0534
 2965SOL    HW220355   2.678   4.271  10.676  0.2356 -0.7772 -0.8196
 2966SOL     OW20356   4.507   0.333  15.399 -0.1698  0.0795 -0.0965
 2966SOL    HW120357   4.412   0.341  15.403  0.0587  2.1645  1.2163
 2966SOL    HW220358   4.528   0.390  15.473 -0.0024 -1.9049  1.3996
 2967SOL     OW20359   4.307   4.298   0.924 -0.5866  0.1334  0.0813
 2967SOL    HW120360   4.384   4.286   0.867 -0.5412  0.1225  0.1455
 2967SOL    HW220361   4.317   4.224   0.984 -1.4984  0.5735  0.7631
 2968SOL     OW20362   4.177   3.459  13.783 -0.1226  0.3251  0.0279
 2968SOL    HW120363   4.271   3.463  13.802 -0.0136  1.6012 -0.8551
 2968SOL    HW220364   4.147   3.425  13.868 -2.5269  2.6304  0.1211
 2969SOL     OW20365   3.032   2.232   6.228  0.0340  0.4338 -0.2729
 2969SOL    HW120366   2.993   2.196   6.308 -0.8127  0.7713 -0.5357
 2969SOL    HW220367   2.986   2.316   6.226 -1.0232 -0.1541 -0.8422
 2970SOL     OW20368   0.591   1.712   8.022 -0.0370 -0.3118 -0.3342
 2970SOL    HW120369   0.677   1.670   8.022  0.8145  1.4152  1.0628
 2970SOL    HW220370   0.589   1.733   8.116  1.0104 -1.9443  0.0498
 2971SOL     OW20371   2.233   0.080   4.568 -0.3636  0.4156 -0.1367
 2971SOL    HW120372   2.152   0.053   4.612 -0.8609  0.7632 -0.8349
 2971SOL    HW220373   2.235   0.021   4.493 -1.1492  0.6517 -0.3466
 2972SOL     OW20374   4.420   0.265  12.767  0.3180  0.3969  0.4676
 2972SOL    HW120375   4.386   0.256  12.856  0.0652 -0.4577  0.2878
 2972SOL    HW220376   4.504   0.219  12.767 -0.7063 -1.4858 -0.1030
 2973SOL     OW20377   3.712   1.695  13.883  0.3177 -0.1835  0.4309
 2973SOL    HW120378   3.724   1.664  13.972  0.4017  1.6155  1.0502
 2973SOL    HW220379   3.622   1.675  13.855  0.0206  0.9184  0.5630
 2974SOL     OW20380   0.797   0.425   5.980  0.6820  0.5325  0.4476
 2974SOL    HW120381   0.839   0.395   5.899  3.1887  1.8833  1.2426
 2974SOL    HW220382   0.829   0.364   6.047 -1.4494 -0.0951  0.8745
 2975SOL     OW20383   4.392   4.295   4.285 -0.4027 -0.3743  0.6411
 2975SOL    HW120384   4.329   4.302   4.214 -0.0998  1.4929  0.5701
 2975SOL    HW220385   4.468   4.282   4.228 -1.8248 -0.1945 -1.2699
 2976SOL     OW20386   2.058   0.347   7.951  0.1865  0.6406 -0.7881
 2976SOL    HW120387   2.056   0.253   7.936  0.8735  0.1900  1.8483
 2976SOL    HW220388   1.974   0.372   7.912 -0.3046  0.2250 -0.0098
 2977SOL     OW20389   4.588   2.169   3.534  0.2258 -0.5450  0.1862
 2977SOL    HW120390   4.610   2.089   3.487 -0.6373 -0.5392 -0.2342
 2977SOL    HW220391   4.605   2.248   3.482  0.9165  0.8981  2.5687
 2978SOL     OW20392   2.835   0.156   4.162  0.2126 -0.2195  0.0583
 2978SOL    HW120393   2.914   0.196   4.127  0.4294  0.6275  1.5639
 2978SOL    HW220394   2.802   0.220   4.224  1.3061 -0.9632  1.3978
 2979SOL     OW20395   3.844   3.778   3.118 -0.3215 -0.3360 -0.0852
 2979SOL    HW120396   3.826   3.834   3.194  0.4134 -0.1231 -0.0745
 2979SOL    HW220397   3.819   3.844   3.053  0.2104  0.3857  0.4515
 2980SOL     OW20398   4.218   4.306   2.265 -0.1191  0.4515 -0.8423
 2980SOL    HW120399   4.183   4.250   2.334  1.6564 -0.6424 -0.8331
 2980SOL    HW220400   4.300   4.260   2.248 -0.2849  0.1392 -0.7800
 2981SOL     OW20401   3.231   1.519   5.275  0.6784  0.2125 -0.5478
 2981SOL    HW120402   3.142   1.554   5.284  0.3409 -1.0761  1.3076
 2981SOL    HW220403   3.211   1.453   5.208 -2.5205 -0.3391  0.9344
 2982SOL     OW20404   0.790   3.089   1.525  0.1907 -1.3183 -0.3092
 2982SOL    HW120405   0.857   3.038   1.478 -0.3238 -2.5543  0.3011
 2982SOL    HW220406   0.716   3.074   1.466  0.2950 -1.6245 -0.3614
 2983SOL     OW20407   2.400   0.590   7.075  0.9988  0.4435 -0.0334
 2983SOL    HW120408   2.306   0.571   7.074  0.8662  1.1506 -1.1655
 2983SOL    HW220409   2.438   0.504   7.089  1.2898  0.6399  0.4182
 2984SOL     OW20410   2.607   2.383  11.129  0.1405  0.0655 -0.2161
 2984SOL    HW120411   2.652   2.420  11.204  0.4178  0.3900 -0.5386
 2984SOL    HW220412   2.566   2.303  11.162 -1.3734  1.6704  1.7727
 2985SOL     OW20413   4.225   2.270   0.976  0.2917  0.5233  0.3222
 2985SOL    HW120414   4.282   2.325   1.029  0.6776  0.0831  0.3609
 2985SOL    HW220415   4.219   2.200   1.041  0.2873  2.0262  1.9408
 2986SOL     OW20416   3.915   0.626   4.991  0.3960 -0.0046  0.5466
 2986SOL    HW120417   3.883   0.535   4.994 -0.2965  0.2510  0.8281
 2986SOL    HW220418   4.010   0.622   5.003  0.5862 -0.2265 -1.0138
 2987SOL     OW20419   1.927   2.596  17.150 -0.7329 -0.2235  0.1555
 2987SOL    HW120420   2.019   2.571  17.155 -0.5852  0.2219 -0.2956
 2987SOL    HW220421   1.916   2.623  17.059 -0.5874 -1.5005 -0.2423
 2988SOL     OW20422   0.820   3.585   3.980  0.4244  0.2783  0.3382
 2988SOL    HW120423   0.743   3.540   4.012 -0.5420 -0.4173 -2.9214
 2988SOL    HW220424   0.892   3.544   4.028 -0.9649  0.0525  2.1746
 2989SOL     OW20425   3.770   3.182   3.919 -0.1825  0.2986  0.1121
 2989SOL    HW120426   3.731   3.098   3.944  1.2859 -0.6685 -0.8760
 2989SOL    HW220427   3.852   3.152   3.881  0.8318  0.6390  2.0405
 2990SOL     OW20428   3.031   0.596  11.686  0.3824  0.2301  0.3271
 2990SOL    HW120429   3.022   0.550  11.603  1.0635 -0.6361  0.7367
 2990SOL    HW220430   2.968   0.668  11.684 -1.8269 -1.7630 -1.9407
 2991SOL     OW20431   1.951   2.023   9.311 -0.1596 -0.2122 -0.3389
 2991SOL    HW120432   1.971   2.115   9.324  1.9849 -0.5613 -1.1227
 2991SOL    HW220433   1.874   2.013   9.367 -0.7973 -0.5330 -1.2500
 2992SOL     OW20434   1.795   1.833   2.210 -0.2649 -0.1961 -0.1266
 2992SOL    HW120435   1.827   1.896   2.146  0.0229 -0.9291 -0.6977
 2992SOL    HW220436   1.833   1.863   2.292 -0.0289  0.1812 -0.3760
 2993SOL     OW20437   3.519   1.161   2.363  0.5791  0.5198  0.5104
 2993SOL    HW120438   3.572   1.130   2.289 -0.0879  0.2198  0.1499
 2993SOL    HW220439   3.437   1.121   2.333  0.4712  2.3880 -1.6759
 2994SOL     OW20440   0.796   4.041  14.797 -0.0624 -0.3688  0.0348
 2994SOL    HW120441   0.786   4.050  14.702 -0.2559  0.1923  0.1074
 2994SOL    HW220442   0.806   3.946  14.805 -3.4248 -0.7204  0.3171
 2995SOL     OW20443   0.257   4.254   7.569  0.7041 -0.2121  0.5519
 2995SOL    HW120444   0.196   4.328   7.572 -0.0770 -0.7517 -2.1089
 2995SOL    HW220445   0.195   4.185   7.544  0.0732 -0.2539  2.2350
 2996SOL     OW20446   3.298   0.010   6.271  0.0728  0.3243 -0.3143
 2996SOL    HW120447   3.275   0.014   6.364  1.0795 -3.1569  0.0863
 2996SOL    HW220448   3.215   0.007   6.224 -0.8841  1.6708  1.2745
 2997SOL     OW20449   0.493   4.447   8.400  0.8405  0.6935 -0.1233
 2997SOL    HW120450   0.474   4.490   8.484 -0.6228 -0.3978  0.0920
 2997SOL    HW220451   0.574   4.494   8.378  1.5737 -0.9296 -0.8447
 2998SOL     OW20452   1.302   2.991   2.885  0.2897  0.3308  0.4603
 2998SOL    HW120453   1.345   3.075   2.902  0.8839  0.0950  0.0815
 2998SOL    HW220454   1.344   2.921   2.934  2.1914  0.1161 -1.5128
 2999SOL     OW20455   3.879   3.070   0.263  0.1000  0.1876  0.2086
 2999SOL    HW120456   3.970   3.075   0.234 -0.0867 -0.1629 -0.4130
 2999SOL    HW220457   3.893   2.984   0.303  0.1593  2.0412  4.2201
 3000SOL     OW20458   3.302   1.026   2.288 -0.0091  0.3823  0.2495
 3000SOL    HW120459   3.257   1.068   2.214 -0.4540 -0.6202 -0.0571
 3000SOL    HW220460   3.258   0.941   2.281 -1.9626  1.3932  0.3765
 3001SOL     OW20461   3.320   4.603  14.162 -0.8107  0.1276 -0.1614
 3001SOL    HW120462   3.356   4.674  14.108 -3.0285  1.8530  0.6336
 3001SOL    HW220463   3.281   4.538  14.103  0.2197  1.0125 -1.8386
 3002SOL     OW20464   3.726   4.550  14.516  0.5441 -0.0181 -0.3977
 3002SOL    HW120465   3.692   4.533  14.604 -1.1277  1.1323 -0.8132
 3002SOL    HW220466   3.722   4.468  14.467 -0.4278  0.2708 -0.8042
 3003SOL     OW20467   2.164   2.614  14.119 -0.0030 -0.4362 -0.4323
 3003SOL    HW120468   2.076   2.621  14.082 -0.6240 -0.0546  1.0933
 3003SOL    HW220469   2.220   2.661  14.057  1.5513  2.1588  2.9479
 3004SOL     OW20470   3.621   1.180  11.179 -0.5284  0.0264  0.0920
 3004SOL    HW120471   3.694   1.212  11.231 -1.2962 -1.4063  2.0273
 3004SOL    HW220472   3.547   1.201  11.237 -1.0950 -0.1830 -0.5509
 3005SOL     OW20473   1.841   3.878   4.443 -0.1537 -0.2543  0.2448
 3005SOL    HW120474   1.853   3.947   4.509  1.0474  0.2858 -0.5350
 3005SOL    HW220475   1.907   3.815   4.474 -1.5086 -2.5791 -1.6818
 3006SOL     OW20476   2.729   1.722   1.175  0.1221  0.1904 -0.2454
 3006SOL    HW120477   2.742   1.788   1.106 -0.4258  0.5938  0.0353
 3006SOL    HW220478   2.656   1.675   1.135 -1.0960  0.3117  1.8668
 3007SOL     OW20479   4.193   2.433   6.752 -0.6932 -0.4500 -0.0164
 3007SOL    HW120480   4.235   2.517   6.732  1.6464 -1.3245  1.2446
 3007SOL    HW220481   4.101   2.457   6.754 -0.4009  0.6903  0.0017
 3008SOL     OW20482   2.645   1.335   2.870  0.6384  0.0546 -0.2371
 3008SOL    HW120483   2.695   1.322   2.790  0.4776 -0.8254 -0.1914
 3008SOL    HW220484   2.569   1.383   2.838  0.1676  1.5655  3.0708
 3009SOL     OW20485   4.248   2.610  13.627  0.0645  0.0830 -0.8016
 3009SOL    HW120486   4.284   2.622  13.539 -0.7643  2.7998 -0.7739
 3009SOL    HW220487   4.163   2.573  13.603 -0.9205  1.7453  0.1442
 3010SOL     OW20488   3.645   4.057   1.554 -0.2095 -0.2196  0.0297
 3010SOL    HW120489   3.629   3.991   1.486  2.6914  0.7758 -1.6503
 3010SOL    HW220490   3.732   4.084   1.522 -0.3501 -0.1833 -0.3254
 3011SOL     OW20491   1.139   0.252  12.839  0.0200  0.3440 -0.6129
 3011SOL    HW120492   1.054   0.214  12.859  0.1400  0.9363  1.0237
 3011SOL    HW220493   1.116   0.345  12.843  0.2983  0.3861  0.0133
 3012SOL     OW20494   4.135   3.121   7.282  0.7047 -0.1164  0.3319
 3012SOL    HW120495   4.095   3.201   7.249  0.7376 -0.3542 -0.2751
 3012SOL    HW220496   4.144   3.145   7.375 -0.5207  0.2816  0.3461
 3013SOL     OW20497   1.192   2.666   1.877  0.0894 -0.6330 -0.2098
 3013SOL    HW120498   1.217   2.574   1.869 -1.9620 -1.0327 -2.1410
 3013SOL    HW220499   1.270   2.720   1.888 -0.6590  0.2396  0.8250
 3014SOL     OW20500   2.430   3.125  10.581 -0.7503 -0.0750  0.5419
 3014SOL    HW120501   2.430   3.129  10.486 -0.2387 -3.0240  0.4306
 3014SOL    HW220502   2.477   3.045  10.604  0.4017  1.1583  2.5533
 3015SOL     OW20503   4.586   0.154   4.046  0.4021  0.5256  0.1344
 3015SOL    HW120504   4.528   0.085   4.014 -0.1711  0.6266  0.9666
 3015SOL    HW220505   4.672   0.129   4.013 -0.1926 -0.7315 -0.4516
 3016SOL     OW20506   1.797   1.772   8.715  0.2789 -0.0526 -0.2339
 3016SOL    HW120507   1.809   1.867   8.709 -0.9282 -0.0055 -1.6297
 3016SOL    HW220508   1.730   1.767   8.783  0.7595  0.6914  0.2951
 3017SOL     OW20509   1.274   0.687   3.752  0.1735 -0.6823 -0.1897
 3017SOL    HW120510   1.239   0.750   3.815  0.6430 -1.0500  0.4397
 3017SOL    HW220511   1.249   0.738   3.676 -0.8350 -0.2332  0.4474
 3018SOL     OW20512   4.441   2.678   7.669  0.5924  0.1204 -0.2719
 3018SOL    HW120513   4.487   2.605   7.710  1.6657  0.8449 -0.1766
 3018SOL    HW220514   4.354   2.639   7.660 -0.2440  2.4128 -2.0888
 3019SOL     OW20515   0.464   0.183   6.580  0.1395  0.3427 -0.0248
 3019SOL    HW120516   0.427   0.136   6.655  2.9795 -0.8709  0.5974
 3019SOL    HW220517   0.519   0.116   6.540 -0.7386 -0.7865  0.6484
 3020SOL     OW20518   4.326   1.520   6.788  0.1447 -0.1737 -0.0881
 3020SOL    HW120519   4.274   1.599   6.776  1.5847  1.1472  2.3777
 3020SOL    HW220520   4.309   1.471   6.707  1.0262  0.5797 -0.7402
 3021SOL     OW20521   2.350   2.273   5.033  0.1251 -0.1335 -0.8117
 3021SOL    HW120522   2.259   2.263   5.006  0.1992 -3.0573 -0.0076
 3021SOL    HW220523   2.357   2.202   5.097  2.3923  0.4496 -0.4134
 3022SOL     OW20524   2.055   3.100  16.066  0.1184  0.0326  0.3834
 3022SOL    HW120525   2.062   3.145  15.982  1.1149 -1.8370 -0.5395
 3022SOL    HW220526   2.047   3.008  16.040 -0.7638  0.5400 -1.1019
 3023SOL     OW20527   2.867   0.368   2.444 -0.0219  0.1784 -0.4024
 3023SOL    HW120528   2.933   0.309   2.408  0.2035 -0.1555  0.5483
 3023SOL    HW220529   2.916   0.414   2.512 -1.2508  1.6491 -0.5163
 3024SOL     OW20530   0.806   2.448   4.382  0.6114 -0.6147  0.0078
 3024SOL    HW120531   0.779   2.486   4.298  0.1608  0.3292  0.5827
 3024SOL    HW220532   0.725   2.466   4.429  0.9379  1.1462 -0.0874
 3025SOL     OW20533   2.592   0.535   4.774  0.1764 -0.6853 -0.4228
 3025SOL    HW120534   2.657   0.467   4.787 -2.1184 -2.9580 -0.9412
 3025SOL    HW220535   2.508   0.500   4.804 -0.5985  2.9912  1.8112
 3026SOL     OW20536   3.177   2.101  12.755  0.0542 -0.8168  0.4093
 3026SOL    HW120537   3.180   2.146  12.670  0.2148  0.6292  1.1740
 3026SOL    HW220538   3.105   2.040  12.745  0.4317 -1.5195  1.8982
 3027SOL     OW20539   4.291   1.422   1.132  0.1663  1.1253 -0.4967
 3027SOL    HW120540   4.358   1.397   1.069  0.8623 -0.4126  0.8437
 3027SOL    HW220541   4.224   1.435   1.065 -0.2057 -0.8061 -0.5149
 3028SOL     OW20542   2.780   4.635  11.023 -0.1284 -0.0321  0.0829
 3028SOL    HW120543   2.729   4.567  10.980 -1.3251 -0.0601  1.5772
 3028SOL    HW220544   2.766   4.713  10.969  1.6951  1.1072  1.2466
 3029SOL     OW20545   3.656   3.589   7.048  0.2851 -0.3594 -0.3768
 3029SOL    HW120546   3.631   3.673   7.010 -0.3454 -0.5113 -0.2990
 3029SOL    HW220547   3.721   3.622   7.111  1.4106 -0.9809 -1.2274
 3030SOL     OW20548   0.742   3.785   1.423 -0.5538 -0.4299  0.0995
 3030SOL    HW120549   0.813   3.848   1.439 -2.7968  2.6713 -2.1438
 3030SOL    HW220550   0.729   3.783   1.328  2.9330 -2.5000 -0.3607
 3031SOL     OW20551   3.083   1.983   5.455  0.0997  0.0782  0.5356
 3031SOL    HW120552   3.032   1.924   5.511 -2.4061  2.4026  0.6789
 3031SOL    HW220553   3.088   2.057   5.516  2.0837  0.7869 -0.4938
 3032SOL     OW20554   3.498   4.385   2.794 -0.3350 -0.3914  0.3793
 3032SOL    HW120555   3.512   4.478   2.773  0.8168 -1.0599 -1.7815
 3032SOL    HW220556   3.576   4.345   2.755 -0.5566 -0.7455  0.3104
 3033SOL     OW20557   4.196   4.487  13.374 -0.5334 -0.2034  0.0057
 3033SOL    HW120558   4.154   4.558  13.325  0.3004  0.5059  0.3269
 3033SOL    HW220559   4.273   4.534  13.407  0.1386 -0.0056 -1.8578
 3034SOL     OW20560   1.334   2.739   2.486 -0.1671 -0.2582  0.3503
 3034SOL    HW120561   1.293   2.662   2.524 -1.1535  0.6496  1.1057
 3034SOL    HW220562   1.259   2.792   2.458 -0.0778  0.3897  1.3421
 3035SOL     OW20563   2.602   3.085   3.896 -0.2989 -0.3246 -0.1948
 3035SOL    HW120564   2.520   3.089   3.943  0.6572 -1.5359  1.5690
 3035SOL    HW220565   2.647   3.030   3.961  0.9464 -1.1739 -1.7483
 3036SOL     OW20566   3.868   3.051   4.491 -0.0599 -0.1815 -0.4793
 3036SOL    HW120567   3.907   2.970   4.525  1.6812 -0.1409 -2.3710
 3036SOL    HW220568   3.808   3.012   4.427 -1.0555  0.1898  0.2255
 3037SOL     OW20569   2.266   4.359   5.321  0.0723  0.2192 -0.0477
 3037SOL    HW120570   2.220   4.427   5.271 -3.0196  1.1362  4.0363
 3037SOL    HW220571   2.202   4.326   5.384  0.1369  2.1365  1.0242
 3038SOL     OW20572   3.725   1.140  13.054  0.0750  0.0656 -0.3767
 3038SOL    HW120573   3.790   1.160  13.122 -0.5589 -1.4884  0.6972
 3038SOL    HW220574   3.783   1.085  13.001  0.2750 -1.9625  1.9398
 3039SOL     OW20575   2.405   0.380   5.638  0.1114  0.5359 -0.1810
 3039SOL    HW120576   2.446   0.319   5.698  0.4912  1.0400  0.0704
 3039SOL    HW220577   2.334   0.414   5.692  0.5736  1.6492 -0.2646
 3040SOL     OW20578   1.640   1.931   7.614  0.8851  0.3851 -0.0441
 3040SOL    HW120579   1.678   1.863   7.558  2.0834  0.3066  0.8680
 3040SOL    HW220580   1.605   1.878   7.685 -0.3372  0.9394 -0.2220
 3041SOL     OW20581   2.371   3.517   5.541 -0.1332  0.2602 -0.1274
 3041SOL    HW120582   2.464   3.507   5.559  0.3119  1.2793 -1.8115
 3041SOL    HW220583   2.369   3.613   5.533  0.6642  0.3391  0.6264
 3042SOL     OW20584   0.857   4.393   6.897 -0.5032  0.3002  0.2174
 3042SOL    HW120585   0.822   4.345   6.822 -2.5744  0.0450  1.3272
 3042SOL    HW220586   0.915   4.331   6.941 -0.0659  0.0928 -0.6580
 3043SOL     OW20587   0.360   0.278  13.628 -0.6530 -0.3700 -0.1391
 3043SOL    HW120588   0.451   0.264  13.603 -0.8498 -1.1257 -0.4298
 3043SOL    HW220589   0.368   0.371  13.647 -1.3923  0.0837 -2.0393
 3044SOL     OW20590   4.175   3.122   7.575  0.0100  0.1207 -0.3564
 3044SOL    HW120591   4.172   3.186   7.647 -0.7099 -1.3221  0.8855
 3044SOL    HW220592   4.112   3.054   7.599  0.6122 -0.6406 -0.9314
 3045SOL     OW20593   3.937   2.691   3.601  0.3061  0.2072  0.1005
 3045SOL    HW120594   3.856   2.643   3.587 -0.1747  2.6561 -5.5237
 3045SOL    HW220595   3.919   2.767   3.546 -0.3858  0.0135  0.0672
 3046SOL     OW20596   2.577   2.863   6.735  0.3222  0.1410  0.3982
 3046SOL    HW120597   2.510   2.908   6.683  0.5095  1.3894  1.2308
 3046SOL    HW220598   2.599   2.785   6.685 -0.7334  0.1734 -0.1147
 3047SOL     OW20599   3.816   4.655  12.289  0.3633 -0.8307 -0.9931
 3047SOL    HW120600   3.814   4.635  12.382  0.0375  1.4623 -0.5031
 3047SOL    HW220601   3.889   4.717  12.282 -0.4010  0.4164  2.2314
 3048SOL     OW20602   2.824   4.498   8.535  0.0906 -0.0998 -0.3848
 3048SOL    HW120603   2.844   4.405   8.549  2.3619  0.2259 -1.4608
 3048SOL    HW220604   2.828   4.530   8.625 -1.1632 -1.1517  0.0514
 3049SOL     OW20605   2.178   4.043   6.781 -0.7143 -0.1627  0.7278
 3049SOL    HW120606   2.102   4.034   6.723 -1.2199  1.0308  1.2048
 3049SOL    HW220607   2.155   4.117   6.837 -0.9985 -0.2223  0.6910
 3050SOL     OW20608   0.093   0.717   9.590 -0.7893  0.2416  1.1986
 3050SOL    HW120609   0.161   0.784   9.589 -0.1304 -0.4551 -0.3121
 3050SOL    HW220610   0.045   0.743   9.668  0.4130  1.0427  1.6750
 3051SOL     OW20611   3.932   3.909   8.238 -0.2978  0.0037  0.4000
 3051SOL    HW120612   3.948   4.002   8.252 -4.2999  0.3485  2.6659
 3051SOL    HW220613   3.997   3.870   8.297  1.6465  2.6946  0.0545
 3052SOL     OW20614   0.436   0.787   5.690 -0.0614 -0.2770 -0.2938
 3052SOL    HW120615   0.387   0.820   5.765 -2.2318 -1.6343 -1.0914
 3052SOL    HW220616   0.411   0.850   5.622 -1.6122 -2.0005 -1.3425
 3053SOL     OW20617   1.316   0.181   4.051  0.0356  0.7535  0.7144
 3053SOL    HW120618   1.306   0.273   4.076  0.6435  1.9805 -3.4655
 3053SOL    HW220619   1.223   0.161   4.050 -0.1079  1.4657 -0.4123
 3054SOL     OW20620   2.484   1.646   4.175 -0.3627  0.2259  0.4182
 3054SOL    HW120621   2.527   1.580   4.230 -1.3741 -1.9437 -1.3764
 3054SOL    HW220622   2.537   1.638   4.096  1.2135  1.2442  1.3598
 3055SOL     OW20623   2.714   3.937   9.287  0.4604  0.3906 -0.7399
 3055SOL    HW120624   2.747   4.015   9.242 -0.4507  0.2015 -1.7374
 3055SOL    HW220625   2.626   3.934   9.249  0.1625 -0.5878  0.0099
 3056SOL     OW20626   3.705   2.394   8.551  0.2188 -0.1168  0.0159
 3056SOL    HW120627   3.759   2.467   8.522  0.8665 -0.7305 -0.3219
 3056SOL    HW220628   3.671   2.442   8.626 -0.2352 -1.1861  0.4879
 3057SOL     OW20629   1.617   2.526   0.495  0.4745 -0.0334 -0.1693
 3057SOL    HW120630   1.647   2.583   0.424  1.7052  1.9830  1.9611
 3057SOL    HW220631   1.633   2.592   0.563  0.7380  0.1726 -0.4279
 3058SOL     OW20632   2.605   3.909   7.111  0.7608  0.5547  0.1966
 3058SOL    HW120633   2.608   3.950   7.025 -2.6870  0.5488  0.0696
 3058SOL    HW220634   2.513   3.925   7.128  0.8588  0.2011  1.0496
 3059SOL     OW20635   1.722   2.212  14.644 -0.4820 -0.1224 -0.0050
 3059SOL    HW120636   1.629   2.209  14.667 -0.5681 -0.0956 -0.3574
 3059SOL    HW220637   1.742   2.121  14.664  1.9965  0.4371  0.0625
 3060SOL     OW20638   0.387   3.930   3.077 -0.3799  0.0066  0.7538
 3060SOL    HW120639   0.447   3.991   3.121 -0.7622  0.8496  0.1219
 3060SOL    HW220640   0.306   3.980   3.068  0.3162  0.7424 -1.7348
 3061SOL     OW20641   1.196   0.686   6.821 -0.0032 -0.0345 -0.2717
 3061SOL    HW120642   1.185   0.768   6.773  0.8539 -0.3176 -0.9447
 3061SOL    HW220643   1.280   0.699   6.865  1.7540 -0.2747 -3.6043
 3062SOL     OW20644   2.954   2.686   9.390 -0.1141  0.3390  0.4688
 3062SOL    HW120645   3.015   2.680   9.463 -1.1821  2.4169  1.5549
 3062SOL    HW220646   2.982   2.623   9.324  2.4317  1.9493  0.0217
 3063SOL     OW20647   0.448   0.956   1.934 -0.1413  0.0629  0.4645
 3063SOL    HW120648   0.355   0.947   1.916  0.0737 -2.1523  0.4221
 3063SOL    HW220649   0.480   0.907   1.859 -1.5942  0.5133 -0.4397
 3064SOL     OW20650   1.546   2.610   3.458 -0.4531 -0.5679  0.0968
 3064SOL    HW120651   1.611   2.601   3.389 -0.7079 -2.5932  0.1072
 3064SOL    HW220652   1.507   2.524   3.476  1.4736 -1.6905 -1.1362
 3065SOL     OW20653   3.576   2.543  11.120 -0.0265 -0.1354  0.2236
 3065SOL    HW120654   3.613   2.620  11.076  1.3342 -0.6054  0.5641
 3065SOL    HW220655   3.513   2.592  11.173  0.4250 -0.3392  0.9412
 3066SOL     OW20656   0.660   4.494   5.566  0.5680 -0.1805  0.0484
 3066SOL    HW120657   0.621   4.508   5.653 -3.1996 -1.5133 -1.4303
 3066SOL    HW220658   0.584   4.447   5.531 -0.5009  1.4064  0.2548
 3067SOL     OW20659   3.342   2.354  17.203  0.5455 -0.5089  0.5911
 3067SOL    HW120660   3.432   2.370  17.176 -0.6454 -0.3287 -3.2763
 3067SOL    HW220661   3.333   2.437  17.250 -0.6350 -0.5247  0.4116
 3068SOL     OW20662   1.594   0.387  16.280  0.2476  0.7078 -0.2744
 3068SOL    HW120663   1.553   0.447  16.218 -1.0577 -1.3009 -1.3307
 3068SOL    HW220664   1.681   0.373  16.243  0.7437  2.0133  0.3901
 3069SOL     OW20665   1.225   1.574   7.242 -0.2676 -0.3401  0.1174
 3069SOL    HW120666   1.188   1.658   7.216 -0.6107 -0.4883  0.1307
 3069SOL    HW220667   1.155   1.534   7.293 -0.8059 -0.3417 -0.6422
 3070SOL     OW20668   4.276   0.123   6.231  0.4099  0.1523 -0.0656
 3070SOL    HW120669   4.263   0.039   6.274  1.3511 -0.5349 -1.1147
 3070SOL    HW220670   4.343   0.107   6.164  1.6013 -1.1642  1.4468
 3071SOL     OW20671   3.951   1.981   1.496 -0.8249  0.2567 -0.4529
 3071SOL    HW120672   4.021   1.994   1.560 -0.7500  0.4798 -0.5809
 3071SOL    HW220673   3.996   2.016   1.420 -1.1867 -1.5033 -1.4759
 3072SOL     OW20674   0.391   1.612  13.954  0.1754  0.3424 -0.2559
 3072SOL    HW120675   0.336   1.536  13.934  0.5532  0.1706 -0.6377
 3072SOL    HW220676   0.471   1.579  13.994  0.7116  0.3882 -1.2890
 3073SOL     OW20677   2.505   0.597   5.978 -0.2767 -0.3785 -0.3938
 3073SOL    HW120678   2.485   0.629   5.890 -0.4334 -3.5165 -1.4930
 3073SOL    HW220679   2.590   0.641   5.990 -0.0800  0.1158 -3.5430
 3074SOL     OW20680   3.510   1.975   3.696  0.1808  0.2621  0.1768
 3074SOL    HW120681   3.423   1.974   3.736  0.4150  0.4291  0.7008
 3074SOL    HW220682   3.553   1.914   3.756  0.0069 -1.0844 -1.0796
 3075SOL     OW20683   0.211   4.045   4.721 -0.3058 -0.4074  0.3763
 3075SOL    HW120684   0.261   4.124   4.744  1.1761 -0.2293 -3.3898
 3075SOL    HW220685   0.120   4.071   4.708  0.1782  1.2749  0.3773
 3076SOL     OW20686   3.342   1.335   3.610  0.4731  1.1225  0.1843
 3076SOL    HW120687   3.267   1.293   3.651  0.4058  1.6842  0.6269
 3076SOL    HW220688   3.371   1.269   3.547 -0.6811 -0.3455  1.1840
 3077SOL     OW20689   4.098   4.514   5.639  0.2333  0.3389 -0.2091
 3077SOL    HW120690   4.119   4.562   5.719 -0.2979  1.0510 -0.5007
 3077SOL    HW220691   4.114   4.420   5.653  1.6163  0.9852  2.5716
 3078SOL     OW20692   2.644   1.133  15.603 -0.3500  0.3267  0.1326
 3078SOL    HW120693   2.689   1.216  15.620  0.9666  0.2913 -3.0873
 3078SOL    HW220694   2.699   1.073  15.553 -2.0583  0.2803 -1.6708
 3079SOL     OW20695   1.843   3.364  10.585  0.3369  0.2998  0.3840
 3079SOL    HW120696   1.787   3.366  10.663 -1.4842 -0.2615 -0.9238
 3079SOL    HW220697   1.928   3.361  10.629  0.5053 -0.9592 -0.0268
 3080SOL     OW20698   0.874   1.958   7.297  0.0408  0.1364 -0.0740
 3080SOL    HW120699   0.924   1.911   7.231  2.1019 -0.0590  1.6511
 3080SOL    HW220700   0.891   1.898   7.369 -1.2894  0.0133  0.1440
 3081SOL     OW20701   2.113   1.608   7.177 -0.3263  0.1864  0.3178
 3081SOL    HW120702   2.049   1.587   7.109 -0.6018 -1.6755  1.1452
 3081SOL    HW220703   2.085   1.542   7.240 -1.8975  1.0058  0.4934
 3082SOL     OW20704   1.336   1.301   9.489 -0.5715 -0.0824  0.1820
 3082SOL    HW120705   1.271   1.262   9.431  0.5752 -0.5852 -0.7724
 3082SOL    HW220706   1.334   1.226   9.548 -2.0625  1.3410  1.9552
 3083SOL     OW20707   2.056   1.823  16.406 -0.1691  0.7451 -0.6506
 3083SOL    HW120708   2.028   1.810  16.315  2.4370 -0.7338 -1.2257
 3083SOL    HW220709   2.124   1.890  16.396  0.5805  0.5988  3.5775
 3084SOL     OW20710   4.044   2.732   7.798 -0.3623  0.2184  0.0140
 3084SOL    HW120711   3.990   2.678   7.857  2.7280 -1.5219  1.2802
 3084SOL    HW220712   4.119   2.749   7.855  1.7827 -0.7086 -2.5330
 3085SOL     OW20713   0.348   2.164  17.154  0.0089 -0.0844  0.8667
 3085SOL    HW120714   0.394   2.245  17.179  2.7054 -0.5278 -2.7213
 3085SOL    HW220715   0.334   2.173  17.060  1.2737 -1.6501  0.5371
 3086SOL     OW20716   0.067   1.031   6.925  0.6908 -0.4317  0.4234
 3086SOL    HW120717   0.131   1.098   6.901 -1.6196  0.8458 -2.2312
 3086SOL    HW220718   0.033   0.992   6.844 -1.1419  1.9507  0.0419
 3087SOL     OW20719   3.946   1.924  14.411  0.0336  0.3737  0.1981
 3087SOL    HW120720   3.973   1.994  14.470  1.6641  0.7583 -0.9953
 3087SOL    HW220721   3.969   1.848  14.464  0.2551  0.5828  0.3992
 3088SOL     OW20722   2.343   2.285   2.951  0.3447 -0.1576 -0.2325
 3088SOL    HW120723   2.311   2.375   2.946 -0.0372 -0.2348  0.8189
 3088SOL    HW220724   2.353   2.263   2.858 -0.9842 -2.4030  0.1445
 3089SOL     OW20725   4.374   0.644   6.222 -0.0139 -0.5521 -0.3135
 3089SOL    HW120726   4.305   0.592   6.181 -1.3782  0.8497  0.1928
 3089SOL    HW220727   4.447   0.583   6.232  1.4976  1.4357  0.6837
 3090SOL     OW20728   1.960   1.774   9.597 -0.2639 -0.0219  0.4980
 3090SOL    HW120729   1.876   1.739   9.626 -0.4758  1.0490  1.1732
 3090SOL    HW220730   1.921   1.853   9.558  1.3068  1.3612  1.7024
 3091SOL     OW20731   4.316   3.558  16.044 -0.0775  0.3576 -0.5498
 3091SOL    HW120732   4.357   3.527  15.963  0.7999 -0.0656  0.0605
 3091SOL    HW220733   4.291   3.644  16.009 -0.3385  0.9006  0.9968
 3092SOL     OW20734   3.992   1.687   8.487 -0.3513  0.2871 -0.6621
 3092SOL    HW120735   3.940   1.766   8.474 -0.3522  0.0134 -2.3402
 3092SOL    HW220736   4.020   1.684   8.396  0.5426 -2.6104 -0.3002
 3093SOL     OW20737   1.124   2.055   8.032 -0.1585  0.1528  0.1517
 3093SOL    HW120738   1.200   2.020   7.987  0.2771  0.7942  0.3894
 3093SOL    HW220739   1.154   2.098   8.112  0.6995 -1.3607  0.6389
 3094SOL     OW20740   2.031   3.755  12.158 -0.2012  0.8806 -0.4416
 3094SOL    HW120741   2.029   3.673  12.208 -0.5352  1.5612  0.6573
 3094SOL    HW220742   2.057   3.728  12.070  0.5559 -1.7348  0.5868
 3095SOL     OW20743   4.387   4.135   0.684 -0.1039 -0.4647 -0.1806
 3095SOL    HW120744   4.473   4.101   0.662 -0.9590 -1.6831 -1.5818
 3095SOL    HW220745   4.329   4.097   0.618 -1.9839  0.0104  1.1849
 3096SOL     OW20746   3.731   0.886  12.436  0.1286  0.2231  0.1964
 3096SOL    HW120747   3.662   0.882  12.503 -1.9293  3.1330 -1.7455
 3096SOL    HW220748   3.719   0.980  12.421 -2.1683 -0.3438 -1.7031
 3097SOL     OW20749   1.987   1.360   2.402 -0.2990  0.2121 -0.1335
 3097SOL    HW120750   1.946   1.343   2.487  0.9875 -1.1678  0.2124
 3097SOL    HW220751   1.988   1.270   2.368  1.8818  1.1243 -2.4905
 3098SOL     OW20752   0.232   0.769   5.374  0.3195  0.3525 -0.1300
 3098SOL    HW120753   0.184   0.772   5.457 -1.1483  0.4165 -0.9805
 3098SOL    HW220754   0.232   0.675   5.357 -0.9561  0.2092  0.6762
 3099SOL     OW20755   4.505   4.441  13.519  0.0628  0.2748  0.3668
 3099SOL    HW120756   4.501   4.520  13.572 -1.2186  0.4025  0.0761
 3099SOL    HW220757   4.600   4.431  13.521  0.0595  0.3745  1.3994
 3100SOL     OW20758   2.070   1.390   1.824  0.3105  0.8067  0.3510
 3100SOL    HW120759   2.163   1.377   1.808  0.2056 -1.5812  1.7693
 3100SOL    HW220760   2.032   1.370   1.739 -0.2045  1.9570  0.2995
 3101SOL     OW20761   1.815   1.343   7.957 -0.0299 -0.0906  0.2707
 3101SOL    HW120762   1.868   1.266   7.937 -0.0705 -0.4327  1.5103
 3101SOL    HW220763   1.784   1.374   7.871  0.0520 -1.2063 -0.1689
 3102SOL     OW20764   1.950   0.349   9.734  0.6658  0.1663  0.2008
 3102SOL    HW120765   1.996   0.380   9.811  0.9621  0.1112  0.0440
 3102SOL    HW220766   1.961   0.259   9.765  2.3549  0.3724  0.1994
 3103SOL     OW20767   4.436   2.337   5.526 -0.5102 -0.0743  0.1026
 3103SOL    HW120768   4.377   2.401   5.487 -1.7515 -0.8618  0.6923
 3103SOL    HW220769   4.376   2.273   5.564  0.1954 -0.5634  0.4021
 3104SOL     OW20770   3.920   3.225   2.222 -0.2533 -0.1014  0.2989
 3104SOL    HW120771   3.881   3.188   2.142 -0.3387  1.7071 -0.4893
 3104SOL    HW220772   3.927   3.314   2.187  1.4454 -0.0191  0.8764
 3105SOL     OW20773   4.534   3.492   4.588 -0.5443  0.8573 -0.6964
 3105SOL    HW120774   4.494   3.553   4.650 -1.1463 -0.2682  0.0216
 3105SOL    HW220775   4.471   3.420   4.596 -0.6947  1.0213 -0.4226
 3106SOL     OW20776   1.413   4.466  14.141 -0.2510 -0.4295  0.1989
 3106SOL    HW120777   1.335   4.502  14.099 -0.0270 -0.3133 -0.1158
 3106SOL    HW220778   1.391   4.459  14.233  0.0028  2.8215  0.4944
 3107SOL     OW20779   3.321   3.708   9.021  0.2871  0.7419  0.1875
 3107SOL    HW120780   3.271   3.689   9.100  0.3118 -1.5215 -0.3189
 3107SOL    HW220781   3.247   3.721   8.962 -0.3453  2.3522  1.3637
 3108SOL     OW20782   1.034   4.187   6.620  0.3570  0.3725 -0.0254
 3108SOL    HW120783   1.128   4.180   6.601  0.1718  0.2769 -0.8955
 3108SOL    HW220784   0.990   4.141   6.549  1.4661 -1.2530  0.3281
 3109SOL     OW20785   1.348   1.074  12.356  0.5603  0.5443  0.5428
 3109SOL    HW120786   1.417   1.056  12.292  0.8258 -1.5019  1.4240
 3109SOL    HW220787   1.366   1.168  12.354 -0.6291  0.7920  1.3099
 3110SOL     OW20788   1.753   4.310   4.848  0.1472  0.1888  0.7080
 3110SOL    HW120789   1.752   4.346   4.759 -0.7325  1.3646  1.2098
 3110SOL    HW220790   1.821   4.366   4.885 -0.4846  1.2198  0.3122
 3111SOL     OW20791   2.016   1.036   9.312 -0.2057  0.5483 -0.9839
 3111SOL    HW120792   1.938   0.990   9.280 -0.1650 -1.4261  1.7054
 3111SOL    HW220793   2.038   1.096   9.241 -2.0107  1.2919 -0.8903
 3112SOL     OW20794   0.381   2.783   2.124 -0.0280  0.0378 -0.2685
 3112SOL    HW120795   0.335   2.793   2.041  0.1026  0.9823 -0.2197
 3112SOL    HW220796   0.444   2.855   2.120  1.1570 -1.1261 -2.2682
 3113SOL     OW20797   3.080   1.373   0.898  0.0607 -0.6775  0.3032
 3113SOL    HW120798   3.060   1.291   0.942  0.1066 -2.2874 -2.6641
 3113SOL    HW220799   3.150   1.411   0.951  0.1364 -0.3398 -0.0337
 3114SOL     OW20800   1.084   3.814   8.630  0.6116  0.4061  0.0596
 3114SOL    HW120801   1.134   3.767   8.696  2.7204  2.0510 -0.3719
 3114SOL    HW220802   1.024   3.877   8.671  2.0680  1.0110  1.2702
 3115SOL     OW20803   1.502   2.636   8.556 -0.2659 -0.3621  0.4300
 3115SOL    HW120804   1.505   2.564   8.618 -1.2483  0.6821  1.6929
 3115SOL    HW220805   1.440   2.699   8.593 -1.1303 -1.1440  0.2971
 3116SOL     OW20806   2.904   4.171  14.212 -0.0934  0.0103 -0.2114
 3116SOL    HW120807   2.846   4.164  14.136 -0.7978  1.7650  0.1768
 3116SOL    HW220808   2.953   4.089  14.206 -0.1772  0.0647 -1.6301
 3117SOL     OW20809   1.295   0.514   5.412 -0.0675 -0.5314  0.2680
 3117SOL    HW120810   1.247   0.520   5.330 -0.6824  0.5673  0.7054
 3117SOL    HW220811   1.355   0.589   5.403 -1.3663  0.4491 -0.2415
 3118SOL     OW20812   3.886   0.946  11.658 -0.5010  0.0711  0.3315
 3118SOL    HW120813   3.809   0.900  11.622 -1.1743 -0.8432  2.9352
 3118SOL    HW220814   3.894   0.915  11.748 -0.1096 -0.7004  0.0338
 3119SOL     OW20815   2.191   2.735  12.136 -0.0781 -0.1561 -0.6225
 3119SOL    HW120816   2.196   2.640  12.121 -0.7509 -0.5634  1.8233
 3119SOL    HW220817   2.205   2.745  12.230 -1.1938 -0.3443 -0.4415
 3120SOL     OW20818   4.134   0.474   5.919 -0.1360 -0.2353 -0.1120
 3120SOL    HW120819   4.224   0.483   5.885 -1.2144  1.1432 -2.6508
 3120SOL    HW220820   4.101   0.557   5.885 -0.0747 -1.0492 -2.1545
 3121SOL     OW20821   0.193   0.680   9.204 -0.1016 -0.7708 -1.0918
 3121SOL    HW120822   0.107   0.640   9.194  0.6687 -2.5717 -0.5219
 3121SOL    HW220823   0.252   0.614   9.167  2.9752  0.6143  1.3190
 3122SOL     OW20824   0.523   0.859   8.637 -0.0285  0.4789 -0.2615
 3122SOL    HW120825   0.565   0.891   8.557  0.7431 -0.3990 -0.2060
 3122SOL    HW220826   0.471   0.938   8.651 -1.8045 -0.7179 -0.1693
 3123SOL     OW20827   3.293   1.455   1.448 -0.2755  0.1504  0.0253
 3123SOL    HW120828   3.355   1.399   1.399 -0.8933  0.4198 -1.0707
 3123SOL    HW220829   3.317   1.448   1.540  0.9292  0.2961 -0.2758
 3124SOL     OW20830   4.703   1.017   3.240 -0.0192 -0.4895 -0.3526
 3124SOL    HW120831   0.059   1.056   3.281 -0.5636  2.3929 -2.0552
 3124SOL    HW220832   4.699   1.081   3.168 -0.8126 -0.1909 -0.0416
 3125SOL     OW20833   2.437   0.153   8.168 -0.4269 -0.8976 -0.4514
 3125SOL    HW120834   2.368   0.089   8.149  0.1735 -1.4775 -0.6902
 3125SOL    HW220835   2.416   0.219   8.102 -0.1460  0.9284  1.3140
 3126SOL     OW20836   0.599   2.646  15.935  0.6108  0.1382  0.0191
 3126SOL    HW120837   0.662   2.713  15.962  2.0184 -0.5979 -1.4348
 3126SOL    HW220838   0.658   2.595  15.879 -1.9306 -1.4850 -1.1955
 3127SOL     OW20839   0.738   4.507   2.205 -0.0015 -0.0810  0.1640
 3127SOL    HW120840   0.731   4.602   2.210 -0.7112 -0.0477 -1.3634
 3127SOL    HW220841   0.647   4.475   2.201 -0.5747  1.2269  2.5451
 3128SOL     OW20842   0.317   0.336   8.580 -0.3313  0.1030  0.3012
 3128SOL    HW120843   0.287   0.400   8.514  1.8018 -1.0185 -1.7408
 3128SOL    HW220844   0.383   0.381   8.633  1.5027  0.6610 -2.4073
 3129SOL     OW20845   4.085   1.710  11.844 -0.0228 -0.3150  0.3980
 3129SOL    HW120846   4.117   1.755  11.923  1.5895  1.6701 -1.3873
 3129SOL    HW220847   4.068   1.781  11.782  0.5127 -1.8164 -1.4429
 3130SOL     OW20848   0.615   1.635   3.329 -0.0738  0.6130  0.4240
 3130SOL    HW120849   0.540   1.575   3.324 -0.3870  1.0753 -0.4629
 3130SOL    HW220850   0.678   1.565   3.343 -2.4065 -1.2489  1.6065
 3131SOL     OW20851   3.150   3.095   5.923 -0.1617  0.0081 -0.1515
 3131SOL    HW120852   3.135   3.186   5.949  2.4014  0.2005  0.6517
 3131SOL    HW220853   3.155   3.046   6.005 -0.3340  0.7637  0.3110
 3132SOL     OW20854   0.582   2.978   4.332 -0.2067  0.0218  0.0415
 3132SOL    HW120855   0.633   2.957   4.410 -0.8058 -0.7632  0.2250
 3132SOL    HW220856   0.495   2.955   4.365  1.1825 -0.9736  2.9974
 3133SOL     OW20857   0.310   2.852  11.736  0.3661 -0.5643  0.0315
 3133SOL    HW120858   0.222   2.845  11.698  0.9786  1.6567 -1.8199
 3133SOL    HW220859   0.302   2.820  11.826 -0.7702 -2.2794 -0.6951
 3134SOL     OW20860   0.471   1.880   0.947 -0.2608  0.2081  0.8200
 3134SOL    HW120861   0.443   1.893   0.856  2.9705  0.7062 -0.1314
 3134SOL    HW220862   0.432   1.793   0.950  1.7566 -0.6958  1.0469
 3135SOL     OW20863   1.115   3.407   4.625  0.1420  0.2758 -0.4224
 3135SOL    HW120864   1.159   3.323   4.619  1.5639  1.0905 -1.4667
 3135SOL    HW220865   1.157   3.455   4.554  0.5874 -0.2357 -0.5009
 3136SOL     OW20866   3.012   0.270  15.236  0.0165 -0.4634 -0.7420
 3136SOL    HW120867   3.027   0.364  15.229 -1.2873 -0.1439  0.7761
 3136SOL    HW220868   3.033   0.245  15.326  0.5722  3.0410  0.1080
 3137SOL     OW20869   3.113   4.430   7.107 -0.1581  0.0741 -0.2016
 3137SOL    HW120870   3.203   4.397   7.107 -0.4035 -0.6099  2.5475
 3137SOL    HW220871   3.072   4.349   7.076  0.4656  0.4229 -1.9279
 3138SOL     OW20872   3.184   2.430   4.140  0.1387  0.2903  0.1924
 3138SOL    HW120873   3.148   2.435   4.228  0.3745  1.6547  0.2134
 3138SOL    HW220874   3.256   2.375   4.169 -1.0062 -2.1000 -1.4924
 3139SOL     OW20875   0.475   1.632   2.902 -0.0566  0.7288  0.1367
 3139SOL    HW120876   0.537   1.683   2.851  0.6869  0.3382  0.6467
 3139SOL    HW220877   0.483   1.684   2.982 -0.4298  2.1333 -0.7461
 3140SOL     OW20878   1.836   1.842   5.584  0.0153  0.1016  0.3856
 3140SOL    HW120879   1.814   1.834   5.676 -0.9559  1.4257  0.2819
 3140SOL    HW220880   1.765   1.901   5.557  0.4903  0.5852  0.1881
 3141SOL     OW20881   2.228   3.488   9.994  0.3792  0.5706 -0.6149
 3141SOL    HW120882   2.321   3.475  10.013 -0.3277 -3.8020 -0.2940
 3141SOL    HW220883   2.187   3.408  10.025  0.9755  0.3864 -0.2902
 3142SOL     OW20884   2.361   2.220  15.355 -0.2083 -0.4815 -0.1347
 3142SOL    HW120885   2.425   2.152  15.338  1.1802  1.8206 -4.1365
 3142SOL    HW220886   2.365   2.230  15.450 -3.0058 -0.1391 -0.0441
 3143SOL     OW20887   2.428   2.720  14.574  0.1561 -0.5498  0.3593
 3143SOL    HW120888   2.438   2.645  14.632 -1.6828 -1.8096 -0.9847
 3143SOL    HW220889   2.413   2.679  14.489  1.0931 -0.9747  0.3934
 3144SOL     OW20890   1.754   3.958   4.104 -0.5364 -0.3083 -0.2713
 3144SOL    HW120891   1.845   3.977   4.125  0.0025 -2.5359 -0.5882
 3144SOL    HW220892   1.766   3.882   4.048 -0.0019  0.4125 -1.1487
 3145SOL     OW20893   0.673   4.695  14.008 -0.0892  0.1631 -0.1792
 3145SOL    HW120894   0.746   4.634  13.993 -2.8395 -2.9733 -0.9924
 3145SOL    HW220895   0.687   4.720  13.916 -2.5698 -0.1191 -0.6440
 3146SOL     OW20896   4.054   3.933  11.775 -0.4477 -0.0476  0.2991
 3146SOL    HW120897   4.106   3.853  11.777 -0.5417 -0.1303 -0.6767
 3146SOL    HW220898   3.986   3.916  11.840 -1.5481  0.3630 -0.7612
 3147SOL     OW20899   1.683   4.022   5.643  0.1327  0.3107 -0.0243
 3147SOL    HW120900   1.618   4.091   5.637  1.3576  1.2866 -2.2788
 3147SOL    HW220901   1.723   4.007   5.557 -0.2031 -0.6118 -0.0208
 3148SOL     OW20902   3.606   4.487   1.516 -0.7193  0.3138  0.2753
 3148SOL    HW120903   3.630   4.455   1.429 -0.0770  3.1883 -0.6140
 3148SOL    HW220904   3.587   4.578   1.493 -0.4633  0.5142  0.8627
 3149SOL     OW20905   0.677   4.102   1.711  0.1453 -0.7451  0.1072
 3149SOL    HW120906   0.713   4.101   1.622  0.4257 -4.0112  0.2314
 3149SOL    HW220907   0.669   4.009   1.731  4.2920 -1.3436 -1.1403
 3150SOL     OW20908   0.723   0.707  12.979 -0.6302 -0.0197  0.0713
 3150SOL    HW120909   0.748   0.672  12.893 -0.6073  1.9113 -0.7258
 3150SOL    HW220910   0.740   0.800  12.963  1.3803 -0.7754 -2.1973
 3151SOL     OW20911   2.820   0.389   8.190 -0.0613  0.1625  0.3240
 3151SOL    HW120912   2.904   0.392   8.236 -0.4065 -2.7225  1.1465
 3151SOL    HW220913   2.829   0.305   8.144  1.0223  0.7149 -0.4833
 3152SOL     OW20914   2.090   0.180   3.665  0.3474  0.2506  0.1368
 3152SOL    HW120915   2.036   0.139   3.733  1.1201  1.6017  1.5522
 3152SOL    HW220916   2.031   0.164   3.591 -0.5961 -1.9799  1.3693
 3153SOL     OW20917   3.504   0.338   7.444 -0.3446 -0.0305 -0.0559
 3153SOL    HW120918   3.429   0.370   7.493 -1.0167  0.0202 -1.1085
 3153SOL    HW220919   3.561   0.415   7.445  1.0354 -1.0551 -0.1700
 3154SOL     OW20920   0.112   0.787   5.610 -0.0458 -0.3410  0.6009
 3154SOL    HW120921   0.071   0.702   5.624  1.4572 -0.8890  1.6876
 3154SOL    HW220922   0.132   0.808   5.701  1.7775 -0.0710  0.1451
 3155SOL     OW20923   0.622   2.573   7.155  0.1330 -0.0480 -0.0494
 3155SOL    HW120924   0.684   2.644   7.173  0.2864 -0.2553  0.2383
 3155SOL    HW220925   0.651   2.549   7.067 -2.3361 -2.2347 -0.2558
 3156SOL     OW20926   0.831   3.150   5.723  0.1037  0.0553  0.0057
 3156SOL    HW120927   0.768   3.189   5.663  1.1343  1.6392 -0.0561
 3156SOL    HW220928   0.810   3.180   5.812 -0.8160  1.0566 -0.5618
 3157SOL     OW20929   2.015   4.144  15.513 -0.3424  0.0919  0.1621
 3157SOL    HW120930   2.013   4.053  15.544 -1.1899  0.1069  0.1576
 3157SOL    HW220931   1.967   4.145  15.430  3.8453 -1.3259 -2.2564
 3158SOL     OW20932   0.170   2.757   2.361  0.4816 -0.1664 -0.1976
 3158SOL    HW120933   0.227   2.815   2.412 -0.2120  0.5358 -0.2217
 3158SOL    HW220934   0.225   2.743   2.284  1.3252  1.7304  0.0556
 3159SOL     OW20935   2.781   1.085   5.637 -0.4665 -0.1403 -0.8283
 3159SOL    HW120936   2.775   1.171   5.679 -0.1336 -0.2366 -0.5857
 3159SOL    HW220937   2.819   1.108   5.553  3.2263 -1.8301  0.3665
 3160SOL     OW20938   2.186   4.514   8.746 -0.3589 -0.1771  0.9072
 3160SOL    HW120939   2.178   4.434   8.694  3.0093  0.3045 -0.3339
 3160SOL    HW220940   2.093   4.537   8.744 -0.2445  0.3810  2.3173
 3161SOL     OW20941   1.708   3.181  12.332 -0.0022 -0.0349  0.1546
 3161SOL    HW120942   1.698   3.132  12.413 -2.3567  1.1759  0.5961
 3161SOL    HW220943   1.762   3.255  12.361  1.4731 -1.0830  0.0822
 3162SOL     OW20944   0.806   3.308   4.518 -0.8313 -0.0321 -0.1891
 3162SOL    HW120945   0.755   3.388   4.508 -1.0674 -0.1792 -0.1616
 3162SOL    HW220946   0.782   3.288   4.609  1.4870  0.6136  0.5737
 3163SOL     OW20947   4.196   0.906   2.470  0.0468 -0.7050  0.4451
 3163SOL    HW120948   4.287   0.935   2.478  0.1274 -0.7247 -0.4057
 3163SOL    HW220949   4.172   0.871   2.555 -0.6451 -0.4498  0.3572
 3164SOL     OW20950   1.741   2.443  14.130  0.4494 -0.1795 -0.2899
 3164SOL    HW120951   1.754   2.520  14.073  1.1730  1.3189  1.9139
 3164SOL    HW220952   1.809   2.462  14.194 -0.4330 -0.0281  0.5933
 3165SOL     OW20953   0.554   0.091   5.514 -0.2006  0.7439  0.0821
 3165SOL    HW120954   0.545   0.085   5.609  2.6181  0.4340  0.3243
 3165SOL    HW220955   0.483   0.152   5.493  0.7591  1.6017 -0.6324
 3166SOL     OW20956   1.719   3.361   4.088  0.0498 -0.1502 -0.0740
 3166SOL    HW120957   1.793   3.379   4.031 -0.5216 -0.0146 -0.7672
 3166SOL    HW220958   1.755   3.390   4.172 -0.7481  2.3134 -0.5930
 3167SOL     OW20959   2.166   2.153   1.981 -0.2794  0.4887  0.1887
 3167SOL    HW120960   2.240   2.194   2.027  0.1980  0.6676 -0.7460
 3167SOL    HW220961   2.114   2.233   1.967 -1.3624  0.2370  2.7796
 3168SOL     OW20962   1.016   4.337  12.823 -0.4800  0.5359 -0.0594
 3168SOL    HW120963   1.110   4.323  12.836 -1.1012 -3.4112 -0.0188
 3168SOL    HW220964   1.027   4.392  12.745  0.7276  1.0720  0.4714
 3169SOL     OW20965   1.366   0.450  16.455 -0.4794  0.5449 -0.2132
 3169SOL    HW120966   1.388   0.452  16.548 -0.9229 -0.2099 -0.0953
 3169SOL    HW220967   1.451   0.427  16.419 -1.3525 -1.3523 -1.0287
 3170SOL     OW20968   2.391   0.256   6.734  0.3221  0.4564  0.8083
 3170SOL    HW120969   2.377   0.291   6.647  1.3083  2.8753  1.6206
 3170SOL    HW220970   2.417   0.337   6.777  1.7026  0.2097  0.4384
 3171SOL     OW20971   1.299   0.867   7.323  0.0718  0.3411 -0.1211
 3171SOL    HW120972   1.238   0.810   7.370 -0.0419  3.5939  3.7128
 3171SOL    HW220973   1.391   0.847   7.345 -0.6050 -0.9896  1.5223
 3172SOL     OW20974   3.633   3.813   8.698 -0.6435  0.0405  0.0574
 3172SOL    HW120975   3.661   3.757   8.770  0.6217 -2.2222 -2.1949
 3172SOL    HW220976   3.548   3.776   8.673 -1.8366  2.5457  0.4603
 3173SOL     OW20977   1.501   0.094  16.713 -0.2576 -0.4706 -0.1475
 3173SOL    HW120978   1.454   0.173  16.738  0.5135 -0.1256  0.2138
 3173SOL    HW220979   1.496   0.086  16.617  1.3395 -0.0681 -0.2619
 3174SOL     OW20980   3.306   3.966  13.311 -0.0665 -0.2134 -0.3480
 3174SOL    HW120981   3.386   3.927  13.276 -0.9529 -2.0388 -0.3414
 3174SOL    HW220982   3.254   3.886  13.311  0.7066 -0.7137 -0.1966
 3175SOL     OW20983   0.824   2.566   5.094 -0.3075  0.1696  0.0878
 3175SOL    HW120984   0.765   2.583   5.167  0.7769  1.0375  0.7469
 3175SOL    HW220985   0.761   2.534   5.029  1.4797 -2.0752 -0.5718
 3176SOL     OW20986   4.629   4.511  15.292  0.1083 -0.0868 -0.7840
 3176SOL    HW120987   4.617   4.558  15.210 -1.5625  1.0147  0.0952
 3176SOL    HW220988   4.543   4.481  15.324  0.4931  0.7843  1.0581
 3177SOL     OW20989   1.687   2.211   3.460  0.0338 -0.4728 -0.7489
 3177SOL    HW120990   1.747   2.196   3.386 -0.6234 -1.4445 -1.0905
 3177SOL    HW220991   1.717   2.145   3.523  1.6380  1.4645  0.4983
 3178SOL     OW20992   2.733   4.097   5.974  0.8275  0.1315  0.4401
 3178SOL    HW120993   2.712   4.116   5.882  1.5892  0.4591  0.3340
 3178SOL    HW220994   2.732   4.183   6.016  0.3953  0.5525 -0.4431
 3179SOL     OW20995   2.210   1.500   5.847  0.1605 -0.1416  0.0328
 3179SOL    HW120996   2.226   1.418   5.894 -2.1945  1.2645  3.3048
 3179SOL    HW220997   2.291   1.513   5.798 -0.5361 -1.4109 -1.4076
 3180SOL     OW20998   0.992   2.129   6.601  0.9175  0.2000  0.1138
 3180SOL    HW120999   1.068   2.158   6.551 -0.7771  0.2826 -2.4406
 3180SOL    HW221000   0.934   2.199   6.570  0.1408  0.3426  1.9438
 3181SOL     OW21001   0.282   1.936   8.200  0.3749  0.3945  0.1761
 3181SOL    HW121002   0.374   1.941   8.227  1.2993 -3.8998 -2.0652
 3181SOL    HW221003   0.268   2.025   8.167  0.9713  0.4854  0.1647
 3182SOL     OW21004   0.314   1.895  12.618  0.3386  0.1488  0.2624
 3182SOL    HW121005   0.273   1.953  12.682  1.4778  0.0911  1.0345
 3182SOL    HW221006   0.265   1.817  12.642  0.4421  0.2978  0.9513
 3183SOL     OW21007   1.092   2.413   4.757 -0.2856  0.4221 -0.2561
 3183SOL    HW121008   1.087   2.473   4.832  1.2267  0.7655 -0.4287
 3183SOL    HW221009   1.146   2.466   4.698  2.7424 -1.6260  0.6636
 3184SOL     OW21010   1.989   3.886  11.877 -0.3834  0.0874 -0.2095
 3184SOL    HW121011   2.058   3.846  11.825  1.1205  1.2140  0.9195
 3184SOL    HW221012   1.956   3.950  11.814  0.4865  0.1565 -0.5912
 3185SOL     OW21013   2.169   1.930   5.669  0.3720 -0.0360 -0.0890
 3185SOL    HW121014   2.131   1.876   5.600  0.0029 -1.2074  1.0380
 3185SOL    HW221015   2.240   1.960   5.612  0.4355  0.0697  0.0458
 3186SOL     OW21016   2.294   4.142   0.606  0.0336 -0.9106 -0.8013
 3186SOL    HW121017   2.269   4.197   0.681  1.7093 -0.9083 -0.2473
 3186SOL    HW221018   2.388   4.159   0.611 -0.0264 -1.1182  1.0366
 3187SOL     OW21019   0.330   1.845   3.616  0.2157  0.1380  0.1651
 3187SOL    HW121020   0.396   1.843   3.547 -1.9891  1.5310 -1.9954
 3187SOL    HW221021   0.356   1.915   3.675  1.4650  1.0677 -1.4884
 3188SOL     OW21022   1.087   2.186   0.890 -0.4337  0.4296  0.5683
 3188SOL    HW121023   1.132   2.188   0.805 -1.8955 -2.9785 -0.3154
 3188SOL    HW221024   1.125   2.100   0.912 -0.2981  0.1409 -0.7475
 3189SOL     OW21025   3.724   0.817  15.245  0.3357  0.1507 -0.8660
 3189SOL    HW121026   3.765   0.883  15.301  3.7811 -2.3839 -0.3922
 3189SOL    HW221027   3.746   0.854  15.160  1.2155 -2.1244 -1.6332
 3190SOL     OW21028   2.976   3.064   7.515  0.0238 -0.0080 -0.5043
 3190SOL    HW121029   3.022   3.060   7.431 -0.3231 -0.7945 -0.6540
 3190SOL    HW221030   2.894   3.107   7.487  0.4347  2.1582  1.5972
 3191SOL     OW21031   3.738   1.819   4.309 -0.1854  0.2333  0.3173
 3191SOL    HW121032   3.669   1.876   4.276  1.3093  2.0564  0.3788
 3191SOL    HW221033   3.716   1.734   4.269  2.3138 -0.5831  0.6382
 3192SOL     OW21034   3.164   1.204   4.153 -0.3106  0.4198 -0.0869
 3192SOL    HW121035   3.171   1.299   4.165 -0.4753  0.3151  0.8837
 3192SOL    HW221036   3.148   1.193   4.247 -3.5463  1.8505 -0.4627
 3193SOL     OW21037   2.854   0.619   1.558  0.4629 -0.4166  0.2953
 3193SOL    HW121038   2.895   0.534   1.541 -1.0325 -0.7549 -1.5636
 3193SOL    HW221039   2.767   0.590   1.534  0.8739 -1.3049 -0.1281
 3194SOL     OW21040   1.650   4.561   3.686 -0.1532  0.4818  0.4271
 3194SOL    HW121041   1.699   4.480   3.700  0.7899  1.1582  1.0355
 3194SOL    HW221042   1.571   4.532   3.731 -1.6014  0.8300 -1.9173
 3195SOL     OW21043   3.663   3.380  11.129  0.0592  0.4847 -0.0931
 3195SOL    HW121044   3.620   3.455  11.087 -2.9577 -0.3841  1.3793
 3195SOL    HW221045   3.746   3.412  11.094 -1.0530  2.5562 -0.9023
 3196SOL     OW21046   0.602   4.074   3.171 -0.9067 -0.0952 -0.4154
 3196SOL    HW121047   0.619   4.103   3.260  0.5257  0.0168 -0.7142
 3196SOL    HW221048   0.690   4.044   3.146  0.3141  0.7095  2.9612
 3197SOL     OW21049   2.339   3.001   6.648  0.0042 -0.0945 -0.2918
 3197SOL    HW121050   2.343   3.096   6.643  0.3517 -0.2489 -2.6297
 3197SOL    HW221051   2.355   2.980   6.556 -0.0639 -1.1221 -0.0633
 3198SOL     OW21052   4.347   1.028   9.819 -0.6524 -0.1024 -0.4725
 3198SOL    HW121053   4.381   1.028   9.908  1.7255  1.4884 -1.3726
 3198SOL    HW221054   4.253   1.020   9.830 -0.6260  0.0926 -0.1002
 3199SOL     OW21055   2.939   4.353   1.805  0.2941  0.6104  0.0828
 3199SOL    HW121056   2.966   4.406   1.729  1.3091  0.1395  0.1079
 3199SOL    HW221057   3.010   4.289   1.815 -1.2044 -1.1686 -0.7341
 3200SOL     OW21058   1.633   3.023   9.819 -0.7421 -0.6323  0.0818
 3200SOL    HW121059   1.664   2.932   9.816 -2.6031 -1.2697  0.3591
 3200SOL    HW221060   1.696   3.064   9.878 -1.9193 -0.1898  1.0235
 3201SOL     OW21061   3.515   4.665   2.989 -0.1066  0.4698  0.3490
 3201SOL    HW121062   3.541   0.008   2.923 -0.5653  0.3961  0.1023
 3201SOL    HW221063   3.435   4.637   2.946  0.0620  0.2268  0.1982
 3202SOL     OW21064   4.050   4.269   7.934  0.6453  0.0917  0.1179
 3202SOL    HW121065   4.084   4.304   8.017 -2.4497  0.7097  1.1315
 3202SOL    HW221066   4.048   4.177   7.963  0.5255 -0.0249 -0.2674
 3203SOL     OW21067   2.971   0.993   8.745  0.9048  0.1223 -0.0688
 3203SOL    HW121068   2.914   1.068   8.763 -1.5217 -1.4550 -1.1109
 3203SOL    HW221069   3.029   1.004   8.821  0.3307  1.7187  0.1283
 3204SOL     OW21070   4.417   1.412  10.313  0.1323 -0.0442 -0.1313
 3204SOL    HW121071   4.451   1.336  10.361  0.2232 -0.7931 -1.3682
 3204SOL    HW221072   4.447   1.398  10.223  1.5628  1.1917  0.1500
 3205SOL     OW21073   0.209   4.022   8.275 -0.3437 -0.5874 -0.3086
 3205SOL    HW121074   0.243   4.111   8.266  0.1964 -0.7012  0.6198
 3205SOL    HW221075   0.262   3.988   8.348  0.4351 -0.5073 -0.8394
 3206SOL     OW21076   4.714   3.712   7.921 -0.4332  0.5540  0.2649
 3206SOL    HW121077   4.719   3.624   7.958  0.2602  1.2484  1.8288
 3206SOL    HW221078   0.038   3.758   7.991  1.0190  0.5274 -0.6434
 3207SOL     OW21079   3.444   1.754   5.853  0.2038  0.4203  0.7733
 3207SOL    HW121080   3.537   1.765   5.871  0.7405  1.4487 -2.6237
 3207SOL    HW221081   3.423   1.684   5.915 -0.6049 -0.2078 -0.2120
 3208SOL     OW21082   1.047   0.580   4.268  0.2357  0.6799 -0.2243
 3208SOL    HW121083   1.034   0.575   4.363  2.4146 -0.3844  0.0221
 3208SOL    HW221084   1.029   0.673   4.255  0.4983  1.0204  1.8460
 3209SOL     OW21085   3.112   1.661   1.619 -0.1124 -0.2464 -0.2816
 3209SOL    HW121086   3.061   1.731   1.660 -0.9234 -0.3823 -1.0545
 3209SOL    HW221087   3.133   1.701   1.534 -0.1501  0.6333  0.1253
 3210SOL     OW21088   2.542   0.001   8.839  0.4499  0.0839 -0.1352
 3210SOL    HW121089   2.466   4.700   8.894  0.5647 -0.7002 -0.2976
 3210SOL    HW221090   2.544   0.097   8.849 -1.3285  0.2353 -1.1843
 3211SOL     OW21091   1.512   4.041   4.239 -0.5346  0.0241 -0.4140
 3211SOL    HW121092   1.593   4.019   4.194 -0.7587 -3.3990  0.8968
 3211SOL    HW221093   1.507   3.960   4.289  0.2075  1.5275  2.1429
 3212SOL     OW21094   0.790   0.893   7.735 -0.2342  0.1833 -0.0568
 3212SOL    HW121095   0.738   0.840   7.795  0.1683  2.1315  2.0224
 3212SOL    HW221096   0.835   0.824   7.687  1.5101  1.6514 -0.5518
 3213SOL     OW21097   4.024   0.168   9.558  0.0006  0.1328 -0.4043
 3213SOL    HW121098   4.103   0.222   9.547 -0.4732  0.7625 -0.7646
 3213SOL    HW221099   4.001   0.200   9.645  1.2572  1.6771 -0.6264
 3214SOL     OW21100   2.472   1.602  16.062 -0.3100  0.5281  0.6183
 3214SOL    HW121101   2.385   1.635  16.087 -0.9520  1.1401 -2.4045
 3214SOL    HW221102   2.483   1.631  15.972  1.9170  0.7744  0.9728
 3215SOL     OW21103   2.633   4.017   3.490 -0.2212 -0.5721 -0.3023
 3215SOL    HW121104   2.652   3.944   3.549  2.4265 -0.7308 -1.3541
 3215SOL    HW221105   2.721   4.053   3.491  0.5484 -2.4881  0.1231
 3216SOL     OW21106   2.020   1.091   1.962 -0.0038  0.2562 -0.1091
 3216SOL    HW121107   2.018   1.112   1.869 -2.5460 -1.6942 -0.5008
 3216SOL    HW221108   1.948   1.029   1.969  0.4647 -0.1416  1.1261
 3217SOL     OW21109   2.432   1.229   6.482 -0.0640 -0.1294 -0.1559
 3217SOL    HW121110   2.337   1.235   6.475 -0.0641  1.7729  1.2573
 3217SOL    HW221111   2.443   1.316   6.521  1.5489  0.0935 -1.1183
 3218SOL     OW21112   2.014   3.437  11.368  0.5501 -0.1566  0.5650
 3218SOL    HW121113   2.086   3.431  11.431 -1.6709 -0.5017  3.1213
 3218SOL    HW221114   1.943   3.397  11.420 -0.5659  0.2108 -0.6895
 3219SOL     OW21115   4.517   3.397  16.888 -0.4726  0.2716 -0.1198
 3219SOL    HW121116   4.596   3.380  16.836 -0.8404  0.4755 -0.7520
 3219SOL    HW221117   4.562   3.406  16.972 -0.3969  0.0896 -0.1422
 3220SOL     OW21118   0.933   2.456   9.588 -0.0223  0.0812  0.0737
 3220SOL    HW121119   1.006   2.406   9.552  0.8359  0.3081  1.5022
 3220SOL    HW221120   0.889   2.394   9.646  4.7687 -2.6152  0.8068
 3221SOL     OW21121   3.895   4.033  13.073 -0.1008  0.1057 -0.3886
 3221SOL    HW121122   3.940   4.021  13.156  1.8978 -0.0713 -1.4742
 3221SOL    HW221123   3.951   4.090  13.020 -3.8678  3.7037 -0.5059
 3222SOL     OW21124   0.942   0.814  12.269  0.6518 -0.1065  0.2525
 3222SOL    HW121125   1.034   0.835  12.286  0.5835 -0.6173  1.2309
 3222SOL    HW221126   0.925   0.847  12.180 -0.5524 -0.7180  0.2548
 3223SOL     OW21127   0.780   3.961   0.175 -0.0388 -0.4280  0.3912
 3223SOL    HW121128   0.836   3.888   0.147 -1.0054 -0.6164 -1.0566
 3223SOL    HW221129   0.835   4.035   0.149  1.5937 -1.7126  0.1783
 3224SOL     OW21130   3.521   4.710  13.443  0.7666  0.5805  0.7161
 3224SOL    HW121131   3.602   0.038  13.428  2.0083 -1.7621 -0.1555
 3224SOL    HW221132   3.466   0.023  13.372  3.0434  1.2512 -0.7428
 3225SOL     OW21133   4.129   0.597   6.712  0.0473  0.1769  0.0194
 3225SOL    HW121134   4.081   0.627   6.635 -1.0016 -2.5194 -0.3743
 3225SOL    HW221135   4.097   0.653   6.782  0.1718  2.0637 -1.4283
 3226SOL     OW21136   0.643   1.244   3.719  0.2002  0.1963  0.3481
 3226SOL    HW121137   0.609   1.317   3.771 -2.1329  1.4083 -2.8799
 3226SOL    HW221138   0.716   1.277   3.667 -0.3726 -0.1028 -0.6403
 3227SOL     OW21139   2.349   1.330  10.870 -0.6218 -0.3310  0.0575
 3227SOL    HW121140   2.439   1.360  10.856 -0.3031 -1.2072  0.1915
 3227SOL    HW221141   2.357   1.239  10.840 -2.9894 -0.3978 -0.4042
 3228SOL     OW21142   1.932   0.798  16.791 -0.9287  0.3697  0.1193
 3228SOL    HW121143   1.914   0.831  16.879 -0.8420  1.0490 -0.1167
 3228SOL    HW221144   1.997   0.732  16.813 -0.7956  0.2533 -0.6391
 3229SOL     OW21145   4.266   3.694  10.798  0.5935 -0.4774  0.3312
 3229SOL    HW121146   4.289   3.601  10.797  2.2708 -0.0660  2.0364
 3229SOL    HW221147   4.218   3.716  10.878 -1.1048  0.1990 -0.8617
 3230SOL     OW21148   0.883   3.398   1.498 -0.0179  0.5564 -0.0714
 3230SOL    HW121149   0.811   3.336   1.505  0.5460  0.3556  3.6468
 3230SOL    HW221150   0.950   3.356   1.551  0.0523  0.4569 -0.2371
 3231SOL     OW21151   1.388   0.196   6.488  0.5727 -0.2000 -0.0341
 3231SOL    HW121152   1.454   0.211   6.556  0.4489  1.1131 -0.1956
 3231SOL    HW221153   1.459   0.200   6.425  1.3366 -2.4012  0.6730
 3232SOL     OW21154   2.438   4.327  13.378 -0.0404 -0.3599 -0.0362
 3232SOL    HW121155   2.429   4.351  13.286 -1.8861  1.8149  0.7171
 3232SOL    HW221156   2.459   4.414  13.411  0.5211 -0.3776 -0.3480
 3233SOL     OW21157   3.269   1.414   6.216  0.2606  0.1956  0.5565
 3233SOL    HW121158   3.347   1.443   6.169 -0.5392  0.4483 -0.6269
 3233SOL    HW221159   3.296   1.329   6.251 -0.1433  0.4156  1.4073
 3234SOL     OW21160   3.611   2.456   7.857  0.1642  0.8274 -0.6432
 3234SOL    HW121161   3.583   2.469   7.767 -0.5363  1.7419 -0.2940
 3234SOL    HW221162   3.628   2.362   7.852 -0.9151  0.3197  4.2796
 3235SOL     OW21163   3.160   3.765   2.925 -0.2155 -0.3692  0.7036
 3235SOL    HW121164   3.093   3.790   2.989 -2.2201 -1.3957 -1.0166
 3235SOL    HW221165   3.209   3.697   2.971  0.4169 -0.3368  0.0768
 3236SOL     OW21166   3.486   2.020   1.728  0.2447  0.1241  0.2247
 3236SOL    HW121167   3.443   2.013   1.643 -1.5647  0.8020  1.0807
 3236SOL    HW221168   3.573   1.992   1.702 -0.7918 -1.5504 -1.4597
 3237SOL     OW21169   1.816   2.866   3.196 -0.0547 -0.0722  0.4357
 3237SOL    HW121170   1.811   2.781   3.239 -1.2976  0.5448  1.5427
 3237SOL    HW221171   1.763   2.863   3.116  0.5302  0.4466  0.0298
 3238SOL     OW21172   1.169   0.831   0.251  0.0552  0.2929 -0.4184
 3238SOL    HW121173   1.204   0.845   0.339 -1.2551 -1.2749  0.3455
 3238SOL    HW221174   1.198   0.911   0.207 -0.5193  1.7909  1.9635
 3239SOL     OW21175   0.373   1.635   0.897 -0.3383  0.3267  0.3447
 3239SOL    HW121176   0.414   1.550   0.910 -1.4484 -0.0736  1.2972
 3239SOL    HW221177   0.280   1.612   0.892 -0.4041  0.3325  1.4723
 3240SOL     OW21178   0.611   4.087   1.180 -0.1666 -0.7039  0.0746
 3240SOL    HW121179   0.698   4.117   1.154 -1.5203  0.8926 -2.6294
 3240SOL    HW221180   0.613   3.999   1.141 -2.5878 -0.9756  0.5265
 3241SOL     OW21181   1.308   1.858   0.471  0.2353 -0.3873 -0.0864
 3241SOL    HW121182   1.269   1.781   0.511 -1.0978  0.5385  0.4060
 3241SOL    HW221183   1.355   1.813   0.401 -1.0458 -2.1053  0.1683
 3242SOL     OW21184   4.242   2.136   5.578  0.5415  0.0995 -0.5124
 3242SOL    HW121185   4.197   2.150   5.494 -0.8049 -1.2003  0.0002
 3242SOL    HW221186   4.242   2.040   5.583 -0.4163  0.1812  1.0965
 3243SOL     OW21187   2.357   2.702  16.815  0.1049  0.5492  0.2296
 3243SOL    HW121188   2.434   2.759  16.815  0.6052 -0.1153 -0.4706
 3243SOL    HW221189   2.314   2.752  16.884 -2.8208  1.8788 -2.5594
 3244SOL     OW21190   2.214   4.523   2.381  0.4703 -0.0234  0.2429
 3244SOL    HW121191   2.218   4.442   2.432 -2.1676 -0.1885  0.1833
 3244SOL    HW221192   2.294   4.516   2.328 -0.0094 -1.4058 -0.2990
 3245SOL     OW21193   0.618   4.665  17.021  0.2237 -0.2619 -0.1519
 3245SOL    HW121194   0.570   4.622  16.951 -1.0272  1.1872 -0.2027
 3245SOL    HW221195   0.697   4.612  17.029  1.0002  1.0446  0.9799
 3246SOL     OW21196   0.429   2.542  16.129 -0.2221 -0.1639 -0.4896
 3246SOL    HW121197   0.486   2.581  16.064 -0.6125  0.1392 -0.6485
 3246SOL    HW221198   0.343   2.560  16.092 -0.2121  2.8754  0.9628
 3247SOL     OW21199   2.905   2.226   3.195  0.2374  0.4861  0.6179
 3247SOL    HW121200   2.878   2.261   3.110  0.5893  1.2504  0.8222
 3247SOL    HW221201   2.990   2.269   3.206 -0.0625  1.5506 -1.2169
 3248SOL     OW21202   4.528   2.045   2.830  0.5482 -0.0504 -0.0529
 3248SOL    HW121203   4.605   2.100   2.838  0.1524  0.3764  0.9135
 3248SOL    HW221204   4.558   1.989   2.759 -0.7695 -2.7690  1.5328
 3249SOL     OW21205   4.133   4.488   4.849 -0.1940 -0.4370 -0.3062
 3249SOL    HW121206   4.097   4.400   4.862 -0.0162 -0.3636  0.7164
 3249SOL    HW221207   4.059   4.544   4.874  1.0603  0.0482  2.2733
 3250SOL     OW21208   3.606   3.028   4.082  0.4168 -0.1474 -0.0286
 3250SOL    HW121209   3.620   3.112   4.127 -0.4973 -1.0432  1.9661
 3250SOL    HW221210   3.511   3.014   4.093  0.4272  0.1705  0.4807
 3251SOL     OW21211   4.227   3.803   7.030  0.3612 -0.4359 -0.5604
 3251SOL    HW121212   4.225   3.791   7.125  1.6317  1.5635 -0.2657
 3251SOL    HW221213   4.290   3.734   7.010 -0.8214 -1.2769 -1.3718
 3252SOL     OW21214   0.244   4.122   3.753  0.0487  0.0901  0.1911
 3252SOL    HW121215   0.277   4.186   3.817 -0.6169  1.2780 -0.6567
 3252SOL    HW221216   0.301   4.136   3.678 -1.2534  1.0692 -0.6329
 3253SOL     OW21217   0.947   3.448  15.375  0.0640  0.0732 -0.1792
 3253SOL    HW121218   0.999   3.395  15.314  0.2600 -0.1915  0.2131
 3253SOL    HW221219   0.905   3.374  15.420  0.1629  0.6906  0.9348
 3254SOL     OW21220   1.484   3.117   8.708 -0.1397 -0.1941 -0.3621
 3254SOL    HW121221   1.452   3.208   8.708 -0.4935 -0.3146 -1.4399
 3254SOL    HW221222   1.455   3.079   8.790 -0.9798  2.6327  0.6605
 3255SOL     OW21223   1.513   2.252  14.029  0.0730 -0.1249  0.0273
 3255SOL    HW121224   1.525   2.346  14.023  1.3925 -0.2358  1.0220
 3255SOL    HW221225   1.450   2.240  14.101 -0.7785  1.2299 -0.5032
 3256SOL     OW21226   1.683   3.418   3.563 -0.1421 -0.0813 -0.1871
 3256SOL    HW121227   1.765   3.369   3.571  0.6575  1.0961 -1.3098
 3256SOL    HW221228   1.707   3.510   3.554 -1.5324  0.2520 -0.5177
 3257SOL     OW21229   4.254   4.647   0.518 -0.2240  0.3226  0.5916
 3257SOL    HW121230   4.258   4.562   0.561  1.2849  0.6828  1.1323
 3257SOL    HW221231   4.241   4.629   0.425 -1.1681 -1.3357  1.0455
 3258SOL     OW21232   1.736   4.574   1.372 -0.0481  0.2159 -0.5294
 3258SOL    HW121233   1.765   4.612   1.455  0.2374  0.2416 -0.6414
 3258SOL    HW221234   1.651   4.540   1.401 -0.6374  0.6376 -1.7432
 3259SOL     OW21235   2.998   3.374  10.753  0.0946  0.5682 -0.0467
 3259SOL    HW121236   2.973   3.417  10.834 -0.3897 -1.9617  1.1356
 3259SOL    HW221237   3.007   3.284  10.785  0.3837  0.9743  0.9992
 3260SOL     OW21238   2.587   1.113   7.930 -0.2040  0.6346  0.0216
 3260SOL    HW121239   2.627   1.029   7.951 -0.4832  0.7253  0.9107
 3260SOL    HW221240   2.582   1.142   8.021 -1.6642  0.0360  0.1309
 3261SOL     OW21241   3.507   4.326  14.631 -0.1810  0.3230  0.7896
 3261SOL    HW121242   3.580   4.272  14.661  0.1627  0.1620 -0.3703
 3261SOL    HW221243   3.529   4.411  14.670  0.3229  0.3994  0.3382
 3262SOL     OW21244   4.419   1.630   0.880 -0.1417  0.4883 -0.5708
 3262SOL    HW121245   4.503   1.639   0.924 -0.0876 -0.0674 -0.5613
 3262SOL    HW221246   4.413   1.691   0.805  1.7824  0.2296 -0.9193
 3263SOL     OW21247   0.210   0.763   1.371  0.4469  0.0510  0.4112
 3263SOL    HW121248   0.247   0.707   1.302  1.8753 -0.5079  1.6216
 3263SOL    HW221249   0.254   0.845   1.348  1.6042 -1.4142 -2.6729
 3264SOL     OW21250   2.182   3.300   2.399  0.3090  0.3081  0.1762
 3264SOL    HW121251   2.193   3.388   2.364  1.0681  0.1200 -0.0581
 3264SOL    HW221252   2.243   3.299   2.472 -1.6940 -1.6125  1.8433
 3265SOL     OW21253   3.278   0.992   4.896  0.3004  0.2208 -0.6277
 3265SOL    HW121254   3.290   1.038   4.979 -0.4567 -0.3739 -0.1876
 3265SOL    HW221255   3.312   1.061   4.839  1.1654  1.4811  1.4512
 3266SOL     OW21256   4.342   1.833   2.874  0.3862  0.4170 -0.4006
 3266SOL    HW121257   4.417   1.867   2.923 -0.2070  0.8376  0.2054
 3266SOL    HW221258   4.373   1.745   2.852  0.6970  0.7083 -1.1522
 3267SOL     OW21259   0.194   0.306   7.253  0.3156  0.5368  0.0128
 3267SOL    HW121260   0.148   0.247   7.313 -0.2159  0.5687 -0.3579
 3267SOL    HW221261   0.277   0.260   7.241 -0.3079 -1.0893  1.9293
 3268SOL     OW21262   1.694   1.662  11.342 -0.2881  0.3858 -0.7465
 3268SOL    HW121263   1.705   1.721  11.417 -1.0842  2.1879 -2.0559
 3268SOL    HW221264   1.601   1.644  11.359 -0.2218 -0.3653 -1.1722
 3269SOL     OW21265   3.257   2.902   3.068 -0.3299  0.0592 -0.2434
 3269SOL    HW121266   3.351   2.892   3.058 -0.2303  1.4127 -0.6458
 3269SOL    HW221267   3.229   2.971   3.008  0.3581  1.3346  0.9181
 3270SOL     OW21268   4.340   0.197   7.393  0.0160 -0.1537 -0.3339
 3270SOL    HW121269   4.357   0.248   7.314 -1.0230 -0.1657 -0.5572
 3270SOL    HW221270   4.422   0.147   7.392  0.5941  0.8043 -0.3620
 3271SOL     OW21271   4.565   3.585   2.776 -0.2258 -0.2449 -0.1236
 3271SOL    HW121272   4.531   3.595   2.687 -0.9432 -1.7146 -0.0154
 3271SOL    HW221273   4.623   3.661   2.786  0.9289 -1.3000  1.1512
 3272SOL     OW21274   2.621   2.452   1.526  0.0024  0.0025 -0.5679
 3272SOL    HW121275   2.540   2.452   1.578  0.7395  0.0602  0.5849
 3272SOL    HW221276   2.615   2.377   1.467 -1.6345 -0.4976  0.2351
 3273SOL     OW21277   3.842   1.259  11.704 -0.2619 -0.0165 -0.3143
 3273SOL    HW121278   3.756   1.247  11.744  0.1155 -0.6994  0.2954
 3273SOL    HW221279   3.873   1.343  11.736  1.5901 -2.0431  3.2208
 3274SOL     OW21280   4.529   0.338   5.228  0.1832  0.0802 -0.4245
 3274SOL    HW121281   4.441   0.304   5.246  0.7130 -1.0748 -0.0238
 3274SOL    HW221282   4.525   0.348   5.133 -0.1589  4.4640  0.0790
 3275SOL     OW21283   0.325   0.860   4.097 -0.0271  0.1964 -0.9310
 3275SOL    HW121284   0.243   0.875   4.144 -0.2645 -1.4424 -0.8142
 3275SOL    HW221285   0.381   0.933   4.124  0.7027 -0.2086 -1.3596
 3276SOL     OW21286   2.464   0.962   8.284 -0.2962 -0.2357 -0.4387
 3276SOL    HW121287   2.378   0.970   8.244  0.5171  1.2909 -1.8857
 3276SOL    HW221288   2.481   0.870   8.267  1.7122 -0.2925  1.8839
 3277SOL     OW21289   0.045   1.255   4.191 -0.7917  0.1583 -0.1939
 3277SOL    HW121290   0.036   1.189   4.122  0.2421  3.7130 -3.7457
 3277SOL    HW221291   0.031   1.332   4.137 -1.5080 -0.5012 -0.9548
 3278SOL     OW21292   4.377   4.541  15.769  0.1867  0.0905 -0.0667
 3278SOL    HW121293   4.376   4.561  15.862  1.1576 -0.4334  0.0586
 3278SOL    HW221294   4.424   4.623  15.754 -0.5874  0.5732  0.2019
 3279SOL     OW21295   2.976   2.120   7.913 -0.6699 -0.0098  0.2959
 3279SOL    HW121296   2.960   2.053   7.980  1.3021 -0.7267  0.0467
 3279SOL    HW221297   3.019   2.067   7.846  0.4275 -1.7720  2.3932
 3280SOL     OW21298   0.736   2.811  11.563 -0.1226 -0.0015  0.4116
 3280SOL    HW121299   0.684   2.858  11.628 -1.0623  0.4934 -0.7016
 3280SOL    HW221300   0.712   2.720  11.581 -5.0907  1.1196 -0.6712
 3281SOL     OW21301   2.091   0.069  11.537 -0.0270  0.3415 -0.3283
 3281SOL    HW121302   2.067   0.160  11.516  1.5103  0.5975 -0.9735
 3281SOL    HW221303   2.013   0.045  11.587 -0.1015  2.5588  0.6316
 3282SOL     OW21304   0.324   4.641  11.144 -0.4256 -0.4551  0.2130
 3282SOL    HW121305   0.257   4.594  11.096  1.6009 -1.8693 -1.2171
 3282SOL    HW221306   0.394   4.619  11.082 -0.2250  0.2173  0.1972
 3283SOL     OW21307   1.124   2.532  10.827 -0.2566  0.2225 -0.3376
 3283SOL    HW121308   1.127   2.557  10.919  0.1056  1.7312 -0.7663
 3283SOL    HW221309   1.031   2.548  10.807 -0.1548  2.0408  0.6742
 3284SOL     OW21310   0.470   4.029   4.070 -0.0187  0.4682 -0.2120
 3284SOL    HW121311   0.443   3.971   3.998 -0.8919  1.5252 -0.7271
 3284SOL    HW221312   0.546   3.984   4.106 -1.5981  1.0205  3.7925
 3285SOL     OW21313   2.557   2.530   6.279  0.2152 -0.1528 -0.5422
 3285SOL    HW121314   2.472   2.554   6.241 -0.7439 -0.0510  1.6743
 3285SOL    HW221315   2.522   2.471   6.345  2.1456  0.6009  1.1299
 3286SOL     OW21316   0.806   1.681   7.445  0.1741  0.1991 -0.1408
 3286SOL    HW121317   0.781   1.708   7.533  0.2184 -4.3959  1.2667
 3286SOL    HW221318   0.725   1.695   7.396 -0.3597  1.1006  0.9985
 3287SOL     OW21319   4.233   3.311   2.624  0.5649  0.2528  0.0253
 3287SOL    HW121320   4.329   3.310   2.625  0.5840  0.3878 -0.9657
 3287SOL    HW221321   4.211   3.275   2.709 -0.1410  1.3766  0.3217
 3288SOL     OW21322   0.521   4.052  16.538 -0.0006 -0.4380 -0.1728
 3288SOL    HW121323   0.565   4.068  16.455 -0.3566  1.3573 -0.0073
 3288SOL    HW221324   0.446   4.003  16.506 -0.9934  0.7053  0.4111
 3289SOL     OW21325   0.214   0.086   8.551 -0.3171  0.0742 -0.2277
 3289SOL    HW121326   0.145   0.136   8.594 -0.8957 -0.9266  0.0085
 3289SOL    HW221327   0.286   0.149   8.546 -0.1578  0.2163  3.8024
 3290SOL     OW21328   3.787   2.050   4.549  0.2419 -0.0143 -0.3240
 3290SOL    HW121329   3.727   2.000   4.604  0.0534  2.9098  2.1520
 3290SOL    HW221330   3.844   1.981   4.517 -2.0001 -1.0526 -2.1309
 3291SOL     OW21331   2.717   0.232   3.073 -0.1157 -0.1366 -0.2654
 3291SOL    HW121332   2.744   0.156   3.125 -0.6808  0.5028  0.9537
 3291SOL    HW221333   2.774   0.223   2.996  0.3670 -0.5333  0.1374
 3292SOL     OW21334   2.528   1.177   4.036 -0.3604  1.1871 -0.3641
 3292SOL    HW121335   2.494   1.229   4.109 -1.7399 -0.1678 -0.0511
 3292SOL    HW221336   2.472   1.100   4.047  0.5430  0.5204 -0.4374
 3293SOL     OW21337   3.288   3.516   0.667 -0.5219  0.3013  0.0138
 3293SOL    HW121338   3.220   3.463   0.709  0.9803 -3.0979 -1.8322
 3293SOL    HW221339   3.248   3.522   0.580 -0.2864  1.0992 -0.0372
 3294SOL     OW21340   2.708   2.507   1.763 -0.3160 -0.4865 -0.0567
 3294SOL    HW121341   2.756   2.424   1.774 -0.9940 -1.1282 -1.9539
 3294SOL    HW221342   2.687   2.488   1.671  0.0233 -2.5628  0.2969
 3295SOL     OW21343   3.797   3.043   6.147 -0.1939 -0.8510  0.4048
 3295SOL    HW121344   3.714   3.075   6.112 -0.0262 -0.4916  0.3350
 3295SOL    HW221345   3.855   3.065   6.074 -0.4325 -1.4865  0.0281
 3296SOL     OW21346   2.495   4.403  11.445 -0.4157  0.3290 -0.0798
 3296SOL    HW121347   2.468   4.433  11.532  1.3632  2.2277 -0.1887
 3296SOL    HW221348   2.405   4.393  11.414  0.7080 -3.2206 -2.1469
 3297SOL     OW21349   1.126   3.184   2.042  0.1957 -0.7024  0.3490
 3297SOL    HW121350   1.103   3.245   2.112 -0.0238 -0.6608  0.2401
 3297SOL    HW221351   1.051   3.125   2.047 -0.2717 -0.3144 -2.0721
 3298SOL     OW21352   0.794   1.819  10.456 -0.0743  0.2913 -0.6360
 3298SOL    HW121353   0.772   1.769  10.378  0.1958  0.2949 -0.7145
 3298SOL    HW221354   0.812   1.901  10.410  0.5316  0.6256  0.1748
 3299SOL     OW21355   2.181   4.664   7.319  0.1200 -0.2629  0.0766
 3299SOL    HW121356   2.127   0.012   7.281  0.8959  0.5951  0.5575
 3299SOL    HW221357   2.266   4.702   7.297 -0.9123  0.3674 -2.9242
 3300SOL     OW21358   1.331   2.891   3.822 -0.0247 -0.4100  0.6425
 3300SOL    HW121359   1.322   2.915   3.914 -1.2115  0.8756  0.1997
 3300SOL    HW221360   1.426   2.898   3.812 -0.1281  2.2859  1.4084
 3301SOL     OW21361   0.318   3.162   3.507 -1.0522 -0.1380  0.3086
 3301SOL    HW121362   0.395   3.173   3.562  0.0942 -0.0554 -1.3179
 3301SOL    HW221363   0.347   3.096   3.443  0.6033  0.3370  0.5797
 3302SOL     OW21364   3.330   1.774   1.897  0.6749 -0.0003  0.5844
 3302SOL    HW121365   3.295   1.855   1.935  0.8492 -0.2049  1.1830
 3302SOL    HW221366   3.263   1.769   1.829  2.9775 -1.9354 -1.5318
 3303SOL     OW21367   2.216   0.271   2.940  0.2763  0.1042 -0.3768
 3303SOL    HW121368   2.139   0.271   2.998 -1.9236  1.2378 -3.2702
 3303SOL    HW221369   2.276   0.267   3.015  0.1676 -0.5900 -0.3204
 3304SOL     OW21370   3.602   2.123   6.290  0.2679  0.1165 -0.0945
 3304SOL    HW121371   3.509   2.132   6.314 -0.0666 -2.1756 -0.5381
 3304SOL    HW221372   3.633   2.212   6.280 -3.0744  1.3113  0.1917
 3305SOL     OW21373   4.238   1.960   7.523 -0.1745  0.2877  0.1933
 3305SOL    HW121374   4.230   2.054   7.538  1.7536  0.8184 -2.1972
 3305SOL    HW221375   4.147   1.943   7.497  0.2230 -1.4393 -0.0613
 3306SOL     OW21376   2.527   1.797  16.850  0.2443  0.1147  0.2373
 3306SOL    HW121377   2.572   1.807  16.766 -2.6600 -1.7105 -1.5459
 3306SOL    HW221378   2.487   1.713  16.827  0.8011 -0.1134  0.0883
 3307SOL     OW21379   2.138   1.389   3.269  0.0718 -0.4180 -0.0284
 3307SOL    HW121380   2.146   1.418   3.360  0.9800 -1.1173  0.1060
 3307SOL    HW221381   2.053   1.346   3.282 -0.7169  1.0129 -0.4079
 3308SOL     OW21382   0.789   1.637   3.846 -0.2444 -0.1854  0.2977
 3308SOL    HW121383   0.736   1.596   3.914 -0.8836 -0.0017 -0.0855
 3308SOL    HW221384   0.877   1.637   3.884 -1.2444  0.5571  2.5901
 3309SOL     OW21385   2.477   3.754  12.995 -0.1110 -0.0231 -0.3093
 3309SOL    HW121386   2.419   3.697  13.045  0.5373 -1.0250 -0.6893
 3309SOL    HW221387   2.512   3.803  13.069  0.4886 -2.2823  0.9089
 3310SOL     OW21388   0.534   0.371   6.888  0.0973 -0.0761 -0.1713
 3310SOL    HW121389   0.508   0.373   6.980  0.2031  1.1833 -0.1716
 3310SOL    HW221390   0.607   0.433   6.894  0.2689 -0.3412  0.5222
 3311SOL     OW21391   2.476   2.572   1.873 -0.3142  0.5095 -0.1272
 3311SOL    HW121392   2.567   2.550   1.852 -0.0050  1.0131  0.7157
 3311SOL    HW221393   2.443   2.547   1.786  0.9404  1.1404 -0.7790
 3312SOL     OW21394   0.742   2.261   9.030 -0.0990 -0.0150 -0.4807
 3312SOL    HW121395   0.760   2.206   9.106  0.0061  1.5045  0.5796
 3312SOL    HW221396   0.746   2.195   8.960  1.6107 -0.9496  0.4949
 3313SOL     OW21397   3.311   2.412   7.335  0.0005  0.2337 -0.2858
 3313SOL    HW121398   3.349   2.499   7.347 -0.8964  0.7627 -1.2895
 3313SOL    HW221399   3.326   2.375   7.422 -0.9342 -0.7786 -0.5599
 3314SOL     OW21400   1.751   0.589  14.245  0.2165 -0.1254  0.0436
 3314SOL    HW121401   1.830   0.579  14.299  0.3087  0.1653 -0.0412
 3314SOL    HW221402   1.679   0.590  14.308 -0.6513 -3.7795 -0.8764
 3315SOL     OW21403   3.263   1.118  10.210 -0.0311  0.5034 -0.1611
 3315SOL    HW121404   3.198   1.123  10.280 -1.1117 -0.2400 -1.1094
 3315SOL    HW221405   3.216   1.076  10.137  1.3220  0.9196 -1.2753
 3316SOL     OW21406   1.096   3.557   9.067 -0.4373 -0.0664  0.7287
 3316SOL    HW121407   1.129   3.614   8.997 -0.3819  0.2055  0.9758
 3316SOL    HW221408   1.181   3.556   9.112 -0.7135  0.8361  1.2690
 3317SOL     OW21409   1.140   0.645  11.272  0.1645 -0.3699  0.1548
 3317SOL    HW121410   1.160   0.728  11.228  0.5362  1.2514  3.3722
 3317SOL    HW221411   1.168   0.582  11.207  0.9548 -0.0382  0.1700
 3318SOL     OW21412   3.327   2.369  15.112 -0.2776  0.5325  0.1945
 3318SOL    HW121413   3.348   2.282  15.145 -1.2327  0.0304 -0.4926
 3318SOL    HW221414   3.257   2.397  15.171  0.9210  1.1463  1.2881
 3319SOL     OW21415   3.463   3.226   9.493  0.4728  0.1898 -0.2489
 3319SOL    HW121416   3.432   3.241   9.404  0.9372 -1.6762 -0.7000
 3319SOL    HW221417   3.557   3.224   9.475  0.3296  1.6539 -1.2217
 3320SOL     OW21418   2.034   4.432   2.972 -0.2126  0.0642 -0.1477
 3320SOL    HW121419   1.969   4.498   2.995 -1.4229 -1.7897  1.7789
 3320SOL    HW221420   2.066   4.441   2.882  0.2859  0.4054  0.0648
 3321SOL     OW21421   1.231   4.383   9.576 -0.7464  0.0346  0.2638
 3321SOL    HW121422   1.221   4.476   9.560 -0.3884 -0.2343 -1.4991
 3321SOL    HW221423   1.303   4.383   9.640  0.5324  2.7831 -1.1773
 3322SOL     OW21424   1.937   1.688  11.192 -0.3667  0.0988 -0.1835
 3322SOL    HW121425   1.909   1.745  11.263  0.4324 -1.3238  1.2617
 3322SOL    HW221426   1.884   1.612  11.218  0.4843 -1.3064 -2.5218
 3323SOL     OW21427   3.774   0.483   7.120 -0.6525  0.0644 -0.4546
 3323SOL    HW121428   3.841   0.430   7.161  0.7295  2.8065  0.8370
 3323SOL    HW221429   3.723   0.415   7.076 -0.6792  0.7972 -1.5654
 3324SOL     OW21430   2.823   3.103   1.996  0.2092 -0.0801 -0.3019
 3324SOL    HW121431   2.888   3.075   1.932  2.5884  2.8046  0.8601
 3324SOL    HW221432   2.842   3.196   1.995  0.8761 -0.2122 -0.0332
 3325SOL     OW21433   1.403   1.375   4.835  0.8215  0.1504  0.4024
 3325SOL    HW121434   1.436   1.380   4.746 -1.0000  1.2953 -0.2046
 3325SOL    HW221435   1.313   1.404   4.821  0.8142  0.2416  0.6396
 3326SOL     OW21436   0.775   0.345   6.528 -0.0771 -0.1484  0.9317
 3326SOL    HW121437   0.765   0.250   6.521 -3.3617  0.1977  1.0613
 3326SOL    HW221438   0.712   0.377   6.463 -1.5758 -1.1861  1.8819
 3327SOL     OW21439   3.970   0.095   6.844 -0.1261  0.0705 -0.3061
 3327SOL    HW121440   3.972   0.189   6.864  4.4374  0.2829 -1.8029
 3327SOL    HW221441   4.059   0.075   6.871 -0.4777 -1.5385 -0.3720
 3328SOL     OW21442   0.510   3.789  16.689 -0.0717 -0.2618  0.6259
 3328SOL    HW121443   0.483   3.833  16.769 -3.6652  1.0077 -1.2593
 3328SOL    HW221444   0.529   3.861  16.628 -1.2770 -0.0346  0.5328
 3329SOL     OW21445   4.291   1.735  15.262 -0.5774 -0.4094 -0.3083
 3329SOL    HW121446   4.231   1.796  15.306 -1.6147 -0.3852 -1.7713
 3329SOL    HW221447   4.241   1.657  15.239 -2.2154  0.4407  0.3501
 3330SOL     OW21448   4.366   0.401   3.623  0.8634  0.3954 -0.8364
 3330SOL    HW121449   4.413   0.339   3.680 -1.4294  0.2497  0.9115
 3330SOL    HW221450   4.421   0.479   3.632  1.5676 -0.2349  0.4102
 3331SOL     OW21451   3.995   0.144   8.836 -0.0716  0.2491 -0.1252
 3331SOL    HW121452   3.964   0.053   8.835 -0.1643  0.2819 -0.4604
 3331SOL    HW221453   3.954   0.188   8.761 -1.1926 -0.5196  0.0226
 3332SOL     OW21454   4.372   4.125   4.978 -0.0044  0.1996  0.1247
 3332SOL    HW121455   4.419   4.049   4.943  0.1164  1.8585 -3.3125
 3332SOL    HW221456   4.440   4.192   4.982  0.0210  0.2831 -1.7737
 3333SOL     OW21457   2.516   4.321  13.677  0.8102  0.0213  0.5191
 3333SOL    HW121458   2.436   4.374  13.680 -0.4913 -1.9744  0.7944
 3333SOL    HW221459   2.537   4.315  13.584  0.2763  0.3153  0.3789
 3334SOL     OW21460   3.613   1.330   6.578  0.6252 -0.4977 -0.4339
 3334SOL    HW121461   3.546   1.262   6.577  1.5771 -1.4860  2.5441
 3334SOL    HW221462   3.648   1.324   6.489  1.5179  0.6722 -0.1594
 3335SOL     OW21463   3.855   3.703   2.701 -0.3033 -0.2089  0.5877
 3335SOL    HW121464   3.906   3.662   2.771 -0.3020  0.3536  0.9206
 3335SOL    HW221465   3.850   3.637   2.632  3.2299  2.0711 -1.8396
 3336SOL     OW21466   2.277   4.162   5.660 -0.1156 -0.3539 -0.5083
 3336SOL    HW121467   2.298   4.090   5.601 -0.6511 -0.8943 -0.0295
 3336SOL    HW221468   2.223   4.113   5.722 -3.3849  3.0068 -0.7654
 3337SOL     OW21469   2.013   3.040  11.348 -0.1710 -0.5776  0.7424
 3337SOL    HW121470   2.046   3.044  11.438 -0.6004 -1.5047  0.9454
 3337SOL    HW221471   1.967   2.956  11.345 -0.8076 -0.0855 -2.8534
 3338SOL     OW21472   3.058   2.901   4.006  0.4760 -0.0943 -0.0553
 3338SOL    HW121473   3.029   2.817   4.041 -0.8292  0.3597 -0.0400
 3338SOL    HW221474   3.027   2.894   3.915 -0.4450  0.1964  0.2354
 3339SOL     OW21475   4.502   1.537   6.975 -0.5284 -0.4855  0.7488
 3339SOL    HW121476   4.457   1.493   7.047  1.4018  1.2011  3.0004
 3339SOL    HW221477   4.435   1.528   6.908 -0.8491 -1.3676  1.1877
 3340SOL     OW21478   3.312   0.397  11.246 -0.0555  0.3004  0.0101
 3340SOL    HW121479   3.401   0.361  11.249  1.4294  3.8648 -1.0473
 3340SOL    HW221480   3.324   0.486  11.280 -1.9561  1.3996 -2.2032
 3341SOL     OW21481   2.033   1.295  12.566 -0.3439  0.8862 -0.1754
 3341SOL    HW121482   2.051   1.384  12.598 -0.8650  0.7334  0.5614
 3341SOL    HW221483   2.120   1.258  12.577 -0.8047 -0.0805  0.2251
 3342SOL     OW21484   0.201   2.660   1.546 -0.2494 -0.4563 -0.6990
 3342SOL    HW121485   0.131   2.601   1.574 -1.6239  1.2247 -0.5870
 3342SOL    HW221486   0.266   2.591   1.533  1.4645  1.0721 -0.1112
 3343SOL     OW21487   2.209   2.337  10.062  0.0342 -0.3736  0.2638
 3343SOL    HW121488   2.172   2.413  10.016  1.6952  0.5857  0.4997
 3343SOL    HW221489   2.137   2.278  10.079 -0.8532  0.3455 -0.9503
 3344SOL     OW21490   4.441   1.810  17.609 -0.3927  0.3447 -0.1006
 3344SOL    HW121491   4.468   1.827   0.013 -0.3248  1.0227 -0.2481
 3344SOL    HW221492   4.514   1.754  17.580 -0.8188  0.6777 -1.8510
 3345SOL     OW21493   4.476   0.346   9.664  0.3836  0.4043 -0.1713
 3345SOL    HW121494   4.508   0.407   9.597 -2.0621  1.7100 -0.1552
 3345SOL    HW221495   4.554   0.337   9.719 -1.7297 -0.5970  2.6646
 3346SOL     OW21496   4.038   0.905  10.077 -0.1938 -0.7031 -0.5042
 3346SOL    HW121497   4.066   0.817  10.102  2.4375  0.0114 -0.8446
 3346SOL    HW221498   4.078   0.925   9.992 -2.9294 -1.1607 -1.8644
 3347SOL     OW21499   2.922   0.364   5.945  0.1474  0.4895 -0.3497
 3347SOL    HW121500   2.954   0.284   5.904 -1.1976  0.1696 -0.7586
 3347SOL    HW221501   2.836   0.324   5.953  0.4367  0.0260  0.4773
 3348SOL     OW21502   0.784   3.797  12.283  0.1670 -0.4865 -0.2132
 3348SOL    HW121503   0.817   3.878  12.321 -0.3692 -0.7295  0.7841
 3348SOL    HW221504   0.844   3.778  12.211 -0.6095 -0.5538 -0.8445
 3349SOL     OW21505   2.785   0.662   8.153  0.2886  0.2339  0.1292
 3349SOL    HW121506   2.870   0.670   8.109 -1.8429 -0.5528 -4.0675
 3349SOL    HW221507   2.780   0.567   8.151 -0.5898  0.1997  3.3130
 3350SOL     OW21508   3.790   2.337   6.242  0.4418  0.3519  0.1385
 3350SOL    HW121509   3.862   2.398   6.227  0.5502  0.2967  0.4403
 3350SOL    HW221510   3.724   2.393   6.283  0.1209 -1.8630  2.6613
 3351SOL     OW21511   3.166   0.697   6.119 -0.8356  0.1847 -0.4988
 3351SOL    HW121512   3.212   0.659   6.043  0.9194  1.2432  0.0216
 3351SOL    HW221513   3.078   0.669   6.096 -0.4656 -0.7548 -0.7555
 3352SOL     OW21514   3.537   3.750  16.375 -0.1960  0.0197  0.3585
 3352SOL    HW121515   3.470   3.691  16.411 -0.2019  1.6554  3.0287
 3352SOL    HW221516   3.521   3.828  16.428 -1.7711  0.9264 -1.4431
 3353SOL     OW21517   1.497   2.103   5.159  0.3559 -0.1789 -0.1477
 3353SOL    HW121518   1.407   2.090   5.191  0.4862 -1.6203 -0.3372
 3353SOL    HW221519   1.533   2.159   5.227 -0.8893 -0.2329  0.5574
 3354SOL     OW21520   2.074   1.886   3.860  0.2328 -1.0359  0.8127
 3354SOL    HW121521   1.987   1.924   3.846 -0.0347 -1.3537  1.6203
 3354SOL    HW221522   2.124   1.966   3.878 -0.4656 -0.0529 -1.6518
 3355SOL     OW21523   4.431   2.482   0.560 -0.2171 -0.4353 -0.0592
 3355SOL    HW121524   4.490   2.553   0.586 -0.1495  0.3828 -2.4953
 3355SOL    HW221525   4.497   2.430   0.513  0.1381  1.3560 -1.4991
 3356SOL     OW21526   3.094   3.720   8.853  0.3588 -0.0092 -0.1103
 3356SOL    HW121527   3.113   3.782   8.783 -0.6667 -0.9572 -1.2285
 3356SOL    HW221528   3.009   3.683   8.831  0.7576 -0.1575 -1.4185
 3357SOL     OW21529   2.907   3.508   2.968 -0.1795  0.0709  0.3016
 3357SOL    HW121530   2.905   3.491   2.873 -0.1114 -1.1840  0.5327
 3357SOL    HW221531   2.932   3.421   2.999 -0.1404 -1.4699 -4.0186
 3358SOL     OW21532   4.612   0.326  10.320 -0.2427  0.3321  0.4709
 3358SOL    HW121533   4.703   0.350  10.338  0.2633  1.0059 -2.8230
 3358SOL    HW221534   4.623   0.301  10.228  0.1646  0.0634  0.5894
 3359SOL     OW21535   1.360   2.266   7.960 -0.1720  0.6478  0.6817
 3359SOL    HW121536   1.295   2.336   7.967 -0.6745  0.2131  0.3203
 3359SOL    HW221537   1.370   2.236   8.050 -2.0444  1.4723  1.1534
 3360SOL     OW21538   2.709   0.037  10.513  0.3196  0.3960  0.7889
 3360SOL    HW121539   2.668   4.679  10.548  0.1759  0.2934  0.3798
 3360SOL    HW221540   2.801   0.013  10.500 -0.6080 -2.3053 -0.6412
 3361SOL     OW21541   0.110   2.596   2.109  0.6655 -0.1755 -0.0385
 3361SOL    HW121542   0.083   2.623   2.021 -1.4171  0.5388  0.8096
 3361SOL    HW221543   0.191   2.547   2.094  1.4255  1.5773 -1.7666
 3362SOL     OW21544   2.155   1.315   3.725 -0.9047  0.1227 -0.3637
 3362SOL    HW121545   2.145   1.391   3.667  1.7188  0.0556 -0.8702
 3362SOL    HW221546   2.179   1.240   3.672  0.3857  0.0041  0.3851
 3363SOL     OW21547   4.316   1.642   5.912 -0.0863 -0.3133 -0.3140
 3363SOL    HW121548   4.395   1.590   5.925 -0.4064 -1.3039 -2.3364
 3363SOL    HW221549   4.353   1.730   5.926 -0.2954 -0.2504 -0.1575
 3364SOL     OW21550   2.292   3.603   0.181 -0.1426  0.5598 -0.2105
 3364SOL    HW121551   2.247   3.522   0.156 -2.7292  2.4306 -1.5479
 3364SOL    HW221552   2.284   3.604   0.277 -0.6327 -0.1741 -0.2428
 3365SOL     OW21553   2.215   4.209   2.226 -0.5937 -0.5727 -0.0817
 3365SOL    HW121554   2.216   4.238   2.135  1.8659  1.4214  0.5779
 3365SOL    HW221555   2.289   4.259   2.262 -2.0398  0.7356  1.1015
 3366SOL     OW21556   4.548   1.208   8.324  0.5217  0.3661  0.3169
 3366SOL    HW121557   4.535   1.145   8.254  1.8520  1.9063 -1.3363
 3366SOL    HW221558   4.560   1.286   8.269  1.4201 -1.2776 -1.8008
 3367SOL     OW21559   4.683   4.087   4.631  0.1241 -0.4552  0.3700
 3367SOL    HW121560   4.703   4.076   4.537 -0.0403  0.5113  0.2257
 3367SOL    HW221561   4.628   4.012   4.654 -0.4808 -0.4705 -1.0920
 3368SOL     OW21562   4.505   1.089   8.093 -0.1842  0.0881  0.2150
 3368SOL    HW121563   4.582   1.036   8.072 -1.6242 -2.3004  0.9730
 3368SOL    HW221564   4.437   1.033   8.056 -0.6764 -0.7365  2.3305
 3369SOL     OW21565   2.815   1.767  12.803  0.3455  0.1296  0.2007
 3369SOL    HW121566   2.776   1.720  12.877 -0.8998  0.1335 -0.4459
 3369SOL    HW221567   2.774   1.733  12.723  0.1763  0.4714  0.1432
 3370SOL     OW21568   3.397   3.746   5.810 -0.3377 -0.2611  0.1735
 3370SOL    HW121569   3.354   3.794   5.739 -2.2453 -1.2691  0.6460
 3370SOL    HW221570   3.435   3.687   5.745  1.8004 -1.8707  2.8938
 3371SOL     OW21571   0.928   4.354   1.079 -0.3643 -0.2273 -0.0442
 3371SOL    HW121572   0.881   4.371   0.998  0.4374 -0.7847 -0.6237
 3371SOL    HW221573   0.953   4.442   1.106 -1.5334 -0.0888  0.6146
 3372SOL     OW21574   3.839   0.127   1.436  0.1653  0.2630  0.1839
 3372SOL    HW121575   3.776   0.199   1.439  0.3856  0.4763 -0.2733
 3372SOL    HW221576   3.793   0.065   1.378 -0.1231  0.9499 -0.3241
 3373SOL     OW21577   3.480   1.402  13.120  0.1401 -0.0372  0.0974
 3373SOL    HW121578   3.394   1.437  13.145 -0.7497 -2.0115 -0.1230
 3373SOL    HW221579   3.455   1.344  13.047  0.1239 -1.4092  1.1936
 3374SOL     OW21580   4.343   2.162   9.264  0.3202  0.3324  0.1002
 3374SOL    HW121581   4.292   2.196   9.338 -2.2858 -1.5422 -0.8318
 3374SOL    HW221582   4.373   2.243   9.223 -0.9947  0.3720 -0.7670
 3375SOL     OW21583   0.626   4.069   6.944  0.0625  0.2260 -0.2822
 3375SOL    HW121584   0.715   4.053   6.977  0.0824 -2.2132 -1.5489
 3375SOL    HW221585   0.579   3.999   6.989  2.7000  0.0144  2.1659
 3376SOL     OW21586   4.243   3.730   3.013 -0.7663 -0.2747  0.0273
 3376SOL    HW121587   4.237   3.821   2.983 -1.4106 -0.1365  0.5691
 3376SOL    HW221588   4.184   3.694   2.947  0.0300 -1.6514  0.0655
 3377SOL     OW21589   1.217   1.836   9.002 -0.0385  0.0855  0.5398
 3377SOL    HW121590   1.262   1.877   8.929 -1.1717 -0.7397 -0.6212
 3377SOL    HW221591   1.143   1.792   8.961 -0.1083  0.7539 -0.0377
 3378SOL     OW21592   4.421   3.242   3.207  0.4108  0.4533  0.0832
 3378SOL    HW121593   4.382   3.320   3.247 -1.2265 -0.3583  0.1164
 3378SOL    HW221594   4.461   3.206   3.287  1.1974  1.3014  0.0659
 3379SOL     OW21595   3.737   2.410   7.227  0.0275  0.5744 -0.3378
 3379SOL    HW121596   3.673   2.472   7.262  2.1945  2.1510  0.8299
 3379SOL    HW221597   3.807   2.407   7.293 -0.2016 -3.1526 -0.2792
 3380SOL     OW21598   3.942   3.543  12.206  0.5835 -0.1123 -0.1361
 3380SOL    HW121599   3.857   3.585  12.216  0.4814 -0.7298  1.6831
 3380SOL    HW221600   3.968   3.525  12.297 -0.9512 -0.9748  0.1268
 3381SOL     OW21601   2.173   2.427   7.236 -0.9215  0.3468  0.0472
 3381SOL    HW121602   2.227   2.425   7.315 -1.1238  2.1190  0.2184
 3381SOL    HW221603   2.236   2.433   7.164 -0.0218  2.9165  1.0355
 3382SOL     OW21604   0.009   0.243   5.464 -0.4685 -0.9704  0.0476
 3382SOL    HW121605   0.016   0.282   5.377  0.6621 -2.5125 -0.5556
 3382SOL    HW221606   0.071   0.290   5.520 -0.7804  0.3766 -0.7317
 3383SOL     OW21607   3.982   4.241   2.859  0.6300 -0.3324  0.0790
 3383SOL    HW121608   4.052   4.270   2.801 -0.0850  1.3730  0.0638
 3383SOL    HW221609   3.925   4.318   2.851 -1.6250 -2.0572 -0.2058
 3384SOL     OW21610   1.552   4.313   3.129  0.0682  0.6191  0.7010
 3384SOL    HW121611   1.541   4.321   3.223 -2.0796  1.8267  0.3529
 3384SOL    HW221612   1.480   4.372   3.106  0.3806  0.4270 -0.8038
 3385SOL     OW21613   0.141   2.152   7.686 -0.2611  0.4848  0.6938
 3385SOL    HW121614   0.202   2.079   7.675  1.5112  2.4122 -2.7537
 3385SOL    HW221615   0.111   2.161   7.595  0.2424 -0.6731  0.4150
 3386SOL     OW21616   3.357   4.442   7.510  0.6822 -0.2023 -0.1795
 3386SOL    HW121617   3.276   4.493   7.511  0.9025  0.1345  0.5129
 3386SOL    HW221618   3.347   4.363   7.456  2.0643 -1.4289  1.3697
 3387SOL     OW21619   3.283   2.390   8.401 -0.1616  0.2165 -0.7990
 3387SOL    HW121620   3.370   2.356   8.384  0.8871  2.9819 -0.9105
 3387SOL    HW221621   3.231   2.342   8.337 -0.6543  0.0027 -0.2450
 3388SOL     OW21622   2.207   3.783   2.032  0.1794 -0.5142  0.3586
 3388SOL    HW121623   2.277   3.841   2.062 -1.1105  1.8494 -1.1351
 3388SOL    HW221624   2.138   3.797   2.097  0.5705  1.4362  0.3549
 3389SOL     OW21625   1.224   4.653   9.519  0.5269 -0.0754 -0.7646
 3389SOL    HW121626   1.304   4.698   9.493  0.3044  0.6909 -0.1117
 3389SOL    HW221627   1.172   0.004   9.555  3.2353  1.1806  0.6151
 3390SOL     OW21628   1.486   1.247   7.607  0.2280 -0.8169  0.3011
 3390SOL    HW121629   1.439   1.245   7.523  2.3302  0.9424 -0.9230
 3390SOL    HW221630   1.451   1.170   7.651 -1.1760 -0.3036  0.0738
 3391SOL     OW21631   2.504   2.449   4.426 -0.0228  0.4801 -0.2173
 3391SOL    HW121632   2.450   2.373   4.449  1.3397 -0.5853 -0.5404
 3391SOL    HW221633   2.568   2.444   4.498  1.1780 -1.4976 -1.4109
 3392SOL     OW21634   3.542   1.146   8.316 -0.5790 -0.0800 -0.2943
 3392SOL    HW121635   3.529   1.083   8.387 -0.8340  1.6125  1.1434
 3392SOL    HW221636   3.614   1.202   8.344 -0.7904  0.2724 -0.4572
 3393SOL     OW21637   2.025   1.398  14.402  0.4702  0.3967 -0.2825
 3393SOL    HW121638   2.072   1.364  14.326 -0.5348 -0.0210 -0.7281
 3393SOL    HW221639   1.946   1.440  14.366  1.8154  2.0876 -1.2456
 3394SOL     OW21640   1.333   2.256   8.510 -0.2079 -0.0678 -0.4469
 3394SOL    HW121641   1.355   2.180   8.565  2.0261  0.4736 -0.5991
 3394SOL    HW221642   1.290   2.312   8.575 -0.2330 -2.5452  1.6891
 3395SOL     OW21643   1.765   4.329   4.576  0.1422  0.9770  0.6024
 3395SOL    HW121644   1.760   4.414   4.533  1.1081  1.5737  1.6646
 3395SOL    HW221645   1.694   4.285   4.530  1.2814 -0.0817 -0.1332
 3396SOL     OW21646   4.282   1.448   0.089  0.1967 -0.1106 -0.3612
 3396SOL    HW121647   4.203   1.395   0.100  0.5081 -0.0538  2.0214
 3396SOL    HW221648   4.328   1.402   0.019 -0.0516 -1.5583  0.4395
 3397SOL     OW21649   2.167   1.295   4.828 -0.0593 -0.6554  0.6053
 3397SOL    HW121650   2.242   1.258   4.874  1.0948  1.2347  0.2052
 3397SOL    HW221651   2.102   1.310   4.897  0.1072  1.3964  0.3054
 3398SOL     OW21652   2.355   3.797  13.993 -0.0218  0.0323  0.4135
 3398SOL    HW121653   2.449   3.796  14.010  0.1382  0.4818 -0.4377
 3398SOL    HW221654   2.327   3.723  14.047  1.1612 -1.2311 -0.7198
 3399SOL     OW21655   2.744   0.345   4.331  0.1622  0.3374  0.6803
 3399SOL    HW121656   2.696   0.390   4.261  1.3243  2.1050  1.0176
 3399SOL    HW221657   2.682   0.335   4.403 -0.1129  1.4649  0.6011
 3400SOL     OW21658   1.243   0.411  13.178  0.2661 -0.1914  0.2602
 3400SOL    HW121659   1.157   0.396  13.217 -0.3048  0.1019 -0.9052
 3400SOL    HW221660   1.255   0.506  13.180 -0.5804 -0.0616 -1.4084
 3401SOL     OW21661   1.405   1.086   3.685  0.8192  0.1886 -0.3178
 3401SOL    HW121662   1.337   1.103   3.750  1.8965 -2.1997  1.4405
 3401SOL    HW221663   1.447   1.172   3.676 -2.2185  1.4528 -2.4067
 3402SOL     OW21664   4.457   0.952  13.294  0.1117  0.1582 -0.1789
 3402SOL    HW121665   4.539   0.998  13.273  0.4489 -0.7149 -0.7613
 3402SOL    HW221666   4.479   0.863  13.269 -0.2935 -0.0735  0.2925
 3403SOL     OW21667   2.811   4.423  14.435  0.1483  0.6566 -0.1584
 3403SOL    HW121668   2.872   4.446  14.364 -0.0346  0.9353 -0.2264
 3403SOL    HW221669   2.792   4.334  14.408  0.2380  0.3971  0.6488
 3404SOL     OW21670   0.974   0.328   7.015 -0.4580  0.4449 -0.4629
 3404SOL    HW121671   1.056   0.282   7.032 -0.0929  1.3845  0.2748
 3404SOL    HW221672   0.978   0.414   7.056  0.4022  0.1089  0.1384
 3405SOL     OW21673   2.297   1.245   9.277 -0.6658  0.6006  0.2406
 3405SOL    HW121674   2.226   1.218   9.219 -1.4183 -2.1937  2.4617
 3405SOL    HW221675   2.259   1.327   9.309 -1.0084 -0.1615  1.7843
 3406SOL     OW21676   2.250   3.647   3.084 -0.3223 -0.0461 -0.3483
 3406SOL    HW121677   2.184   3.705   3.046  0.5621 -0.1917 -2.0794
 3406SOL    HW221678   2.233   3.569   3.031 -2.5860  0.1517  0.0727
 3407SOL     OW21679   1.709   3.131   5.910  1.0759 -0.2408  0.2334
 3407SOL    HW121680   1.687   3.120   6.002 -1.8809  2.1213 -0.1821
 3407SOL    HW221681   1.625   3.118   5.866  0.7173  1.1016  0.5179
 3408SOL     OW21682   1.419   0.317   7.173 -0.2032 -0.2407  0.5989
 3408SOL    HW121683   1.434   0.338   7.081  3.8674 -0.9953  1.0900
 3408SOL    HW221684   1.372   0.235   7.163 -2.1024  1.0318 -0.7144
 3409SOL     OW21685   3.922   2.483   4.876 -0.5798  0.0768 -0.1944
 3409SOL    HW121686   3.947   2.530   4.796  1.1156  1.3417  1.0578
 3409SOL    HW221687   3.988   2.414   4.883 -0.5643  0.2612  1.6134
 3410SOL     OW21688   1.809   2.178   7.698  0.5758  1.0220 -0.1177
 3410SOL    HW121689   1.724   2.220   7.691 -0.4985 -0.7311  2.3852
 3410SOL    HW221690   1.780   2.089   7.719  1.1930  0.8823  0.1416
 3411SOL     OW21691   4.672   1.491  10.822  0.1494 -0.1154 -0.1648
 3411SOL    HW121692   0.006   1.461  10.895  1.5231  0.0979 -1.1103
 3411SOL    HW221693   4.607   1.423  10.806 -0.0446  0.1137 -0.3454
 3412SOL     OW21694   2.917   1.423  12.890 -0.0285 -0.3101 -0.4101
 3412SOL    HW121695   2.840   1.398  12.839  1.1554 -1.5841 -1.5769
 3412SOL    HW221696   2.873   1.491  12.941  1.0501 -0.8602  1.2639
 3413SOL     OW21697   1.391   1.380   9.793 -0.3959  0.3228 -0.2485
 3413SOL    HW121698   1.323   1.445   9.809 -1.7935 -1.1739 -0.0353
 3413SOL    HW221699   1.338   1.311   9.752 -1.4067  0.8814  0.1019
 3414SOL     OW21700   1.095   3.547   2.427 -0.3555 -0.3267  0.2305
 3414SOL    HW121701   1.109   3.518   2.337  0.7376  0.1182  0.2543
 3414SOL    HW221702   1.001   3.563   2.437 -0.1294  0.0880  1.7858
 3415SOL     OW21703   0.315   1.075   7.489 -0.0528  0.1016 -0.1561
 3415SOL    HW121704   0.251   1.145   7.480  0.6626  0.6089 -1.3037
 3415SOL    HW221705   0.274   1.021   7.422 -0.9684  2.5654 -1.5706
 3416SOL     OW21706   2.283   0.212   8.678 -0.3311  0.7123 -0.3047
 3416SOL    HW121707   2.304   0.157   8.602  2.1979  2.1135 -0.6205
 3416SOL    HW221708   2.365   0.221   8.726 -1.4288 -0.3703  1.7750
 3417SOL     OW21709   2.430   3.893  17.162 -0.1757 -0.1116  0.5292
 3417SOL    HW121710   2.512   3.913  17.207  0.8169 -1.0932 -0.7915
 3417SOL    HW221711   2.421   3.958  17.092 -3.9880 -0.3240  0.8216
 3418SOL     OW21712   4.096   4.032   4.278  0.1468 -0.0841  0.1798
 3418SOL    HW121713   4.071   4.122   4.259  2.1630 -0.6150 -4.9847
 3418SOL    HW221714   4.116   4.042   4.372  1.8997 -0.1264 -0.1755
 3419SOL     OW21715   4.005   1.164   3.488 -0.4342  0.6043 -0.3465
 3419SOL    HW121716   3.993   1.121   3.403 -0.6371  1.6556 -0.8574
 3419SOL    HW221717   4.091   1.204   3.480 -0.7096  1.1948 -0.3865
 3420SOL     OW21718   0.162   0.040  16.086  0.0399  0.2740 -0.0851
 3420SOL    HW121719   0.098   0.054  16.017  0.8268 -2.9103 -1.4835
 3420SOL    HW221720   0.133   0.096  16.158  3.2300 -0.2625  1.6365
 3421SOL     OW21721   4.431   0.831   1.834 -0.9796 -0.2061 -0.2086
 3421SOL    HW121722   4.427   0.923   1.808  0.9976 -0.0066  0.1756
 3421SOL    HW221723   4.434   0.783   1.751  0.4161  0.2918 -0.4538
 3422SOL     OW21724   4.495   3.528   5.396 -0.2610  0.2430  0.3190
 3422SOL    HW121725   4.583   3.520   5.434  0.2264  1.8096 -0.4952
 3422SOL    HW221726   4.513   3.477   5.318 -0.5764 -0.9292  1.0146
 3423SOL     OW21727   1.673   2.470   8.052 -0.1248 -0.2084  0.1806
 3423SOL    HW121728   1.628   2.503   8.130 -0.5459  2.1698 -1.0608
 3423SOL    HW221729   1.742   2.536   8.042 -0.0239 -0.3048  0.2323
 3424SOL     OW21730   1.581   1.445   6.629 -0.4216 -0.1419  0.3885
 3424SOL    HW121731   1.544   1.375   6.683  1.4396 -0.8211  0.7862
 3424SOL    HW221732   1.618   1.494   6.703 -0.1568  2.9540 -1.8196
 3425SOL     OW21733   0.370   2.235   6.032  0.2454  0.1735 -0.0105
 3425SOL    HW121734   0.387   2.329   6.035 -4.0677  0.9826 -1.1570
 3425SOL    HW221735   0.451   2.211   5.987  1.1739  0.0012  1.7466
 3426SOL     OW21736   2.314   1.300   4.492 -0.0514 -0.4471 -0.9441
 3426SOL    HW121737   2.271   1.385   4.503  0.1711 -0.2017 -2.0218
 3426SOL    HW221738   2.319   1.300   4.397 -0.2380 -1.1533 -0.9531
 3427SOL     OW21739   3.705   2.897  10.245  0.0470 -0.0917 -0.3042
 3427SOL    HW121740   3.655   2.977  10.256  1.7078  0.7898  0.8073
 3427SOL    HW221741   3.755   2.895  10.326 -0.1991 -0.4316 -0.1616
 3428SOL     OW21742   2.359   4.550   7.608  0.3915  0.2893  0.9558
 3428SOL    HW121743   2.294   4.608   7.568  2.1509 -0.0291 -2.4023
 3428SOL    HW221744   2.357   4.473   7.552 -0.4370  1.3896 -0.5376
 3429SOL     OW21745   2.042   1.802   7.400 -0.0219 -0.1929  0.1302
 3429SOL    HW121746   1.962   1.772   7.443 -1.4680 -0.3186 -2.6524
 3429SOL    HW221747   2.037   1.752   7.318  0.2357  0.8446 -0.5177
 3430SOL     OW21748   4.424   1.639   1.787  0.0788  0.1179 -0.4572
 3430SOL    HW121749   4.364   1.604   1.853 -0.4838 -0.3388 -1.2013
 3430SOL    HW221750   4.477   1.695   1.844  0.9410 -0.4857 -0.6702
 3431SOL     OW21751   2.249   1.714  12.413 -0.4775  0.2194  0.0235
 3431SOL    HW121752   2.313   1.692  12.480  1.0744  1.0012 -1.1993
 3431SOL    HW221753   2.218   1.793  12.459 -0.3562 -0.5659  1.4421
 3432SOL     OW21754   4.690   2.483   2.677  0.7628  0.3483 -0.1701
 3432SOL    HW121755   4.694   2.545   2.604 -1.5758 -1.0809 -1.4960
 3432SOL    HW221756   0.017   2.414   2.632  2.2510  0.4980  1.1511
 3433SOL     OW21757   1.128   4.310  15.738 -0.1234  0.3786 -0.0389
 3433SOL    HW121758   1.216   4.274  15.751 -0.1960 -0.1647 -1.0518
 3433SOL    HW221759   1.078   4.235  15.707  0.1836 -0.2195  0.9323
 3434SOL     OW21760   3.698   3.248   4.240  0.0308 -0.2166 -0.1963
 3434SOL    HW121761   3.644   3.322   4.212  0.8479  0.1844 -0.7126
 3434SOL    HW221762   3.718   3.274   4.330 -0.1997 -0.8203  0.0260
 3435SOL     OW21763   3.823   3.628   9.180  0.2936  0.6471  0.0108
 3435SOL    HW121764   3.850   3.561   9.244  1.1377 -0.1022 -1.1178
 3435SOL    HW221765   3.835   3.708   9.230 -0.0304 -0.7618  2.3615
 3436SOL     OW21766   3.661   4.441   4.771 -0.1329  0.0963 -0.9263
 3436SOL    HW121767   3.585   4.412   4.719  0.3951 -0.6037 -1.3132
 3436SOL    HW221768   3.664   4.388   4.851 -0.0732 -0.5670 -1.3688
 3437SOL     OW21769   2.397   1.816   5.819  0.2901  0.4339 -0.3819
 3437SOL    HW121770   2.330   1.826   5.751 -0.3027 -0.5831  0.0655
 3437SOL    HW221771   2.477   1.813   5.766 -0.6490  1.6384 -1.8564
 3438SOL     OW21772   2.258   1.998   6.816 -0.4523 -0.0693 -0.5934
 3438SOL    HW121773   2.312   1.946   6.875 -2.7987 -1.9599 -0.1169
 3438SOL    HW221774   2.197   2.037   6.878 -0.1158 -2.2558  1.0889
 3439SOL     OW21775   3.151   3.436   8.235 -0.1755 -0.6100  0.1339
 3439SOL    HW121776   3.065   3.462   8.267 -1.2221 -2.4233 -1.1920
 3439SOL    HW221777   3.210   3.505   8.266  0.2816 -0.4608 -1.0318
 3440SOL     OW21778   4.176   3.462   4.075 -0.1470  0.0933  0.3945
 3440SOL    HW121779   4.241   3.525   4.045 -1.4166 -0.1498 -2.9727
 3440SOL    HW221780   4.228   3.383   4.086  0.2599  0.6610  2.4178
 3441SOL     OW21781   3.836   4.662   4.855 -0.0393  0.1748  0.0361
 3441SOL    HW121782   3.788   4.601   4.799 -1.8316  0.1573  1.5951
 3441SOL    HW221783   3.881   4.720   4.793  1.7503 -0.6216  0.5852
 3442SOL     OW21784   2.042   2.603   2.584 -0.2397  0.0830 -0.3284
 3442SOL    HW121785   1.999   2.657   2.517  1.6091  1.2346 -0.5814
 3442SOL    HW221786   2.075   2.666   2.649 -0.3180 -0.5322  0.3100
 3443SOL     OW21787   1.967   3.182   2.293 -0.1121 -0.0696 -0.3155
 3443SOL    HW121788   2.005   3.153   2.210 -1.1726 -1.9787 -0.1458
 3443SOL    HW221789   2.038   3.232   2.331  0.6329 -2.9348  2.1275
 3444SOL     OW21790   1.276   1.748   3.408 -0.3165  0.5479  0.3979
 3444SOL    HW121791   1.362   1.706   3.407 -0.2565  0.6989 -0.7651
 3444SOL    HW221792   1.301   1.821   3.352 -0.0867 -1.0978 -1.6670
 3445SOL     OW21793   1.133   0.099  10.276  0.3861 -0.6278 -0.1746
 3445SOL    HW121794   1.213   0.074  10.323 -1.8895 -1.9406  3.0601
 3445SOL    HW221795   1.108   0.013  10.243 -1.9997 -0.5728  1.5014
 3446SOL     OW21796   4.617   2.796   2.160 -0.3701 -0.1092 -0.2852
 3446SOL    HW121797   4.652   2.885   2.167  0.6134 -0.4833 -0.4005
 3446SOL    HW221798   4.656   2.764   2.241 -1.0995  0.0313  0.1199
 3447SOL     OW21799   3.742   1.341   2.220 -0.4847 -0.3070  0.3105
 3447SOL    HW121800   3.683   1.407   2.184  1.4844  1.7719  0.9203
 3447SOL    HW221801   3.736   1.267   2.160  0.9233  1.6466 -2.2472
 3448SOL     OW21802   3.571   1.585   3.595  0.2866  0.2185 -0.1936
 3448SOL    HW121803   3.585   1.515   3.532  0.5766  0.2605 -0.1719
 3448SOL    HW221804   3.485   1.618   3.567  0.2705  2.0067  1.9028
 3449SOL     OW21805   3.723   3.545   3.021 -0.0361 -0.5506  1.0366
 3449SOL    HW121806   3.669   3.621   3.043 -0.8325 -0.9687  0.5223
 3449SOL    HW221807   3.806   3.582   3.051  0.4341 -0.2330 -0.6846
 3450SOL     OW21808   4.237   3.328   5.161  0.2396  0.1551  0.2835
 3450SOL    HW121809   4.197   3.415   5.157 -0.1898  0.0004  1.2076
 3450SOL    HW221810   4.160   3.273   5.173 -1.2886  1.5159 -3.2857
 3451SOL     OW21811   0.533   3.523  16.642  0.0017 -0.1625 -0.4897
 3451SOL    HW121812   0.615   3.517  16.592  0.7593  1.7875  0.5238
 3451SOL    HW221813   0.514   3.615  16.624 -3.5150 -0.5220  1.4030
 3452SOL     OW21814   3.911   0.451   2.509 -0.2082 -0.4079  0.6231
 3452SOL    HW121815   3.920   0.483   2.598 -0.0602  0.1322  0.4165
 3452SOL    HW221816   3.940   0.526   2.458  1.9977 -2.2702 -0.8712
 3453SOL     OW21817   2.992   3.987   5.634  0.1068  0.0295  0.1602
 3453SOL    HW121818   3.004   4.071   5.678 -3.6366  0.4428  0.3740
 3453SOL    HW221819   3.081   3.959   5.615 -0.9285 -3.3675  0.3240
 3454SOL     OW21820   3.013   0.573   0.459  0.1106 -0.0057 -0.1203
 3454SOL    HW121821   2.937   0.623   0.490 -0.6136 -0.2303 -1.5223
 3454SOL    HW221822   2.999   0.499   0.518 -1.0100 -1.0277 -1.6479
 3455SOL     OW21823   4.597   0.042   1.461  0.0490  0.3369  0.6500
 3455SOL    HW121824   4.522   0.009   1.412  0.6495  1.5274 -1.0772
 3455SOL    HW221825   4.570   0.134   1.472  1.0209  0.6336  0.5451
 3456SOL     OW21826   1.553   2.342   5.258  0.0651 -0.4809  0.3849
 3456SOL    HW121827   1.468   2.374   5.226  0.3459 -0.4422 -0.3224
 3456SOL    HW221828   1.605   2.418   5.233 -0.1499  0.1155  1.7757
 3457SOL     OW21829   2.988   4.197   7.014  0.6060  0.2627  0.4512
 3457SOL    HW121830   2.970   4.139   7.088 -0.8530 -0.8650 -0.8127
 3457SOL    HW221831   2.903   4.230   6.987  0.7444  0.6682  0.5090
 3458SOL     OW21832   1.117   4.328  15.044 -0.3120  0.0437 -0.3219
 3458SOL    HW121833   1.147   4.343  14.954 -0.7771  3.1724  0.0532
 3458SOL    HW221834   1.037   4.279  15.025  1.1916 -2.8772  0.8122
 3459SOL     OW21835   0.516   0.375   9.239 -0.4955  0.1344 -0.5370
 3459SOL    HW121836   0.594   0.410   9.195 -0.2232 -0.4915 -0.5536
 3459SOL    HW221837   0.533   0.281   9.230  0.3841  0.2808 -0.4107
 3460SOL     OW21838   2.042   1.213   8.606 -0.3679  0.0692  0.1469
 3460SOL    HW121839   2.005   1.168   8.530 -1.0164  0.2627  0.3502
 3460SOL    HW221840   2.124   1.248   8.572 -0.8756  1.5694  0.4662
 3461SOL     OW21841   1.387   2.979   7.570  0.1961 -0.5165 -0.3366
 3461SOL    HW121842   1.377   3.026   7.653  1.8842 -1.3289  0.3258
 3461SOL    HW221843   1.369   3.051   7.509  0.4141  0.0896  0.3050
 3462SOL     OW21844   2.612   2.506   8.463  0.0417 -0.4681 -0.3532
 3462SOL    HW121845   2.637   2.434   8.404  1.4125  0.2804 -0.6610
 3462SOL    HW221846   2.523   2.483   8.491 -0.2225  1.2977  0.2225
 3463SOL     OW21847   1.505   2.595  12.803 -0.1432 -0.1785 -0.3852
 3463SOL    HW121848   1.424   2.595  12.753  0.5232 -3.4849 -1.4880
 3463SOL    HW221849   1.473   2.606  12.893 -0.4637  2.7607 -0.8573
 3464SOL     OW21850   2.604   3.439   2.944  1.0496  0.4262 -0.0520
 3464SOL    HW121851   2.608   3.375   2.873 -2.1546  0.6188 -0.3935
 3464SOL    HW221852   2.695   3.451   2.970  0.8636  0.8425  0.4064
 3465SOL     OW21853   4.492   1.698   4.490 -0.3937  0.0451  0.2468
 3465SOL    HW121854   4.397   1.700   4.484 -0.5626 -0.8551  2.6460
 3465SOL    HW221855   4.522   1.686   4.399 -3.7009 -0.1165 -0.8233
 3466SOL     OW21856   4.107   4.238   4.986 -0.2180 -0.4361  0.3449
 3466SOL    HW121857   4.067   4.183   4.919  1.1015 -1.2375  0.2078
 3466SOL    HW221858   4.199   4.211   4.984  0.8834  3.2528  0.1125
 3467SOL     OW21859   3.667   0.836  13.044  0.3418 -0.1839  0.2050
 3467SOL    HW121860   3.712   0.845  13.128 -0.3884  2.1499  0.3382
 3467SOL    HW221861   3.727   0.887  12.991 -2.3506  1.5411 -1.1850
 3468SOL     OW21862   3.030   1.409   8.789 -0.3118 -0.1163  0.2627
 3468SOL    HW121863   2.995   1.440   8.873 -0.4497  0.2357  0.0749
 3468SOL    HW221864   3.069   1.485   8.746 -1.1337 -0.3300 -0.8872
 3469SOL     OW21865   1.349   1.724   1.759 -0.2853  0.6416  0.6277
 3469SOL    HW121866   1.298   1.671   1.820 -1.7679 -0.4810 -1.6017
 3469SOL    HW221867   1.436   1.684   1.761 -0.5573  0.0394  0.5141
 3470SOL     OW21868   1.980   3.731   5.716 -0.2701 -0.0999 -0.2745
 3470SOL    HW121869   2.054   3.737   5.777 -0.0878 -3.1668 -0.2067
 3470SOL    HW221870   1.914   3.786   5.760 -1.6600 -1.2664 -0.8957
 3471SOL     OW21871   0.858   3.660   5.113  0.1409  0.2807  0.0622
 3471SOL    HW121872   0.862   3.740   5.166 -1.2502  0.4549 -0.0843
 3471SOL    HW221873   0.788   3.617   5.163  0.3970  0.5260  0.6258
 3472SOL     OW21874   4.344   4.086   7.138  0.0460 -0.1381  0.0794
 3472SOL    HW121875   4.265   4.114   7.185 -0.4948 -1.4756 -0.0179
 3472SOL    HW221876   4.320   4.002   7.098  1.9735 -1.0580  0.9055
 3473SOL     OW21877   0.279   2.180  16.308 -0.8287 -0.2693 -0.0452
 3473SOL    HW121878   0.195   2.141  16.332 -0.7843  1.2959  2.6688
 3473SOL    HW221879   0.269   2.167  16.213  1.7025  0.5834 -0.4317
 3474SOL     OW21880   2.013   1.481  16.860 -0.2523 -0.2130  0.0892
 3474SOL    HW121881   2.035   1.400  16.813 -1.0944 -0.7396  0.5999
 3474SOL    HW221882   1.996   1.532  16.781 -1.6103 -0.7913 -0.0035
 3475SOL     OW21883   1.338   0.455  17.471  0.2449 -0.1417  0.2536
 3475SOL    HW121884   1.358   0.462  17.564  2.0721  0.6590 -0.1910
 3475SOL    HW221885   1.251   0.496  17.470 -0.4099 -1.5504 -0.7898
 3476SOL     OW21886   4.146   3.317   2.883  0.1942 -0.2737 -0.0612
 3476SOL    HW121887   4.213   3.369   2.928  1.1656 -2.1859  0.6847
 3476SOL    HW221888   4.135   3.247   2.948 -0.5968 -0.4107 -0.3377
 3477SOL     OW21889   3.931   2.930  15.722 -0.1480  0.3446 -0.4325
 3477SOL    HW121890   3.871   2.986  15.673 -0.7557  0.2079  0.1592
 3477SOL    HW221891   3.977   2.893  15.646  0.1681 -2.9566  1.3715
 3478SOL     OW21892   1.978   3.017   6.829 -0.0111  0.4473 -0.0199
 3478SOL    HW121893   2.062   3.054   6.859  1.1700 -0.1355 -2.5928
 3478SOL    HW221894   1.953   2.954   6.896  0.3509 -0.3909 -0.6674
 3479SOL     OW21895   1.271   4.152   4.636  0.2763 -0.4625 -0.0257
 3479SOL    HW121896   1.244   4.126   4.724  1.5306 -3.1660 -0.4684
 3479SOL    HW221897   1.364   4.150   4.658 -0.2970  0.0040  2.4705
 3480SOL     OW21898   2.969   1.659   3.817 -0.0786 -0.5669  0.1978
 3480SOL    HW121899   3.028   1.697   3.882  0.4313 -0.0192 -0.5796
 3480SOL    HW221900   3.007   1.572   3.809  1.5032  0.1462 -0.0733
 3481SOL     OW21901   2.838   0.156   8.794 -0.2104  0.3036  0.5754
 3481SOL    HW121902   2.797   0.241   8.783  0.4713  0.3378 -1.6258
 3481SOL    HW221903   2.864   0.138   8.704 -1.2606 -0.1484  0.3708
 3482SOL     OW21904   0.179   4.020  10.549  0.0462  0.6739  1.0835
 3482SOL    HW121905   0.263   3.974  10.553 -0.0062  0.5330  0.5485
 3482SOL    HW221906   0.200   4.100  10.501 -1.0291  0.1236 -0.2971
 3483SOL     OW21907   4.705   4.400   2.052  0.4348  0.1915 -0.2881
 3483SOL    HW121908   0.026   4.443   2.126 -0.4792  1.1927 -0.3424
 3483SOL    HW221909   4.612   4.397   2.076  0.4005  2.6235 -0.1541
 3484SOL     OW21910   1.767   3.313   8.194  0.0178 -0.5909 -0.0958
 3484SOL    HW121911   1.703   3.348   8.257  1.0914 -0.0934  0.7124
 3484SOL    HW221912   1.752   3.369   8.118  0.3938 -1.1642 -0.5928
 3485SOL     OW21913   2.864   1.510   6.339  0.3761 -0.6147 -0.4443
 3485SOL    HW121914   2.860   1.603   6.316  1.5915 -0.5745 -0.4509
 3485SOL    HW221915   2.773   1.501   6.368  0.2213  1.2917 -0.3506
 3486SOL     OW21916   1.906   0.611   0.883 -0.3091 -0.2747 -0.1089
 3486SOL    HW121917   1.921   0.691   0.832  0.1011 -2.3320 -3.1939
 3486SOL    HW221918   1.836   0.568   0.835  0.4996 -0.1911 -1.3874
 3487SOL     OW21919   4.239   1.071   9.019  0.0694 -0.3993  0.3311
 3487SOL    HW121920   4.244   1.051   9.112  0.8834  1.8145  0.7717
 3487SOL    HW221921   4.204   1.160   9.016 -0.4700 -0.6544 -1.0299
 3488SOL     OW21922   0.069   2.304  14.237 -0.0459  0.1737 -0.5978
 3488SOL    HW121923   0.108   2.252  14.167 -0.0581  1.9225 -1.8934
 3488SOL    HW221924   0.147   2.353  14.263 -0.7659  0.9014  0.1833
 3489SOL     OW21925   1.860   1.198  12.365  0.2385 -0.5788  0.3157
 3489SOL    HW121926   1.909   1.263  12.314 -0.1850  0.8976  1.7906
 3489SOL    HW221927   1.908   1.218  12.446 -0.9250 -0.5625  1.0016
 3490SOL     OW21928   2.385   1.548   0.179 -0.5978 -0.1025 -0.3247
 3490SOL    HW121929   2.364   1.566   0.087  0.8480  0.6472 -0.4935
 3490SOL    HW221930   2.473   1.512   0.181 -1.0241 -1.1561 -0.2885
 3491SOL     OW21931   2.138   2.599   8.196 -0.2963 -0.3591  0.1320
 3491SOL    HW121932   2.171   2.641   8.275 -2.0794 -2.0542  1.7753
 3491SOL    HW221933   2.043   2.613   8.204 -0.6351 -0.7479 -3.0929
 3492SOL     OW21934   1.957   0.115   6.232  0.3962 -0.6264  0.3141
 3492SOL    HW121935   2.039   0.129   6.279  0.1734  0.8073  0.2632
 3492SOL    HW221936   1.893   0.120   6.303  1.4868  0.0538  1.2379
 3493SOL     OW21937   2.174   2.587   9.436 -0.2572 -0.5410 -0.0848
 3493SOL    HW121938   2.253   2.631   9.469  0.0363 -0.0157 -1.4739
 3493SOL    HW221939   2.222   2.520   9.388  0.1311  0.3739 -0.9823
 3494SOL     OW21940   1.208   4.497   4.365  0.4008 -0.6403  0.0183
 3494SOL    HW121941   1.209   4.491   4.460 -0.3128 -2.6343 -0.0852
 3494SOL    HW221942   1.119   4.471   4.341  0.1851 -1.4418  1.6686
 3495SOL     OW21943   1.131   3.654   2.114  1.0715  0.3259 -0.1107
 3495SOL    HW121944   1.187   3.731   2.126 -0.5400  1.6940 -1.5391
 3495SOL    HW221945   1.166   3.621   2.032 -1.2249 -0.5252 -0.7358
 3496SOL     OW21946   4.425   3.427   9.307 -0.1984 -0.3194  0.1898
 3496SOL    HW121947   4.514   3.453   9.285 -1.4404  1.0590 -3.1617
 3496SOL    HW221948   4.444   3.395   9.395  0.9047  0.5447  0.2597
 3497SOL     OW21949   0.479   1.170   7.751 -0.0795 -0.0825  0.2012
 3497SOL    HW121950   0.393   1.128   7.764 -0.8612  0.7056 -2.3979
 3497SOL    HW221951   0.522   1.175   7.836 -1.6299 -1.2079  1.0510
 3498SOL     OW21952   0.099   0.899   4.261 -0.1051 -0.3140 -0.1260
 3498SOL    HW121953   0.153   0.971   4.294 -0.5562 -0.0920  0.1244
 3498SOL    HW221954   0.006   0.923   4.257 -0.4781 -1.6930  0.2728
 3499SOL     OW21955   0.537   3.769   2.732 -0.1893 -0.3731 -0.1775
 3499SOL    HW121956   0.607   3.714   2.769 -1.1895 -1.2126  0.4530
 3499SOL    HW221957   0.569   3.764   2.642 -0.3677 -0.9060 -0.2142
 3500SOL     OW21958   1.190   0.510   1.567 -0.0616  0.1332  0.2630
 3500SOL    HW121959   1.186   0.603   1.547  1.4061  0.1396  0.0359
 3500SOL    HW221960   1.283   0.490   1.555 -0.2463 -2.3654  2.9939
 3501SOL     OW21961   1.045   1.496   7.435  0.0367  0.1230  0.3440
 3501SOL    HW121962   0.971   1.555   7.418  1.2193  0.9804 -1.9015
 3501SOL    HW221963   1.036   1.485   7.529  0.3426 -1.1968  0.2252
 3502SOL     OW21964   3.964   2.893   8.264  0.1881  0.0098 -0.2022
 3502SOL    HW121965   3.939   2.805   8.233  0.9306  0.2414 -1.4423
 3502SOL    HW221966   4.022   2.912   8.191 -1.1480 -1.1186 -1.5660
 3503SOL     OW21967   2.116   2.066   8.602  0.1946 -0.5163  0.6510
 3503SOL    HW121968   2.041   2.098   8.551 -0.0288 -0.9685  0.6897
 3503SOL    HW221969   2.144   2.144   8.650  0.7645 -0.0114 -0.5060
 3504SOL     OW21970   0.489   3.289   6.353 -0.0426  0.4591  0.0775
 3504SOL    HW121971   0.440   3.292   6.435  0.2592  0.2795  0.2641
 3504SOL    HW221972   0.549   3.225   6.391  0.3435  1.0186  0.4060
 3505SOL     OW21973   0.114   1.171   4.436 -0.1646  0.0772  0.9454
 3505SOL    HW121974   0.064   1.092   4.457  1.1793 -0.5811  1.5838
 3505SOL    HW221975   0.069   1.203   4.357  2.9745 -1.3333 -1.4046
 3506SOL     OW21976   3.300   3.213   2.616  0.4276  0.2552 -0.4193
 3506SOL    HW121977   3.324   3.152   2.686 -2.8088  0.5903  0.9833
 3506SOL    HW221978   3.378   3.228   2.563  0.5107  0.0602 -0.3518
 3507SOL     OW21979   2.927   0.962   5.881 -0.1445  0.2682  0.8629
 3507SOL    HW121980   2.937   1.028   5.949 -0.0780  1.4603 -0.3100
 3507SOL    HW221981   2.894   1.008   5.804 -1.8308  0.0779  1.4783
 3508SOL     OW21982   2.113   4.207   9.201 -0.8393  0.3677  0.1599
 3508SOL    HW121983   2.036   4.258   9.174 -0.1189 -0.0396 -2.5645
 3508SOL    HW221984   2.193   4.259   9.200  0.0736 -1.1061 -1.4614
 3509SOL     OW21985   3.117   0.043   6.055  0.0103 -0.5309  0.0102
 3509SOL    HW121986   3.114   0.112   5.989 -0.1745 -0.4581  0.0941
 3509SOL    HW221987   3.028   0.040   6.089 -0.1094 -0.5909 -0.3096
 3510SOL     OW21988   3.741   2.130  13.616 -0.0300  0.1370  0.3789
 3510SOL    HW121989   3.679   2.060  13.636  0.6245 -0.6889 -0.4700
 3510SOL    HW221990   3.723   2.181  13.695  1.2655  1.5497 -0.2371
 3511SOL     OW21991   2.190   1.298   5.582 -0.7109  0.8325  0.1498
 3511SOL    HW121992   2.199   1.256   5.496  0.0704  0.6131  0.3308
 3511SOL    HW221993   2.278   1.334   5.593 -0.1779 -0.7156  0.9555
 3512SOL     OW21994   1.353   2.190   4.312  0.1106 -0.3611  0.1479
 3512SOL    HW121995   1.405   2.111   4.326 -1.6088 -1.8234 -1.8471
 3512SOL    HW221996   1.346   2.190   4.217 -2.1641  0.1837  0.3091
 3513SOL     OW21997   2.049   1.606   6.589 -0.2240 -0.2254  0.0492
 3513SOL    HW121998   2.028   1.681   6.644 -1.0362  0.9412 -1.8285
 3513SOL    HW221999   2.032   1.532   6.648 -0.7031 -1.2581 -1.3692
 3514SOL     OW22000   3.279   1.020  13.788 -0.3293 -0.5375 -0.1344
 3514SOL    HW122001   3.341   1.034  13.716 -1.2541  4.4268  0.0395
 3514SOL    HW222002   3.326   0.948  13.831  0.2645 -0.2189 -0.2465
 3515SOL     OW22003   1.311   3.166  13.277  0.2471  0.4397  0.3268
 3515SOL    HW122004   1.290   3.258  13.266 -2.4186 -0.3534 -1.2034
 3515SOL    HW222005   1.402   3.156  13.247 -0.5632 -0.2842 -1.8894
 3516SOL     OW22006   0.224   3.522   2.710 -0.0287  0.1900  0.0429
 3516SOL    HW122007   0.249   3.591   2.771 -3.7033  2.2375 -0.7693
 3516SOL    HW222008   0.267   3.554   2.631 -0.3878  0.6940  0.0452
 3517SOL     OW22009   3.566   1.515   3.120 -0.1920 -0.5519 -0.2343
 3517SOL    HW122010   3.546   1.607   3.105 -1.3011 -0.7026  0.3380
 3517SOL    HW222011   3.661   1.527   3.131  0.3066 -3.3929 -1.2030
 3518SOL     OW22012   4.016   0.050  16.499 -0.1916 -0.6478  0.1323
 3518SOL    HW122013   3.924   0.074  16.482 -0.0396 -0.7179 -0.7725
 3518SOL    HW222014   4.009   4.677  16.485  3.6653 -0.9577  0.3224
 3519SOL     OW22015   4.540   1.646   6.368 -0.9947 -0.4281 -0.4306
 3519SOL    HW122016   4.571   1.736   6.357 -1.8711  0.2113  2.4654
 3519SOL    HW222017   4.449   1.671   6.378 -0.7353  0.4473 -0.2922
 3520SOL     OW22018   3.047   0.182  15.497  0.1979  0.7283 -0.2224
 3520SOL    HW122019   3.106   0.111  15.474 -0.0097  0.7417 -0.7939
 3520SOL    HW222020   2.993   0.145  15.567  1.0199  1.2583  0.6984
 3521SOL     OW22021   1.330   2.985   8.906  0.0231  0.2925  0.0966
 3521SOL    HW122022   1.309   2.927   8.978  0.6682 -0.1443 -0.0646
 3521SOL    HW222023   1.265   2.962   8.840  1.8220 -0.3343 -1.4637
 3522SOL     OW22024   4.211   4.302  16.332 -0.1169  0.3857 -0.3133
 3522SOL    HW122025   4.198   4.391  16.365 -0.9240  0.5857 -1.1718
 3522SOL    HW222026   4.300   4.297  16.296  0.5940 -0.0395  1.4772
 3523SOL     OW22027   1.972   3.013   5.924 -0.3593 -0.2027  0.3444
 3523SOL    HW122028   2.021   3.094   5.939  1.7860 -1.3344 -0.6010
 3523SOL    HW222029   1.880   3.041   5.928 -0.5070 -1.0270  2.7924
 3524SOL     OW22030   1.142   1.230   1.788  0.3655  0.3455 -0.2088
 3524SOL    HW122031   1.202   1.179   1.842 -1.1954 -1.1218  0.1603
 3524SOL    HW222032   1.078   1.164   1.762 -0.3382 -0.4876  3.7014
 3525SOL     OW22033   0.750   0.068   6.406 -0.7905 -0.2020  0.5891
 3525SOL    HW122034   0.694   0.020   6.345 -1.5418 -0.9400  1.8655
 3525SOL    HW222035   0.793   4.720   6.456 -0.3440  1.8383  3.0075
 3526SOL     OW22036   1.458   3.131   5.209 -0.1843 -0.0454 -0.0149
 3526SOL    HW122037   1.528   3.184   5.248 -0.0238  0.2221 -0.6563
 3526SOL    HW222038   1.451   3.067   5.279 -0.2623  0.7035  0.6639
 3527SOL     OW22039   4.119   4.703  15.101  0.0125  0.4973 -0.1990
 3527SOL    HW122040   4.094   0.019  15.186 -0.8761 -1.7649  0.5264
 3527SOL    HW222041   4.203   0.025  15.088 -1.4634  2.9932 -1.4928
 3528SOL     OW22042   2.841   1.623  12.125 -0.3178 -0.9458  0.3214
 3528SOL    HW122043   2.813   1.595  12.212  1.1401 -2.0930  0.4190
 3528SOL    HW222044   2.872   1.541  12.086 -0.6425 -0.4314 -1.0084
 3529SOL     OW22045   1.269   1.519   4.518 -0.6359 -0.0147 -0.4074
 3529SOL    HW122046   1.297   1.428   4.517 -1.2880 -0.2182 -0.4982
 3529SOL    HW222047   1.257   1.528   4.613  3.2235  1.9011 -0.0951
 3530SOL     OW22048   1.557   3.638   1.110  0.4818  0.5134  0.0247
 3530SOL    HW122049   1.526   3.645   1.201 -0.2422  1.8744 -0.3209
 3530SOL    HW222050   1.499   3.569   1.078  1.9172  0.5792 -2.6482
 3531SOL     OW22051   1.070   1.810   2.473  0.0395  0.1873 -0.9970
 3531SOL    HW122052   1.073   1.901   2.502  2.9811 -0.4780  0.7496
 3531SOL    HW222053   1.022   1.771   2.546  0.5571  1.6701  0.1272
 3532SOL     OW22054   2.799   3.749   8.079 -0.2793 -0.3599  0.5970
 3532SOL    HW122055   2.859   3.821   8.102  0.3952 -0.5219 -0.6615
 3532SOL    HW222056   2.858   3.685   8.039 -0.0595 -1.6313  2.9873
 3533SOL     OW22057   4.713   0.051  15.849  0.0981  0.0905  0.2998
 3533SOL    HW122058   4.624   0.042  15.814  0.3774  0.7519 -0.5637
 3533SOL    HW222059   0.031   0.114  15.788  0.5650 -0.9887 -0.5207
 3534SOL     OW22060   1.742   3.087  13.282  0.1731 -0.2037 -0.2682
 3534SOL    HW122061   1.681   3.152  13.247  1.1747  0.1252 -1.4015
 3534SOL    HW222062   1.738   3.105  13.376  0.2029  0.4589 -0.3932
 3535SOL     OW22063   0.221   2.924   5.756  0.3109  0.2163 -0.5849
 3535SOL    HW122064   0.190   2.946   5.669 -0.4780 -0.3248 -0.4366
 3535SOL    HW222065   0.244   3.008   5.798  0.0185  0.5698 -1.1358
 3536SOL     OW22066   0.007   3.421  15.689  0.4371 -0.0981 -0.0689
 3536SOL    HW122067   0.081   3.456  15.639  0.5875 -1.5268 -0.8638
 3536SOL    HW222068   4.680   3.497  15.721  0.8010 -0.1486  0.5811
 3537SOL     OW22069   0.853   4.412   7.685 -0.7109  0.2032 -0.0186
 3537SOL    HW122070   0.760   4.389   7.678 -0.6815  0.3226 -0.7839
 3537SOL    HW222071   0.854   4.411   7.780  1.8376  0.5576 -0.0303
 3538SOL     OW22072   1.579   1.751   1.291  0.1279 -0.2700 -0.0348
 3538SOL    HW122073   1.647   1.773   1.227 -0.0959  2.0966  0.5518
 3538SOL    HW222074   1.545   1.666   1.262  2.3987 -1.1896 -0.0240
 3539SOL     OW22075   3.825   0.081  13.374 -0.4394 -0.0627  0.5182
 3539SOL    HW122076   3.881   0.022  13.424 -0.9592 -2.3033 -1.6160
 3539SOL    HW222077   3.871   0.164  13.391  3.3798 -2.2604  1.0044
 3540SOL     OW22078   4.387   0.496   5.795  0.2676 -0.0452 -0.2674
 3540SOL    HW122079   4.415   0.581   5.761  0.0824  0.2672  0.3545
 3540SOL    HW222080   4.424   0.442   5.726  1.2384 -0.7701  0.8197
 3541SOL     OW22081   4.607   4.171   7.868 -0.3684 -0.3286 -0.0920
 3541SOL    HW122082   4.532   4.120   7.838  1.2961 -2.2711 -0.9016
 3541SOL    HW222083   4.682   4.112   7.856 -1.2313 -1.0171 -1.9909
 3542SOL     OW22084   0.201   2.870   3.139  0.2778  0.2466 -0.2314
 3542SOL    HW122085   0.186   2.956   3.180 -1.4437 -0.6137  0.9287
 3542SOL    HW222086   0.123   2.851   3.087  0.0015  0.6705  0.0214
 3543SOL     OW22087   1.059   4.449   5.564  0.8245  0.1818 -0.5411
 3543SOL    HW122088   1.031   4.424   5.476 -0.3593 -0.5415  0.0370
 3543SOL    HW222089   0.979   4.440   5.616  0.8935  1.8171 -0.1240
 3544SOL     OW22090   3.368   4.204   7.365  0.1228  0.5322  0.1203
 3544SOL    HW122091   3.445   4.159   7.399  0.0674  0.0938 -0.3325
 3544SOL    HW222092   3.313   4.127   7.351 -2.9985  2.5408  1.3440
 3545SOL     OW22093   2.432   2.958   6.388 -0.2597 -0.3615  0.5980
 3545SOL    HW122094   2.364   2.894   6.366 -1.7802  0.5992  2.5274
 3545SOL    HW222095   2.511   2.905   6.384 -0.3690 -0.6618  2.9223
 3546SOL     OW22096   3.192   1.885   8.754  0.3107 -0.2072  0.3314
 3546SOL    HW122097   3.167   1.796   8.730  0.0170 -0.3150  1.0461
 3546SOL    HW222098   3.233   1.876   8.840 -0.0739 -0.3613  0.5025
 3547SOL     OW22099   3.015   0.491   2.642  0.1371 -0.3853  0.6400
 3547SOL    HW122100   3.062   0.474   2.724  0.9329  0.4041  0.3518
 3547SOL    HW222101   2.970   0.574   2.656 -0.5185 -0.5383 -0.5667
 3548SOL     OW22102   0.215   1.435   5.989 -0.4913 -0.0755 -0.0108
 3548SOL    HW122103   0.180   1.500   5.928 -0.7049 -1.0363 -0.9216
 3548SOL    HW222104   0.216   1.488   6.068 -2.3952 -3.4785  2.3088
 3549SOL     OW22105   2.673   0.461  16.191  0.1772 -0.0299 -0.2401
 3549SOL    HW122106   2.725   0.482  16.268 -0.4349  2.1239 -0.4234
 3549SOL    HW222107   2.591   0.491  16.228 -1.4774 -2.0818 -2.2704
 3550SOL     OW22108   4.465   2.784   1.487  0.1725  0.3624  0.2601
 3550SOL    HW122109   4.409   2.789   1.564 -0.3258  0.4317 -0.1045
 3550SOL    HW222110   4.468   2.692   1.462 -1.2557  0.9074 -1.9247
 3551SOL     OW22111   2.950   3.532   9.529  0.8279 -0.2982 -0.2301
 3551SOL    HW122112   2.888   3.489   9.470 -1.8398 -0.9417  3.0679
 3551SOL    HW222113   2.996   3.453   9.558 -0.1121 -0.4677  0.7951
 3552SOL     OW22114   3.198   2.179  11.558 -0.9129 -0.3131  0.1270
 3552SOL    HW122115   3.272   2.236  11.538 -0.6744 -0.6487  0.0434
 3552SOL    HW222116   3.229   2.102  11.510  0.9490  0.8573 -0.5552
 3553SOL     OW22117   2.350   4.427  16.072  0.3727 -0.2086  0.5463
 3553SOL    HW122118   2.373   4.520  16.075 -1.5856  0.3674 -1.9355
 3553SOL    HW222119   2.258   4.435  16.046  0.7034 -2.5405 -1.4177
 3554SOL     OW22120   4.437   1.849  11.401  0.3832  0.7313  0.4775
 3554SOL    HW122121   4.411   1.805  11.321  2.5316 -0.3696  0.3775
 3554SOL    HW222122   4.356   1.838  11.451 -0.5024 -0.9513 -1.3517
 3555SOL     OW22123   0.265   4.477   6.137 -0.3960 -0.0682  0.0323
 3555SOL    HW122124   0.338   4.430   6.177  0.3583  0.9757 -0.1213
 3555SOL    HW222125   0.306   4.561   6.117 -3.7273  1.4121 -0.4061
 3556SOL     OW22126   1.749   4.090  11.890 -0.1108 -0.4785 -0.0741
 3556SOL    HW122127   1.833   4.090  11.844 -0.5910 -1.3570 -0.9407
 3556SOL    HW222128   1.682   4.127  11.833 -0.6797  0.0362  0.9250
 3557SOL     OW22129   2.213   1.994  17.575 -0.6233  0.5642 -0.0572
 3557SOL    HW122130   2.118   1.986  17.583 -0.7126 -1.0156 -2.3585
 3557SOL    HW222131   2.227   1.961  17.486  0.0731  0.8218 -0.0434
 3558SOL     OW22132   3.343   1.942  11.531  0.3514 -0.2870 -0.8340
 3558SOL    HW122133   3.420   1.927  11.476 -0.2741 -1.2851 -1.4268
 3558SOL    HW222134   3.384   1.983  11.607 -3.2497  0.6180  0.6266
 3559SOL     OW22135   1.892   2.155   1.085 -0.3044  0.3721 -0.9204
 3559SOL    HW122136   1.907   2.080   1.142 -1.9706  1.4470  0.9529
 3559SOL    HW222137   1.798   2.148   1.103 -0.0637 -0.6291 -0.0480
 3560SOL     OW22138   0.544   3.180   6.729  0.3585  0.3657 -0.3911
 3560SOL    HW122139   0.586   3.133   6.802 -0.7671 -0.1195 -0.0607
 3560SOL    HW222140   0.485   3.238   6.776 -0.7606 -1.7006  0.7721
 3561SOL     OW22141   2.337   0.178   0.354  0.3523 -0.2654  0.1241
 3561SOL    HW122142   2.354   0.085   0.337 -1.8631 -0.0912 -3.0945
 3561SOL    HW222143   2.345   0.219   0.268  0.7285 -2.6223 -0.9540
 3562SOL     OW22144   2.416   1.880   2.314 -0.0494 -0.2075  0.0437
 3562SOL    HW122145   2.422   1.833   2.231  0.9447  0.6218 -0.3478
 3562SOL    HW222146   2.339   1.936   2.303  0.3295  0.8378  2.7387
 3563SOL     OW22147   1.703   1.329   2.188  0.3732 -0.4587 -0.2382
 3563SOL    HW122148   1.762   1.402   2.171 -0.0445  0.2907  1.5690
 3563SOL    HW222149   1.665   1.324   2.100 -0.3343 -0.3368  0.0588
 3564SOL     OW22150   3.288   0.656  15.121  0.0897 -0.0666 -0.3096
 3564SOL    HW122151   3.347   0.661  15.046  0.3975  2.0815  0.0870
 3564SOL    HW222152   3.257   0.746  15.126 -3.4616 -1.2191 -1.7313
 3565SOL     OW22153   1.662   1.848   6.956  0.7299 -0.5495 -0.2541
 3565SOL    HW122154   1.747   1.887   6.974  0.8112 -0.3377 -1.0939
 3565SOL    HW222155   1.631   1.838   7.046 -0.9396  2.3857 -0.4997
 3566SOL     OW22156   1.612   2.601  16.712 -0.1202  0.3383  0.1415
 3566SOL    HW122157   1.543   2.543  16.743 -1.1291  2.4664  1.7879
 3566SOL    HW222158   1.617   2.576  16.619  0.1289  2.4357 -0.4235
 3567SOL     OW22159   3.729   1.046   4.368 -0.0915 -0.2314 -0.1228
 3567SOL    HW122160   3.751   0.993   4.444  1.9838 -0.1395 -0.6367
 3567SOL    HW222161   3.658   1.098   4.405 -0.3337 -0.8926  0.3354
 3568SOL     OW22162   4.410   1.716   2.381 -0.1917 -0.0304 -0.5943
 3568SOL    HW122163   4.355   1.743   2.308  2.1862  1.4489 -1.8628
 3568SOL    HW222164   4.416   1.623   2.362 -0.3433 -0.3931  1.1281
 3569SOL     OW22165   0.618   0.454  13.217  0.2144  0.0927  0.6566
 3569SOL    HW122166   0.548   0.515  13.240 -1.2040 -1.0700 -0.6070
 3569SOL    HW222167   0.688   0.519  13.228  0.1382  0.1332  0.9032
 3570SOL     OW22168   1.950   3.434   2.558 -0.6539 -0.6395  0.0576
 3570SOL    HW122169   1.992   3.350   2.576  1.0892 -0.0228 -1.1515
 3570SOL    HW222170   1.959   3.470   2.646  2.8871  0.2813 -0.6845
 3571SOL     OW22171   1.141   1.518   5.650  0.2256  0.2372  0.2255
 3571SOL    HW122172   1.179   1.576   5.584 -0.7908 -1.3248 -1.7395
 3571SOL    HW222173   1.204   1.529   5.721 -1.2805  0.7662  1.4903
 3572SOL     OW22174   0.060   1.090  11.484 -0.1196 -0.5884 -0.0050
 3572SOL    HW122175   0.090   1.030  11.416  0.8253 -1.3362  1.0559
 3572SOL    HW222176   0.054   1.020  11.550  0.1827 -0.6826 -0.0799
 3573SOL     OW22177   2.501   2.229   1.814  0.8365  0.1682 -0.4585
 3573SOL    HW122178   2.477   2.316   1.782  0.2619 -0.7277 -2.4941
 3573SOL    HW222179   2.438   2.226   1.885  1.7743 -0.8465  0.3292
 3574SOL     OW22180   0.909   1.249   1.474 -0.4095  0.6585 -0.3319
 3574SOL    HW122181   0.883   1.205   1.555 -0.7082 -0.3522 -0.9746
 3574SOL    HW222182   0.895   1.174   1.416 -2.2697 -0.5332  1.6621
 3575SOL     OW22183   4.643   0.536  15.526 -0.3131 -0.0205  0.7536
 3575SOL    HW122184   0.007   0.507  15.493 -1.6315 -3.3007  0.2563
 3575SOL    HW222185   4.654   0.570  15.615 -0.6370  2.3854 -0.1088
 3576SOL     OW22186   4.296   3.344   0.831  0.3696 -0.6255 -0.2715
 3576SOL    HW122187   4.372   3.398   0.850 -1.3054  0.9500  2.0032
 3576SOL    HW222188   4.320   3.273   0.772 -0.7470 -0.3742 -1.0253
 3577SOL     OW22189   3.639   4.297  13.207  0.4497 -0.3141 -0.1437
 3577SOL    HW122190   3.695   4.246  13.265 -1.0557  0.6401  2.1573
 3577SOL    HW222191   3.622   4.237  13.134  0.1808  1.5867 -1.6294
 3578SOL     OW22192   2.045   0.826   2.323  0.2952 -0.4260 -0.3722
 3578SOL    HW122193   2.002   0.828   2.237  3.0214 -0.6920 -1.7255
 3578SOL    HW222194   2.097   0.748   2.310 -1.1903 -1.3762 -0.6406
 3579SOL     OW22195   2.023   4.462  10.197  0.2764  0.2173 -0.1051
 3579SOL    HW122196   2.110   4.482  10.231 -0.0997 -0.5530  1.3437
 3579SOL    HW222197   1.974   4.541  10.220 -0.6286  0.4570 -2.8608
 3580SOL     OW22198   3.354   3.865   6.534 -0.5886  0.3494 -0.1839
 3580SOL    HW122199   3.364   3.781   6.489 -1.8474 -0.3546  0.8557
 3580SOL    HW222200   3.438   3.876   6.578  0.1994  0.5360 -1.7255
 3581SOL     OW22201   0.390   3.757   8.203 -0.0158 -0.2217  0.8529
 3581SOL    HW122202   0.349   3.840   8.226 -1.3869 -0.6601 -0.0684
 3581SOL    HW222203   0.377   3.747   8.109  2.4733 -1.2632  0.6206
 3582SOL     OW22204   0.316   1.578   5.686 -0.6033  0.3350 -0.2722
 3582SOL    HW122205   0.328   1.485   5.665  0.7332  0.5134 -0.3255
 3582SOL    HW222206   0.244   1.591   5.748 -0.8463  1.0815 -0.7069
 3583SOL     OW22207   1.174   1.001  11.385 -0.2462 -0.0517 -0.1184
 3583SOL    HW122208   1.189   0.953  11.304 -1.2818 -0.3241 -0.1581
 3583SOL    HW222209   1.081   0.980  11.398 -0.6415  1.7864  0.0101
 3584SOL     OW22210   1.889   1.993   2.639 -0.3325 -0.3708 -0.5031
 3584SOL    HW122211   1.897   1.988   2.544  0.3236 -1.7214 -0.3765
 3584SOL    HW222212   1.802   1.954   2.647 -0.9670  1.2254  0.2979
 3585SOL     OW22213   0.684   0.671   9.226  0.0632 -0.3622 -0.4431
 3585SOL    HW122214   0.770   0.691   9.263  1.1402 -1.3163 -2.4385
 3585SOL    HW222215   0.617   0.671   9.295  0.4293  4.3492 -0.1027
 3586SOL     OW22216   0.141   0.627  11.414  0.4612  0.8699 -0.6764
 3586SOL    HW122217   0.066   0.661  11.367  1.0439  1.1816 -1.3691
 3586SOL    HW222218   0.145   0.536  11.383 -1.1236 -0.1342  2.0398
 3587SOL     OW22219   2.520   2.623  10.536 -0.2157  0.8923 -0.3264
 3587SOL    HW122220   2.585   2.561  10.503  1.0342  2.5456 -0.9472
 3587SOL    HW222221   2.467   2.562  10.588  1.6984 -0.1418  0.4046
 3588SOL     OW22222   2.408   2.600   7.966  0.3867 -0.0506 -0.1460
 3588SOL    HW122223   2.468   2.668   7.934 -1.4838  0.4639 -2.5442
 3588SOL    HW222224   2.472   2.531   7.983  1.0095  0.1346 -1.7835
 3589SOL     OW22225   3.838   0.204   8.553 -0.3209  0.1206 -0.5504
 3589SOL    HW122226   3.861   0.136   8.490 -2.3107 -1.3847  0.3680
 3589SOL    HW222227   3.746   0.180   8.565 -0.2056  0.7681  1.5706
 3590SOL     OW22228   1.739   0.571   5.302  0.1032  0.2089 -0.4906
 3590SOL    HW122229   1.704   0.518   5.230  3.1926 -0.4267 -1.5477
 3590SOL    HW222230   1.652   0.591   5.338  0.7430 -0.4498  1.3995
 3591SOL     OW22231   4.270   0.110   0.943 -0.2305 -0.0402  0.2039
 3591SOL    HW122232   4.225   0.028   0.924 -3.0061  2.2658 -3.0957
 3591SOL    HW222233   4.336   0.109   0.874 -0.6057 -0.1874 -0.1532
 3592SOL     OW22234   3.263   1.240   8.551 -0.0272 -0.0077 -0.0982
 3592SOL    HW122235   3.168   1.230   8.541  0.1401 -0.0112 -1.7647
 3592SOL    HW222236   3.281   1.168   8.490  1.5891  1.4697 -1.3507
 3593SOL     OW22237   3.043   0.182   1.736 -0.5099  0.1849  0.0039
 3593SOL    HW122238   3.129   0.223   1.728 -0.6983  0.6331  0.2885
 3593SOL    HW222239   3.008   0.246   1.799 -0.4341  0.7802 -0.5605
 3594SOL     OW22240   2.135   2.811   4.214  0.6006  0.6352 -0.1683
 3594SOL    HW122241   2.209   2.755   4.237  0.8461  0.5085 -1.2804
 3594SOL    HW222242   2.064   2.758   4.252  0.6943  0.5819 -0.0666
 3595SOL     OW22243   4.086   3.757   4.218 -0.4008  0.0356 -0.1296
 3595SOL    HW122244   4.093   3.852   4.226  0.1601  0.0537 -0.7664
 3595SOL    HW222245   3.995   3.754   4.189 -0.7803  2.0225  0.8215
 3596SOL     OW22246   4.062   0.249   3.742 -0.1724  0.2385  0.1054
 3596SOL    HW122247   3.985   0.278   3.791 -0.1476  0.7678 -0.1694
 3596SOL    HW222248   4.054   0.314   3.673  0.2960 -2.1558 -2.2211
 3597SOL     OW22249   3.914   1.440   3.494 -0.4996  0.4457 -0.1077
 3597SOL    HW122250   3.914   1.345   3.487 -0.1054  0.5515 -1.6193
 3597SOL    HW222251   3.865   1.465   3.415  0.0501 -1.5729 -1.0960
 3598SOL     OW22252   2.400   4.531   5.685  0.0035  0.4656 -0.0424
 3598SOL    HW122253   2.490   4.500   5.674  0.2364  0.7556  1.0012
 3598SOL    HW222254   2.409   4.553   5.778 -0.6344  0.7366 -0.0489
 3599SOL     OW22255   0.988   1.494   1.423  0.3889 -0.0518 -0.6853
 3599SOL    HW122256   1.064   1.462   1.375 -0.1787 -3.7738  0.9604
 3599SOL    HW222257   0.949   1.408   1.439 -0.5924  0.5119 -0.0694
 3600SOL     OW22258   0.708   1.685   8.579 -0.1235 -0.1855 -0.0277
 3600SOL    HW122259   0.626   1.731   8.561 -0.0893  0.6799  2.0794
 3600SOL    HW222260   0.700   1.661   8.671  1.4382 -0.7152 -0.0183
 3601SOL     OW22261   2.424   0.233  17.363  0.1425 -0.3476  0.5168
 3601SOL    HW122262   2.484   0.241  17.437  0.0237  2.6713  0.2968
 3601SOL    HW222263   2.471   0.295  17.306 -0.7426 -0.6567 -0.5395
 3602SOL     OW22264   2.687   1.670   3.371  0.1690 -0.0831 -0.2549
 3602SOL    HW122265   2.676   1.633   3.283 -1.9817 -0.8157  0.3001
 3602SOL    HW222266   2.693   1.594   3.429  2.1202  1.0692  1.0099
 3603SOL     OW22267   2.718   3.557   8.566 -0.2606 -0.0103  0.0139
 3603SOL    HW122268   2.670   3.637   8.586 -0.1477  0.6393 -2.3919
 3603SOL    HW222269   2.655   3.490   8.542  0.2404 -0.2126 -0.7504
 3604SOL     OW22270   0.074   0.056   3.300  0.3667  0.2771  0.1289
 3604SOL    HW122271   0.038   0.104   3.375  0.0351  1.1050 -0.5507
 3604SOL    HW222272   0.142   0.118   3.274  1.8557 -2.2386 -1.9116
 3605SOL     OW22273   3.857   1.485   6.744 -0.0512  0.2976  0.3991
 3605SOL    HW122274   3.816   1.458   6.662  2.0408 -0.5699 -0.3847
 3605SOL    HW222275   3.837   1.408   6.797  1.4758 -1.7950 -2.0299
 3606SOL     OW22276   1.344   3.795   8.462  0.3374 -0.0370 -0.3951
 3606SOL    HW122277   1.351   3.700   8.461 -0.0953 -0.0706 -0.1430
 3606SOL    HW222278   1.256   3.811   8.495  1.4959  2.8139  1.3214
 3607SOL     OW22279   4.417   0.559   2.684  0.5053 -0.9159 -0.0421
 3607SOL    HW122280   4.400   0.527   2.773  0.7365  1.5796  0.9041
 3607SOL    HW222281   4.363   0.638   2.678  2.8693  0.5386 -1.9886
 3608SOL     OW22282   3.124   1.905   2.228  0.7328  0.2123  0.0030
 3608SOL    HW122283   3.040   1.916   2.183  1.5558  1.2431 -1.2571
 3608SOL    HW222284   3.105   1.814   2.251  1.1855  0.2008  0.3155
 3609SOL     OW22285   1.465   0.806   7.097  1.1555 -0.1181 -0.1205
 3609SOL    HW122286   1.488   0.764   7.180  0.4082  0.1326  0.2143
 3609SOL    HW222287   1.397   0.862   7.136 -0.7206 -2.0895 -0.5858
 3610SOL     OW22288   1.089   2.594   4.980  0.2999 -0.0196  0.9804
 3610SOL    HW122289   1.093   2.686   5.009 -0.3373 -0.2822  1.8885
 3610SOL    HW222290   0.997   2.576   4.995 -0.5351  1.7645 -1.9827
 3611SOL     OW22291   0.342   2.941  14.353  0.4511 -0.0692 -0.5096
 3611SOL    HW122292   0.260   2.959  14.399  0.5792 -1.6388  0.3521
 3611SOL    HW222293   0.352   3.019  14.298  0.4349  2.0359  2.5309
 3612SOL     OW22294   3.205   1.258   0.636 -0.1546 -0.0893  0.1804
 3612SOL    HW122295   3.186   1.314   0.561  0.8962 -0.6196 -0.4901
 3612SOL    HW222296   3.131   1.274   0.694  1.5417  1.7654  1.8416
 3613SOL     OW22297   2.922   3.870   4.832 -0.2038 -0.6316 -0.5432
 3613SOL    HW122298   2.894   3.917   4.910 -0.0206 -0.2196 -0.7281
 3613SOL    HW222299   2.965   3.791   4.866 -0.4591 -1.6460 -2.6303
 3614SOL     OW22300   1.773   1.665   2.583 -0.6023 -0.3545 -0.0078
 3614SOL    HW122301   1.716   1.606   2.532 -1.2030  0.0100  0.2388
 3614SOL    HW222302   1.716   1.731   2.622 -0.4425  0.1500 -0.6157
 3615SOL     OW22303   3.121   2.967  14.207  0.4974  0.1280 -0.2244
 3615SOL    HW122304   3.138   3.020  14.286 -0.9700  0.4235 -0.1136
 3615SOL    HW222305   3.212   2.963  14.178  0.8372  1.4247  0.6687
 3616SOL     OW22306   1.380   3.394   1.087 -0.1031  0.4864  0.1863
 3616SOL    HW122307   1.374   3.421   1.179  1.0660  0.1505  0.3621
 3616SOL    HW222308   1.418   3.306   1.095  0.6226  0.9375  1.8423
 3617SOL     OW22309   2.652   2.257   6.216 -0.0876  0.3893  0.1283
 3617SOL    HW122310   2.578   2.301   6.173 -0.1951  0.2387  0.1600
 3617SOL    HW222311   2.714   2.329   6.226  0.2748  0.1229 -0.2024
 3618SOL     OW22312   2.987   0.765   6.553 -0.1413 -0.3737  0.0381
 3618SOL    HW122313   2.952   0.812   6.477 -0.3701 -0.2848  0.2003
 3618SOL    HW222314   3.072   0.807   6.555  0.2720 -1.1913 -0.1868
 3619SOL     OW22315   0.868   2.918  14.658  0.2904 -0.2072  0.0291
 3619SOL    HW122316   0.799   2.954  14.601  1.4370  1.0449 -0.5869
 3619SOL    HW222317   0.947   2.941  14.610  1.1408 -0.7515  1.1838
 3620SOL     OW22318   1.743   4.164   3.299  0.6523  0.4761  0.5264
 3620SOL    HW122319   1.769   4.188   3.211 -0.8978 -0.8692 -0.3000
 3620SOL    HW222320   1.779   4.076   3.312 -2.6377 -0.6529  2.0804
 3621SOL     OW22321   0.420   3.530   4.915  0.2573 -0.4587  0.0045
 3621SOL    HW122322   0.338   3.513   4.963  0.7794  0.5553  1.2467
 3621SOL    HW222323   0.461   3.598   4.967 -0.7666 -0.2050  0.4820
 3622SOL     OW22324   1.846   0.946   4.667 -0.1667 -0.1792 -0.9322
 3622SOL    HW122325   1.909   0.891   4.621 -0.2128  0.2207 -1.4664
 3622SOL    HW222326   1.899   1.024   4.654 -1.2423  0.6594 -0.3240
 3623SOL     OW22327   3.893   4.592  15.563 -0.4483  0.2038 -0.2537
 3623SOL    HW122328   3.982   4.556  15.557  0.6864  2.8592  0.6021
 3623SOL    HW222329   3.912   4.684  15.544 -2.5961  0.3854 -1.5664
 3624SOL     OW22330   0.029   4.310   8.337 -0.3273 -0.6878  0.2157
 3624SOL    HW122331   4.698   4.312   8.256  1.9085 -0.5854 -1.2291
 3624SOL    HW222332   0.119   4.309   8.305 -0.7503  1.5361 -1.0322
 3625SOL     OW22333   0.419   1.380  16.673 -0.5056  0.5630  0.4986
 3625SOL    HW122334   0.326   1.397  16.657 -0.6279  0.9306  1.6466
 3625SOL    HW222335   0.436   1.416  16.760  1.5561 -0.9075  0.7112
 3626SOL     OW22336   1.129   2.583   4.299  0.4575  0.3325 -0.2409
 3626SOL    HW122337   1.171   2.606   4.216  0.8108  0.7682  0.0580
 3626SOL    HW222338   1.073   2.656   4.326 -1.1668 -0.9183 -0.2320
 3627SOL     OW22339   3.886   3.358   6.752 -0.1245 -0.2469  0.4467
 3627SOL    HW122340   3.828   3.434   6.749 -1.4199 -1.2588  0.1306
 3627SOL    HW222341   3.922   3.381   6.838  0.3689  0.8848 -0.0593
 3628SOL     OW22342   2.316   1.536   2.485  0.4408  0.0195  0.0465
 3628SOL    HW122343   2.321   1.443   2.505  0.5723  0.0749  0.2766
 3628SOL    HW222344   2.312   1.522   2.391 -0.7551 -1.3771  0.3053
 3629SOL     OW22345   1.566   1.146   9.034  0.4003 -0.0148 -0.2609
 3629SOL    HW122346   1.506   1.104   9.095  0.6460 -0.9047 -0.6310
 3629SOL    HW222347   1.577   1.230   9.080 -0.3807 -1.4670  2.6018
 3630SOL     OW22348   2.385   1.161   5.058  0.9702  0.3755  0.6079
 3630SOL    HW122349   2.391   1.070   5.086  0.4289  0.8209  2.1929
 3630SOL    HW222350   2.439   1.157   4.979 -0.9468 -1.6449 -0.5998
 3631SOL     OW22351   4.540   2.757   4.557 -0.2052 -0.1088  0.1334
 3631SOL    HW122352   4.582   2.745   4.472  2.9178 -1.7635  1.9163
 3631SOL    HW222353   4.552   2.850   4.580 -0.8370 -0.4252  1.7289
 3632SOL     OW22354   2.536   3.926   6.740  0.3978  0.0346  0.4812
 3632SOL    HW122355   2.525   3.831   6.745  0.3771  0.0659  1.0297
 3632SOL    HW222356   2.612   3.935   6.682  0.7171  0.9412  1.0397
 3633SOL     OW22357   2.522   4.203  16.577 -0.3479  0.3337  0.0688
 3633SOL    HW122358   2.609   4.235  16.600  0.4080 -0.4406 -1.6564
 3633SOL    HW222359   2.494   4.256  16.501  0.6693  0.3878 -0.2710
 3634SOL     OW22360   2.991   3.805   9.582  0.4091 -0.1334 -0.2122
 3634SOL    HW122361   2.911   3.835   9.625 -0.9419 -2.6349 -0.9656
 3634SOL    HW222362   2.962   3.716   9.563  1.9785 -0.8035  0.4788
 3635SOL     OW22363   0.217   1.259   2.464  0.3203  0.4421  0.1361
 3635SOL    HW122364   0.146   1.198   2.444  0.2931  1.2021 -2.0389
 3635SOL    HW222365   0.262   1.227   2.543  0.4396 -1.2763 -0.6208
 3636SOL     OW22366   4.239   1.295   3.441  0.1304  0.6288 -0.2609
 3636SOL    HW122367   4.243   1.381   3.398  0.8975  2.2920  3.1999
 3636SOL    HW222368   4.295   1.243   3.383  2.3568  1.8890  0.7561
 3637SOL     OW22369   0.647   0.909   3.318 -0.2848 -0.1438  0.6966
 3637SOL    HW122370   0.636   0.956   3.400 -1.6895  0.8641 -0.0569
 3637SOL    HW222371   0.702   0.834   3.338  0.6478 -0.1643 -1.9236
 3638SOL     OW22372   2.259   4.668   3.989  0.0415  0.0523  0.2189
 3638SOL    HW122373   2.221   4.595   4.037 -0.8992 -0.0222 -0.6346
 3638SOL    HW222374   2.257   4.648   3.896  2.3348  1.2704 -0.0734
 3639SOL     OW22375   4.670   3.142   6.723 -0.1465  0.2399  0.1018
 3639SOL    HW122376   4.653   3.178   6.637  1.2017  0.4877 -0.0497
 3639SOL    HW222377   4.702   3.053   6.707 -1.5600 -0.3352  0.3699
 3640SOL     OW22378   3.967   3.592   3.294 -0.2430 -0.2051 -0.2002
 3640SOL    HW122379   4.061   3.606   3.283 -0.2840  0.3011  0.0744
 3640SOL    HW222380   3.936   3.674   3.256  1.4463 -0.3706 -1.9371
 3641SOL     OW22381   0.522   1.479  15.605  0.4331 -0.2109  0.1808
 3641SOL    HW122382   0.527   1.419  15.679 -0.0686  0.5179  0.8071
 3641SOL    HW222383   0.467   1.451  15.532  0.6044 -0.0865  0.0055
 3642SOL     OW22384   0.840   4.414  12.329 -0.2882  0.1708 -0.0926
 3642SOL    HW122385   0.928   4.417  12.292 -0.7879 -2.3543 -1.4355
 3642SOL    HW222386   0.789   4.414  12.248 -1.3480 -1.7583  0.5880
 3643SOL     OW22387   0.614   1.817  14.338  0.3216  1.0682  0.3489
 3643SOL    HW122388   0.588   1.821  14.430  0.4268 -1.4863  0.4840
 3643SOL    HW222389   0.536   1.860  14.303 -0.7892 -1.7055 -0.5333
 3644SOL     OW22390   3.760   3.006   0.007 -0.0194 -0.8081 -0.9499
 3644SOL    HW122391   3.769   3.029   0.100 -4.3098  0.2948 -0.8383
 3644SOL    HW222392   3.828   3.069  17.668 -0.4807  0.3800  0.7600
 3645SOL     OW22393   0.217   3.293   1.732  0.3198 -0.8134 -0.0811
 3645SOL    HW122394   0.128   3.286   1.764  0.4162 -0.5916  0.2353
 3645SOL    HW222395   0.203   3.381   1.697 -0.6716 -1.3877 -1.1371
 3646SOL     OW22396   4.474   0.836   8.700 -0.2736  0.3469  0.2105
 3646SOL    HW122397   4.557   0.803   8.734 -0.3387 -2.5979 -2.5285
 3646SOL    HW222398   4.466   0.922   8.741  0.4920  0.9443 -0.8867
 3647SOL     OW22399   0.440   4.636   0.543  0.1382  0.1529 -0.4098
 3647SOL    HW122400   0.447   4.636   0.639  2.3143  0.7526 -0.5661
 3647SOL    HW222401   0.350   4.667   0.547  0.3973  0.5293  2.7056
 3648SOL     OW22402   1.629   0.274   6.328  0.3967  0.1926 -0.1436
 3648SOL    HW122403   1.569   0.327   6.275 -0.1826 -1.1174 -0.8049
 3648SOL    HW222404   1.698   0.261   6.262  0.4991  2.4974 -0.4800
 3649SOL     OW22405   0.430   0.733  12.050  0.4483  0.7185 -0.8648
 3649SOL    HW122406   0.473   0.775  11.976 -1.1866  4.0677  0.0428
 3649SOL    HW222407   0.471   0.647  12.057  0.9373  0.9115 -1.3528
 3650SOL     OW22408   4.635   3.278   1.703 -0.5496  0.3612 -0.2320
 3650SOL    HW122409   4.654   3.294   1.611  0.8830  1.2787  0.2180
 3650SOL    HW222410   4.621   3.184   1.711 -1.2398  0.4720 -0.1438
 3651SOL     OW22411   0.901   0.255  15.201  0.2724 -0.6691  0.1027
 3651SOL    HW122412   0.933   0.233  15.114  1.0116  2.4564 -0.4280
 3651SOL    HW222413   0.966   0.313  15.241  1.2602 -1.9845  0.3995
 3652SOL     OW22414   4.680   2.351   4.851  0.4098  0.3880 -0.3856
 3652SOL    HW122415   4.715   2.318   4.768 -3.2857 -1.1806 -1.3337
 3652SOL    HW222416   4.671   2.274   4.908 -0.6365  0.9053  0.1535
 3653SOL     OW22417   0.937   3.656   7.113  0.2048 -0.2449 -0.2056
 3653SOL    HW122418   0.884   3.621   7.041 -3.1281 -0.5180  2.3677
 3653SOL    HW222419   0.906   3.622   7.197 -0.6238 -1.5949 -1.0563
 3654SOL     OW22420   3.489   2.456   4.406 -0.4301  0.1138 -0.0975
 3654SOL    HW122421   3.473   2.460   4.312  1.4108  0.5570 -0.3775
 3654SOL    HW222422   3.454   2.369   4.428  0.2499  0.5710  2.8473
 3655SOL     OW22423   1.339   0.414   4.175 -0.0175  0.2880 -0.0387
 3655SOL    HW122424   1.283   0.478   4.131 -1.4410 -1.2144 -0.3955
 3655SOL    HW222425   1.424   0.456   4.158  0.9631 -1.2599  1.0676
 3656SOL     OW22426   3.179   2.813  13.735  0.4441  0.4660 -0.1059
 3656SOL    HW122427   3.181   2.788  13.642  2.4791 -0.5862  0.2330
 3656SOL    HW222428   3.234   2.752  13.784 -1.5113 -1.7336 -0.6472
 3657SOL     OW22429   0.256   2.752   1.806 -0.1664 -0.4614 -0.0424
 3657SOL    HW122430   0.175   2.803   1.813 -0.7086 -1.4349  0.9276
 3657SOL    HW222431   0.257   2.725   1.714 -2.1364 -0.3591 -0.1140
 3658SOL     OW22432   4.328   1.322   1.925 -0.0801  0.0963 -0.3345
 3658SOL    HW122433   4.365   1.389   1.983 -1.0599 -1.2162  1.7991
 3658SOL    HW222434   4.275   1.277   1.991  1.4261 -1.5726 -0.2694
 3659SOL     OW22435   0.698   0.885  11.576  0.2010  0.4410  0.3504
 3659SOL    HW122436   0.780   0.835  11.573 -1.3413 -2.0079 -1.4166
 3659SOL    HW222437   0.648   0.844  11.506 -1.6438  2.1145  0.6962
 3660SOL     OW22438   3.539   1.702   5.340 -0.3125 -0.6350 -0.4612
 3660SOL    HW122439   3.616   1.757   5.356 -0.3624 -0.6993 -0.0071
 3660SOL    HW222440   3.542   1.705   5.245 -0.5342  1.7892 -0.3813
 3661SOL     OW22441   2.113   1.336   7.299  0.1918 -0.6962  0.0967
 3661SOL    HW122442   2.201   1.347   7.335  0.2282  0.5910 -0.3990
 3661SOL    HW222443   2.074   1.290   7.374 -1.5834 -0.6176 -0.7804
 3662SOL     OW22444   1.649   1.348   2.677 -0.4814 -0.4606  0.5940
 3662SOL    HW122445   1.718   1.294   2.639  0.1678  0.9919 -0.2801
 3662SOL    HW222446   1.621   1.382   2.592  0.6088  1.3630  0.9721
 3663SOL     OW22447   1.899   4.185   2.469  0.5205  0.0846 -0.4223
 3663SOL    HW122448   1.831   4.242   2.504  1.6986  1.2345 -0.0290
 3663SOL    HW222449   1.906   4.210   2.377 -0.7260 -1.3219 -0.9058
 3664SOL     OW22450   1.411   1.561   3.048 -0.1134 -0.9389  0.7755
 3664SOL    HW122451   1.494   1.560   3.000 -0.8977  0.8077 -0.6292
 3664SOL    HW222452   1.362   1.567   2.965  1.1912 -1.1559 -0.0139
 3665SOL     OW22453   2.656   0.376   3.820 -0.7469 -0.4696 -0.4353
 3665SOL    HW122454   2.647   0.311   3.750 -1.9305 -0.1899 -0.5494
 3665SOL    HW222455   2.630   0.452   3.768  2.5556  1.8004  1.2428
 3666SOL     OW22456   2.840   2.976   8.068  0.0276  0.1863  0.0630
 3666SOL    HW122457   2.884   2.908   8.119 -0.3957  0.9038  1.3750
 3666SOL    HW222458   2.782   2.927   8.010 -1.2205  2.2047 -0.4011
 3667SOL     OW22459   3.488   3.435   5.770  0.1344  0.5686  0.0905
 3667SOL    HW122460   3.467   3.341   5.775  1.2171  0.3225  0.0135
 3667SOL    HW222461   3.516   3.430   5.679 -0.1901  1.2967 -0.0413
 3668SOL     OW22462   1.247   3.137   6.894  0.3535  0.1388  0.1870
 3668SOL    HW122463   1.340   3.155   6.909  0.2760  0.0916  0.7104
 3668SOL    HW222464   1.207   3.190   6.963 -0.0883  1.8608 -1.3767
 3669SOL     OW22465   0.202   1.606  16.051 -0.1365  0.0549 -0.6425
 3669SOL    HW122466   0.116   1.614  16.011 -0.5500  1.9641  0.6197
 3669SOL    HW222467   0.200   1.526  16.104  2.8168  0.8470  0.6640
 3670SOL     OW22468   2.582   1.692  10.685  0.0199  0.3272 -0.0132
 3670SOL    HW122469   2.560   1.706  10.593 -0.0116 -0.7104 -0.1690
 3670SOL    HW222470   2.496   1.669  10.719 -0.5407  1.4560 -0.6912
 3671SOL     OW22471   1.269   3.952   3.459 -0.4264  0.2078  0.2848
 3671SOL    HW122472   1.199   3.889   3.473 -0.8008  0.4973 -0.2901
 3671SOL    HW222473   1.220   4.032   3.443 -1.3009 -0.8007 -2.1277
 3672SOL     OW22474   0.500   2.134  12.121 -0.6636 -0.1823  0.3987
 3672SOL    HW122475   0.473   2.058  12.070 -0.9295 -0.8261  1.5178
 3672SOL    HW222476   0.450   2.124  12.201  1.5800 -4.2819  1.2786
 3673SOL     OW22477   1.583   0.876  10.023 -0.2874  0.6179 -0.2653
 3673SOL    HW122478   1.516   0.815   9.993  0.3680 -0.9900  1.5117
 3673SOL    HW222479   1.563   0.939   9.954 -0.4691  0.3760 -0.4313
 3674SOL     OW22480   3.624   4.169   8.418 -0.2485 -0.1890 -0.3750
 3674SOL    HW122481   3.602   4.090   8.369 -0.0690 -0.7406  0.4273
 3674SOL    HW222482   3.590   4.149   8.505  1.5833  0.4386  0.4876
 3675SOL     OW22483   4.535   4.456   3.882  0.4903  0.3195  0.1295
 3675SOL    HW122484   4.602   4.475   3.815  1.3441 -3.1162  0.0243
 3675SOL    HW222485   4.518   4.541   3.923 -0.6500  1.0050 -1.7517
 3676SOL     OW22486   0.095   0.529  15.757 -0.1929  0.4081 -0.0882
 3676SOL    HW122487   0.120   0.533  15.849  1.5698  0.6091 -0.5784
 3676SOL    HW222488   0.188   0.531  15.733 -0.3676  0.0089 -0.8057
 3677SOL     OW22489   0.538   2.735   2.777  0.3799  0.3812  0.0400
 3677SOL    HW122490   0.448   2.767   2.773  0.4210  0.7365  2.0647
 3677SOL    HW222491   0.564   2.771   2.692 -0.3897 -0.6719 -0.6606
 3678SOL     OW22492   1.652   0.544   3.831 -0.0769 -0.4336  0.0844
 3678SOL    HW122493   1.609   0.502   3.757  0.0860 -2.3378  1.0845
 3678SOL    HW222494   1.715   0.608   3.797  1.1327 -0.9415  1.3953
 3679SOL     OW22495   1.984   2.013   6.320 -0.6959 -0.1017 -0.2033
 3679SOL    HW122496   2.049   1.985   6.385 -1.5503 -0.4504  0.4971
 3679SOL    HW222497   1.955   1.926   6.294  2.1602 -1.1324  0.0207
 3680SOL     OW22498   3.235   0.498   2.206  0.7360 -0.1930 -0.3287
 3680SOL    HW122499   3.274   0.411   2.205 -1.1859 -1.0703  1.3761
 3680SOL    HW222500   3.259   0.530   2.119  2.7749  0.0388  0.3083
 3681SOL     OW22501   4.611   3.797   5.552 -0.0648  0.3265 -0.3143
 3681SOL    HW122502   4.594   3.841   5.635  3.1994  0.4750  0.2627
 3681SOL    HW222503   4.519   3.789   5.524  0.0273 -0.0117 -0.5197
 3682SOL     OW22504   1.382   0.083  14.624  0.3210 -0.1574 -0.6636
 3682SOL    HW122505   1.473   0.056  14.610  0.1707  1.2619 -4.4993
 3682SOL    HW222506   1.395   0.168  14.665 -2.2128 -1.2754  2.3889
 3683SOL     OW22507   3.847   3.287   2.971 -0.2922  0.0442  0.3852
 3683SOL    HW122508   3.854   3.270   3.065  0.2145 -0.9677  0.1682
 3683SOL    HW222509   3.808   3.374   2.963  0.8752  0.6672  1.5142
 3684SOL     OW22510   4.455   1.412   2.923 -0.2890  0.0986  0.1750
 3684SOL    HW122511   4.400   1.350   2.971  0.4341 -1.0721 -0.4904
 3684SOL    HW222512   4.431   1.381   2.835 -0.1885  1.9082 -0.4848
 3685SOL     OW22513   1.026   0.511  15.262  0.3694  0.4575  0.0845
 3685SOL    HW122514   1.079   0.577  15.218 -2.2718  3.2496  1.1462
 3685SOL    HW222515   1.068   0.484  15.344  2.4499 -0.4201 -1.2490
 3686SOL     OW22516   0.054   3.834   9.494  0.1307  0.2388 -0.2604
 3686SOL    HW122517   0.148   3.839   9.477  0.5930 -3.3839  1.3201
 3686SOL    HW222518   0.048   3.891   9.570 -0.5370 -0.1784  0.0010
 3687SOL     OW22519   2.983   3.156   3.997 -0.0122 -0.5504  0.1412
 3687SOL    HW122520   3.004   3.160   4.090 -0.7369 -0.8920  0.3184
 3687SOL    HW222521   3.015   3.067   3.976  1.4040 -0.1189  0.4369
 3688SOL     OW22522   1.369   3.483   3.484 -0.0284  0.6153 -0.2678
 3688SOL    HW122523   1.340   3.550   3.422 -1.9508  1.2230  1.3181
 3688SOL    HW222524   1.429   3.527   3.544 -0.4441  0.4361  0.2797
 3689SOL     OW22525   1.297   1.827   8.204 -0.0338  0.3139  0.6379
 3689SOL    HW122526   1.255   1.866   8.281  0.5412  0.7728  0.7183
 3689SOL    HW222527   1.332   1.743   8.234  1.7565  1.0592  0.6329
 3690SOL     OW22528   4.209   1.202   2.157  0.3761  0.3227 -0.3895
 3690SOL    HW122529   4.222   1.238   2.245  0.1435  0.2940 -0.3435
 3690SOL    HW222530   4.268   1.127   2.165  0.1275 -0.1083 -2.7474
 3691SOL     OW22531   2.393   2.063   5.925  0.3243  0.5192 -0.3067
 3691SOL    HW122532   2.392   1.972   5.894 -0.3450 -0.0791  1.4885
 3691SOL    HW222533   2.440   2.107   5.854  1.9538 -0.3758  0.1984
 3692SOL     OW22534   1.949   2.510  10.109 -0.7145  0.0314 -0.1334
 3692SOL    HW122535   1.861   2.496  10.073 -0.0153  1.7392 -2.4868
 3692SOL    HW222536   1.992   2.533  10.027  0.0070 -1.2322 -0.1117
 3693SOL     OW22537   3.512   2.996   4.822 -0.2764  0.1229 -0.5795
 3693SOL    HW122538   3.427   2.956   4.842  1.5406 -2.3319  2.2405
 3693SOL    HW222539   3.511   3.036   4.909  2.2800 -0.9210 -0.0821
 3694SOL     OW22540   0.639   3.701  16.075 -0.3371 -0.0410  0.1938
 3694SOL    HW122541   0.686   3.785  16.083  0.6172 -0.7327  1.7930
 3694SOL    HW222542   0.561   3.734  16.030 -0.6908  1.2834  1.7634
 3695SOL     OW22543   4.300   3.879  16.618 -0.4671 -0.3806  0.3367
 3695SOL    HW122544   4.305   3.911  16.709  1.0329 -1.6782  0.7061
 3695SOL    HW222545   4.283   3.787  16.636  0.2361 -0.6980 -0.6382
 3696SOL     OW22546   3.071   2.332   9.853 -0.3715  0.0150  0.3436
 3696SOL    HW122547   3.003   2.385   9.895  0.1612 -0.8975  2.3522
 3696SOL    HW222548   3.014   2.290   9.788 -0.7580  1.1868 -0.0744
 3697SOL     OW22549   1.610   0.621   8.277  0.3721 -0.7522 -0.0885
 3697SOL    HW122550   1.559   0.547   8.309 -0.5471  0.2747  0.8314
 3697SOL    HW222551   1.642   0.653   8.362 -0.8976 -0.1764  0.1794
 3698SOL     OW22552   2.685   1.511   5.531 -0.2495  0.4766  0.1960
 3698SOL    HW122553   2.681   1.568   5.608 -2.0996 -0.4315  0.7746
 3698SOL    HW222554   2.780   1.497   5.531 -0.1298  1.2304 -1.1696
 3699SOL     OW22555   3.533   4.348   8.758  0.0135  0.2641  0.3691
 3699SOL    HW122556   3.528   4.253   8.752 -3.1816  0.3847  1.3350
 3699SOL    HW222557   3.627   4.367   8.760  0.0953 -0.0790 -0.3257
 3700SOL     OW22558   0.457   1.825   7.458  0.2859  0.1565  0.3201
 3700SOL    HW122559   0.514   1.781   7.395  0.0752 -0.5170  0.5968
 3700SOL    HW222560   0.498   1.910   7.473 -0.1273  0.2993  0.6398
 3701SOL     OW22561   2.238   3.262   3.676 -0.5679  0.6632 -0.6419
 3701SOL    HW122562   2.283   3.337   3.713  1.2555 -1.3607  1.2786
 3701SOL    HW222563   2.164   3.275   3.735  0.8980 -1.2142  1.6237
 3702SOL     OW22564   3.721   2.684  12.155 -0.1342 -0.4190 -0.0793
 3702SOL    HW122565   3.703   2.776  12.174 -1.1658 -0.8249  0.8925
 3702SOL    HW222566   3.814   2.681  12.132 -0.8216 -1.6409 -2.6229
 3703SOL     OW22567   0.796   2.798  12.876  0.1587 -0.2109  0.2907
 3703SOL    HW122568   0.728   2.751  12.924  0.9559  1.8014  3.3415
 3703SOL    HW222569   0.812   2.867  12.939 -0.9554 -0.3717  0.7404
 3704SOL     OW22570   0.804   0.887   6.657  0.3636 -0.2731  0.1149
 3704SOL    HW122571   0.752   0.966   6.674  2.3225  0.7922  1.2428
 3704SOL    HW222572   0.882   0.925   6.699 -1.1113  1.2575  1.5130
 3705SOL     OW22573   3.258   3.216   4.823  0.1671 -0.0503 -0.3099
 3705SOL    HW122574   3.197   3.145   4.803  0.7217 -0.6569  0.1571
 3705SOL    HW222575   3.329   3.195   4.763  0.6225  1.4386 -0.2944
 3706SOL     OW22576   4.155   1.994   1.710 -0.0083 -0.0443 -0.3289
 3706SOL    HW122577   4.239   2.012   1.752  1.0941 -0.8744 -2.1445
 3706SOL    HW222578   4.091   2.005   1.780 -1.2056 -0.8819 -1.3011
 3707SOL     OW22579   4.071   3.183   3.359  0.8815  0.1411 -0.0731
 3707SOL    HW122580   3.995   3.227   3.320  0.0707 -2.1170 -1.0505
 3707SOL    HW222581   4.143   3.225   3.313  1.1734 -0.6455 -0.3463
 3708SOL     OW22582   2.822   2.890   5.403  0.4362 -0.2766 -0.3465
 3708SOL    HW122583   2.809   2.839   5.323  0.7317 -0.7379 -0.1009
 3708SOL    HW222584   2.847   2.827   5.471 -0.2736  1.9407  1.9664
 3709SOL     OW22585   1.571   3.231   0.349  0.9675 -0.3773  0.2006
 3709SOL    HW122586   1.583   3.149   0.396 -0.2602 -1.8719 -2.1067
 3709SOL    HW222587   1.476   3.235   0.350  0.9630 -0.1510 -0.5325
 3710SOL     OW22588   4.156   0.580   2.792  0.1752  0.6104  0.3418
 3710SOL    HW122589   4.063   0.576   2.769  1.2106 -1.8804 -3.2628
 3710SOL    HW222590   4.157   0.515   2.862 -2.5812 -0.3120 -0.4794
 3711SOL     OW22591   3.402   4.436   8.996 -0.0530  0.0810  0.0837
 3711SOL    HW122592   3.332   4.465   8.937  0.3450  1.7346  0.4180
 3711SOL    HW222593   3.455   4.396   8.928  0.9970 -1.3822  1.7837
 3712SOL     OW22594   0.815   1.262  14.008  0.1611  0.1594 -0.2085
 3712SOL    HW122595   0.719   1.253  14.005  0.0247  1.6965 -0.3682
 3712SOL    HW222596   0.830   1.276  13.914  2.1242 -0.7386 -0.0246
 3713SOL     OW22597   2.016   1.022  12.716  0.4197  0.8649  0.1367
 3713SOL    HW122598   1.934   0.983  12.684 -0.7843  1.4779  2.5292
 3713SOL    HW222599   1.979   1.092  12.770  0.8570 -0.2753  1.8900
 3714SOL     OW22600   1.392   0.508   6.509  0.0579 -0.2933 -0.1468
 3714SOL    HW122601   1.416   0.492   6.418 -0.0696  1.4528 -0.4869
 3714SOL    HW222602   1.420   0.599   6.518  2.4142 -0.9900 -0.5407
 3715SOL     OW22603   2.906   2.850  13.744  0.0972 -0.3071  0.3472
 3715SOL    HW122604   2.989   2.811  13.772  0.0332 -1.7135 -1.5222
 3715SOL    HW222605   2.920   2.938  13.781 -1.1784  0.8894 -2.0341
 3716SOL     OW22606   2.497   4.142   8.784 -0.0529  0.0584 -0.5501
 3716SOL    HW122607   2.470   4.228   8.751  1.6848  0.3792 -1.1574
 3716SOL    HW222608   2.592   4.145   8.768 -0.1645 -0.1065 -1.2526
 3717SOL     OW22609   1.458   3.165  11.167  0.2647  0.3319 -0.4203
 3717SOL    HW122610   1.413   3.090  11.205  0.5827 -0.7783 -2.2397
 3717SOL    HW222611   1.395   3.217  11.117 -0.9499  0.7844  1.5922
 3718SOL     OW22612   3.767   0.442   7.865 -0.1699 -0.4869 -0.0691
 3718SOL    HW122613   3.791   0.531   7.840  0.5018 -0.6567 -0.0300
 3718SOL    HW222614   3.796   0.439   7.957 -0.2161  0.9253 -0.0045
 3719SOL     OW22615   0.588   4.609   6.246 -0.1421 -0.5994  0.1757
 3719SOL    HW122616   0.576   4.522   6.209  1.4755 -0.3954 -0.8042
 3719SOL    HW222617   0.521   4.648   6.189  1.2577  0.6850 -0.5874
 3720SOL     OW22618   3.820   4.065   4.363 -0.0521  0.3515  0.2723
 3720SOL    HW122619   3.862   4.117   4.295  2.3012 -1.1200  0.6280
 3720SOL    HW222620   3.755   4.123   4.404  0.5022 -0.3684  2.1989
 3721SOL     OW22621   3.187   1.655   7.992 -0.0367 -0.0090  0.1359
 3721SOL    HW122622   3.206   1.733   7.941 -1.3407  0.1861 -0.0471
 3721SOL    HW222623   3.275   1.642   8.029 -0.2943  1.1073  1.1273
 3722SOL     OW22624   0.602   4.712   7.974 -0.0241  0.5277 -0.4197
 3722SOL    HW122625   0.549   4.660   7.913 -1.4713  1.7974 -0.2411
 3722SOL    HW222626   0.620   4.638   8.032 -0.1540  0.6596 -0.2098
 3723SOL     OW22627   0.796   3.596   7.396  0.9517  1.0771 -0.0558
 3723SOL    HW122628   0.812   3.621   7.487 -0.2642  0.3189  0.3599
 3723SOL    HW222629   0.746   3.515   7.403  1.6326  0.8170  1.7188
 3724SOL     OW22630   2.703   0.785   7.629  0.2840  0.0741  0.1742
 3724SOL    HW122631   2.704   0.690   7.617  0.3299 -0.0667  1.2875
 3724SOL    HW222632   2.629   0.791   7.689  1.0813  2.9247  0.8618
 3725SOL     OW22633   4.430   4.137   2.243 -0.1286  0.2418  0.3172
 3725SOL    HW122634   4.434   4.049   2.281 -2.4081  0.9809  2.2731
 3725SOL    HW222635   4.491   4.122   2.171  1.0578 -0.4133  1.4570
 3726SOL     OW22636   4.694   4.434   5.843 -0.0177 -0.0101 -0.4766
 3726SOL    HW122637   4.660   4.388   5.766 -2.1508  0.6205  0.0927
 3726SOL    HW222638   4.631   4.504   5.858 -1.5984 -1.2508 -1.4086
 3727SOL     OW22639   4.242   1.348   2.586  0.6321  0.3418 -0.3023
 3727SOL    HW122640   4.279   1.295   2.515  0.2515  0.8886 -0.9164
 3727SOL    HW222641   4.231   1.438   2.556  0.4677  0.1452 -0.8445
 3728SOL     OW22642   0.061   0.715  12.430  0.0711 -0.1976  0.4788
 3728SOL    HW122643   0.094   0.628  12.451 -2.5544 -0.8730  1.7553
 3728SOL    HW222644   0.146   0.759  12.425  0.4042 -0.5105  3.5323
 3729SOL     OW22645   2.353   4.549   1.661  0.1040 -0.3846 -0.2815
 3729SOL    HW122646   2.393   4.513   1.582  2.4507 -3.0202  2.0574
 3729SOL    HW222647   2.262   4.559   1.635 -1.0201 -2.3049  2.8618
 3730SOL     OW22648   4.029   1.733   2.073 -0.4914  0.4459  0.8618
 3730SOL    HW122649   3.968   1.671   2.033  1.2411  1.4301 -3.3135
 3730SOL    HW222650   4.003   1.818   2.038 -0.0352 -0.5546 -1.9799
 3731SOL     OW22651   2.751   4.283  16.772  0.0516 -0.0485 -0.6136
 3731SOL    HW122652   2.780   4.321  16.690 -0.8576 -1.3735 -1.5572
 3731SOL    HW222653   2.705   4.362  16.800 -1.1172 -0.9467  0.0483
 3732SOL     OW22654   3.414   3.446   3.400 -0.5918  0.4855 -0.2474
 3732SOL    HW122655   3.322   3.420   3.401 -0.8457  1.4761  0.9119
 3732SOL    HW222656   3.415   3.539   3.419 -1.4423  0.1639  1.3479
 3733SOL     OW22657   2.959   2.919   6.484  0.0069  0.1334 -0.1064
 3733SOL    HW122658   3.028   2.964   6.435 -0.1292 -0.2406 -0.6513
 3733SOL    HW222659   2.889   2.980   6.462 -0.9687 -0.2303  1.9923
 3734SOL     OW22660   0.981   4.151   2.971  0.4131  0.5302 -0.4899
 3734SOL    HW122661   0.968   4.104   3.053 -0.6645 -0.2891 -1.1211
 3734SOL    HW222662   1.030   4.081   2.929  0.7237 -0.6005  1.7986
 3735SOL     OW22663   0.401   1.107   8.661 -0.2843 -0.5342 -0.0876
 3735SOL    HW122664   0.341   1.083   8.731 -0.4294  1.7145  0.5642
 3735SOL    HW222665   0.442   1.186   8.697 -3.2988  0.2183  1.6659
 3736SOL     OW22666   2.001   1.517   8.756  0.2899 -0.3536 -0.0911
 3736SOL    HW122667   1.956   1.456   8.698  0.4351  1.2239 -1.8897
 3736SOL    HW222668   1.938   1.588   8.769 -0.5712 -1.3089  0.9057
 3737SOL     OW22669   0.518   3.820   0.034  0.2216 -0.3046 -0.1727
 3737SOL    HW122670   0.566   3.754  17.669 -2.2165 -0.2859 -2.4926
 3737SOL    HW222671   0.584   3.837   0.101 -0.5672  2.6186 -0.1336
 3738SOL     OW22672   2.214   3.246  10.320 -0.0103 -0.9039  0.3347
 3738SOL    HW122673   2.197   3.235  10.226  0.8521  2.4505 -0.1972
 3738SOL    HW222674   2.301   3.208  10.319 -0.0828 -1.0259 -2.3704
 3739SOL     OW22675   4.156   0.161   1.533 -0.5083 -0.1277 -0.1195
 3739SOL    HW122676   4.149   0.244   1.581 -1.4958  0.0572 -0.5795
 3739SOL    HW222677   4.162   0.095   1.602 -2.9127 -0.7397 -0.5058
 3740SOL     OW22678   0.663   3.160   3.086  0.2902  0.2870  0.2366
 3740SOL    HW122679   0.665   3.070   3.052  0.3997  0.0641  0.8248
 3740SOL    HW222680   0.621   3.197   3.009 -1.9612 -1.6565  0.5320
 3741SOL     OW22681   3.215   4.029   2.154  0.1027 -0.1026  0.3311
 3741SOL    HW122682   3.188   3.980   2.231 -1.8911 -0.7575 -0.7816
 3741SOL    HW222683   3.280   4.092   2.182  0.1170 -0.6694  1.5624
 3742SOL     OW22684   0.983   1.052   3.056 -0.2624 -0.3562 -0.0542
 3742SOL    HW122685   0.923   1.125   3.039 -0.4097 -1.0744 -2.6627
 3742SOL    HW222686   1.013   1.050   2.965 -0.5633  4.3650 -0.2640
 3743SOL     OW22687   4.279   3.375   8.261 -0.5459  0.4385  0.4673
 3743SOL    HW122688   4.310   3.286   8.247 -0.8170  0.6074 -1.1845
 3743SOL    HW222689   4.232   3.396   8.181 -3.7196  0.0740  2.2657
 3744SOL     OW22690   3.671   1.592   1.492 -0.0451 -0.1831 -0.5087
 3744SOL    HW122691   3.708   1.565   1.408  1.2176  0.5578 -0.1831
 3744SOL    HW222692   3.601   1.650   1.462 -0.7554 -0.4769  0.5687
 3745SOL     OW22693   0.250   3.441  11.658  0.0835  0.3973 -0.3055
 3745SOL    HW122694   0.274   3.400  11.741 -1.5637  0.8102  0.3610
 3745SOL    HW222695   0.169   3.480  11.688 -0.2281 -1.0317  0.7119
 3746SOL     OW22696   3.859   2.663  11.490  0.0877  0.3176  0.1159
 3746SOL    HW122697   3.854   2.583  11.438 -0.8707  1.1547 -1.0630
 3746SOL    HW222698   3.913   2.643  11.567  0.7723  0.4156 -0.3363
 3747SOL     OW22699   1.794   2.171  11.986  0.3359  0.1929  0.1347
 3747SOL    HW122700   1.762   2.090  11.946 -1.1266  0.9792 -0.2588
 3747SOL    HW222701   1.823   2.217  11.908 -0.4552  0.2957 -0.0966
 3748SOL     OW22702   1.123   4.358   5.054  0.3141  0.6185  0.1482
 3748SOL    HW122703   1.073   4.436   5.078  0.3524  0.6937 -0.0211
 3748SOL    HW222704   1.183   4.341   5.127  1.5936  1.4266 -0.7250
 3749SOL     OW22705   1.874   1.948  17.522 -1.2284  0.4746 -0.1800
 3749SOL    HW122706   1.868   2.043  17.517  2.2844  0.6795 -0.5456
 3749SOL    HW222707   1.914   1.926  17.437 -1.1156  0.0881 -0.0244
 3750SOL     OW22708   2.238   2.768   6.785  0.6303 -0.7560  0.5399
 3750SOL    HW122709   2.273   2.851   6.753  1.4691 -1.1501  0.4442
 3750SOL    HW222710   2.206   2.785   6.873 -0.5878  2.6499 -0.5806
 3751SOL     OW22711   2.005   2.357   1.933  0.0789 -0.1006 -0.0991
 3751SOL    HW122712   1.918   2.328   1.907  0.3587  0.5511 -1.7849
 3751SOL    HW222713   1.984   2.444   1.965  0.9398  0.2465 -0.4625
 3752SOL     OW22714   4.521   4.674  13.639  0.1854 -0.0144  0.0740
 3752SOL    HW122715   4.559   0.003  13.566  1.3842  2.3131  2.2695
 3752SOL    HW222716   4.532   0.015  13.711 -0.5032  1.4661 -1.0835
 3753SOL     OW22717   1.164   1.480   4.766 -0.6600  0.1799 -0.0089
 3753SOL    HW122718   1.118   1.563   4.780  3.2100  2.7718 -2.5045
 3753SOL    HW222719   1.094   1.415   4.762 -0.4502 -0.0948  0.7211
 3754SOL     OW22720   0.394   1.063   8.174  0.3624 -0.2332 -0.6372
 3754SOL    HW122721   0.361   1.080   8.262 -0.5859 -1.0475 -0.8294
 3754SOL    HW222722   0.314   1.083   8.124 -0.6222 -0.1775  0.9471
 3755SOL     OW22723   0.442   3.404   2.875 -0.5683 -0.0355 -0.0401
 3755SOL    HW122724   0.349   3.381   2.866 -1.1315  0.9963  2.9262
 3755SOL    HW222725   0.486   3.348   2.811 -2.7850  0.0654 -1.6676
 3756SOL     OW22726   3.115   3.001   7.268 -0.2312 -0.1367 -0.1067
 3756SOL    HW122727   3.073   3.025   7.185  0.8575 -0.4462 -0.7527
 3756SOL    HW222728   3.201   3.039   7.250 -0.1825 -0.5167 -0.6560
 3757SOL     OW22729   0.615   2.705   6.598  0.1854  0.0172  0.0927
 3757SOL    HW122730   0.681   2.732   6.662  0.2379  2.0160 -0.8030
 3757SOL    HW222731   0.541   2.754   6.634 -1.1690 -2.9354  1.3146
 3758SOL     OW22732   3.992   0.326   1.937 -0.1437  0.1493  0.3631
 3758SOL    HW122733   4.023   0.236   1.947  1.1861  0.5112 -0.3763
 3758SOL    HW222734   3.963   0.354   2.023  0.6921  0.0879  0.6692
 3759SOL     OW22735   2.164   2.140   0.870 -0.0343 -0.3110 -0.0530
 3759SOL    HW122736   2.084   2.192   0.873  1.4859  2.1400 -1.3590
 3759SOL    HW222737   2.126   2.055   0.892 -0.4445  0.2189  1.2988
 3760SOL     OW22738   2.399   4.181   3.442 -0.0904  0.1707 -0.3915
 3760SOL    HW122739   2.375   4.124   3.369  1.5526 -0.5062 -0.3867
 3760SOL    HW222740   2.476   4.140   3.480 -0.8270 -1.8639 -1.1243
 3761SOL     OW22741   0.986   3.374   7.306 -0.0965 -0.7393 -0.8261
 3761SOL    HW122742   1.020   3.371   7.395  2.3782 -0.4818 -1.7558
 3761SOL    HW222743   0.904   3.419   7.326 -0.1712 -0.5301 -1.5998
 3762SOL     OW22744   4.048   2.333   1.731  0.1805  0.0504  0.3775
 3762SOL    HW122745   3.960   2.370   1.733  0.9303  1.9593 -2.2314
 3762SOL    HW222746   4.073   2.324   1.823  0.4046  1.3727  0.4435
 3763SOL     OW22747   1.730   1.136   3.010  0.0986 -0.3137 -0.3138
 3763SOL    HW122748   1.776   1.091   2.940 -0.7311 -1.1823 -0.3034
 3763SOL    HW222749   1.682   1.070   3.060  0.1614  0.6176  0.9928
 3764SOL     OW22750   2.873   0.162  14.619  0.3527 -0.6080 -0.1579
 3764SOL    HW122751   2.903   0.110  14.544 -0.5799 -0.3833 -0.6841
 3764SOL    HW222752   2.783   0.129  14.612  0.0774  0.6883 -2.9335
 3765SOL     OW22753   4.509   0.347   5.581 -0.2359  0.1735 -0.4150
 3765SOL    HW122754   4.579   0.282   5.574 -1.2955 -0.9289 -0.6659
 3765SOL    HW222755   4.534   0.409   5.512  0.1622 -1.2749 -1.5537
 3766SOL     OW22756   0.243   1.764   3.974  0.1871 -0.3161 -0.3752
 3766SOL    HW122757   0.223   1.713   3.896  0.7534 -0.9214 -0.1195
 3766SOL    HW222758   0.299   1.834   3.940 -1.7844 -0.0584 -3.0929
 3767SOL     OW22759   2.058   2.913   7.362  0.2732 -0.2735  0.0416
 3767SOL    HW122760   2.031   2.824   7.339 -0.3173 -0.0760 -0.0208
 3767SOL    HW222761   2.032   2.909   7.455  0.1185 -0.4663 -0.0094
 3768SOL     OW22762   3.748   2.781   5.222  0.1097  0.3712  0.6010
 3768SOL    HW122763   3.822   2.731   5.256 -1.6434 -1.6666  1.3989
 3768SOL    HW222764   3.790   2.837   5.157  0.1603 -1.2189 -0.7249
 3769SOL     OW22765   2.467   2.194  12.350  0.0376 -0.2389 -0.6791
 3769SOL    HW122766   2.457   2.257  12.279 -2.0351 -0.5090 -0.6446
 3769SOL    HW222767   2.465   2.111  12.302 -0.6916 -0.4001 -0.3775
 3770SOL     OW22768   4.569   4.356   5.570  0.2593  0.0222  0.2284
 3770SOL    HW122769   4.539   4.301   5.498  1.4441 -1.2695  0.7118
 3770SOL    HW222770   4.540   4.441   5.537 -0.7506 -0.5953 -0.4543
 3771SOL     OW22771   4.309   3.709   0.471 -0.0946 -0.3678 -0.6156
 3771SOL    HW122772   4.224   3.671   0.446 -0.4514  0.0021  0.0404
 3771SOL    HW222773   4.308   3.685   0.564  0.0273  1.0442 -0.2587
 3772SOL     OW22774   0.368   2.866   7.298 -0.2804 -0.0853  0.0300
 3772SOL    HW122775   0.377   2.774   7.275 -1.9648 -0.3910  0.6214
 3772SOL    HW222776   0.414   2.875   7.381  0.9078  1.6805 -0.8042
 3773SOL     OW22777   4.353   3.494   7.831  0.2661  0.1344  0.2102
 3773SOL    HW122778   4.328   3.527   7.917  2.0987  1.8540  0.0667
 3773SOL    HW222779   4.313   3.407   7.825  0.2383  0.2837 -1.9736
 3774SOL     OW22780   4.578   3.904  13.551 -0.4693  0.1912  0.6952
 3774SOL    HW122781   4.486   3.900  13.576 -0.8418  1.2208 -0.4833
 3774SOL    HW222782   4.612   3.980  13.598 -0.6740  0.9245 -0.3536
 3775SOL     OW22783   3.446   0.513  12.575 -0.4122 -0.0230  0.3834
 3775SOL    HW122784   3.446   0.602  12.611  0.0718  0.2629 -0.3357
 3775SOL    HW222785   3.355   0.510  12.545 -0.0272 -2.0822 -0.5864
 3776SOL     OW22786   3.771   2.076  16.282  0.3357 -0.1547  0.1020
 3776SOL    HW122787   3.677   2.077  16.300  0.3468 -0.3353  0.1670
 3776SOL    HW222788   3.787   2.162  16.322 -0.7361 -0.1822  0.5944
 3777SOL     OW22789   4.603   3.206  14.143 -0.0679  0.1606 -0.3487
 3777SOL    HW122790   4.561   3.292  14.133 -0.7786  0.2299  3.3493
 3777SOL    HW222791   4.655   3.224  14.221  0.1829  2.9692 -1.1712
 3778SOL     OW22792   2.886   2.928  13.470  0.8621 -0.0526 -0.5561
 3778SOL    HW122793   2.886   2.922  13.565  1.7742  1.9801 -0.4213
 3778SOL    HW222794   2.932   2.847  13.454 -0.0420 -1.0030  1.6371
 3779SOL     OW22795   3.158   3.447   0.430  0.8697 -0.1969 -0.1408
 3779SOL    HW122796   3.108   3.367   0.448 -2.1710  1.8330  0.4354
 3779SOL    HW222797   3.102   3.496   0.370 -0.7629 -2.0248 -0.1125
 3780SOL     OW22798   0.851   3.622   8.739 -0.0277 -0.1165  0.4349
 3780SOL    HW122799   0.898   3.630   8.656 -1.4604  1.7144 -0.2035
 3780SOL    HW222800   0.876   3.709   8.772  1.0759 -0.7177  1.1796
 3781SOL     OW22801   3.522   0.550   0.413 -0.2029 -0.3547 -0.0448
 3781SOL    HW122802   3.559   0.482   0.357 -0.3539  0.4711 -1.1368
 3781SOL    HW222803   3.430   0.531   0.399 -0.9273  0.4012  3.6306
 3782SOL     OW22804   3.785   1.777   3.865 -0.2521  0.3092  0.4186
 3782SOL    HW122805   3.809   1.703   3.810  0.4952  0.4974  0.4925
 3782SOL    HW222806   3.695   1.757   3.891 -0.3015 -1.2262 -0.9094
 3783SOL     OW22807   2.888   0.863   6.313  0.4067  0.5897 -0.4547
 3783SOL    HW122808   2.962   0.913   6.277  0.6392  1.4187  1.1778
 3783SOL    HW222809   2.834   0.923   6.365 -0.2978 -0.5059  0.0843
 3784SOL     OW22810   3.862   3.440   5.375 -0.6704 -0.8160 -0.5032
 3784SOL    HW122811   3.853   3.461   5.468  1.4783  0.5224 -0.5866
 3784SOL    HW222812   3.817   3.516   5.338  2.5062  0.8739 -0.9640
 3785SOL     OW22813   2.272   3.564  11.436 -0.3202  0.0805 -0.0463
 3785SOL    HW122814   2.285   3.471  11.458 -0.9877 -0.1862 -0.7769
 3785SOL    HW222815   2.312   3.568  11.349  2.3843 -2.9217  1.0165
 3786SOL     OW22816   0.497   4.558   1.796 -0.2439  1.0472  0.2115
 3786SOL    HW122817   0.406   4.545   1.822  0.1883 -2.3495  0.0083
 3786SOL    HW222818   0.527   4.468   1.806 -2.7967  0.3489  1.4561
 3787SOL     OW22819   2.181   0.872   3.364  0.0003 -0.4007  0.1638
 3787SOL    HW122820   2.195   0.782   3.394 -0.7830 -0.7651 -0.5678
 3787SOL    HW222821   2.157   0.856   3.272 -0.3814 -0.7604  0.3268
 3788SOL     OW22822   1.774   1.436   3.901  0.4420 -0.0422  0.0277
 3788SOL    HW122823   1.698   1.494   3.905 -0.5481 -1.3357 -0.0206
 3788SOL    HW222824   1.847   1.498   3.900 -0.6822  1.2374 -2.2058
 3789SOL     OW22825   4.115   1.948  13.595 -0.3266 -0.2471 -0.3497
 3789SOL    HW122826   4.023   1.973  13.606 -0.8051 -1.4592 -1.6746
 3789SOL    HW222827   4.137   1.950  13.688 -1.1583  1.3670 -0.1853
 3790SOL     OW22828   2.746   1.695   7.691  0.1613  0.1522 -0.8210
 3790SOL    HW122829   2.713   1.684   7.602 -1.1533 -1.6592 -0.1131
 3790SOL    HW222830   2.667   1.704   7.745  2.2647  1.5300  2.0455
 3791SOL     OW22831   3.859   3.672   5.846  0.4151 -0.4715 -0.4217
 3791SOL    HW122832   3.814   3.731   5.785 -1.7568 -2.1727 -0.4368
 3791SOL    HW222833   3.894   3.607   5.785  1.8434 -0.4888  0.4237
 3792SOL     OW22834   4.415   0.378   8.580 -0.1632  0.3571  0.0166
 3792SOL    HW122835   4.442   0.301   8.531  1.8870 -0.0695  1.8019
 3792SOL    HW222836   4.321   0.367   8.567 -0.2205  0.5184  0.2873
 3793SOL     OW22837   2.963   3.872   2.575 -0.7403 -0.0616 -0.5558
 3793SOL    HW122838   2.950   3.967   2.578  1.9707  0.3236 -1.4712
 3793SOL    HW222839   2.895   3.849   2.638  0.3491  0.4005  0.7888
 3794SOL     OW22840   4.073   1.826  10.120  0.4384  0.5938  0.5521
 3794SOL    HW122841   4.005   1.887  10.147  0.2430  0.6435 -0.0380
 3794SOL    HW222842   4.115   1.875  10.049  0.1665  0.5800  0.3826
 3795SOL     OW22843   2.988   4.415   9.131  0.5648  0.0253  0.3952
 3795SOL    HW122844   2.977   4.498   9.177  0.4488 -0.0143  0.4389
 3795SOL    HW222845   3.078   4.391   9.155  0.2498 -1.0148  0.5155
 3796SOL     OW22846   2.468   0.322   1.573 -0.1132  0.4644 -0.1500
 3796SOL    HW122847   2.460   0.392   1.509  0.6749  0.0942 -0.6608
 3796SOL    HW222848   2.470   0.247   1.513  0.5381  0.7267 -0.4529
 3797SOL     OW22849   1.580   4.118   3.537 -0.8119 -0.8499  0.3127
 3797SOL    HW122850   1.616   4.141   3.451  3.0655  2.5211  2.8288
 3797SOL    HW222851   1.489   4.143   3.521 -0.9832  0.1334  2.8771
 3798SOL     OW22852   4.453   0.404   8.140 -0.2100 -0.3704 -0.0611
 3798SOL    HW122853   4.438   0.498   8.152  3.3572  0.3074 -0.9236
 3798SOL    HW222854   4.369   0.369   8.169 -0.5779  0.9927  0.5332
 3799SOL     OW22855   1.751   3.876   9.386  0.0204  0.1793  0.5931
 3799SOL    HW122856   1.701   3.947   9.428 -2.8085 -1.5427  0.1242
 3799SOL    HW222857   1.814   3.930   9.339 -1.2615 -1.2151 -2.6877
 3800SOL     OW22858   1.243   0.968  14.750 -0.6473 -0.0521 -0.0748
 3800SOL    HW122859   1.231   0.936  14.840 -1.1052 -0.5758 -0.3250
 3800SOL    HW222860   1.230   0.879  14.716  0.1038  0.3845 -1.4577
 3801SOL     OW22861   0.134   0.295   4.151 -0.2764  0.2736 -0.2014
 3801SOL    HW122862   0.135   0.202   4.127  1.5192  0.1628  0.2388
 3801SOL    HW222863   0.223   0.323   4.174 -0.3148  0.7793 -0.6639
 3802SOL     OW22864   0.767   4.109   6.055 -0.1090 -0.2424 -0.1544
 3802SOL    HW122865   0.781   4.018   6.079  1.2805 -0.1379 -0.6049
 3802SOL    HW222866   0.752   4.156   6.138 -0.2510 -0.0054 -0.3132
 3803SOL     OW22867   3.010   2.579   1.781 -0.7203 -1.0898 -0.5494
 3803SOL    HW122868   2.989   2.591   1.688 -0.9851 -2.2510 -0.6365
 3803SOL    HW222869   2.933   2.555   1.832 -1.0836 -0.2293 -0.6797
 3804SOL     OW22870   0.724   4.556  17.518  0.1927 -0.3590 -0.5071
 3804SOL    HW122871   0.713   4.650  17.502 -0.5915  0.1197  2.7318
 3804SOL    HW222872   0.637   4.531  17.549 -0.6668  0.8246 -1.9777
 3805SOL     OW22873   2.213   2.827   7.052  0.4165  0.0306 -0.0922
 3805SOL    HW122874   2.271   2.820   7.128  1.6854  0.1153 -1.0542
 3805SOL    HW222875   2.128   2.817   7.095  0.9041 -1.1052  0.6138
 3806SOL     OW22876   1.784   0.035   6.933 -0.4523 -0.1027 -0.2542
 3806SOL    HW122877   1.710   0.020   6.992  0.0452  0.9013  0.6392
 3806SOL    HW222878   1.779   0.126   6.903 -0.5252  0.0274  0.1459
 3807SOL     OW22879   0.467   4.186  17.517 -0.3938  0.0882  0.4650
 3807SOL    HW122880   0.562   4.185  17.520 -0.3900  0.6555  0.4412
 3807SOL    HW222881   0.449   4.223  17.604  1.0805 -0.2200  0.9040
 3808SOL     OW22882   2.146   0.811   6.347 -0.1078  0.5702 -0.3513
 3808SOL    HW122883   2.227   0.820   6.399 -0.4700 -1.0513  0.5014
 3808SOL    HW222884   2.175   0.759   6.272  2.1140  0.6476  0.4264
 3809SOL     OW22885   1.928   3.128   8.488 -0.3668 -0.1033 -0.1430
 3809SOL    HW122886   2.014   3.086   8.486 -0.3700 -0.1375  0.7298
 3809SOL    HW222887   1.912   3.100   8.398  0.2930  1.4884 -0.7608
 3810SOL     OW22888   2.319   4.006  15.436  0.2315  0.1223  0.3041
 3810SOL    HW122889   2.371   4.085  15.420  0.7107 -0.1548  0.5215
 3810SOL    HW222890   2.305   4.004  15.530 -0.7345 -0.4409  0.1541
 3811SOL     OW22891   0.676   2.938   3.839 -0.3917  0.0932  0.0219
 3811SOL    HW122892   0.603   2.895   3.885 -0.3944 -0.8959 -0.8917
 3811SOL    HW222893   0.708   2.994   3.909  1.0760  0.4115 -0.8937
 3812SOL     OW22894   3.741   2.782   6.018  0.0379 -0.4479 -0.6477
 3812SOL    HW122895   3.712   2.724   6.089  0.8845  1.2327  1.0692
 3812SOL    HW222896   3.790   2.845   6.070  0.5806 -0.5184 -1.0711
 3813SOL     OW22897   0.626   0.398  12.690  0.0995  0.1145 -0.3931
 3813SOL    HW122898   0.618   0.323  12.749 -1.2444  0.5367 -0.0298
 3813SOL    HW222899   0.549   0.447  12.718  0.7258  1.5042 -1.1182
 3814SOL     OW22900   0.217   0.849   5.860  0.4423  0.0763 -0.2865
 3814SOL    HW122901   0.159   0.782   5.896  1.4405 -0.0520  1.0569
 3814SOL    HW222902   0.225   0.910   5.933 -0.4441  1.0119 -0.9648
 3815SOL     OW22903   0.390   3.005   2.383 -0.5010 -0.2729 -0.0671
 3815SOL    HW122904   0.312   3.034   2.336 -2.0033 -2.7375  0.9289
 3815SOL    HW222905   0.462   3.026   2.323 -1.5898 -1.2180 -1.6953
 3816SOL     OW22906   1.437   0.739  17.620  0.1241  0.2013 -0.1744
 3816SOL    HW122907   1.484   0.656  17.622 -2.9089 -1.5097  0.2282
 3816SOL    HW222908   1.372   0.714  17.685 -0.8849  1.5295 -0.6718
 3817SOL     OW22909   3.889   3.621   3.561 -0.2707  0.1567 -0.2387
 3817SOL    HW122910   3.910   3.608   3.468 -0.1257  2.6637 -0.5455
 3817SOL    HW222911   3.806   3.668   3.562 -1.0751 -1.3638  2.6636
 3818SOL     OW22912   2.265   2.600   5.280  0.0727 -0.0602  0.0645
 3818SOL    HW122913   2.201   2.533   5.258  3.3773 -2.0406 -3.5530
 3818SOL    HW222914   2.343   2.579   5.228 -0.1061  0.9513 -0.6093
 3819SOL     OW22915   0.329   1.108  12.526  0.0602  0.5144  0.5302
 3819SOL    HW122916   0.234   1.105  12.527  0.0841 -0.5457 -1.5787
 3819SOL    HW222917   0.356   1.104  12.618 -2.3785  1.2330  1.2792
 3820SOL     OW22918   1.982   1.611   5.750  0.2604  0.9646 -0.2785
 3820SOL    HW122919   1.978   1.584   5.658  1.9163 -1.8769  0.5012
 3820SOL    HW222920   2.063   1.583   5.792  0.0386  2.5364  1.2207
 3821SOL     OW22921   4.477   2.063   4.756  0.3627 -0.1462 -1.0112
 3821SOL    HW122922   4.398   2.059   4.809  0.1444 -0.1928 -1.3400
 3821SOL    HW222923   4.538   2.094   4.823 -2.0068 -2.1881  2.0725
 3822SOL     OW22924   3.498   0.382   8.937  0.4037 -0.0931  0.5375
 3822SOL    HW122925   3.580   0.431   8.939  0.3741 -0.0067 -0.5911
 3822SOL    HW222926   3.491   0.343   9.025  3.8724 -0.1278  0.7721
 3823SOL     OW22927   2.106   1.382  15.562 -0.5769  0.3102  0.4839
 3823SOL    HW122928   2.075   1.445  15.498 -0.3725  1.3301  1.3976
 3823SOL    HW222929   2.196   1.363  15.536 -1.4559 -1.8861 -0.9524
 3824SOL     OW22930   1.440   1.537   5.065 -0.0595  0.0479 -0.4030
 3824SOL    HW122931   1.522   1.574   5.031  0.3273 -0.3471  0.1116
 3824SOL    HW222932   1.426   1.469   5.000 -3.5092 -0.2226  0.6011
 3825SOL     OW22933   3.227   4.334   9.203 -0.1498  0.1163 -0.4959
 3825SOL    HW122934   3.273   4.389   9.266  0.7737  0.8486 -1.8115
 3825SOL    HW222935   3.297   4.306   9.145 -0.7027  1.3494 -1.7610
 3826SOL     OW22936   2.276   0.723   5.531 -0.3626  0.2877  0.1267
 3826SOL    HW122937   2.356   0.751   5.575 -1.1171  0.2058  1.5909
 3826SOL    HW222938   2.212   0.746   5.600 -1.6878  1.5724 -1.5295
 3827SOL     OW22939   3.273   4.689   4.432 -0.1700  0.2171  0.0774
 3827SOL    HW122940   3.345   0.013   4.477 -1.2151  0.6759  1.2760
 3827SOL    HW222941   3.297   4.596   4.428  3.0955  0.9957  1.3223
 3828SOL     OW22942   1.208   0.432   6.038 -0.4485  0.1804  0.9302
 3828SOL    HW122943   1.181   0.507   5.984 -0.3043 -0.9268 -0.6678
 3828SOL    HW222944   1.177   0.352   5.996  0.0880 -0.3543  1.5487
 3829SOL     OW22945   4.710   0.748   8.872  0.2454 -0.3765 -0.1977
 3829SOL    HW122946   0.083   0.740   8.854 -0.0033 -3.0482 -0.2508
 3829SOL    HW222947   0.002   0.787   8.959  0.1138 -1.4261  0.2891
 3830SOL     OW22948   0.195   3.962   5.451  0.0844  0.5701 -0.2429
 3830SOL    HW122949   0.120   3.945   5.394 -0.8699  0.8102  0.9469
 3830SOL    HW222950   0.163   3.957   5.541  3.1548 -0.3332  0.7807
 3831SOL     OW22951   4.546   4.537   7.581  0.2399 -0.1024 -0.0293
 3831SOL    HW122952   4.551   4.530   7.677  2.3511 -1.1946 -0.2144
 3831SOL    HW222953   4.456   4.566   7.563  1.5457  3.0887 -1.3614
 3832SOL     OW22954   3.120   3.016   5.451 -0.2967 -0.5325 -0.0731
 3832SOL    HW122955   3.106   3.011   5.545 -0.6842 -1.0327 -0.1565
 3832SOL    HW222956   3.028   3.017   5.423 -0.8113  1.8031  1.7175
 3833SOL     OW22957   1.912   0.471   1.407 -0.3527  0.1707 -0.0875
 3833SOL    HW122958   1.983   0.443   1.349  1.8997  2.2099  1.6701
 3833SOL    HW222959   1.855   0.400   1.378 -2.7403  1.9461  0.2702
 3834SOL     OW22960   3.962   2.445   5.921  0.3432 -0.0455  0.1180
 3834SOL    HW122961   4.018   2.383   5.873 -2.4107 -2.1197 -0.3765
 3834SOL    HW222962   3.910   2.384   5.972 -0.6269  0.0803 -0.7287
 3835SOL     OW22963   0.445   3.643  12.140 -0.3609  0.0560  0.4522
 3835SOL    HW122964   0.439   3.721  12.195  0.8664  0.2426  0.3233
 3835SOL    HW222965   0.353   3.641  12.112  0.2707  1.2252 -1.6598
 3836SOL     OW22966   0.501   2.558   5.501 -0.2739  0.1664 -0.1509
 3836SOL    HW122967   0.544   2.562   5.587  0.4173  1.0042 -0.5341
 3836SOL    HW222968   0.540   2.626   5.447 -0.7578 -0.4601 -1.2866
 3837SOL     OW22969   3.176   0.471   6.999 -0.3110 -0.1557  0.0805
 3837SOL    HW122970   3.089   0.471   7.038 -1.0655  0.2406 -1.6260
 3837SOL    HW222971   3.199   0.379   6.987  1.4494  0.6143 -2.4085
 3838SOL     OW22972   1.902   1.971   7.000  0.5111  0.0869 -0.3971
 3838SOL    HW122973   1.987   1.930   7.020 -0.5931 -1.3377  1.4358
 3838SOL    HW222974   1.876   1.999   7.088  0.4346 -0.8723 -0.1174
 3839SOL     OW22975   0.714   0.301   3.852  0.3457 -0.0328  0.2605
 3839SOL    HW122976   0.738   0.393   3.845 -1.9263  0.7476  3.1119
 3839SOL    HW222977   0.718   0.284   3.946 -1.5072  0.1308  0.3626
 3840SOL     OW22978   3.786   1.268   6.942 -0.4095 -0.5126 -0.0627
 3840SOL    HW122979   3.799   1.226   7.027  0.5360  1.1900  0.6292
 3840SOL    HW222980   3.743   1.196   6.895  0.5357 -1.8130  1.0677
 3841SOL     OW22981   0.847   1.751   4.564  0.3586 -0.4502  0.1809
 3841SOL    HW122982   0.930   1.777   4.526  1.0979 -0.1233  2.0108
 3841SOL    HW222983   0.847   1.825   4.625 -4.0665 -0.7190  0.5627
 3842SOL     OW22984   4.278   1.782   4.788 -0.1572  0.2192 -0.0474
 3842SOL    HW122985   4.305   1.805   4.699 -2.8170  2.2255 -0.3345
 3842SOL    HW222986   4.268   1.872   4.819  0.3708  1.9772 -4.9944
 3843SOL     OW22987   3.131   3.139   8.376  0.3205 -0.1274  0.0331
 3843SOL    HW122988   3.161   3.091   8.299  0.3766  1.7395 -1.1019
 3843SOL    HW222989   3.176   3.222   8.366  0.9247 -0.2370  1.8374
 3844SOL     OW22990   2.599   0.555   5.540  0.4287 -0.1246  0.4675
 3844SOL    HW122991   2.524   0.505   5.572  0.0786 -0.1741 -0.4326
 3844SOL    HW222992   2.564   0.637   5.506  0.3976  0.4464  1.8823
 3845SOL     OW22993   2.649   1.022   6.036 -0.6333  0.3554  0.5010
 3845SOL    HW122994   2.740   1.052   6.033  0.1175 -2.2921 -3.0999
 3845SOL    HW222995   2.612   1.066   6.113 -0.7675  1.1739 -0.0305
 3846SOL     OW22996   0.779   3.133  14.466 -0.6589  0.0042  0.7440
 3846SOL    HW122997   0.764   3.182  14.385  3.2232 -1.1157 -0.6552
 3846SOL    HW222998   0.751   3.202  14.526  1.3377  1.1175  0.4126
 3847SOL     OW22999   3.596   0.648   3.548  0.5795 -0.1957 -0.1856
 3847SOL    HW123000   3.621   0.596   3.625 -0.9601 -0.7975 -0.0991
 3847SOL    HW223001   3.503   0.664   3.563  1.1491  2.2262  0.7458
 3848SOL     OW23002   3.612   2.359   5.964  0.3160 -0.0847  0.1344
 3848SOL    HW123003   3.646   2.444   5.937  2.0019 -0.3929  1.2585
 3848SOL    HW223004   3.529   2.347   5.917  2.2328  0.3042 -3.3073
 3849SOL     OW23005   3.737   2.806  12.970 -0.1557  0.1214  0.6210
 3849SOL    HW123006   3.820   2.832  12.930  1.4429 -1.7445  2.7359
 3849SOL    HW223007   3.729   2.714  12.944 -1.6369  0.9802 -1.9941
 3850SOL     OW23008   2.482   1.995   8.160  0.3603 -0.0262 -0.6091
 3850SOL    HW123009   2.480   1.908   8.200 -0.1244 -0.2224 -1.0722
 3850SOL    HW223010   2.528   1.980   8.078 -1.4272 -0.7335 -1.4738
 3851SOL     OW23011   3.609   3.954  13.252 -0.1781 -0.9438  0.2037
 3851SOL    HW123012   3.683   3.978  13.308 -0.3691  0.9163 -0.3119
 3851SOL    HW223013   3.612   4.019  13.181 -1.3610 -1.2761 -0.1450
 3852SOL     OW23014   2.294   3.519   2.761 -0.1951 -0.4154 -0.6738
 3852SOL    HW123015   2.237   3.479   2.827  1.6375  0.5448  1.4822
 3852SOL    HW223016   2.351   3.445   2.738 -0.5125 -1.0744  0.6397
 3853SOL     OW23017   2.758   1.444   1.759  0.0405 -0.3743  0.4333
 3853SOL    HW123018   2.780   1.472   1.848  0.1356  1.2858 -0.1315
 3853SOL    HW223019   2.804   1.360   1.754 -3.2295 -2.1879  0.2728
 3854SOL     OW23020   4.342   3.110   0.659 -0.0687  0.0603 -1.0832
 3854SOL    HW123021   4.395   3.044   0.703 -1.0236 -0.5131 -0.7867
 3854SOL    HW223022   4.260   3.062   0.646 -0.1431 -0.1062 -0.0438
 3855SOL     OW23023   2.108   2.037  13.268 -0.5531  0.5228  0.4429
 3855SOL    HW123024   2.110   2.130  13.293  1.6941  0.3223  0.9460
 3855SOL    HW223025   2.159   2.009  13.343  0.5714 -1.5698 -1.1054
 3856SOL     OW23026   3.700   4.299   7.331 -0.4217 -0.0597 -0.4288
 3856SOL    HW123027   3.765   4.264   7.270  1.2250 -0.0929  1.3030
 3856SOL    HW223028   3.623   4.247   7.310  0.0676 -0.9820  0.0566
 3857SOL     OW23029   2.988   1.297   2.476 -0.1658 -0.6359 -0.0056
 3857SOL    HW123030   3.063   1.344   2.511 -0.1169  0.2850 -1.3700
 3857SOL    HW223031   3.026   1.209   2.480 -1.7642 -1.3240  0.1658
 3858SOL     OW23032   3.202   0.185   5.358 -0.1956  0.2378 -0.2376
 3858SOL    HW123033   3.159   0.185   5.273 -0.1350 -0.3770 -0.2661
 3858SOL    HW223034   3.166   0.267   5.393 -0.5637  0.0830 -0.2602
 3859SOL     OW23035   3.356   2.193   8.900  0.2339 -0.3907  0.3353
 3859SOL    HW123036   3.284   2.161   8.955 -0.4244 -0.4822 -0.5787
 3859SOL    HW223037   3.332   2.154   8.816 -2.7730 -1.3186  1.6407
 3860SOL     OW23038   4.133   3.089   4.427  0.2008  0.2557  0.2293
 3860SOL    HW123039   4.086   3.106   4.345 -1.6758 -0.1739  1.2148
 3860SOL    HW223040   4.057   3.082   4.485  0.6697 -2.3972  0.5408
 3861SOL     OW23041   3.886   3.758   7.489  0.0955 -0.0698 -1.0878
 3861SOL    HW123042   3.837   3.831   7.526 -0.8695 -0.7592 -1.0020
 3861SOL    HW223043   3.817   3.692   7.487  0.3703 -0.4317  1.1019
 3862SOL     OW23044   0.247   2.544  16.670  0.8519  0.7099  0.2361
 3862SOL    HW123045   0.324   2.490  16.682  1.1327  1.3191  1.1758
 3862SOL    HW223046   0.247   2.557  16.575  0.3911 -2.0890 -0.1291
 3863SOL     OW23047   2.248   0.561  15.754 -0.7857 -0.4274 -0.1991
 3863SOL    HW123048   2.265   0.655  15.747 -2.2142 -0.2478 -1.3251
 3863SOL    HW223049   2.264   0.551  15.848 -0.4421 -1.1854 -0.3414
 3864SOL     OW23050   1.454   1.677   4.331  0.2261 -0.0317  0.2768
 3864SOL    HW123051   1.537   1.635   4.306 -0.1201 -0.1121 -0.7279
 3864SOL    HW223052   1.402   1.603   4.363 -1.2671  0.7300 -0.4032
 3865SOL     OW23053   3.575   4.078   4.852 -0.2514 -0.7832  0.2085
 3865SOL    HW123054   3.497   4.091   4.906  1.0227 -0.1130  1.8826
 3865SOL    HW223055   3.647   4.070   4.915  1.2260 -0.1591 -1.3934
 3866SOL     OW23056   3.358   2.846   2.457  0.0291  0.6369  0.4306
 3866SOL    HW123057   3.382   2.892   2.376  0.0937  1.1451  0.7399
 3866SOL    HW223058   3.442   2.813   2.489  0.8110  1.1656 -1.0562
 3867SOL     OW23059   4.139   1.093   9.509  0.3356  0.8422  0.2694
 3867SOL    HW123060   4.152   1.142   9.590 -2.0266  0.3364  0.9594
 3867SOL    HW223061   4.050   1.123   9.492  0.9154  2.6072  0.3389
 3868SOL     OW23062   1.147   0.965  16.815 -0.3313 -0.1587  0.7331
 3868SOL    HW123063   1.106   0.895  16.865 -2.0772  0.2380 -0.1420
 3868SOL    HW223064   1.206   0.996  16.884 -1.3638  1.8464  0.7220
 3869SOL     OW23065   3.878   1.601   7.360  0.2442  0.0411 -0.2531
 3869SOL    HW123066   3.790   1.637   7.364 -0.9623 -2.7317 -2.5407
 3869SOL    HW223067   3.870   1.552   7.278 -2.2913  1.7571 -1.0296
 3870SOL     OW23068   2.546   0.408   4.078 -0.7214 -0.3581 -0.2697
 3870SOL    HW123069   2.468   0.361   4.050 -0.2957 -1.6846  0.7910
 3870SOL    HW223070   2.602   0.407   4.001  1.7536  0.3260  1.5313
 3871SOL     OW23071   3.446   3.737  13.170 -0.0980  0.1822  0.5047
 3871SOL    HW123072   3.442   3.696  13.256  1.1967 -2.0638 -0.5118
 3871SOL    HW223073   3.520   3.795  13.186 -1.1757  1.2451  1.6416
 3872SOL     OW23074   1.417   3.302   2.999  0.0601  0.3721  0.1479
 3872SOL    HW123075   1.434   3.226   3.054 -1.1691  0.9497  1.3314
 3872SOL    HW223076   1.505   3.329   2.973  0.1674 -0.5267 -0.4147
 3873SOL     OW23077   0.761   4.558   8.126 -0.0250  0.3436  0.2712
 3873SOL    HW123078   0.855   4.550   8.106 -0.7975  0.6234 -3.4465
 3873SOL    HW223079   0.757   4.548   8.221 -0.7708 -0.5192  0.1468
 3874SOL     OW23080   0.745   0.057   2.139  0.1979 -0.1248  0.2869
 3874SOL    HW123081   0.764   0.107   2.059  0.2503  1.6300  1.3891
 3874SOL    HW223082   0.650   0.056   2.139  0.1932  0.3566 -0.0813
 3875SOL     OW23083   1.769   3.416   9.668  0.1510 -0.1406 -0.1517
 3875SOL    HW123084   1.862   3.421   9.648  0.5579 -3.0297  0.8973
 3875SOL    HW223085   1.758   3.323   9.645  1.8855 -1.1783  3.0736
 3876SOL     OW23086   3.630   0.567   7.486  0.0323 -0.0663 -0.2056
 3876SOL    HW123087   3.721   0.595   7.489 -0.4646  1.6624 -1.0530
 3876SOL    HW223088   3.590   0.619   7.555  1.6133  0.5348  0.2470
 3877SOL     OW23089   3.204   0.497  15.314  0.5451 -0.0072 -0.3018
 3877SOL    HW123090   3.264   0.539  15.252 -0.1426 -1.0844 -1.6893
 3877SOL    HW223091   3.127   0.552  15.299  1.0895  1.4716  2.3395
 3878SOL     OW23092   2.998   4.067   4.569 -0.5370  0.5340  0.1657
 3878SOL    HW123093   2.977   4.065   4.662 -1.2144  1.5110  0.0389
 3878SOL    HW223094   3.038   4.154   4.557 -0.7154  0.7655  1.3183
 3879SOL     OW23095   4.220   3.470  11.355  0.3534 -0.8481  0.4922
 3879SOL    HW123096   4.253   3.503  11.271 -1.1998 -3.5909 -1.1780
 3879SOL    HW223097   4.130   3.498  11.368  0.6681 -0.2008  1.3045
 3880SOL     OW23098   1.699   2.298   3.891  0.7521 -0.0834  0.4225
 3880SOL    HW123099   1.702   2.339   3.805  0.6304 -2.4360 -0.6989
 3880SOL    HW223100   1.656   2.368   3.940  3.3241  0.8735  1.3234
 3881SOL     OW23101   0.735   0.386   9.030 -0.5397  0.2655 -0.0775
 3881SOL    HW123102   0.758   0.309   9.082  0.0619  1.2592  1.1395
 3881SOL    HW223103   0.680   0.356   8.958 -0.0106  2.1671 -1.2683
 3882SOL     OW23104   1.772   3.059   4.626  0.0375  0.0409 -0.2975
 3882SOL    HW123105   1.762   3.053   4.721  1.8787 -0.5839 -0.1475
 3882SOL    HW223106   1.683   3.091   4.608 -0.4502 -1.7301 -1.0674
 3883SOL     OW23107   0.496   1.209  16.481 -0.3761 -0.1186  0.1325
 3883SOL    HW123108   0.477   1.276  16.546 -0.5815 -2.0507  2.0360
 3883SOL    HW223109   0.574   1.172  16.522  1.0076  0.2650 -2.1323
 3884SOL     OW23110   4.339   0.512  15.561 -0.1991 -0.0983  0.2086
 3884SOL    HW123111   4.327   0.446  15.629 -0.6052 -2.3913 -2.0559
 3884SOL    HW223112   4.366   0.584  15.617  1.6646  0.7435 -1.8004
 3885SOL     OW23113   3.220   0.951   3.229  0.1767  0.5537 -0.6398
 3885SOL    HW123114   3.133   0.916   3.245  0.3612  1.7435  2.8908
 3885SOL    HW223115   3.256   0.965   3.316  0.9191 -2.4597 -0.4382
 3886SOL     OW23116   3.299   1.669  11.912 -0.5315  0.5888 -0.5276
 3886SOL    HW123117   3.223   1.706  11.867 -0.9564  2.2855  1.6085
 3886SOL    HW223118   3.249   1.662  11.993 -0.1319 -1.5484 -0.4757
 3887SOL     OW23119   3.547   1.491   6.781 -0.0256 -0.0182 -0.4577
 3887SOL    HW123120   3.627   1.525   6.820  0.7675  1.8622 -3.7587
 3887SOL    HW223121   3.574   1.451   6.698  1.2051  1.1475 -0.6034
 3888SOL     OW23122   1.801   3.797   2.678  0.1856 -0.0101 -0.3165
 3888SOL    HW123123   1.822   3.783   2.586 -0.2792  0.3876 -0.4846
 3888SOL    HW223124   1.872   3.855   2.706  0.4035 -0.4898  0.1407
 3889SOL     OW23125   2.825   2.765  13.139 -0.4484  0.0292  0.5727
 3889SOL    HW123126   2.784   2.682  13.114  1.9865 -0.3228 -2.2840
 3889SOL    HW223127   2.913   2.736  13.163 -0.9763 -0.3010  2.1255
 3890SOL     OW23128   3.999   4.557   8.923  0.1872 -0.0504  0.5072
 3890SOL    HW123129   4.077   4.539   8.871 -0.2186 -0.6430  0.1042
 3890SOL    HW223130   4.041   4.523   9.002  0.1420 -0.9657  0.1396
 3891SOL     OW23131   3.316   4.242   6.189 -0.1593  0.2603  0.3778
 3891SOL    HW123132   3.341   4.227   6.098  0.6022  0.5108  0.5469
 3891SOL    HW223133   3.380   4.309   6.212  0.2672 -0.2591  0.6880
 3892SOL     OW23134   0.329   0.445   1.847  0.0176 -0.1473 -0.1102
 3892SOL    HW123135   0.278   0.472   1.924 -0.8124 -0.8417 -0.4084
 3892SOL    HW223136   0.270   0.453   1.773 -1.4577  0.5029  1.1249
 3893SOL     OW23137   2.358   0.303   5.362  0.4342  0.2414  0.8305
 3893SOL    HW123138   2.404   0.303   5.446  0.7142  1.4913  0.6785
 3893SOL    HW223139   2.294   0.375   5.361  1.2344  0.9342 -0.7114
 3894SOL     OW23140   4.384   0.786   6.468 -0.2808  0.4443  0.0646
 3894SOL    HW123141   4.437   0.756   6.543  0.8026  0.3567 -0.7287
 3894SOL    HW223142   4.418   0.735   6.394  0.7195 -0.3270  1.0456
 3895SOL     OW23143   0.937   0.368  17.494 -0.0269 -0.0479 -1.0615
 3895SOL    HW123144   0.991   0.443  17.469  1.4404 -0.1765  1.7858
 3895SOL    HW223145   0.958   0.312  17.419  2.5130 -0.5023 -0.0279
 3896SOL     OW23146   4.179   1.614   7.296  0.3861 -0.2237 -0.4972
 3896SOL    HW123147   4.146   1.679   7.234 -0.8197  0.5373  0.9276
 3896SOL    HW223148   4.097   1.587   7.339 -0.2532  0.4597 -1.2785
 3897SOL     OW23149   1.272   3.450   4.401  0.5817  0.0414  0.1903
 3897SOL    HW123150   1.274   3.452   4.305 -0.5651 -1.7228  0.1087
 3897SOL    HW223151   1.356   3.409   4.425 -1.5226 -3.6959  1.2508
 3898SOL     OW23152   2.705   2.623   3.576  0.0576  0.1139  0.3578
 3898SOL    HW123153   2.762   2.697   3.553  1.4950 -0.7631  1.0912
 3898SOL    HW223154   2.750   2.600   3.657 -2.0487 -1.2348  1.1571
 3899SOL     OW23155   3.697   0.941   3.685  0.5308 -0.6174  0.4862
 3899SOL    HW123156   3.604   0.949   3.709  0.5243  2.8112 -0.6760
 3899SOL    HW223157   3.690   0.942   3.590 -2.9432 -0.1958  0.7497
 3900SOL     OW23158   2.421   2.897   4.392  0.4692  0.7254  0.1370
 3900SOL    HW123159   2.385   2.809   4.390 -1.0345  1.3385  0.6954
 3900SOL    HW223160   2.442   2.902   4.485 -3.2474 -1.4647  1.0499
 3901SOL     OW23161   1.691   0.738   8.534  0.0262  0.3950 -0.5247
 3901SOL    HW123162   1.706   0.821   8.580 -2.0269  0.8663 -0.7078
 3901SOL    HW223163   1.782   0.707   8.529  0.5337  1.6865  0.4724
 3902SOL     OW23164   1.886   2.691   5.252 -0.5833 -1.0625 -0.4485
 3902SOL    HW123165   1.922   2.778   5.237 -1.9690 -0.4941 -0.4425
 3902SOL    HW223166   1.805   2.690   5.202 -0.0310 -0.3028 -1.3714
 3903SOL     OW23167   1.154   1.300   3.556 -0.7128 -0.2170  0.1101
 3903SOL    HW123168   1.250   1.299   3.558 -0.7579 -2.3898  0.7568
 3903SOL    HW223169   1.145   1.395   3.542  0.6869  0.1004  1.3630
 3904SOL     OW23170   3.007   0.743  14.922  0.4891  0.0236  0.4914
 3904SOL    HW123171   3.005   0.711  14.832 -1.5086 -0.8503  0.8586
 3904SOL    HW223172   3.090   0.791  14.925  0.5823 -0.1216  0.2385
 3905SOL     OW23173   3.490   3.089   7.981  0.5187  0.7346 -0.2499
 3905SOL    HW123174   3.445   3.005   7.969 -0.0250  0.4290  4.1224
 3905SOL    HW223175   3.545   3.096   7.903 -0.9568 -0.1054 -1.3897
 3906SOL     OW23176   4.216   2.884   0.928  0.5289 -0.0772 -0.0924
 3906SOL    HW123177   4.256   2.808   0.885  0.2770  0.8008 -1.8733
 3906SOL    HW223178   4.125   2.881   0.898  0.9466 -1.4285 -1.2635
 3907SOL     OW23179   2.365   2.031   8.559  0.7105  0.3465  0.1270
 3907SOL    HW123180   2.360   2.076   8.474  1.5350 -0.8969 -0.5828
 3907SOL    HW223181   2.271   2.041   8.574  0.5333 -0.4518 -0.4347
 3908SOL     OW23182   2.681   3.103   7.023 -0.2091 -0.0964  0.2036
 3908SOL    HW123183   2.640   3.137   7.103  1.7961 -0.2966  1.3097
 3908SOL    HW223184   2.661   3.170   6.958  0.3612 -1.2530 -1.1723
 3909SOL     OW23185   0.919   0.595   2.035 -0.5616  0.7393  0.1326
 3909SOL    HW123186   0.951   0.538   1.965 -0.6452 -0.0752  0.7592
 3909SOL    HW223187   1.001   0.612   2.082 -2.0592 -0.2706  3.1028
 3910SOL     OW23188   1.681   4.631   0.235 -0.4676 -0.4893  0.3785
 3910SOL    HW123189   1.646   4.663   0.153  0.9806 -0.2546 -0.1483
 3910SOL    HW223190   1.738   4.567   0.192 -1.4130 -1.4384  0.5234
 3911SOL     OW23191   2.943   3.734   9.170  0.1721  0.0725 -0.0077
 3911SOL    HW123192   2.941   3.776   9.084 -0.8612 -1.4519 -0.7359
 3911SOL    HW223193   2.893   3.800   9.217 -2.1242 -1.2414 -0.5883
 3912SOL     OW23194   4.218   4.138   3.133 -0.5550  0.0797  0.0992
 3912SOL    HW123195   4.308   4.169   3.142  0.1547 -1.9280 -0.3063
 3912SOL    HW223196   4.219   4.077   3.059 -0.4547  0.1848  0.0119
 3913SOL     OW23197   2.167   1.947   2.189 -0.2971  0.3187 -0.4242
 3913SOL    HW123198   2.160   1.975   2.098 -1.7384  1.3392 -0.0005
 3913SOL    HW223199   2.111   1.869   2.188 -0.7704  0.6860 -2.7518
 3914SOL     OW23200   2.370   4.572   6.480  0.0661 -0.4408  0.3814
 3914SOL    HW123201   2.444   4.559   6.540  1.2559 -2.0270 -1.3868
 3914SOL    HW223202   2.323   4.490   6.495  0.9990 -1.1516 -0.5530
 3915SOL     OW23203   4.061   1.822   9.839  0.6719  0.1036 -0.1526
 3915SOL    HW123204   3.975   1.864   9.844  0.6549  0.0426  0.0546
 3915SOL    HW223205   4.036   1.730   9.850  1.9618 -0.1045  0.8969
 3916SOL     OW23206   3.818   2.201   5.969 -0.2456  0.0996  0.4139
 3916SOL    HW123207   3.846   2.198   6.061  2.6295 -3.3603 -0.5693
 3916SOL    HW223208   3.739   2.253   5.980 -0.6787 -0.8142  1.5842
 3917SOL     OW23209   3.923   3.635   1.792 -0.0321  0.3117 -0.1661
 3917SOL    HW123210   3.920   3.623   1.697  2.0479 -1.0032 -0.0572
 3917SOL    HW223211   3.866   3.711   1.803  0.0431  0.2724  0.5045
 3918SOL     OW23212   2.918   2.718   0.380 -0.1649 -0.0379 -0.2216
 3918SOL    HW123213   2.913   2.625   0.360 -1.2190 -0.1744  0.7165
 3918SOL    HW223214   2.993   2.738   0.324  0.2235  1.1014  0.6941
 3919SOL     OW23215   2.802   4.326  11.057 -0.3698 -0.1824 -0.0115
 3919SOL    HW123216   2.863   4.285  11.118 -0.8887  1.0342  1.3374
 3919SOL    HW223217   2.745   4.383  11.109 -0.5842 -0.1706 -0.2595
 3920SOL     OW23218   1.775   3.446   5.953  0.7634 -0.1269 -0.4402
 3920SOL    HW123219   1.703   3.478   6.007  1.5843 -1.7010  1.6146
 3920SOL    HW223220   1.746   3.355   5.942  2.2635 -0.7321  0.5284
 3921SOL     OW23221   1.281   2.713   6.754 -0.1602 -0.3605 -0.5221
 3921SOL    HW123222   1.295   2.618   6.762 -0.0741 -0.5422 -2.8540
 3921SOL    HW223223   1.187   2.714   6.734 -0.5505 -0.7989  1.2967
 3922SOL     OW23224   0.600   4.105   4.851 -0.2351 -0.0376 -0.1259
 3922SOL    HW123225   0.535   4.127   4.918 -0.9895  0.2778 -0.9684
 3922SOL    HW223226   0.584   4.011   4.844  1.0026 -0.4351  2.1601
 3923SOL     OW23227   1.157   0.870  12.658 -0.4635 -0.0989  0.5831
 3923SOL    HW123228   1.069   0.901  12.678  0.5979  3.9134 -0.8512
 3923SOL    HW223229   1.220   0.936  12.690 -0.1483 -0.1368  0.0587
 3924SOL     OW23230   3.343   1.549   3.896 -0.1461  0.2648  0.0920
 3924SOL    HW123231   3.276   1.514   3.837  0.2732 -0.9491  0.3486
 3924SOL    HW223232   3.322   1.511   3.981 -1.4238  0.2181 -0.2322
 3925SOL     OW23233   4.271   0.249   1.209 -0.2728 -0.3064 -0.0193
 3925SOL    HW123234   4.363   0.262   1.231 -0.0195 -0.5844 -0.9019
 3925SOL    HW223235   4.269   0.206   1.124 -3.0470 -1.2795  0.5327
 3926SOL     OW23236   3.743   4.684   6.934 -0.1498 -0.1825 -0.2698
 3926SOL    HW123237   3.725   0.016   7.012 -0.4876  0.9239 -1.0951
 3926SOL    HW223238   3.824   0.003   6.905  0.1808 -0.3366  0.4437
 3927SOL     OW23239   1.871   3.627   7.212 -0.8013 -0.5171 -0.5534
 3927SOL    HW123240   1.955   3.583   7.204 -0.3282 -0.2723  2.8596
 3927SOL    HW223241   1.904   3.707   7.254 -2.8974  0.9977 -1.7721
 3928SOL     OW23242   3.469   2.232  15.796  0.1215  0.4456 -0.1466
 3928SOL    HW123243   3.517   2.314  15.781 -0.5724  1.1468  1.5015
 3928SOL    HW223244   3.390   2.241  15.742 -0.3215  0.4361  0.4927
 3929SOL     OW23245   0.638   1.488   6.807 -0.3032 -0.2541 -0.1535
 3929SOL    HW123246   0.632   1.567   6.860 -1.6463 -0.3051 -0.2159
 3929SOL    HW223247   0.684   1.522   6.731  1.1102 -0.3401  0.6712
 3930SOL     OW23248   1.482   4.274   2.820 -0.5989  0.3822 -0.0099
 3930SOL    HW123249   1.577   4.281   2.822 -0.3847 -2.4996  0.3665
 3930SOL    HW223250   1.453   4.358   2.784  1.9804  0.2612 -2.2665
 3931SOL     OW23251   4.449   3.704  10.551  0.1991 -0.4167 -0.3277
 3931SOL    HW123252   4.516   3.764  10.584 -2.1618  0.7260  2.3464
 3931SOL    HW223253   4.390   3.707  10.626 -0.8619 -0.8088 -1.1582
 3932SOL     OW23254   1.930   0.662   6.428 -0.3389  0.0179 -0.5729
 3932SOL    HW123255   1.890   0.639   6.344 -0.8979 -0.4770 -0.1719
 3932SOL    HW223256   1.994   0.724   6.391  0.3354  0.2912  1.0578
 3933SOL     OW23257   0.215   1.338   3.617  0.2443  0.0407  0.1540
 3933SOL    HW123258   0.288   1.279   3.598  1.0585  1.6935 -1.8445
 3933SOL    HW223259   0.204   1.318   3.710  1.3826  1.6939  0.6317
 3934SOL     OW23260   2.353   2.974   8.817  0.0970 -0.4898 -0.0736
 3934SOL    HW123261   2.405   2.895   8.834  0.7091 -0.6107 -2.4728
 3934SOL    HW223262   2.391   2.986   8.730  0.0837 -0.7508 -0.1157
 3935SOL     OW23263   1.997   4.483   1.785 -0.5025  0.3471  0.0064
 3935SOL    HW123264   2.060   4.469   1.856  2.3231  2.3001 -2.1162
 3935SOL    HW223265   1.915   4.473   1.833 -0.4949 -0.3786 -0.1379
 3936SOL     OW23266   3.564   1.101  13.278 -0.7578  0.5989 -0.1224
 3936SOL    HW123267   3.600   1.109  13.190 -1.0434 -0.3410 -0.3244
 3936SOL    HW223268   3.470   1.101  13.261 -0.5119  1.0968 -1.4252
 3937SOL     OW23269   1.023   2.445   1.716 -0.2003  0.2449 -0.1006
 3937SOL    HW123270   1.026   2.418   1.624  2.8408  1.7367 -0.4629
 3937SOL    HW223271   1.082   2.372   1.734 -1.9363 -1.0352  0.3707
 3938SOL     OW23272   1.904   0.667  17.557 -0.2737  0.2050 -0.0409
 3938SOL    HW123273   1.895   0.640  17.648 -1.0012 -0.1507 -0.2230
 3938SOL    HW223274   1.978   0.726  17.568 -2.7211  3.3383 -0.6166
 3939SOL     OW23275   3.009   4.627   7.958 -0.0388  0.0085  0.1735
 3939SOL    HW123276   2.930   4.602   7.911  0.3188  2.8498 -1.9529
 3939SOL    HW223277   3.041   4.538   7.975 -3.0365 -1.0310  0.3489
 3940SOL     OW23278   1.775   1.272   8.687 -0.2223 -0.1975 -0.0851
 3940SOL    HW123279   1.868   1.249   8.679 -0.4227 -0.8179 -0.5406
 3940SOL    HW223280   1.768   1.325   8.608 -0.3814  1.5556  1.0975
 3941SOL     OW23281   2.843   2.243   1.730  0.0346 -0.5641  0.2377
 3941SOL    HW123282   2.938   2.251   1.724 -0.1240  1.1593  0.0766
 3941SOL    HW223283   2.825   2.150   1.712  0.3459 -0.5665 -0.0760
 3942SOL     OW23284   0.543   1.891  13.382  0.2834  0.2253  0.3013
 3942SOL    HW123285   0.618   1.837  13.359  1.7674  2.2868  0.3680
 3942SOL    HW223286   0.550   1.960  13.317 -2.6692  1.0677  0.8336
 3943SOL     OW23287   3.001   2.116   8.536 -0.1283  0.6440  0.1011
 3943SOL    HW123288   2.916   2.081   8.508  0.0591  2.3841 -2.6448
 3943SOL    HW223289   2.992   2.110   8.631 -3.0722  0.4721 -0.1704
 3944SOL     OW23290   1.440   1.210   5.955 -0.0780  0.2398 -0.2682
 3944SOL    HW123291   1.411   1.142   5.895 -1.2964 -1.1699  1.8961
 3944SOL    HW223292   1.458   1.150   6.028 -0.9292 -1.8487 -1.7546
 3945SOL     OW23293   1.708   4.433   6.622 -0.0999 -0.5555  0.4141
 3945SOL    HW123294   1.698   4.365   6.555 -0.9675 -0.3920  0.3755
 3945SOL    HW223295   1.780   4.392   6.670  1.7034  0.9528 -1.0276
 3946SOL     OW23296   1.556   0.269   9.221  0.3961  0.5035  0.0248
 3946SOL    HW123297   1.639   0.311   9.201  0.4654  0.9227  1.1727
 3946SOL    HW223298   1.559   0.252   9.315  1.0527 -1.4213 -0.3274
 3947SOL     OW23299   2.834   3.974   5.074 -0.1433  0.3885 -0.0271
 3947SOL    HW123300   2.917   4.020   5.088  0.8007 -0.2758 -3.4290
 3947SOL    HW223301   2.773   4.038   5.039 -0.7979 -2.4309 -4.0878
 3948SOL     OW23302   0.261   1.993  10.065  0.2379 -0.1157 -0.1196
 3948SOL    HW123303   0.256   1.939   9.987  1.5315  1.1199 -1.0609
 3948SOL    HW223304   0.301   2.073  10.032 -1.2703  0.5135 -0.4348
 3949SOL     OW23305   3.363   0.078  11.552 -0.0022  0.5307  0.4253
 3949SOL    HW123306   3.407   0.147  11.602  0.3131  0.8341 -0.2758
 3949SOL    HW223307   3.415   0.079  11.471 -1.5364 -1.0877 -0.5797
 3950SOL     OW23308   0.449   4.666   1.558  0.5494 -0.0256 -0.2736
 3950SOL    HW123309   0.477   4.602   1.624 -2.5132 -0.8126  0.2674
 3950SOL    HW223310   0.394   0.003   1.611  2.7595  1.7166  0.0767
 3951SOL     OW23311   3.375   2.698  16.400 -0.0173 -0.3877 -0.1816
 3951SOL    HW123312   3.311   2.687  16.470  0.5086 -1.4945  0.1384
 3951SOL    HW223313   3.351   2.618  16.353  2.5189 -1.2654  0.0133
 3952SOL     OW23314   1.116   1.915   0.919 -0.1528  0.4762  0.0549
 3952SOL    HW123315   1.060   1.838   0.921  0.2182  0.1887 -0.6416
 3952SOL    HW223316   1.205   1.881   0.912  0.1492  0.9931  1.5053
 3953SOL     OW23317   0.584   3.834   7.082  0.2808  0.1295  0.0686
 3953SOL    HW123318   0.644   3.860   7.151 -1.6826 -0.5687  2.0349
 3953SOL    HW223319   0.561   3.743   7.097  0.7944 -0.0931 -0.5128
 3954SOL     OW23320   2.999   1.150   6.053  0.7281 -0.6154 -0.2628
 3954SOL    HW123321   3.005   1.240   6.086 -1.1223 -0.0774 -1.4111
 3954SOL    HW223322   3.048   1.106   6.122  0.4969  0.5901  0.6828
 3955SOL     OW23323   2.343   3.798   3.818  0.0640 -0.1376  0.2306
 3955SOL    HW123324   2.385   3.788   3.903 -1.3712  2.6164  1.2444
 3955SOL    HW223325   2.253   3.811   3.847  0.7502  0.5515  2.0249
 3956SOL     OW23326   0.648   3.161  10.456 -0.2269  0.5106 -0.6608
 3956SOL    HW123327   0.630   3.255  10.446  0.5634  0.7819  0.4212
 3956SOL    HW223328   0.618   3.150  10.546 -2.9173 -3.5550 -2.0422
 3957SOL     OW23329   1.094   1.068  16.576  0.5708 -0.2751  0.2000
 3957SOL    HW123330   1.090   1.034  16.666 -2.1893  0.0611  0.1842
 3957SOL    HW223331   1.190   1.068  16.569  0.7466  0.8395  2.5637
 3958SOL     OW23332   3.839   2.931   7.052  0.0668 -0.5051 -0.0717
 3958SOL    HW123333   3.809   2.999   7.112  2.2858  0.9150 -0.5394
 3958SOL    HW223334   3.786   2.935   6.972  0.5339 -0.2723 -0.3788
 3959SOL     OW23335   1.493   0.487   1.471 -0.1955 -0.5996  0.3033
 3959SOL    HW123336   1.453   0.569   1.441 -1.8611 -1.5304 -0.0495
 3959SOL    HW223337   1.576   0.528   1.492 -0.9315 -0.5688  3.2613
 3960SOL     OW23338   3.684   4.689   1.976 -0.2380 -0.4924  0.1407
 3960SOL    HW123339   3.737   4.685   1.896  1.1025 -0.7770  1.0562
 3960SOL    HW223340   3.670   0.063   1.981 -2.0013 -0.8065  1.3536
 3961SOL     OW23341   2.486   1.699  11.534 -0.0240 -0.1202  0.2900
 3961SOL    HW123342   2.568   1.683  11.582 -0.4282  0.3679  1.1533
 3961SOL    HW223343   2.531   1.724  11.454  1.0929 -0.7973  0.6995
 3962SOL     OW23344   0.068   2.150   2.797  0.1690 -0.4591  0.3378
 3962SOL    HW123345   0.077   2.210   2.871 -1.8655  0.4789 -0.1646
 3962SOL    HW223346   0.140   2.090   2.815 -0.1046 -0.0667  2.7073
 3963SOL     OW23347   3.730   4.389   0.969 -0.2144 -0.0899 -0.8869
 3963SOL    HW123348   3.801   4.340   0.928  1.2998  0.4160  1.1406
 3963SOL    HW223349   3.664   4.392   0.900 -2.7598  0.8115  1.5599
 3964SOL     OW23350   0.615   0.995   5.302  0.4723  0.3118  0.1567
 3964SOL    HW123351   0.666   1.043   5.237  0.4341  1.4750  0.9786
 3964SOL    HW223352   0.679   1.003   5.373 -1.1321 -0.1356  1.6694
 3965SOL     OW23353   3.609   1.702   2.677  0.3277  0.0251  0.1692
 3965SOL    HW123354   3.629   1.646   2.602  1.2822 -1.0261  1.2175
 3965SOL    HW223355   3.528   1.746   2.653 -0.9034 -2.7958 -0.8552
 3966SOL     OW23356   2.587   3.634   5.801  0.7842 -0.7807 -0.1176
 3966SOL    HW123357   2.586   3.598   5.890  1.3785  0.5118  0.4214
 3966SOL    HW223358   2.666   3.687   5.806  0.0844  0.2644  0.0681
 3967SOL     OW23359   3.711   3.915   2.390  0.3027 -0.6216 -0.4279
 3967SOL    HW123360   3.618   3.907   2.369  0.2147  1.7848 -1.0099
 3967SOL    HW223361   3.711   3.968   2.470 -0.5154  0.6071 -1.2326
 3968SOL     OW23362   2.093   1.388   0.549 -0.3876  0.2752 -0.6199
 3968SOL    HW123363   2.157   1.458   0.560  0.4200 -0.5847  0.2277
 3968SOL    HW223364   2.013   1.438   0.532  1.5952  3.4559 -0.4573
 3969SOL     OW23365   3.958   2.752   3.876  0.0179  0.8641 -0.0719
 3969SOL    HW123366   4.046   2.720   3.854 -0.2951  0.5354 -0.8717
 3969SOL    HW223367   3.908   2.716   3.802  1.1106 -1.7389  0.4379
 3970SOL     OW23368   4.219   3.332   8.525 -0.0422 -0.5640  0.5912
 3970SOL    HW123369   4.237   3.348   8.433  0.3367  0.1463  0.7868
 3970SOL    HW223370   4.293   3.283   8.561 -0.0567 -1.4378 -0.5643
 3971SOL     OW23371   0.108   1.326   7.794 -0.5657  0.0798 -0.2994
 3971SOL    HW123372   0.180   1.378   7.831 -0.3385 -1.1725  1.0275
 3971SOL    HW223373   0.052   1.335   7.872  0.7635  0.5039  0.6144
 3972SOL     OW23374   0.325   2.367   3.631 -0.2603  0.2463  0.1293
 3972SOL    HW123375   0.345   2.388   3.540 -3.2254 -1.9372 -1.0348
 3972SOL    HW223376   0.273   2.443   3.657 -0.7983  0.0562 -0.3844
 3973SOL     OW23377   4.688   4.206   9.824  0.1192  0.3977  0.2182
 3973SOL    HW123378   4.597   4.215   9.854 -0.7792 -0.3280 -2.2999
 3973SOL    HW223379   0.009   4.292   9.825 -0.8904  0.8891  0.1951
 3974SOL     OW23380   1.991   1.663   2.406 -0.1896  0.4394 -0.2867
 3974SOL    HW123381   2.029   1.744   2.440  1.7567 -0.3968 -0.4772
 3974SOL    HW223382   1.941   1.645   2.486 -0.0873  2.6255  0.2737
 3975SOL     OW23383   2.053   0.809   3.124 -0.0561  0.1215  0.0586
 3975SOL    HW123384   2.018   0.809   3.036 -0.9742 -2.4861  0.4349
 3975SOL    HW223385   1.976   0.809   3.181 -0.2643 -1.6072 -0.2265
 3976SOL     OW23386   3.280   2.574   1.044 -0.2243 -0.1611 -0.1699
 3976SOL    HW123387   3.238   2.637   0.985  0.2444 -0.4384 -0.8033
 3976SOL    HW223388   3.241   2.493   1.010  0.4691 -1.1875  1.5256
 3977SOL     OW23389   1.595   3.350  10.781  0.2149 -0.2078 -0.1154
 3977SOL    HW123390   1.507   3.341  10.744  0.5099 -1.4332 -0.5212
 3977SOL    HW223391   1.581   3.402  10.860 -0.8442 -0.3897 -0.1796
 3978SOL     OW23392   3.947   2.304  14.345 -0.2340 -0.4346  0.4194
 3978SOL    HW123393   4.009   2.298  14.273 -0.5710 -0.7880  0.1575
 3978SOL    HW223394   3.925   2.397  14.334  1.7872 -0.1526 -1.0896
 3979SOL     OW23395   0.013   1.520   0.167  0.4096  0.5329  0.4439
 3979SOL    HW123396   4.674   1.449   0.148  0.7867  0.2878  0.1621
 3979SOL    HW223397   0.093   1.471   0.185 -0.4462 -0.3623  1.8096
 3980SOL     OW23398   0.636   3.367   1.010 -0.3141 -0.4706  0.2406
 3980SOL    HW123399   0.556   3.350   1.060 -0.0400 -1.3160  0.3993
 3980SOL    HW223400   0.698   3.382   1.081  1.8766 -4.6491 -0.7563
 3981SOL     OW23401   2.462   1.902   5.241  1.4122 -0.5022 -0.2648
 3981SOL    HW123402   2.377   1.943   5.252  1.8977  0.6136 -0.6474
 3981SOL    HW223403   2.443   1.857   5.158  0.8426 -2.0351  0.6953
 3982SOL     OW23404   0.599   0.457   6.317 -0.0746 -0.3802 -0.1101
 3982SOL    HW123405   0.595   0.512   6.239 -0.6287 -0.8435 -0.4140
 3982SOL    HW223406   0.564   0.517   6.382 -1.3651 -1.6703  0.4061
 3983SOL     OW23407   1.510   3.818  13.139 -0.1261  0.2012 -0.6464
 3983SOL    HW123408   1.474   3.898  13.102  0.9423  0.0963 -1.8977
 3983SOL    HW223409   1.480   3.824  13.230  0.1807 -0.6242 -0.4951
 3984SOL     OW23410   0.487   2.721   7.793 -0.4925 -0.2348 -0.0601
 3984SOL    HW123411   0.565   2.668   7.808  0.1309  0.7083  0.0553
 3984SOL    HW223412   0.512   2.798   7.845  2.4666 -1.2223 -0.0357
 3985SOL     OW23413   1.972   2.149   5.544 -0.2731  0.6488  0.4622
 3985SOL    HW123414   1.935   2.104   5.468  1.9258  2.3604 -1.6192
 3985SOL    HW223415   2.042   2.087   5.563 -0.4364 -0.1460 -1.5184
 3986SOL     OW23416   0.501   1.283  11.650  0.4998 -0.4071  0.5377
 3986SOL    HW123417   0.516   1.195  11.614  3.3699 -1.1943  3.5976
 3986SOL    HW223418   0.505   1.338  11.573  0.5892  0.1331  0.9299
 3987SOL     OW23419   2.579   1.451  12.192  0.3215 -0.4411  0.3906
 3987SOL    HW123420   2.598   1.531  12.142 -1.4673  0.0803  0.5577
 3987SOL    HW223421   2.513   1.475  12.257 -0.7525  0.6046 -1.0761
 3988SOL     OW23422   2.464   3.534   1.133 -0.2465 -0.7125  0.4956
 3988SOL    HW123423   2.480   3.488   1.051  0.6370  0.2590  0.1325
 3988SOL    HW223424   2.516   3.475   1.188 -0.5412 -1.5746 -0.1489
 3989SOL     OW23425   2.162   2.466  17.128  0.1017  0.1716  0.0422
 3989SOL    HW123426   2.165   2.485  17.035  1.7634 -2.6224 -0.4631
 3989SOL    HW223427   2.223   2.392  17.135 -2.1949 -1.6873  0.5543
 3990SOL     OW23428   4.260   1.804  11.608 -0.7465  0.1451  0.2060
 3990SOL    HW123429   4.234   1.745  11.679 -0.5725 -3.2358 -2.5411
 3990SOL    HW223430   4.188   1.866  11.623 -2.1092 -1.2773 -0.5103
 3991SOL     OW23431   3.439   3.732   0.706  0.6457  0.0370  0.1097
 3991SOL    HW123432   3.373   3.665   0.691 -0.3101  1.1019 -0.4161
 3991SOL    HW223433   3.513   3.671   0.694 -0.1052 -1.0875  1.2983
 3992SOL     OW23434   2.427   4.522   2.213 -0.1910  0.4245 -0.0541
 3992SOL    HW123435   2.462   4.538   2.125  1.9928 -2.2341  0.3189
 3992SOL    HW223436   2.453   4.430   2.220 -0.2784  0.3394 -0.8278
 3993SOL     OW23437   1.619   2.351   3.104 -0.4163 -0.0379 -0.4671
 3993SOL    HW123438   1.641   2.258   3.105  2.6385  0.6755  0.6315
 3993SOL    HW223439   1.525   2.349   3.088 -0.5303  1.4613  0.0045
 3994SOL     OW23440   3.071   0.347   4.103  0.1073 -0.3927  0.5823
 3994SOL    HW123441   3.138   0.416   4.103 -0.3742  0.0707  1.5238
 3994SOL    HW223442   3.104   0.288   4.171  1.8757 -0.5319 -0.3678
 3995SOL     OW23443   2.981   0.553   6.405 -0.0810 -0.4691  0.1990
 3995SOL    HW123444   2.983   0.616   6.476 -1.7263 -1.5371  1.1943
 3995SOL    HW223445   2.945   0.598   6.329  0.5138  0.8310  0.6983
 3996SOL     OW23446   4.394   1.711  12.368 -0.0724  0.0914 -0.3720
 3996SOL    HW123447   4.353   1.751  12.445 -0.6707 -0.6074 -0.3238
 3996SOL    HW223448   4.398   1.790  12.314 -0.6218  0.5881  0.3179
 3997SOL     OW23449   0.832   1.307   2.692 -0.2138  0.2738  0.0716
 3997SOL    HW123450   0.785   1.347   2.766  1.4006  1.2977  0.5370
 3997SOL    HW223451   0.763   1.297   2.626  1.9604 -0.4904 -2.0654
 3998SOL     OW23452   3.523   0.841   9.014 -0.2640  0.1771 -0.2680
 3998SOL    HW123453   3.431   0.829   8.993 -0.0444 -0.5766 -0.8030
 3998SOL    HW223454   3.527   0.821   9.108 -3.7574 -2.0691 -0.5854
 3999SOL     OW23455   1.055   0.350  10.500 -0.0929  0.0174  0.0740
 3999SOL    HW123456   1.008   0.330  10.419  1.9676 -4.2494 -0.0882
 3999SOL    HW223457   1.079   0.442  10.497  0.6898 -0.2290 -1.1014
 4000SOL     OW23458   2.265   0.977   7.514  0.0057 -0.1062  0.2452
 4000SOL    HW123459   2.304   1.001   7.598  1.1069  0.2368 -0.3650
 4000SOL    HW223460   2.332   0.968   7.447  0.1571  1.2740  0.2016
 4001SOL     OW23461   4.003   1.629   0.194  0.3502 -0.3218 -0.0054
 4001SOL    HW123462   3.937   1.600   0.131  0.1193 -0.0519  0.1145
 4001SOL    HW223463   4.075   1.567   0.178  1.9958  1.2634  1.2577
 4002SOL     OW23464   2.250   2.683   8.724  0.4661 -0.0257 -0.5513
 4002SOL    HW123465   2.180   2.737   8.762  0.4169 -1.5734  1.5723
 4002SOL    HW223466   2.325   2.701   8.781  0.7539 -0.2081 -0.8743
 4003SOL     OW23467   0.923   0.874   4.497 -0.1385  0.3007  0.0515
 4003SOL    HW123468   0.888   0.923   4.423  0.8912  2.6977  1.1523
 4003SOL    HW223469   1.003   0.925   4.509  1.2440 -1.9292  0.3629
 4004SOL     OW23470   4.463   0.965   2.477  0.6669 -0.0954  0.0431
 4004SOL    HW123471   4.539   0.964   2.536  0.7143 -2.4615 -0.0606
 4004SOL    HW223472   4.480   0.884   2.428 -0.8964 -1.3420  1.5769
 4005SOL     OW23473   1.834   0.780   7.342 -0.3649  0.1051  0.2329
 4005SOL    HW123474   1.871   0.832   7.414 -1.0400 -3.0961  2.8909
 4005SOL    HW223475   1.807   0.696   7.379  0.6301  0.1113  0.9822
 4006SOL     OW23476   0.924   2.544   8.134 -0.3187 -0.7141 -0.2306
 4006SOL    HW123477   0.876   2.464   8.154 -0.5071 -0.2135  1.3093
 4006SOL    HW223478   1.015   2.514   8.132 -0.1860 -0.2790 -0.6577
 4007SOL     OW23479   3.334   4.183   4.178  0.3414 -0.2125 -0.5058
 4007SOL    HW123480   3.240   4.169   4.168  0.5040 -1.8258  0.1810
 4007SOL    HW223481   3.343   4.120   4.250  2.7894 -0.0883 -0.6914
 4008SOL     OW23482   2.472   0.319   7.087  0.4525 -0.0456  0.1674
 4008SOL    HW123483   2.543   0.253   7.086  0.4031 -0.0873 -0.5279
 4008SOL    HW223484   2.431   0.307   7.001  0.1900 -0.6844  0.3821
 4009SOL     OW23485   4.076   4.607   5.955 -0.5919 -0.1625 -0.1812
 4009SOL    HW123486   4.033   4.584   6.038 -2.1589  0.0169 -0.9457
 4009SOL    HW223487   4.007   4.653   5.908 -1.4890 -0.8580  0.4395
 4010SOL     OW23488   3.822   2.138   8.576 -0.6253  0.1908  0.0143
 4010SOL    HW123489   3.781   2.123   8.661  1.4582 -1.1027  0.7903
 4010SOL    HW223490   3.773   2.216   8.551 -1.4549  0.1669  1.5908
 4011SOL     OW23491   0.426   3.097   8.593  0.1197 -0.3330  0.3026
 4011SOL    HW123492   0.409   3.023   8.650  0.7229 -1.3627 -0.8507
 4011SOL    HW223493   0.513   3.082   8.556 -0.0240 -1.8516  0.5721
 4012SOL     OW23494   1.205   3.763   8.881 -0.7605 -0.6622 -0.3379
 4012SOL    HW123495   1.200   3.825   8.954  1.2000  1.7801 -2.3004
 4012SOL    HW223496   1.297   3.774   8.859 -0.5532 -1.1411  0.2861
 4013SOL     OW23497   3.472   0.444  10.337 -0.7986 -0.0962 -0.0793
 4013SOL    HW123498   3.455   0.536  10.357 -2.1913 -0.0025 -1.7253
 4013SOL    HW223499   3.419   0.395  10.400 -1.3226 -0.2071 -0.6085
 4014SOL     OW23500   1.395   2.100   6.475 -0.1836 -0.0886 -0.1694
 4014SOL    HW123501   1.367   2.010   6.458 -0.3819 -0.3331  1.4180
 4014SOL    HW223502   1.401   2.108   6.570 -1.4925 -1.6750  0.0433
 4015SOL     OW23503   2.543   3.999  10.745 -0.6135  0.3775  0.0839
 4015SOL    HW123504   2.471   3.937  10.737  1.0072 -1.6829  1.6261
 4015SOL    HW223505   2.625   3.951  10.728 -1.0393 -0.0426 -0.7939
 4016SOL     OW23506   2.980   0.758   9.526  0.3768  0.6240  0.5062
 4016SOL    HW123507   2.896   0.715   9.513 -0.4586  1.5755  2.7916
 4016SOL    HW223508   3.008   0.733   9.438  0.6039  3.4063 -0.2200
 4017SOL     OW23509   1.525   2.780   4.341 -0.2073 -0.0359 -0.0208
 4017SOL    HW123510   1.570   2.774   4.425 -0.2074  0.7474  0.0310
 4017SOL    HW223511   1.544   2.690   4.314 -0.5296 -0.4824  1.2168
 4018SOL     OW23512   1.431   4.201   5.705 -0.3637  0.3062 -0.2444
 4018SOL    HW123513   1.488   4.265   5.663  0.0332  0.7329  0.9706
 4018SOL    HW223514   1.477   4.174   5.784  0.1965  1.0266 -0.3255
 4019SOL     OW23515   2.616   4.531  10.630  0.0439  0.8593  0.1166
 4019SOL    HW123516   2.622   4.574  10.716  0.5262 -0.7886  0.9042
 4019SOL    HW223517   2.629   4.439  10.653  1.8245  1.2563  0.6825
 4020SOL     OW23518   1.335   0.295   4.417  0.4800  0.1670  0.0316
 4020SOL    HW123519   1.404   0.353   4.448 -0.0780  1.3092 -0.8492
 4020SOL    HW223520   1.327   0.337   4.331 -0.1108 -0.2849 -0.1341
 4021SOL     OW23521   1.711   3.103   6.792 -1.4052 -0.3995  0.1718
 4021SOL    HW123522   1.801   3.077   6.810 -2.1453 -3.2796 -0.3193
 4021SOL    HW223523   1.673   3.023   6.754 -0.4159 -1.1683  0.8185
 4022SOL     OW23524   3.651   1.553   9.959  0.7311  0.0589 -0.0289
 4022SOL    HW123525   3.628   1.460   9.965 -0.1572  0.2331 -0.7324
 4022SOL    HW223526   3.712   1.562  10.031  1.9697  3.1574 -1.5034
 4023SOL     OW23527   3.327   4.575   1.348 -0.2404 -0.3235  0.7832
 4023SOL    HW123528   3.240   4.543   1.323 -1.3937  3.3126  0.1161
 4023SOL    HW223529   3.321   4.578   1.443  0.7533  0.9809  0.8172
 4024SOL     OW23530   4.182   1.869   5.549  0.1420 -0.0433 -0.0337
 4024SOL    HW123531   4.098   1.824   5.564  0.0800  0.0110 -0.2186
 4024SOL    HW223532   4.219   1.796   5.500  2.2062  0.5266  0.6872
 4025SOL     OW23533   1.930   1.970   1.264  0.0640 -0.0783  0.1148
 4025SOL    HW123534   1.892   1.886   1.290  0.0163 -0.4248 -1.0731
 4025SOL    HW223535   2.009   1.980   1.317 -0.6658  0.8693  1.0242
 4026SOL     OW23536   3.444   4.111   5.551  0.3159  0.1880  0.4501
 4026SOL    HW123537   3.517   4.157   5.593 -0.0585  0.3030  0.9739
 4026SOL    HW223538   3.496   4.055   5.493 -1.6570 -0.8247 -0.3220
 4027SOL     OW23539   4.209   2.291   5.346  0.3515  0.0749  0.6368
 4027SOL    HW123540   4.194   2.207   5.302  0.8376  1.6049 -2.4607
 4027SOL    HW223541   4.222   2.347   5.269  1.9698 -2.3710 -0.8885
 4028SOL     OW23542   4.031   0.739  15.117  0.2215 -0.2303  0.0976
 4028SOL    HW123543   3.961   0.722  15.054  2.1079 -0.6533 -1.8770
 4028SOL    HW223544   4.107   0.734  15.060 -1.8626  3.1753 -2.9959
 4029SOL     OW23545   1.453   3.527   8.105 -0.2389 -0.1553 -0.4799
 4029SOL    HW123546   1.523   3.546   8.168  0.5493 -1.3572 -1.0097
 4029SOL    HW223547   1.499   3.524   8.021 -0.6835 -0.8635 -0.6937
 4030SOL     OW23548   2.729   0.825   5.622  0.3018  1.2766  0.3753
 4030SOL    HW123549   2.736   0.812   5.527  1.4958  2.2020  0.3457
 4030SOL    HW223550   2.766   0.913   5.626  1.8479  0.6412 -0.0425
 4031SOL     OW23551   4.329   0.451   6.838  0.7812  0.0922 -0.1549
 4031SOL    HW123552   4.421   0.476   6.845  0.9180 -0.8118  1.2096
 4031SOL    HW223553   4.289   0.523   6.789  0.0971 -0.1463  0.0405
 4032SOL     OW23554   1.017   2.256   8.374 -0.0882 -0.1335  0.1107
 4032SOL    HW123555   0.987   2.214   8.455  0.7131  0.7432  0.8572
 4032SOL    HW223556   1.015   2.349   8.393  0.4626 -0.1273  0.1463
 4033SOL     OW23557   4.092   2.826   5.690  0.5870  0.2424 -0.4089
 4033SOL    HW123558   4.009   2.779   5.698 -0.1670  1.8879  1.5242
 4033SOL    HW223559   4.062   2.917   5.679  2.0634  0.3668 -3.3080
 4034SOL     OW23560   2.206   1.615   8.619 -0.2158 -0.2136  0.0267
 4034SOL    HW123561   2.146   1.581   8.685 -0.5889  0.1461 -0.1263
 4034SOL    HW223562   2.238   1.692   8.666 -1.9005  1.8838 -2.2592
 4035SOL     OW23563   3.595   2.877  13.447  0.2731 -0.0626 -0.1711
 4035SOL    HW123564   3.668   2.847  13.393 -0.8120  0.3130 -1.8596
 4035SOL    HW223565   3.647   2.937  13.499  1.2922 -0.9876 -0.1382
 4036SOL     OW23566   0.565   4.288  10.178  0.4282  0.1977  0.5561
 4036SOL    HW123567   0.529   4.265  10.092 -2.2899 -0.1489  1.7803
 4036SOL    HW223568   0.482   4.307  10.221  0.6029  1.3856  0.3473
 4037SOL     OW23569   0.781   3.855   3.041 -0.0615 -0.0848  0.0238
 4037SOL    HW123570   0.809   3.765   3.024 -1.1800 -0.7559  1.6451
 4037SOL    HW223571   0.714   3.834   3.107 -0.2150  0.8941  0.1715
 4038SOL     OW23572   1.323   0.796   1.907  0.1995  0.0878 -0.1215
 4038SOL    HW123573   1.405   0.747   1.897 -0.1550  0.1840 -3.4576
 4038SOL    HW223574   1.294   0.761   1.991 -0.7820 -0.2350 -0.6027
 4039SOL     OW23575   2.579   4.383   2.454 -0.0528  0.2631 -0.1456
 4039SOL    HW123576   2.630   4.425   2.385  0.7724  3.6384  2.5545
 4039SOL    HW223577   2.596   4.295   2.419  1.3119  1.2870 -2.0532
 4040SOL     OW23578   2.736   1.606  17.282 -0.2206  0.3121  0.2322
 4040SOL    HW123579   2.785   1.572  17.357  0.6778 -0.4891 -0.7084
 4040SOL    HW223580   2.746   1.530  17.224  0.1099  0.7501 -0.2859
 4041SOL     OW23581   4.105   3.513   8.748  0.3989 -0.0595 -0.0404
 4041SOL    HW123582   4.010   3.508   8.742  0.3958  1.2533 -1.1729
 4041SOL    HW223583   4.139   3.481   8.665 -0.5619 -1.1095 -0.0175
 4042SOL     OW23584   1.182   0.592   6.322 -0.5217  0.2060  0.3613
 4042SOL    HW123585   1.267   0.566   6.288 -0.8365 -1.5365  0.9153
 4042SOL    HW223586   1.201   0.657   6.390  2.4686  0.4809 -0.7242
 4043SOL     OW23587   0.694   2.515  11.605  0.2382  0.1653 -0.1868
 4043SOL    HW123588   0.682   2.527  11.699 -0.6666 -1.4940 -0.0785
 4043SOL    HW223589   0.634   2.444  11.581  0.6753 -0.1943 -0.2104
 4044SOL     OW23590   2.026   2.343   2.687  0.0469  0.2779  0.1025
 4044SOL    HW123591   2.003   2.422   2.638 -0.6606  0.8227  1.2971
 4044SOL    HW223592   2.083   2.383   2.752  0.1907 -0.2433  0.2954
 4045SOL     OW23593   1.149   1.804   4.495  0.2621 -0.4767  0.1837
 4045SOL    HW123594   1.132   1.890   4.456  0.3828  0.1667  1.5481
 4045SOL    HW223595   1.200   1.830   4.572  2.0093  0.3992 -1.2668
 4046SOL     OW23596   0.626   1.375   6.293 -0.0824  0.4320  0.2347
 4046SOL    HW123597   0.644   1.288   6.255 -1.3485  0.3400 -0.1897
 4046SOL    HW223598   0.630   1.337   6.381  1.4493  3.9643  1.6408
 4047SOL     OW23599   3.718   3.148   5.216  0.9599 -0.0791 -0.1920
 4047SOL    HW123600   3.662   3.072   5.204  1.4648 -0.6903  1.3594
 4047SOL    HW223601   3.660   3.223   5.204  3.2419  1.6873 -0.3808
 4048SOL     OW23602   0.319   1.197  12.095 -0.4088  0.2949 -1.1376
 4048SOL    HW123603   0.233   1.237  12.102 -0.3593  0.2363 -0.1621
 4048SOL    HW223604   0.295   1.104  12.099  2.4966 -0.3858  1.1075
 4049SOL     OW23605   2.301   3.350   5.063  0.9255 -0.0404 -0.5042
 4049SOL    HW123606   2.350   3.430   5.047 -0.7431  1.1315  0.2558
 4049SOL    HW223607   2.368   3.287   5.035  1.9855  1.3739 -1.1902
 4050SOL     OW23608   3.607   4.120   5.188  0.5220 -0.4222 -0.0706
 4050SOL    HW123609   3.668   4.070   5.134 -1.6412 -2.9036 -0.2682
 4050SOL    HW223610   3.669   4.179   5.231 -1.6006  0.3428  1.9335
 4051SOL     OW23611   0.837   2.109  14.121  0.2833 -0.2550 -0.1668
 4051SOL    HW123612   0.872   2.190  14.084  1.0637 -0.2133  0.6561
 4051SOL    HW223613   0.920   2.078  14.159  0.7980  0.3871 -0.7612
 4052SOL     OW23614   1.827   3.367   3.129  0.8996 -0.3465 -0.4670
 4052SOL    HW123615   1.770   3.356   3.205  0.4408  1.8936 -0.4998
 4052SOL    HW223616   1.769   3.411   3.067  1.2687  0.5951 -0.1333
 4053SOL     OW23617   1.916   2.216  17.440  0.1186 -0.0460  0.2937
 4053SOL    HW123618   1.899   2.229  17.347  0.4201 -1.0438  0.1044
 4053SOL    HW223619   2.005   2.252  17.448  0.2518  0.0440 -1.6076
 4054SOL     OW23620   0.177   1.423   2.277  0.1493 -0.1610  0.1514
 4054SOL    HW123621   0.203   1.367   2.351  0.2711 -1.0842 -0.5751
 4054SOL    HW223622   0.216   1.503   2.311 -3.2938  1.3183  0.5348
 4055SOL     OW23623   1.182   0.347   9.050 -0.2652 -0.1278 -0.4081
 4055SOL    HW123624   1.127   0.410   9.003 -1.5598 -1.9820 -1.4065
 4055SOL    HW223625   1.132   0.267   9.033 -1.2145 -0.0708  2.1740
 4056SOL     OW23626   4.459   2.527   8.661  0.3474  0.2439  0.2336
 4056SOL    HW123627   4.454   2.622   8.661 -0.2559  0.2143  1.4471
 4056SOL    HW223628   4.398   2.508   8.590 -0.4157  1.0202  0.6800
 4057SOL     OW23629   2.547   4.463  16.827 -0.0977  0.1552 -0.1510
 4057SOL    HW123630   2.525   4.492  16.738  0.0697  0.6674 -0.0258
 4057SOL    HW223631   2.484   4.513  16.879  0.7038  1.2680 -0.2380
 4058SOL     OW23632   3.202   0.099   9.178  0.2506 -0.0094 -0.0368
 4058SOL    HW123633   3.151   0.081   9.099  2.8243 -0.0315 -1.6659
 4058SOL    HW223634   3.282   0.135   9.140  0.5600  0.6734  1.2766
 4059SOL     OW23635   0.492   1.380   5.135  0.3066 -0.4018 -0.0223
 4059SOL    HW123636   0.418   1.373   5.196  1.6088  3.2737  1.9915
 4059SOL    HW223637   0.548   1.438   5.187 -0.6145  0.3147  0.1707
 4060SOL     OW23638   3.853   3.022   7.974  0.4550  0.3630  0.7156
 4060SOL    HW123639   3.828   2.978   7.892 -0.4716  0.2816  1.0440
 4060SOL    HW223640   3.933   2.980   8.004  1.3408  1.4995 -0.0525
 4061SOL     OW23641   1.186   1.160   7.657  0.4617 -0.9912  0.5666
 4061SOL    HW123642   1.171   1.213   7.735  2.6326 -1.2317  1.1645
 4061SOL    HW223643   1.266   1.117   7.689  1.9666  1.4560  0.1433
 4062SOL     OW23644   1.535   1.965   6.156  0.2209  0.2135 -0.8450
 4062SOL    HW123645   1.611   1.925   6.198  0.1628  2.2123  1.2064
 4062SOL    HW223646   1.466   1.899   6.160  0.7247 -0.4105 -2.6252
 4063SOL     OW23647   2.013   3.095  13.919 -0.3375 -0.2016  0.3248
 4063SOL    HW123648   1.960   3.024  13.954 -2.1727  0.0922 -1.8467
 4063SOL    HW223649   2.106   3.069  13.922 -0.7657 -1.6298  1.2375
 4064SOL     OW23650   3.131   4.039   9.059  0.1456  0.3497 -0.0241
 4064SOL    HW123651   3.107   4.087   8.980 -2.1037  0.6864  0.8701
 4064SOL    HW223652   3.050   3.999   9.089 -0.4166  1.3835 -0.1747
 4065SOL     OW23653   2.448   3.396   8.335  0.3437 -0.3628 -0.2730
 4065SOL    HW123654   2.506   3.339   8.385  1.6976 -0.3232 -1.8005
 4065SOL    HW223655   2.364   3.382   8.378 -0.3099  0.5899 -1.2398
 4066SOL     OW23656   3.649   4.013   4.023  0.5319  0.4690 -0.7167
 4066SOL    HW123657   3.606   4.093   4.054 -0.4362  0.0227 -0.9102
 4066SOL    HW223658   3.574   3.960   3.997  0.0567  1.1451 -0.7251
 4067SOL     OW23659   4.265   4.535  11.173 -0.2195  0.0136  0.0308
 4067SOL    HW123660   4.242   4.621  11.208 -0.3049 -0.0812  0.2029
 4067SOL    HW223661   4.179   4.494  11.174 -0.7284  1.0402 -1.7612
 4068SOL     OW23662   3.988   1.841   4.590  0.1458  0.3133 -0.0266
 4068SOL    HW123663   4.018   1.929   4.612  0.3574  0.5119 -1.1042
 4068SOL    HW223664   4.052   1.789   4.639  0.3823  1.4717  0.8953
 4069SOL     OW23665   1.071   3.294   3.643 -0.1126 -0.1708  0.0683
 4069SOL    HW123666   1.064   3.210   3.688  0.0229  0.5907  1.4830
 4069SOL    HW223667   0.982   3.323   3.660 -0.5906 -2.2184  1.1002
 4070SOL     OW23668   0.303   2.927   4.272 -0.1238 -0.2537  0.0589
 4070SOL    HW123669   0.232   2.985   4.299 -0.5981 -1.9380  2.5036
 4070SOL    HW223670   0.321   2.953   4.182  0.1354 -0.5816  0.0146
 4071SOL     OW23671   0.466   2.931   0.705  0.1694 -0.4562 -0.5092
 4071SOL    HW123672   0.515   3.006   0.738  0.6160 -1.2853  0.6951
 4071SOL    HW223673   0.383   2.939   0.752 -0.5299 -0.5255 -1.7308
 4072SOL     OW23674   1.921   2.508   6.832 -0.1232  0.2523 -0.1376
 4072SOL    HW123675   1.846   2.491   6.775 -1.0022  2.3892  0.3911
 4072SOL    HW223676   1.919   2.432   6.890  0.8442 -1.0721 -1.8325
 4073SOL     OW23677   0.943   2.639   2.244 -0.7017  0.9540 -0.4725
 4073SOL    HW123678   0.978   2.722   2.212 -0.1166  0.3597 -1.3888
 4073SOL    HW223679   0.935   2.594   2.160  0.5058 -1.1303  0.5373
 4074SOL     OW23680   4.217   3.761   7.292  0.1022 -0.1459 -0.5582
 4074SOL    HW123681   4.182   3.825   7.354  1.4667 -0.2428  0.3280
 4074SOL    HW223682   4.170   3.683   7.321  1.3104 -0.6841 -0.0198
 4075SOL     OW23683   0.889   2.975  11.443 -0.7563 -0.6758 -0.1182
 4075SOL    HW123684   0.840   2.905  11.486  0.7005 -0.5170  1.8087
 4075SOL    HW223685   0.835   3.051  11.467 -1.0792 -1.4190  1.5051
 4076SOL     OW23686   3.245   3.433   9.439 -0.4048 -0.3548 -0.4370
 4076SOL    HW123687   3.317   3.436   9.377 -1.3715 -1.6367 -1.6215
 4076SOL    HW223688   3.246   3.340   9.460 -0.7161 -0.2691 -0.0476
 4077SOL     OW23689   4.280   1.474   9.048 -0.1560  0.4530  0.5967
 4077SOL    HW123690   4.244   1.417   8.981  0.6815 -0.7527  1.1516
 4077SOL    HW223691   4.217   1.456   9.119 -0.5816  0.2367  0.1627
 4078SOL     OW23692   2.244   4.574   1.211 -0.4415 -0.0730 -0.0357
 4078SOL    HW123693   2.324   4.580   1.263 -0.3186  1.4719 -0.4025
 4078SOL    HW223694   2.192   4.515   1.267 -0.3715  0.4942  0.6324
 4079SOL     OW23695   3.489   4.553   2.140  0.2021 -0.6504  0.3750
 4079SOL    HW123696   3.536   4.590   2.066 -0.8606 -0.1474 -0.0388
 4079SOL    HW223697   3.470   4.628   2.197 -0.7644 -0.3021 -0.4099
 4080SOL     OW23698   0.517   2.336   7.695  0.5726  0.3343  0.2103
 4080SOL    HW123699   0.470   2.270   7.745  1.1537 -1.0675 -1.0821
 4080SOL    HW223700   0.469   2.330   7.613  1.9069  1.9095 -0.6705
 4081SOL     OW23701   1.957   0.807   0.717 -0.1824  0.4159 -0.1682
 4081SOL    HW123702   2.018   0.799   0.644 -0.0742 -1.2585  0.1134
 4081SOL    HW223703   1.911   0.887   0.690  0.9619  0.3996 -2.1107
 4082SOL     OW23704   0.495   4.678   0.806  0.0482  0.0941  0.1593
 4082SOL    HW123705   0.504   0.048   0.780  0.3743 -0.1029 -0.4336
 4082SOL    HW223706   0.586   4.659   0.828 -0.3711 -2.5311 -0.3531
 4083SOL     OW23707   2.486   3.679   2.661  0.4420 -0.7297  0.1862
 4083SOL    HW123708   2.575   3.647   2.679  0.5382 -1.1406 -1.0519
 4083SOL    HW223709   2.435   3.613   2.707 -2.1381  3.1071  2.8818
 4084SOL     OW23710   3.284   1.009   8.383 -0.4040  0.0378 -0.3997
 4084SOL    HW123711   3.197   1.008   8.342  0.2532 -0.6591 -1.7787
 4084SOL    HW223712   3.350   1.040   8.321  0.6134 -0.4473  0.4398
 4085SOL     OW23713   3.340   2.514   2.511 -0.1253 -0.1876  0.2978
 4085SOL    HW123714   3.295   2.528   2.595 -0.3694 -0.5122  0.2188
 4085SOL    HW223715   3.276   2.548   2.449  0.6666  2.2118  0.7606
 4086SOL     OW23716   0.777   4.470   3.641  0.1316  0.0280 -0.5037
 4086SOL    HW123717   0.768   4.561   3.612 -0.2317  1.2653  3.5420
 4086SOL    HW223718   0.704   4.432   3.592  0.6970 -3.1135  1.1299
 4087SOL     OW23719   4.651   3.515  10.836 -0.7942  0.5034 -0.3779
 4087SOL    HW123720   4.646   3.610  10.848  0.5559  0.6356 -0.7692
 4087SOL    HW223721   4.561   3.492  10.859 -0.3251  0.4997  1.4175
 4088SOL     OW23722   4.160   3.431   6.233 -0.2270  0.4230 -0.1314
 4088SOL    HW123723   4.130   3.340   6.241 -2.1233  1.0220 -0.3849
 4088SOL    HW223724   4.120   3.452   6.149  1.1538  0.2914 -0.8203
 4089SOL     OW23725   4.000   0.036   2.557  0.0971  0.7355  0.4721
 4089SOL    HW123726   4.058   0.005   2.488  0.7878  0.9409  0.9597
 4089SOL    HW223727   3.930   0.081   2.510 -0.8214 -0.7343  0.4158
 4090SOL     OW23728   2.859   2.709   2.166  0.1558  0.1887 -0.3734
 4090SOL    HW123729   2.854   2.617   2.140  0.9396 -0.6166  2.3093
 4090SOL    HW223730   2.948   2.736   2.145 -1.3169  3.5414 -2.3877
 4091SOL     OW23731   0.051   4.169   3.546  0.0420  0.2401  0.2810
 4091SOL    HW123732   0.068   4.124   3.628  1.5059 -0.1642 -0.2336
 4091SOL    HW223733   4.678   4.185   3.553 -0.0350 -1.0717  2.2152
 4092SOL     OW23734   0.482   1.418  12.539 -0.6140  0.1521  0.1191
 4092SOL    HW123735   0.439   1.333  12.527 -1.6488  1.1902 -3.5357
 4092SOL    HW223736   0.526   1.405  12.623  1.6605 -2.4084 -1.4457
 4093SOL     OW23737   0.272   1.877  14.071  0.1826 -0.5016 -0.1478
 4093SOL    HW123738   0.294   1.788  14.045  0.9646 -0.6961  1.1612
 4093SOL    HW223739   0.347   1.917  14.115 -0.7910  0.9639  0.1774
 4094SOL     OW23740   1.926   2.008  13.658  0.3118 -0.3371 -0.0535
 4094SOL    HW123741   1.899   1.919  13.680  0.6382 -0.9449 -2.1735
 4094SOL    HW223742   1.921   2.050  13.744  1.9249 -0.5589  0.1530
 4095SOL     OW23743   1.821   3.702  17.300  0.2858 -0.4952  0.0547
 4095SOL    HW123744   1.760   3.752  17.355 -0.8013 -0.9348 -0.7409
 4095SOL    HW223745   1.817   3.753  17.219 -0.3717 -1.3187 -0.4342
 4096SOL     OW23746   3.464   2.001  13.814  0.6411  0.4645 -0.1482
 4096SOL    HW123747   3.377   1.970  13.836 -0.2059  1.2844 -2.3755
 4096SOL    HW223748   3.479   2.063  13.886  2.1233 -0.3450  0.2483
 4097SOL     OW23749   1.586   1.590   0.799 -0.3814  0.1310 -0.0918
 4097SOL    HW123750   1.642   1.522   0.836 -1.6556 -0.7506  0.2195
 4097SOL    HW223751   1.504   1.577   0.847  0.0703 -1.9782  0.0975
 4098SOL     OW23752   2.312   2.246   5.438 -0.0718  0.3112  0.4845
 4098SOL    HW123753   2.253   2.321   5.438 -1.8487 -1.0782  0.5752
 4098SOL    HW223754   2.347   2.236   5.526  1.0313 -1.2007 -0.1228
 4099SOL     OW23755   3.253   0.985  17.460  0.2055 -0.4142  0.2558
 4099SOL    HW123756   3.328   0.992  17.401 -1.7381 -1.3355 -2.3534
 4099SOL    HW223757   3.284   0.929  17.531 -2.4116 -1.6967  0.3853
 4100SOL     OW23758   1.414   3.615   3.960  0.0569 -0.2160  0.1675
 4100SOL    HW123759   1.487   3.604   4.021 -0.4419 -2.1199  0.4228
 4100SOL    HW223760   1.445   3.694   3.916 -0.2692 -1.1075 -1.6670
 4101SOL     OW23761   4.267   1.580   2.012  0.3642  0.5901  0.6126
 4101SOL    HW123762   4.274   1.652   2.075 -1.4624  0.1322  1.3530
 4101SOL    HW223763   4.173   1.562   1.999  0.4872 -0.4704  1.2123
 4102SOL     OW23764   3.654   1.827   5.087 -0.1057  0.1389  0.0731
 4102SOL    HW123765   3.569   1.869   5.074  1.2538  3.1431  0.7683
 4102SOL    HW223766   3.658   1.793   4.997  0.3943 -1.4214  0.6952
 4103SOL     OW23767   3.226   1.256   2.714 -0.6878  0.5013  0.6880
 4103SOL    HW123768   3.271   1.171   2.716  0.3987  1.0958  1.6829
 4103SOL    HW223769   3.292   1.318   2.744 -0.2502 -0.2884  1.3653
 4104SOL     OW23770   3.515   2.554   1.207  0.0683 -0.5910  0.2694
 4104SOL    HW123771   3.428   2.566   1.169  0.2509 -1.9108 -0.5832
 4104SOL    HW223772   3.536   2.645   1.229 -0.8526 -0.5404  0.9092
 4105SOL     OW23773   2.756   3.388   8.092 -0.0629  1.0745  1.1242
 4105SOL    HW123774   2.730   3.375   8.183  3.9187  0.3244  2.1502
 4105SOL    HW223775   2.667   3.410   8.062  0.3125 -0.8878 -1.4984
 4106SOL     OW23776   2.010   2.658   7.263  0.4107  0.1136  0.0987
 4106SOL    HW123777   2.064   2.590   7.222  2.2963 -0.0653  2.8711
 4106SOL    HW223778   1.983   2.617   7.345 -0.3146  2.3559  0.9742
 4107SOL     OW23779   2.762   1.739   2.669 -0.2693  0.3097 -0.2120
 4107SOL    HW123780   2.720   1.820   2.639  0.2278  0.0227 -1.6828
 4107SOL    HW223781   2.770   1.748   2.764  3.1003  2.4323 -0.7032
 4108SOL     OW23782   0.701   3.036   5.077 -1.0362 -0.3388 -0.0670
 4108SOL    HW123783   0.616   3.032   5.033 -0.1454  0.8135 -1.8943
 4108SOL    HW223784   0.683   3.003   5.165  0.3757  0.8860  0.6851
 4109SOL     OW23785   1.960   4.578   2.435 -0.0831  0.1212 -0.1774
 4109SOL    HW123786   1.910   4.538   2.364  1.5901  1.3747 -2.0705
 4109SOL    HW223787   2.048   4.568   2.399  0.5790  0.1790  1.3848
 4110SOL     OW23788   1.185   0.745   2.668 -0.5643  0.6038 -0.7327
 4110SOL    HW123789   1.124   0.671   2.658  0.7451 -0.8244  1.7146
 4110SOL    HW223790   1.139   0.829   2.671  0.0164  0.9053 -0.4078
 4111SOL     OW23791   2.169   4.492   3.785  0.2925  0.1153 -0.5905
 4111SOL    HW123792   2.230   4.440   3.838 -0.4471  0.1202  0.2793
 4111SOL    HW223793   2.154   4.433   3.712  0.0820  0.6955 -1.0110
 4112SOL     OW23794   3.756   2.135   1.823  0.6948  0.3573 -0.1791
 4112SOL    HW123795   3.727   2.065   1.882  3.1305 -0.3977  0.1527
 4112SOL    HW223796   3.729   2.211   1.873 -0.8133 -1.0406  1.1276
 4113SOL     OW23797   2.952   0.433   3.426 -0.6733 -0.3498 -0.2576
 4113SOL    HW123798   2.941   0.502   3.491  1.2384  0.2142 -0.5462
 4113SOL    HW223799   2.906   0.481   3.357 -1.1049 -3.0315 -1.8231
 4114SOL     OW23800   1.337   3.139   7.784  0.3699  0.2571 -0.6710
 4114SOL    HW123801   1.429   3.164   7.796  0.2923  1.8031 -3.2225
 4114SOL    HW223802   1.297   3.158   7.869  0.9919  0.1723 -0.3640
 4115SOL     OW23803   3.630   1.040   3.033 -0.0968  0.1635 -0.1605
 4115SOL    HW123804   3.582   1.029   2.951 -1.7973 -1.0952  0.9803
 4115SOL    HW223805   3.595   1.118   3.077  1.1990  0.7269 -0.1405
 4116SOL     OW23806   1.480   2.920   2.627 -0.1511  0.3230 -0.1081
 4116SOL    HW123807   1.510   2.878   2.546 -2.3640  0.9596 -1.2460
 4116SOL    HW223808   1.407   2.862   2.650  0.7337 -0.9485 -0.4800
 4117SOL     OW23809   1.879   0.914   5.491  0.1172  0.0478  0.2484
 4117SOL    HW123810   1.902   0.841   5.433  1.6283 -0.5968  1.6412
 4117SOL    HW223811   1.833   0.965   5.424 -0.2499 -0.2295  0.2853
 4118SOL     OW23812   2.665   2.965  13.331  0.1157  0.2069 -0.1028
 4118SOL    HW123813   2.655   2.923  13.246 -0.1115  0.6129 -0.2786
 4118SOL    HW223814   2.750   2.930  13.359 -0.2979  1.7572  3.1676
 4119SOL     OW23815   2.425   3.880   5.993  0.0720  0.2540 -0.6612
 4119SOL    HW123816   2.414   3.818   6.064  2.2472 -2.0125 -2.3056
 4119SOL    HW223817   2.514   3.860   5.964 -0.3002 -1.3239 -0.6822
 4120SOL     OW23818   2.315   1.265   2.513 -0.8141 -0.1362  0.3360
 4120SOL    HW123819   2.321   1.202   2.441 -1.7067  0.3037 -0.1237
 4120SOL    HW223820   2.296   1.192   2.573 -2.1355  1.0209  1.3231
 4121SOL     OW23821   2.166   4.563   5.144  0.3563 -0.1705  0.2519
 4121SOL    HW123822   2.174   4.658   5.136  1.0407 -0.3342 -1.1229
 4121SOL    HW223823   2.072   4.557   5.158 -0.2198  1.2197 -2.9401
 4122SOL     OW23824   0.879   4.060  17.098  0.7070  0.1429  0.2798
 4122SOL    HW123825   0.945   4.102  17.042 -0.7354 -0.0582 -1.5702
 4122SOL    HW223826   0.915   3.972  17.108  0.2660 -0.2663 -1.6566
 4123SOL     OW23827   0.556   4.465   3.483 -0.2000 -0.2318 -0.2808
 4123SOL    HW123828   0.513   4.551   3.477 -0.3866 -0.4821 -2.3254
 4123SOL    HW223829   0.528   4.425   3.401  2.3809 -2.8317  0.1201
 4124SOL     OW23830   1.391   3.419   7.708 -0.3040 -0.1453 -0.3668
 4124SOL    HW123831   1.376   3.339   7.757  0.7691 -0.3952 -0.4471
 4124SOL    HW223832   1.359   3.482   7.772  0.9738 -1.7188  1.8041
 4125SOL     OW23833   3.281   4.348   5.549  0.6473 -0.2291 -0.0167
 4125SOL    HW123834   3.330   4.273   5.515  1.3733 -1.0471  2.8695
 4125SOL    HW223835   3.343   4.387   5.611  0.6013  0.0731 -0.1573
 4126SOL     OW23836   0.998   1.846   5.992  0.1690 -0.1670 -0.7769
 4126SOL    HW123837   1.008   1.912   5.923 -2.4057  0.6209 -0.3927
 4126SOL    HW223838   1.005   1.763   5.944 -0.1473 -0.5728 -0.1194
 4127SOL     OW23839   3.604   3.352   7.334 -0.5284 -0.4316 -0.4909
 4127SOL    HW123840   3.689   3.393   7.350  0.0449 -1.6594 -0.4323
 4127SOL    HW223841   3.549   3.428   7.315  0.8940 -0.1088 -3.1986
 4128SOL     OW23842   4.616   3.976   5.989  0.3234  0.5151  0.3755
 4128SOL    HW123843   4.599   4.024   5.909  0.7834  0.9765  0.5581
 4128SOL    HW223844   4.686   3.915   5.964  1.4608  2.1535 -0.3867
 4129SOL     OW23845   1.222   1.294   1.469  0.4046  0.0280  0.1491
 4129SOL    HW123846   1.263   1.379   1.478 -0.3224  0.5780 -1.7570
 4129SOL    HW223847   1.225   1.264   1.560  0.3244 -0.5868 -0.0492
 4130SOL     OW23848   3.573   0.779  16.846  0.3335  0.8857  0.0157
 4130SOL    HW123849   3.518   0.762  16.769 -0.0814 -0.2669  0.5752
 4130SOL    HW223850   3.564   0.874  16.845  1.7279  0.9640 -4.9078
 4131SOL     OW23851   4.173   0.201   7.699 -0.0184  0.0282  0.1333
 4131SOL    HW123852   4.218   0.285   7.692  0.5237 -0.2333  0.4127
 4131SOL    HW223853   4.081   0.221   7.688 -0.3653 -1.2848  0.6443
 4132SOL     OW23854   2.873   3.252   4.888  0.7711  0.0921  0.1023
 4132SOL    HW123855   2.827   3.187   4.834 -1.3503  1.0939  0.7106
 4132SOL    HW223856   2.930   3.293   4.823 -0.9842  0.6658 -1.0590
 4133SOL     OW23857   0.440   1.813   3.112  0.0888 -0.2976 -0.3400
 4133SOL    HW123858   0.416   1.773   3.196  1.4576 -0.9937 -0.2722
 4133SOL    HW223859   0.517   1.854   3.154  0.1068  0.6838 -1.3262
 4134SOL     OW23860   1.340   1.008   9.158 -0.0271  0.0277  0.3996
 4134SOL    HW123861   1.360   0.916   9.173  1.3257  0.2099 -0.2811
 4134SOL    HW223862   1.294   1.028   9.239 -0.5540 -0.2158  0.1602
 4135SOL     OW23863   4.569   0.099   3.508  0.1549 -0.4290 -0.1532
 4135SOL    HW123864   4.621   0.180   3.507 -2.0786  1.0100  1.3422
 4135SOL    HW223865   4.499   0.127   3.449 -1.9685 -1.4833  1.9169
 4136SOL     OW23866   3.137   2.300   2.196 -0.2637  0.1070  0.2813
 4136SOL    HW123867   3.157   2.329   2.284  0.0779 -1.6245  0.7777
 4136SOL    HW223868   3.162   2.208   2.204 -1.3079 -0.2444 -0.3621
 4137SOL     OW23869   2.013   2.212  14.053 -0.0747 -0.2919  0.2786
 4137SOL    HW123870   1.964   2.244  13.978 -1.1788  1.4592  1.7444
 4137SOL    HW223871   1.988   2.121  14.038  0.7125 -0.2145 -1.4895
 4138SOL     OW23872   3.718   0.570  12.016 -0.2836 -0.3550  0.8484
 4138SOL    HW123873   3.643   0.510  12.021 -0.9941  0.2709 -2.0299
 4138SOL    HW223874   3.701   0.614  12.099  0.2485  1.5895 -0.0913
 4139SOL     OW23875   1.050   1.290  12.671 -0.8138  0.1588 -0.2288
 4139SOL    HW123876   0.981   1.350  12.700  0.1899  1.6761 -0.9488
 4139SOL    HW223877   1.081   1.343  12.597  1.0917 -1.3185 -0.4973
 4140SOL     OW23878   4.115   0.369   2.264 -0.4057 -0.2027  0.3644
 4140SOL    HW123879   4.205   0.377   2.232 -1.0854 -1.1976 -1.7452
 4140SOL    HW223880   4.127   0.385   2.358 -1.9364 -0.6326  0.6410
 4141SOL     OW23881   1.671   0.156   1.762 -0.2637 -0.5239 -0.3532
 4141SOL    HW123882   1.710   0.164   1.849 -0.6191 -1.8391 -0.0567
 4141SOL    HW223883   1.656   0.248   1.744  2.7684  0.0257  0.0166
 4142SOL     OW23884   0.534   2.964   6.357  0.1018  0.9628 -0.4808
 4142SOL    HW123885   0.460   2.981   6.299 -0.1426  1.0240 -0.1484
 4142SOL    HW223886   0.559   2.874   6.336  1.7831  1.5164 -0.8699
 4143SOL     OW23887   0.800   0.124   2.880 -0.0293 -0.1409 -0.1207
 4143SOL    HW123888   0.881   0.160   2.916  0.2607 -1.7102  0.7813
 4143SOL    HW223889   0.804   0.031   2.903 -2.3771 -0.8823 -2.6810
 4144SOL     OW23890   1.882   1.167  14.496  0.8645  0.1649  0.1385
 4144SOL    HW123891   1.878   1.152  14.402  2.4027  2.3081 -0.2842
 4144SOL    HW223892   1.974   1.183  14.519  1.2976  1.2337 -2.3232
 4145SOL     OW23893   1.372   1.547   7.917 -0.1532 -0.2319 -0.2148
 4145SOL    HW123894   1.334   1.609   7.854 -2.5197 -1.0561  0.3978
 4145SOL    HW223895   1.301   1.482   7.916  1.5379 -2.0735  0.7567
 4146SOL     OW23896   3.078   0.933   4.701  0.0771  0.1194 -0.0071
 4146SOL    HW123897   3.135   0.952   4.775 -0.8287 -0.2177  0.7800
 4146SOL    HW223898   3.099   0.840   4.686  0.1802 -0.1108  1.5475
 4147SOL     OW23899   3.988   2.191   2.611  0.0935  0.2034 -0.2951
 4147SOL    HW123900   4.012   2.149   2.694 -2.5944  0.5806  0.6755
 4147SOL    HW223901   4.036   2.137   2.548 -0.3173  1.3269 -1.5899
 4148SOL     OW23902   4.105   4.406   9.151 -0.1335 -0.6279  0.5489
 4148SOL    HW123903   4.144   4.488   9.182  1.6853 -1.5088  0.5777
 4148SOL    HW223904   4.016   4.422   9.184 -0.7953 -2.7608 -0.2176
 4149SOL     OW23905   3.986   1.559  11.591  0.6148 -0.3454 -0.1398
 4149SOL    HW123906   3.951   1.576  11.679 -2.5391 -1.1316 -1.2081
 4149SOL    HW223907   4.061   1.503  11.610  1.6454  1.1760  0.2015
 4150SOL     OW23908   2.814   0.349  11.732  0.0376 -0.6409  0.5317
 4150SOL    HW123909   2.874   0.282  11.763  1.6582  0.4395 -0.3053
 4150SOL    HW223910   2.840   0.426  11.783 -0.2903  0.4686 -0.9709
 4151SOL     OW23911   1.907   3.484   4.272  0.3309  0.1079 -0.1381
 4151SOL    HW123912   1.948   3.566   4.244  2.0412 -1.1737 -1.3308
 4151SOL    HW223913   1.890   3.497   4.366 -2.7276  2.6040 -1.0552
 4152SOL     OW23914   2.917   2.268   7.134 -0.3171  0.3162 -0.0155
 4152SOL    HW123915   2.981   2.200   7.153  0.6581  1.2741  0.1556
 4152SOL    HW223916   2.968   2.348   7.117 -1.1380  0.3119 -2.4655
 4153SOL     OW23917   2.013   0.492   7.648  0.4383 -0.2728  0.1330
 4153SOL    HW123918   1.986   0.420   7.590  1.0684  0.3208 -0.9143
 4153SOL    HW223919   2.071   0.538   7.586  0.2532  1.0230  0.9222
 4154SOL     OW23920   3.318   2.824   7.907 -0.0846 -0.4186 -0.0716
 4154SOL    HW123921   3.242   2.785   7.865  1.5983 -1.1938 -2.3879
 4154SOL    HW223922   3.360   2.750   7.952 -0.3280  0.1693  1.1242
 4155SOL     OW23923   3.155   4.183   1.832  0.3295 -0.1023 -0.1754
 4155SOL    HW123924   3.216   4.135   1.777  1.1771 -0.3411  0.9637
 4155SOL    HW223925   3.201   4.265   1.850  1.7641 -1.3033  1.5791
 4156SOL     OW23926   2.400   4.376  16.403 -0.3976  0.4147  0.3522
 4156SOL    HW123927   2.405   4.360  16.308  2.8977  1.0272  0.4206
 4156SOL    HW223928   2.313   4.340  16.417 -0.8334  1.8884  1.3257
 4157SOL     OW23929   1.386   3.734   6.886 -0.0885  0.2609 -0.8374
 4157SOL    HW123930   1.359   3.650   6.923 -2.2031  0.7265 -1.3262
 4157SOL    HW223931   1.432   3.772   6.961 -1.8002  0.4430  0.1218
 4158SOL     OW23932   1.632   3.160  13.881 -0.3069 -0.6588 -0.3485
 4158SOL    HW123933   1.618   3.108  13.803 -0.5328  0.8028 -1.2759
 4158SOL    HW223934   1.727   3.176  13.875 -0.3608 -0.1237  0.2041
 4159SOL     OW23935   1.157   2.591   7.894 -0.0191  0.3230  0.5460
 4159SOL    HW123936   1.077   2.623   7.936 -0.2707  1.1632 -0.5767
 4159SOL    HW223937   1.200   2.567   7.976  0.9721 -2.0742 -0.6832
 4160SOL     OW23938   3.711   4.239   2.660 -0.8177 -0.4244  0.6578
 4160SOL    HW123939   3.766   4.291   2.602 -0.4122 -3.3166 -1.5709
 4160SOL    HW223940   3.740   4.151   2.635 -0.1412 -0.0783  0.2278
 4161SOL     OW23941   0.431   4.043   3.519  0.8593  0.1669 -0.1323
 4161SOL    HW123942   0.448   3.964   3.570 -1.3660  0.9559  1.8606
 4161SOL    HW223943   0.520   4.071   3.499  1.3157 -1.7158 -0.7082
 4162SOL     OW23944   0.375   4.104   9.661 -0.2371 -0.5288  0.6910
 4162SOL    HW123945   0.302   4.068   9.713 -1.3339  0.3009 -0.2641
 4162SOL    HW223946   0.383   4.037   9.593 -1.2658  0.8743 -0.8126
 4163SOL     OW23947   4.578   0.165   2.588 -0.3264 -0.0366 -0.1234
 4163SOL    HW123948   4.496   0.137   2.547 -1.1005  1.0599  0.7251
 4163SOL    HW223949   4.561   0.151   2.681 -0.6340  2.8440  0.2341
 4164SOL     OW23950   1.117   2.972  14.525  0.1221  0.2087  0.3279
 4164SOL    HW123951   1.115   3.049  14.468 -1.8120 -1.7529 -2.2690
 4164SOL    HW223952   1.181   3.010  14.585 -0.3088  0.0615  0.8745
 4165SOL     OW23953   3.027   4.280  16.763  0.9850 -0.3679 -0.1544
 4165SOL    HW123954   3.057   4.192  16.788 -0.5565 -1.0773 -0.7918
 4165SOL    HW223955   2.936   4.275  16.793  0.9939 -3.2742 -0.6007
 4166SOL     OW23956   1.710   0.869   6.159 -0.2841  0.2699  0.3444
 4166SOL    HW123957   1.637   0.931   6.162 -0.9982 -0.5306 -0.6640
 4166SOL    HW223958   1.776   0.918   6.209  0.3667  0.3439 -0.5868
 4167SOL     OW23959   0.606   0.277  13.530  1.3243  0.2860  0.5258
 4167SOL    HW123960   0.659   0.324  13.594 -0.1037  1.9035  0.5095
 4167SOL    HW223961   0.648   0.306  13.449  0.7606 -1.4567 -0.3903
 4168SOL     OW23962   3.845   2.413   3.909  0.0416  0.2477 -0.1881
 4168SOL    HW123963   3.865   2.475   3.979  2.6024  1.2399 -1.8111
 4168SOL    HW223964   3.773   2.465   3.872 -0.5046  0.2935  0.9453
 4169SOL     OW23965   2.649   2.518   0.162  0.6660 -0.5213  0.1285
 4169SOL    HW123966   2.593   2.484   0.093  1.4051  0.3645 -0.9174
 4169SOL    HW223967   2.628   2.612   0.163 -0.7935 -0.8467 -0.0885
 4170SOL     OW23968   3.542   0.615   8.652  0.0941  0.3524 -0.2066
 4170SOL    HW123969   3.588   0.683   8.702 -1.4001  1.5203 -0.4383
 4170SOL    HW223970   3.526   0.656   8.567  0.4651  0.0560 -0.4216
 4171SOL     OW23971   0.229   0.928   0.872 -0.2366 -0.3567  0.1775
 4171SOL    HW123972   0.205   0.864   0.939  2.1594  0.6512  2.0053
 4171SOL    HW223973   0.151   0.932   0.816 -0.8509  0.0779  1.0767
 4172SOL     OW23974   0.250   3.012   0.870  0.6231  0.0013 -0.1802
 4172SOL    HW123975   0.248   2.917   0.874 -2.1759  0.1653  2.9803
 4172SOL    HW223976   0.187   3.035   0.938 -0.0324  1.2598 -1.2126
 4173SOL     OW23977   2.359   2.455   4.759  0.2726  0.1940 -0.5626
 4173SOL    HW123978   2.385   2.396   4.830  0.6898 -0.7150 -1.4600
 4173SOL    HW223979   2.324   2.393   4.695  1.0236 -0.6421 -0.1589
 4174SOL     OW23980   0.698   4.284   9.882 -0.0712 -0.7013  0.2784
 4174SOL    HW123981   0.658   4.338   9.814 -2.6227 -1.9865  0.7578
 4174SOL    HW223982   0.791   4.306   9.884 -0.2670 -0.0894  2.2025
 4175SOL     OW23983   1.847   1.137   6.034 -0.6936 -0.3357 -0.0376
 4175SOL    HW123984   1.877   1.058   6.079  1.1733 -0.8300 -2.1183
 4175SOL    HW223985   1.877   1.107   5.948  0.0287  0.9841 -0.2389
 4176SOL     OW23986   0.852   0.222   6.153  0.4710 -0.1357 -0.1824
 4176SOL    HW123987   0.898   0.291   6.200  1.4102 -0.3245 -0.8228
 4176SOL    HW223988   0.860   0.156   6.222  1.2312  0.3083  0.1485
 4177SOL     OW23989   2.322   0.425  16.452 -0.5605 -0.4673  0.3991
 4177SOL    HW123990   2.403   0.379  16.476 -0.2627 -0.3306 -0.3409
 4177SOL    HW223991   2.256   0.388  16.510 -1.1800 -1.5392 -0.9986
 4178SOL     OW23992   4.073   2.204   8.223  0.1151  0.2894  0.2702
 4178SOL    HW123993   4.067   2.297   8.243  0.5049  0.4449 -0.3494
 4178SOL    HW223994   3.979   2.190   8.224 -0.0636  1.4731 -0.7719
 4179SOL     OW23995   3.337   0.427   7.715  0.0167  0.8912  0.3509
 4179SOL    HW123996   3.261   0.448   7.769 -0.9518 -0.5008 -0.4740
 4179SOL    HW223997   3.373   0.355   7.766 -2.7784 -0.0734  0.9616
 4180SOL     OW23998   0.850   4.486   4.054  0.0875 -0.2832  0.1971
 4180SOL    HW123999   0.902   4.559   4.020 -2.4257  1.6586  0.5412
 4180SOL    HW224000   0.915   4.428   4.094  1.0030  1.3519  1.1011
 4181SOL     OW24001   0.343   2.360   0.345 -0.5738 -0.5867  0.1113
 4181SOL    HW124002   0.383   2.431   0.396  1.3634 -2.0957  0.6806
 4181SOL    HW224003   0.336   2.410   0.264  0.1577 -0.5537  0.0688
 4182SOL     OW24004   4.554   4.687   6.965  0.2606  0.1585  1.0729
 4182SOL    HW124005   4.521   4.610   7.010  0.0382 -1.8362 -2.5291
 4182SOL    HW224006   4.602   0.010   7.036  0.6726 -0.3274  1.0939
 4183SOL     OW24007   2.023   0.207   2.211 -0.3272  0.6968  0.2647
 4183SOL    HW124008   2.058   0.261   2.281  0.8325 -1.0091  1.0064
 4183SOL    HW224009   2.100   0.182   2.159 -2.7683 -1.1800 -2.4163
 4184SOL     OW24010   3.075   4.642   6.932  0.3579 -0.7322 -0.2759
 4184SOL    HW124011   3.084   4.559   6.978 -1.8695 -1.2036 -0.7128
 4184SOL    HW224012   3.151   4.641   6.874 -0.1411  0.9963 -0.9636
 4185SOL     OW24013   3.720   3.625   7.897  0.1940 -0.4302  0.0595
 4185SOL    HW124014   3.788   3.650   7.960  0.7282  2.0193 -1.5138
 4185SOL    HW224015   3.647   3.685   7.914  0.9877  0.4619  0.3219
 4186SOL     OW24016   4.663   4.089   9.171 -0.4035 -0.2385 -0.6709
 4186SOL    HW124017   4.655   4.137   9.254 -1.7258 -0.2413 -0.7944
 4186SOL    HW224018   4.668   4.001   9.210 -1.6202  0.2259  0.5321
 4187SOL     OW24019   3.404   0.921   0.444 -0.4667  0.4052 -0.1698
 4187SOL    HW124020   3.495   0.905   0.417 -0.4755  1.0775 -0.5931
 4187SOL    HW224021   3.421   0.984   0.513  0.4871  3.0903 -2.8625
 4188SOL     OW24022   3.885   4.191   8.563 -0.4165  0.5777  0.0640
 4188SOL    HW124023   3.845   4.134   8.629  0.7126  0.4979  0.6891
 4188SOL    HW224024   3.811   4.193   8.503 -1.0152 -1.4278  0.7139
 4189SOL     OW24025   0.646   0.348   2.934  0.2192  0.2016 -0.4608
 4189SOL    HW124026   0.616   0.355   2.843  0.0686 -0.7076 -0.4898
 4189SOL    HW224027   0.698   0.268   2.936  0.7301  0.5534  0.2822
 4190SOL     OW24028   3.756   0.860   4.570  0.1751  0.2209  0.1601
 4190SOL    HW124029   3.711   0.873   4.654  1.4260  0.4276  0.7983
 4190SOL    HW224030   3.841   0.835   4.606  1.4371  1.5539 -1.9578
 4191SOL     OW24031   1.282   2.922  13.109 -0.1191 -0.3200  0.1870
 4191SOL    HW124032   1.278   2.988  13.040 -1.6669  1.8633  2.3955
 4191SOL    HW224033   1.312   2.843  13.063  0.4148  0.5424 -0.9514
 4192SOL     OW24034   0.374   3.688   3.181  0.0507 -0.8734  0.1078
 4192SOL    HW124035   0.385   3.773   3.139 -1.6188 -0.5491  0.3354
 4192SOL    HW224036   0.279   3.691   3.194 -0.0073  0.5057 -0.6232
 4193SOL     OW24037   1.847   0.619   9.711 -0.3409 -0.1487  0.1436
 4193SOL    HW124038   1.911   0.551   9.693  1.8060  1.4490  1.7569
 4193SOL    HW224039   1.900   0.695   9.685 -1.4090  0.3717 -0.5319
 4194SOL     OW24040   0.191   2.551   5.372 -0.0495 -0.4508 -0.0286
 4194SOL    HW124041   0.225   2.474   5.418 -0.5991 -0.0230  1.0923
 4194SOL    HW224042   0.100   2.526   5.360 -0.4217  1.1297 -0.5416
 4195SOL     OW24043   0.760   0.089   2.603  0.7500 -0.2441  0.0247
 4195SOL    HW124044   0.799   0.002   2.590  0.1235 -0.5973  0.5173
 4195SOL    HW224045   0.783   0.099   2.695 -1.4498  0.2117  0.5203
 4196SOL     OW24046   2.532   0.350   2.354  0.6441 -0.1155  0.4389
 4196SOL    HW124047   2.602   0.361   2.291 -2.7119  0.1629 -3.2405
 4196SOL    HW224048   2.563   0.282   2.414  2.1071 -0.0619 -0.2721
 4197SOL     OW24049   3.388   1.086   0.090 -1.1695 -0.4125  0.7482
 4197SOL    HW124050   3.400   1.132   0.173  0.5104 -1.2860  0.9674
 4197SOL    HW224051   3.420   0.999   0.112  0.0313  0.7529  3.6616
 4198SOL     OW24052   1.186   1.282  12.943 -0.3617 -1.0905 -0.4553
 4198SOL    HW124053   1.272   1.304  12.908 -0.4170 -1.4604 -0.8201
 4198SOL    HW224054   1.134   1.285  12.863 -3.3493 -0.8523  1.4658
 4199SOL     OW24055   3.941   4.273   0.858 -0.0231 -0.3726  0.5731
 4199SOL    HW124056   4.003   4.201   0.847 -0.9934 -1.0403 -0.5568
 4199SOL    HW224057   3.959   4.331   0.784 -2.4075  0.3752  0.5744
 4200SOL     OW24058   1.462   3.207   4.414  0.1801 -0.2021 -0.1933
 4200SOL    HW124059   1.484   3.163   4.496  3.0627 -1.7148 -1.7677
 4200SOL    HW224060   1.480   3.138   4.350 -0.3535 -1.0378  0.5637
 4201SOL     OW24061   3.233   1.758   3.079  0.0352 -0.0813  0.1020
 4201SOL    HW124062   3.241   1.766   2.984  0.0718 -0.6726  0.0592
 4201SOL    HW224063   3.165   1.826   3.079 -1.4219 -1.5381  0.1617
 4202SOL     OW24064   3.228   1.530  14.007  0.0659 -0.3739 -0.1586
 4202SOL    HW124065   3.279   1.449  13.999  1.4328  0.7700 -3.2152
 4202SOL    HW224066   3.234   1.549  14.100  0.6948 -0.0642 -0.2596
 4203SOL     OW24067   0.680   0.829   6.418  0.1119  0.1932  0.0943
 4203SOL    HW124068   0.701   0.865   6.505 -0.0247  0.0244  0.1959
 4203SOL    HW224069   0.621   0.758   6.444  0.5166 -0.1830 -0.0188
 4204SOL     OW24070   0.984   0.333   8.488 -0.1137 -0.1248 -0.4284
 4204SOL    HW124071   0.943   0.404   8.438 -0.9427 -0.6518 -0.4882
 4204SOL    HW224072   0.975   0.264   8.424  1.1788 -0.1598 -0.5750
 4205SOL     OW24073   4.664   0.136   4.633  0.0203  0.2480 -0.1595
 4205SOL    HW124074   4.589   0.079   4.617  0.3165 -0.6296  1.6224
 4205SOL    HW224075   4.709   0.135   4.549  0.9481  3.3564  0.2896
 4206SOL     OW24076   3.279   3.411  17.211 -0.0891  0.4225  0.4539
 4206SOL    HW124077   3.184   3.413  17.197 -0.0495 -0.7874 -0.0690
 4206SOL    HW224078   3.284   3.454  17.296  0.0082  0.8843  0.2138
 4207SOL     OW24079   0.823   2.190   6.067 -0.3087  0.3427 -0.3043
 4207SOL    HW124080   0.882   2.123   6.101  1.0414  0.5821 -2.1858
 4207SOL    HW224081   0.739   2.150   6.088  0.6882 -0.8815  1.3106
 4208SOL     OW24082   2.167   2.227   1.354 -0.7956  0.4900  0.1173
 4208SOL    HW124083   2.222   2.239   1.431  1.3018  1.1602 -1.4944
 4208SOL    HW224084   2.105   2.166   1.393  1.1891 -0.8310  1.2064
 4209SOL     OW24085   1.887   1.779   5.151  0.5582 -0.6283 -0.7165
 4209SOL    HW124086   1.821   1.717   5.181  0.7315 -0.1958  0.5988
 4209SOL    HW224087   1.899   1.833   5.230 -0.8014  0.5798 -1.3393
 4210SOL     OW24088   1.425   1.008   6.116  0.3818 -0.7968 -0.4287
 4210SOL    HW124089   1.349   0.968   6.074  0.0950 -1.1834  0.4716
 4210SOL    HW224090   1.395   1.004   6.207 -0.2092  3.2835 -0.4511
 4211SOL     OW24091   2.677   2.308   4.645 -0.0584 -0.2525 -0.1863
 4211SOL    HW124092   2.714   2.316   4.557 -0.7160 -0.0373 -0.4370
 4211SOL    HW224093   2.616   2.236   4.631 -3.7603  2.4284  2.2914
 4212SOL     OW24094   1.466   3.247   1.622 -0.4772  0.1417 -0.6699
 4212SOL    HW124095   1.549   3.280   1.587 -0.6609  1.2517 -0.0478
 4212SOL    HW224096   1.486   3.172   1.678  0.0826  1.1804  0.5046
 4213SOL     OW24097   2.324   2.005   3.068  0.0988 -0.3577  0.1491
 4213SOL    HW124098   2.374   2.076   3.028  0.7877 -0.3085  1.1091
 4213SOL    HW224099   2.310   1.946   2.994  2.7858  0.2303 -0.8208
 4214SOL     OW24100   1.924   2.089   0.405  0.4136  0.4668  0.5859
 4214SOL    HW124101   1.909   1.996   0.422 -2.0514  0.2592 -2.6790
 4214SOL    HW224102   1.835   2.107   0.376  0.8395  0.1022 -0.9769
 4215SOL     OW24103   0.431   1.182  12.831 -0.0715  0.1710 -0.1561
 4215SOL    HW124104   0.502   1.231  12.791  1.3347 -1.6833  0.0916
 4215SOL    HW224105   0.415   1.254  12.893 -1.5071 -1.1078  0.9739
 4216SOL     OW24106   2.254   3.575   4.017  0.1754 -0.9206 -0.4520
 4216SOL    HW124107   2.326   3.614   4.067 -0.3402 -0.4805 -0.0463
 4216SOL    HW224108   2.182   3.607   4.072  1.8900  0.6416  0.8974
 4217SOL     OW24109   3.937   0.534   8.665  0.3211 -0.1878 -0.7396
 4217SOL    HW124110   3.885   0.543   8.585  0.0698 -1.7740 -0.7564
 4217SOL    HW224111   4.022   0.501   8.639 -0.6605 -2.5916 -0.8554
 4218SOL     OW24112   2.659   0.707   2.948 -0.1289  0.2768 -0.7368
 4218SOL    HW124113   2.657   0.612   2.962 -1.8228  0.4741  0.3101
 4218SOL    HW224114   2.586   0.719   2.887  0.8117 -2.7002 -2.4641
 4219SOL     OW24115   3.408   2.269   0.270 -0.8413  0.4894 -0.6796
 4219SOL    HW124116   3.391   2.329   0.343  0.0150  2.1974 -1.8986
 4219SOL    HW224117   3.426   2.185   0.313 -0.9279 -0.0905 -1.7954
 4220SOL     OW24118   3.639   2.047   5.816 -0.4599 -0.6473 -0.0619
 4220SOL    HW124119   3.660   1.972   5.871  0.8887 -0.6162 -0.5524
 4220SOL    HW224120   3.705   2.102   5.858 -2.3729  1.2359  0.5224
 4221SOL     OW24121   4.695   3.530   1.381  0.2098  0.0899  0.0069
 4221SOL    HW124122   4.635   3.582   1.435  0.3364 -1.0268  1.2335
 4221SOL    HW224123   4.678   3.439   1.406  0.5380 -0.3227 -1.2603
 4222SOL     OW24124   0.191   3.772   7.531  0.2310 -0.6693 -0.6547
 4222SOL    HW124125   0.271   3.798   7.485 -0.3283  0.9197 -0.7514
 4222SOL    HW224126   0.193   3.677   7.534 -1.1229 -0.7033 -0.9195
 4223SOL     OW24127   3.428   3.633  13.442 -0.0561  0.0799  0.0134
 4223SOL    HW124128   3.463   3.546  13.460 -2.8080 -0.8923  0.7839
 4223SOL    HW224129   3.459   3.680  13.519 -1.9492 -1.6486  1.8283
 4224SOL     OW24130   2.083   3.299   7.849 -0.4629  0.5187 -0.1895
 4224SOL    HW124131   2.014   3.239   7.878  0.2610  0.2027  0.8999
 4224SOL    HW224132   2.135   3.306   7.929 -1.1590 -0.2214  0.3276
 4225SOL     OW24133   3.737   2.815   4.807  0.4335  0.1037 -0.3681
 4225SOL    HW124134   3.803   2.852   4.867 -0.7237 -0.1473  1.0540
 4225SOL    HW224135   3.669   2.882   4.807 -1.0169 -1.3710  1.0921
 4226SOL     OW24136   2.528   0.515   3.217  0.1009 -0.2693  0.4107
 4226SOL    HW124137   2.595   0.584   3.225 -0.5448  0.5212 -0.9859
 4226SOL    HW224138   2.514   0.498   3.310 -1.6646  1.3984  0.4513
 4227SOL     OW24139   0.616   3.922   3.740  0.4423 -0.9104  0.0470
 4227SOL    HW124140   0.543   3.894   3.796 -0.0923  0.8757  0.2246
 4227SOL    HW224141   0.672   3.846   3.723 -0.9208 -2.0351  0.6289
 4228SOL     OW24142   0.209   3.784  16.761 -0.1837 -0.0079  0.4581
 4228SOL    HW124143   0.238   3.828  16.681 -1.7794 -2.6583 -1.5741
 4228SOL    HW224144   0.284   3.805  16.818  0.0573  2.1155 -0.6596
 4229SOL     OW24145   2.542   1.638  16.559  0.0671 -0.4214 -0.0170
 4229SOL    HW124146   2.570   1.607  16.473  0.1017 -1.4684  0.3741
 4229SOL    HW224147   2.495   1.715  16.527 -1.1308 -0.4799  1.6196
 4230SOL     OW24148   1.316   2.101   2.873  0.3469 -0.6089 -0.1852
 4230SOL    HW124149   1.348   2.015   2.845  0.3981 -0.9089  0.7885
 4230SOL    HW224150   1.230   2.096   2.833  0.2016  0.6583 -0.0293
 4231SOL     OW24151   2.322   4.487  13.713 -0.2505  0.2613 -0.0469
 4231SOL    HW124152   2.232   4.510  13.689 -0.8763 -1.2676  0.8881
 4231SOL    HW224153   2.362   4.571  13.736 -0.0369 -0.3295  1.7161
 4232SOL     OW24154   2.449   4.176   6.238 -0.6123  0.3744  0.4012
 4232SOL    HW124155   2.377   4.133   6.283  0.2419 -1.4515  0.0435
 4232SOL    HW224156   2.413   4.185   6.150  0.6924  0.2541 -0.1515
 4233SOL     OW24157   2.964   2.674   4.157  0.8994 -0.3062 -0.1119
 4233SOL    HW124158   2.871   2.677   4.182  0.1358 -2.6209 -2.6206
 4233SOL    HW224159   2.994   2.730   4.228 -1.2990 -1.3233  1.6447
 4234SOL     OW24160   1.105   1.316   1.184 -0.0511 -0.0245  0.1230
 4234SOL    HW124161   1.076   1.265   1.260  1.1893  1.7137  1.7400
 4234SOL    HW224162   1.018   1.340   1.151  0.8710  2.3276 -0.5343
 4235SOL     OW24163   3.247   2.755  16.143  0.4291  0.2286 -0.4572
 4235SOL    HW124164   3.282   2.730  16.057 -0.4683 -1.3708 -0.3386
 4235SOL    HW224165   3.333   2.781  16.176 -0.2040  0.9170  0.6397
 4236SOL     OW24166   4.287   2.229  14.925 -0.5969 -0.2695  0.0660
 4236SOL    HW124167   4.299   2.221  14.830 -0.6649  3.1129 -0.2358
 4236SOL    HW224168   4.369   2.192  14.956  0.5141  0.8394 -1.5474
 4237SOL     OW24169   2.163   3.518  11.142 -0.2739 -0.5413  0.4244
 4237SOL    HW124170   2.134   3.487  11.228  3.8549  0.5755  2.2424
 4237SOL    HW224171   2.234   3.578  11.165 -0.2128 -0.0964 -0.9344
 4238SOL     OW24172   0.395   0.921  11.270 -0.2978 -0.2636  0.5011
 4238SOL    HW124173   0.406   1.015  11.282  1.0048 -0.7213  2.9805
 4238SOL    HW224174   0.303   0.920  11.296 -0.7360  0.1199 -1.0082
 4239SOL     OW24175   3.482   0.122  10.380 -0.4682 -0.0453  0.5090
 4239SOL    HW124176   3.430   0.179  10.436  1.7199  2.1570  0.3028
 4239SOL    HW224177   3.451   0.140  10.291  0.0210 -1.0811  0.1227
 4240SOL     OW24178   3.404   2.661   6.529 -0.0321  0.2269  0.5045
 4240SOL    HW124179   3.497   2.673   6.509  0.2914 -0.9625  1.3291
 4240SOL    HW224180   3.371   2.710   6.453  1.4301  1.6102  0.7638
 4241SOL     OW24181   3.996   2.393  12.560 -0.1708 -0.3296 -0.1949
 4241SOL    HW124182   4.050   2.321  12.526 -0.9542 -1.2418  0.4811
 4241SOL    HW224183   4.021   2.389  12.652  2.0379 -1.0100 -0.8064
 4242SOL     OW24184   1.908   1.975   4.591 -0.2748  0.0024  0.6255
 4242SOL    HW124185   1.939   2.013   4.674  0.7142  0.4756  0.0408
 4242SOL    HW224186   1.938   1.885   4.601  1.5282  0.5064 -0.2771
 4243SOL     OW24187   3.921   1.791   9.552 -0.0099  0.4273  0.0305
 4243SOL    HW124188   3.859   1.858   9.581  0.8273 -0.2500  3.3714
 4243SOL    HW224189   3.928   1.737   9.631  1.3966  1.7570  0.8287
 4244SOL     OW24190   4.126   2.705   9.644 -0.3593  0.2980 -0.9199
 4244SOL    HW124191   4.151   2.793   9.673  0.5532 -0.0367 -0.7120
 4244SOL    HW224192   4.037   2.734   9.624 -0.5059  1.8236  1.9179
 4245SOL     OW24193   1.386   0.260   5.111 -0.1498 -0.0003 -0.7006
 4245SOL    HW124194   1.403   0.192   5.045 -0.2144 -1.1710  0.4782
 4245SOL    HW224195   1.300   0.294   5.087  0.1496 -0.1245 -1.9703
 4246SOL     OW24196   4.011   1.589   2.720  0.0126  0.0600 -0.0341
 4246SOL    HW124197   3.977   1.666   2.764 -0.5387  1.7092 -3.3324
 4246SOL    HW224198   4.091   1.618   2.677 -2.0126  1.4434 -2.8921
 4247SOL     OW24199   4.417   2.779   8.494  0.3679 -0.1005 -0.1670
 4247SOL    HW124200   4.447   2.699   8.449  0.7641 -0.2684  0.4070
 4247SOL    HW224201   4.493   2.834   8.476 -0.1104  0.4387 -0.5418
 4248SOL     OW24202   1.977   3.628   3.746  0.3273 -0.4989 -0.5145
 4248SOL    HW124203   2.002   3.667   3.830  0.0026  0.5101 -0.8895
 4248SOL    HW224204   1.882   3.627   3.755  0.5584 -2.3580  1.9116
 4249SOL     OW24205   0.348   2.655   3.052  0.3677 -0.3116 -0.1358
 4249SOL    HW124206   0.374   2.707   2.976  0.4619 -0.3671 -0.1420
 4249SOL    HW224207   0.277   2.713   3.079  0.4404 -0.1560 -0.2806
 4250SOL     OW24208   0.683   3.662   0.766 -0.2500 -0.0540  0.0655
 4250SOL    HW124209   0.628   3.604   0.714 -0.5598 -0.7476  1.1757
 4250SOL    HW224210   0.734   3.609   0.826 -0.6787 -0.0667  0.4128
 4251SOL     OW24211   3.789   1.047   5.946 -0.4496 -0.3386  0.1787
 4251SOL    HW124212   3.800   1.050   5.851 -0.7632 -0.1199  0.1502
 4251SOL    HW224213   3.694   1.045   5.955 -0.2719  0.4070  2.0344
 4252SOL     OW24214   4.203   1.717   3.101 -0.5942 -0.4353 -0.3909
 4252SOL    HW124215   4.206   1.629   3.065  1.9508  0.9399 -3.4824
 4252SOL    HW224216   4.238   1.768   3.028 -0.9912  1.0462  0.4384
 4253SOL     OW24217   1.957   1.161  12.968  0.0490  0.2720  0.0751
 4253SOL    HW124218   1.986   1.252  12.980 -3.9489  2.0744 -3.8883
 4253SOL    HW224219   1.865   1.177  12.947  0.3134  0.8985 -0.6295
 4254SOL     OW24220   1.464   0.995   3.420 -0.9242  0.1082 -0.4432
 4254SOL    HW124221   1.438   1.037   3.503  0.9380 -1.0720  0.7395
 4254SOL    HW224222   1.444   1.063   3.356 -1.9885 -0.3965 -0.6443
 4255SOL     OW24223   0.220   1.668   6.621  0.8589  0.3547  0.1262
 4255SOL    HW124224   0.286   1.599   6.626  0.0628 -0.4968 -1.3056
 4255SOL    HW224225   0.145   1.618   6.654  1.4828 -0.6517  0.0168
 4256SOL     OW24226   1.753   2.875   0.532 -0.3353 -0.1900  0.0811
 4256SOL    HW124227   1.730   2.806   0.595 -0.0603  0.2992  0.7172
 4256SOL    HW224228   1.799   2.945   0.579 -1.5391  0.9632 -0.4344
 4257SOL     OW24229   4.539   3.866   1.240 -0.3181  0.6232 -0.1638
 4257SOL    HW124230   4.551   3.795   1.177  1.5407  0.8407 -0.0460
 4257SOL    HW224231   4.559   3.940   1.183  1.9607 -0.8059 -1.2106
 4258SOL     OW24232   1.202   4.146   5.234 -0.1979 -0.5990 -0.1782
 4258SOL    HW124233   1.230   4.144   5.143 -0.2283 -0.0553 -0.1981
 4258SOL    HW224234   1.206   4.051   5.251 -0.4768 -1.0229 -2.4792
 4259SOL     OW24235   0.750   3.936   4.170  0.3397 -0.1223  0.0367
 4259SOL    HW124236   0.736   4.021   4.213 -2.5470  0.3734 -1.8463
 4259SOL    HW224237   0.736   3.877   4.243 -1.3447  1.6310  1.1503
 4260SOL     OW24238   4.715   3.871  12.114  0.2785  0.3723 -0.0833
 4260SOL    HW124239   0.061   3.865  12.182 -0.9150 -0.6480  1.0223
 4260SOL    HW224240   4.673   3.788  12.138  2.2102 -0.4291  0.4880
 4261SOL     OW24241   4.300   0.799   8.487  0.3859 -0.0188  0.2269
 4261SOL    HW124242   4.360   0.810   8.560 -2.6090  1.9822  2.3930
 4261SOL    HW224243   4.356   0.765   8.417 -0.5302  1.6239 -1.3341
 4262SOL     OW24244   1.074   2.809   2.502  0.0095 -0.1666  0.6428
 4262SOL    HW124245   1.021   2.818   2.582 -0.4586  1.2663  0.1743
 4262SOL    HW224246   1.005   2.788   2.439  1.1006 -1.4547 -0.1083
 4263SOL     OW24247   3.302   0.880   4.234  0.1680  0.7052 -0.0026
 4263SOL    HW124248   3.331   0.852   4.321  1.1886 -0.0375 -0.5748
 4263SOL    HW224249   3.208   0.876   4.249 -0.2373 -0.3773 -2.8474
 4264SOL     OW24250   0.604   2.243  17.377  0.5870 -0.1107  0.5582
 4264SOL    HW124251   0.581   2.319  17.324  1.0964 -0.4229 -0.1015
 4264SOL    HW224252   0.568   2.276  17.460 -1.1591 -0.5012 -0.0387
 4265SOL     OW24253   4.386   3.012   3.510 -0.4527 -0.2120 -0.0328
 4265SOL    HW124254   4.469   2.985   3.470 -0.0597  0.3305  0.4344
 4265SOL    HW224255   4.394   3.105   3.530  1.8209 -0.8189  1.7661
 4266SOL     OW24256   4.290   4.157   9.690  0.2813  0.7016 -0.4843
 4266SOL    HW124257   4.336   4.075   9.711  1.2868  0.6752 -2.7650
 4266SOL    HW224258   4.325   4.216   9.757  0.3038  0.1574 -0.0184
 4267SOL     OW24259   2.940   0.120   4.830 -0.3950 -0.1334  0.2102
 4267SOL    HW124260   2.985   0.139   4.912 -0.3666 -0.2671  0.2249
 4267SOL    HW224261   3.002   0.163   4.771 -0.2689  2.8456  2.4844
 4268SOL     OW24262   3.907   1.404  15.615 -0.3621 -0.3402  0.0873
 4268SOL    HW124263   3.877   1.476  15.559  4.8068  1.2505 -0.6169
 4268SOL    HW224264   3.917   1.453  15.696 -2.7756  0.4457 -0.0979
 4269SOL     OW24265   0.751   2.326  10.399  0.0615 -0.5877  0.1041
 4269SOL    HW124266   0.731   2.331  10.493  1.9525 -1.0647  0.5395
 4269SOL    HW224267   0.717   2.411  10.373  2.0807  0.0279 -0.5232
 4270SOL     OW24268   2.387   1.901  16.198  0.2042 -0.0103 -0.1533
 4270SOL    HW124269   2.333   1.823  16.183  0.4953 -0.1600 -0.4310
 4270SOL    HW224270   2.477   1.872  16.184 -0.2178 -0.7751 -1.2741
 4271SOL     OW24271   3.112   4.149  11.950 -0.7375  0.2333 -0.1833
 4271SOL    HW124272   3.068   4.114  11.873 -0.0446  1.0110 -0.9302
 4271SOL    HW224273   3.125   4.240  11.924  0.5957  0.3798  1.0086
 4272SOL     OW24274   1.575   1.566   0.514  0.2528  0.1513 -0.6721
 4272SOL    HW124275   1.599   1.581   0.606 -0.6386 -2.1237 -0.0460
 4272SOL    HW224276   1.532   1.482   0.533  1.6393  0.1685  2.5904
 4273SOL     OW24277   2.052   4.074   3.853 -0.2223 -0.8653 -0.2039
 4273SOL    HW124278   1.967   4.119   3.859  1.5774  2.3320  1.3145
 4273SOL    HW224279   2.064   4.074   3.758  0.9384  1.8240 -0.0441
 4274SOL     OW24280   1.543   4.042   5.200  0.6686 -0.0837 -0.5766
 4274SOL    HW124281   1.489   3.964   5.188 -0.3812  0.1259  2.9422
 4274SOL    HW224282   1.475   4.109   5.195  1.1672  0.2983 -2.2869
 4275SOL     OW24283   3.422   4.335   4.644 -0.1564 -0.1097 -0.0313
 4275SOL    HW124284   3.363   4.352   4.570  0.3148 -2.8037 -1.0044
 4275SOL    HW224285   3.463   4.253   4.617  0.6005 -0.4207  2.0820
 4276SOL     OW24286   2.118   2.288   3.296  0.1019 -0.7352 -0.0803
 4276SOL    HW124287   2.100   2.222   3.230  0.7573 -0.9083 -0.0908
 4276SOL    HW224288   2.039   2.342   3.289  1.1425  0.8469  0.4243
 4277SOL     OW24289   2.241   1.565  17.012 -0.2200  0.4959  0.0009
 4277SOL    HW124290   2.303   1.555  16.940 -1.9380 -1.4862 -1.2002
 4277SOL    HW224291   2.157   1.544  16.972 -0.4578  2.0913 -0.3176
 4278SOL     OW24292   2.538   3.545  12.462 -0.3635 -0.3199 -0.1372
 4278SOL    HW124293   2.595   3.478  12.498 -0.6882 -1.6293 -2.0286
 4278SOL    HW224294   2.569   3.621  12.511 -0.0918  0.0224 -0.8401
 4279SOL     OW24295   2.409   1.421   1.278 -0.7238 -0.0489  0.0282
 4279SOL    HW124296   2.337   1.360   1.264 -0.9753 -0.1310  1.6290
 4279SOL    HW224297   2.422   1.427   1.373 -0.7693 -0.7962  0.0809
 4280SOL     OW24298   0.713   2.142  12.624 -0.0660 -0.2401 -0.0933
 4280SOL    HW124299   0.786   2.190  12.585 -0.4066  1.6088  1.5668
 4280SOL    HW224300   0.642   2.205  12.622  0.1803  0.0726  0.7873
 4281SOL     OW24301   2.300   1.897  10.927  0.0374 -0.8824  0.6294
 4281SOL    HW124302   2.216   1.941  10.937 -0.8011 -2.8849  2.2159
 4281SOL    HW224303   2.335   1.914  11.015 -0.5315 -2.0965  1.0772
 4282SOL     OW24304   4.198   3.274   2.347  0.2755 -0.3718  0.8720
 4282SOL    HW124305   4.112   3.235   2.335  0.6351 -0.7498 -0.5772
 4282SOL    HW224306   4.210   3.284   2.441  1.7034  0.9022  0.5622
 4283SOL     OW24307   1.288   3.217   9.207 -0.0017  0.0927 -0.1349
 4283SOL    HW124308   1.289   3.126   9.179 -1.6306 -0.1687  0.6559
 4283SOL    HW224309   1.240   3.193   9.287  0.1260 -1.6076 -0.5649
 4284SOL     OW24310   2.770   0.208   1.709  0.1013 -0.1558  0.4731
 4284SOL    HW124311   2.853   0.162   1.716 -0.0582 -0.8971 -2.2742
 4284SOL    HW224312   2.706   0.137   1.705  0.6464 -0.7061  1.6751
 4285SOL     OW24313   0.280   0.418   4.918 -0.9500  0.1724  0.3203
 4285SOL    HW124314   0.274   0.415   4.823  0.7871  0.1400  0.2206
 4285SOL    HW224315   0.209   0.361   4.948 -0.7020 -0.5745 -0.5275
 4286SOL     OW24316   3.976   3.335   7.027 -0.6888 -0.1608 -0.3671
 4286SOL    HW124317   4.009   3.247   7.009  0.2322  0.2150 -0.5261
 4286SOL    HW224318   4.043   3.372   7.085  0.7750 -1.2090 -1.4050
 4287SOL     OW24319   2.015   2.200   4.454 -0.0896 -0.4596 -0.4393
 4287SOL    HW124320   1.988   2.112   4.481  0.0006 -0.2385  0.3823
 4287SOL    HW224321   2.039   2.194   4.362  2.5075  1.9553  0.0925
 4288SOL     OW24322   2.291   2.265   4.584 -0.7300  0.2224  0.0929
 4288SOL    HW124323   2.212   2.213   4.573 -0.4955  0.0443 -0.7556
 4288SOL    HW224324   2.362   2.203   4.566  0.6374  1.5907  0.7177
 4289SOL     OW24325   1.068   0.082   9.103 -0.0093  0.4183 -0.5189
 4289SOL    HW124326   1.007   0.019   9.142 -0.3346 -0.2461 -2.1102
 4289SOL    HW224327   1.143   0.073   9.161  0.0853  0.2074 -0.6758
 4290SOL     OW24328   1.277   1.073   7.969 -0.3411 -0.0232 -0.3655
 4290SOL    HW124329   1.217   1.008   7.933 -0.0534 -0.0523 -0.7815
 4290SOL    HW224330   1.296   1.023   8.049  0.8769 -1.7034 -1.7205
 4291SOL     OW24331   4.095   2.167   7.258 -0.2466 -0.2881 -0.0630
 4291SOL    HW124332   4.140   2.205   7.182  0.2132 -0.5056  0.0994
 4291SOL    HW224333   4.042   2.095   7.224 -0.7718 -0.2453  0.6675
 4292SOL     OW24334   3.838   2.191   7.599 -0.5692 -0.0547  0.6910
 4292SOL    HW124335   3.794   2.126   7.543  1.1274 -0.3392 -0.2966
 4292SOL    HW224336   3.845   2.264   7.538 -0.6859  0.3366  1.1510
 4293SOL     OW24337   0.738   3.565   6.939  0.3938 -0.1076  0.3417
 4293SOL    HW124338   0.690   3.569   6.857  1.6945  0.8318 -0.3601
 4293SOL    HW224339   0.668   3.562   7.005  1.3489 -2.3637  1.2606
 4294SOL     OW24340   3.408   0.805  13.133 -0.3361 -0.0616 -0.2232
 4294SOL    HW124341   3.492   0.825  13.092 -0.4224 -0.5149 -0.6119
 4294SOL    HW224342   3.398   0.710  13.124 -0.9117 -0.0101 -0.1243
 4295SOL     OW24343   0.501   2.278   8.045 -0.3381 -0.6523  0.5153
 4295SOL    HW124344   0.471   2.210   7.984  0.6059  0.0455 -0.7105
 4295SOL    HW224345   0.595   2.270   8.033 -0.4909 -0.6788 -0.6778
 4296SOL     OW24346   0.366   3.607  11.471 -0.2387  0.6334 -0.1095
 4296SOL    HW124347   0.305   3.680  11.484 -0.6951  0.1344  0.5256
 4296SOL    HW224348   0.355   3.549  11.546  0.8264  0.5410 -0.0203
 4297SOL     OW24349   2.545   1.417   6.978  0.1586  0.6864  0.2150
 4297SOL    HW124350   2.490   1.353   6.933 -0.1534  1.7085 -0.8424
 4297SOL    HW224351   2.494   1.493   6.952 -0.1643  1.1373  2.1824
 4298SOL     OW24352   1.855   4.455   5.285 -0.1967  0.0685  0.2250
 4298SOL    HW124353   1.871   4.527   5.345 -3.2813  0.8339  0.1520
 4298SOL    HW224354   1.843   4.373   5.331 -1.6001  0.1869  0.0791
 4299SOL     OW24355   1.947   1.311  14.817 -0.0518 -0.3819 -0.0852
 4299SOL    HW124356   1.985   1.320  14.904  1.4850  0.5125 -0.8434
 4299SOL    HW224357   1.907   1.398  14.809 -0.4345 -0.3308  2.4210
 4300SOL     OW24358   2.626   2.436   4.163  0.2537  0.3146 -0.2756
 4300SOL    HW124359   2.612   2.384   4.242 -0.1677  1.2999  0.2955
 4300SOL    HW224360   2.717   2.414   4.143 -0.2666 -0.1238 -2.2372
 4301SOL     OW24361   0.542   4.667   1.319 -0.2890 -0.2610  0.0461
 4301SOL    HW124362   0.505   4.675   1.407 -1.0615  0.5999 -0.3587
 4301SOL    HW224363   0.466   4.644   1.265  1.9988 -1.5186 -2.6884
 4302SOL     OW24364   2.231   0.069   5.347  0.5185  0.0745 -0.0337
 4302SOL    HW124365   2.262   0.159   5.360  1.7563 -0.3955  0.2489
 4302SOL    HW224366   2.297   0.010   5.382 -0.2498 -1.6958 -1.5896
 4303SOL     OW24367   1.053   2.930   2.800  0.2963 -0.2291  0.6390
 4303SOL    HW124368   1.134   2.968   2.835  1.7308 -2.8335  0.1439
 4303SOL    HW224369   1.072   2.840   2.825  0.1010 -0.3207  0.4656
 4304SOL     OW24370   1.123   4.398   8.350 -0.0901  0.0804  0.0871
 4304SOL    HW124371   1.189   4.386   8.282 -0.0253  2.0417 -0.1929
 4304SOL    HW224372   1.118   4.493   8.358 -0.0706  0.1611 -0.8791
 4305SOL     OW24373   2.609   1.309   4.526 -0.4218 -0.9173 -0.3484
 4305SOL    HW124374   2.517   1.312   4.552 -0.6726 -0.5274 -1.2920
 4305SOL    HW224375   2.626   1.216   4.537  1.7127 -0.4769  0.1283
 4306SOL     OW24376   3.298   1.405   1.028 -0.4208 -0.8056  0.0558
 4306SOL    HW124377   3.340   1.479   0.984 -1.1246 -0.8927 -0.7479
 4306SOL    HW224378   3.374   1.371   1.076  0.7817  0.7901 -0.7164
 4307SOL     OW24379   3.700   2.129   2.832 -0.3848 -0.2825 -0.1606
 4307SOL    HW124380   3.629   2.076   2.870 -1.2100  0.2885 -0.9133
 4307SOL    HW224381   3.777   2.105   2.883 -0.1128 -1.2730 -1.0532
 4308SOL     OW24382   1.283   3.305  11.978 -0.3307 -0.0840  0.1320
 4308SOL    HW124383   1.264   3.270  12.065 -4.0677  0.4582 -0.4703
 4308SOL    HW224384   1.342   3.234  11.954  2.6225  2.6962 -0.7312
 4309SOL     OW24385   0.970   2.337   2.866 -0.3333 -0.2588 -0.0171
 4309SOL    HW124386   0.943   2.385   2.788 -1.3211  0.0568  0.5247
 4309SOL    HW224387   0.960   2.250   2.829  0.2655  0.5630 -2.0890
 4310SOL     OW24388   1.698   2.688   3.731  0.2875  0.1723  0.2828
 4310SOL    HW124389   1.660   2.686   3.819  0.3148 -0.8552  0.2776
 4310SOL    HW224390   1.718   2.599   3.700  2.3848  0.2105  1.5100
 4311SOL     OW24391   2.354   2.427   7.038  0.1675  0.0212 -0.1444
 4311SOL    HW124392   2.356   2.461   6.949  1.6699  1.1018  0.2970
 4311SOL    HW224393   2.448   2.408   7.046  0.3816  1.4866  0.8436
 4312SOL     OW24394   0.161   2.433   3.866  0.0276 -0.4128  0.0986
 4312SOL    HW124395   0.067   2.448   3.858 -0.2045 -1.0670  1.6508
 4312SOL    HW224396   0.166   2.341   3.839  0.7608 -0.4409  0.3372
 4313SOL     OW24397   1.234   4.496   8.661  0.0190  0.0744  0.2750
 4313SOL    HW124398   1.163   4.432   8.658 -0.6846  0.7836  1.9289
 4313SOL    HW224399   1.203   4.563   8.600  0.4764  0.0490  0.0159
 4314SOL     OW24400   2.492   3.548   7.707 -0.2699  0.1328 -0.6122
 4314SOL    HW124401   2.397   3.534   7.709 -0.1777 -0.0246  2.6536
 4314SOL    HW224402   2.500   3.604   7.630 -3.1323  0.5595 -0.6158
 4315SOL     OW24403   1.786   3.517  12.145  0.6843  0.0520 -0.4456
 4315SOL    HW124404   1.715   3.454  12.156 -1.5097  2.3893 -1.1649
 4315SOL    HW224405   1.790   3.576  12.221 -0.2315 -1.2814  0.6438
 4316SOL     OW24406   3.735   2.793  17.511  0.1636 -0.1092 -0.2828
 4316SOL    HW124407   3.752   2.857  17.580 -2.4385 -0.9080  1.1103
 4316SOL    HW224408   3.686   2.732  17.567 -0.0447  0.0285 -0.3159
 4317SOL     OW24409   0.960   2.468   6.800 -0.7942 -0.1314 -0.2111
 4317SOL    HW124410   1.055   2.462   6.812 -0.5411  2.3617 -0.9706
 4317SOL    HW224411   0.952   2.506   6.713 -0.4875  0.4873  0.0257
 4318SOL     OW24412   3.230   3.701   6.859  0.0022  0.5698  0.6941
 4318SOL    HW124413   3.213   3.706   6.765 -0.2187  3.8617  0.8799
 4318SOL    HW224414   3.185   3.781   6.888 -1.9994 -0.9088  1.6421
 4319SOL     OW24415   3.171   1.681   5.584  0.1466 -0.0483  0.2348
 4319SOL    HW124416   3.204   1.751   5.641 -2.9801 -0.2547  2.2866
 4319SOL    HW224417   3.251   1.650   5.542 -0.5911  0.0942 -1.2821
 4320SOL     OW24418   4.041   3.526   6.012 -0.2379 -0.2004  0.3838
 4320SOL    HW124419   4.017   3.447   5.964 -0.5587 -0.5434  1.0986
 4320SOL    HW224420   3.985   3.600   5.985 -1.7744 -1.3724  0.3567
 4321SOL     OW24421   4.208   4.406   5.346 -0.4699 -0.7110  0.4979
 4321SOL    HW124422   4.207   4.472   5.416  1.8055  2.3679 -2.3171
 4321SOL    HW224423   4.117   4.412   5.317 -0.8166 -1.6730  1.4380
 4322SOL     OW24424   0.050   4.485   6.336 -0.2293 -0.7019  0.0101
 4322SOL    HW124425   0.107   4.551   6.377  0.5364 -0.0641 -2.1224
 4322SOL    HW224426   0.083   4.469   6.248  1.1346 -0.3258  0.4391
 4323SOL     OW24427   4.457   4.698   8.304 -0.3789 -0.2601 -0.5174
 4323SOL    HW124428   4.504   0.059   8.286 -0.7446  0.1548  0.3751
 4323SOL    HW224429   4.432   4.678   8.214  1.4577  1.7007 -1.4822
 4324SOL     OW24430   2.201   2.828   5.397 -0.3484 -0.6678 -0.0559
 4324SOL    HW124431   2.177   2.874   5.317  1.5727 -2.3601 -1.6347
 4324SOL    HW224432   2.231   2.741   5.371 -1.1926 -1.7005  2.3886
 4325SOL     OW24433   0.587   1.233   4.151 -0.2509 -0.3352 -0.5668
 4325SOL    HW124434   0.582   1.286   4.230  1.3936 -2.6781  1.1018
 4325SOL    HW224435   0.657   1.277   4.103 -0.7631  1.9685  0.8161
 4326SOL     OW24436   4.326   3.902  16.989 -0.3512  0.1191 -0.2690
 4326SOL    HW124437   4.364   3.971  17.043 -1.1541  0.0801  0.3616
 4326SOL    HW224438   4.246   3.955  16.985 -0.1709  0.3440 -0.8950
 4327SOL     OW24439   3.987   2.517  13.605 -0.0968 -0.1452  0.4119
 4327SOL    HW124440   4.001   2.427  13.633 -0.4527 -0.7918 -1.5182
 4327SOL    HW224441   3.891   2.513  13.599  0.0249 -0.1298 -1.3865
 4328SOL     OW24442   0.873   3.061   2.011  0.0204 -0.0986  0.2163
 4328SOL    HW124443   0.806   3.129   2.010 -0.1097 -0.2678 -2.3744
 4328SOL    HW224444   0.881   3.053   1.916 -2.2176 -1.0842  0.1042
 4329SOL     OW24445   3.002   1.919   7.667 -0.2816  0.4180 -0.9510
 4329SOL    HW124446   3.014   2.008   7.634  0.5495  0.4476 -0.5636
 4329SOL    HW224447   2.956   1.882   7.592 -1.0757 -1.0806  0.2744
 4330SOL     OW24448   3.695   1.961   2.022  0.0640  0.4370 -0.1412
 4330SOL    HW124449   3.659   2.019   2.089  0.6940  2.1335 -1.2622
 4330SOL    HW224450   3.710   1.887   2.081  1.3485  0.8035 -0.0020
 4331SOL     OW24451   1.317   4.179   4.119 -0.2177  0.4571 -0.1178
 4331SOL    HW124452   1.244   4.120   4.097  1.7743 -0.9839 -2.8974
 4331SOL    HW224453   1.373   4.125   4.175 -1.2462 -0.2970  0.1911
 4332SOL     OW24454   4.406   2.031   3.212 -0.2442  1.1404 -0.6415
 4332SOL    HW124455   4.399   2.045   3.306  0.1050  1.7726 -0.7056
 4332SOL    HW224456   4.418   1.937   3.215  0.1082  1.2536  1.1895
 4333SOL     OW24457   2.284   1.949   4.275 -0.0655 -0.1732  0.0039
 4333SOL    HW124458   2.273   2.024   4.334  2.5888  2.0183 -2.3114
 4333SOL    HW224459   2.367   1.914   4.310  0.0990 -1.0335 -1.2246
 4334SOL     OW24460   4.171   0.183   6.567  0.5616  0.1347  0.1386
 4334SOL    HW124461   4.167   0.264   6.617  1.0810  1.2751 -1.6821
 4334SOL    HW224462   4.249   0.142   6.604  1.5107 -0.6115 -2.6396
 4335SOL     OW24463   2.422   3.550   2.038 -0.0027  0.2198  0.6935
 4335SOL    HW124464   2.507   3.563   2.079 -0.3327  0.7787  1.2091
 4335SOL    HW224465   2.405   3.640   2.010  1.6221  0.2636 -0.1728
 4336SOL     OW24466   2.248   4.385   4.936 -0.9228 -0.2157 -0.8766
 4336SOL    HW124467   2.304   4.461   4.954 -0.6212 -0.5466 -0.4271
 4336SOL    HW224468   2.161   4.419   4.960 -1.1084 -1.5402  0.3051
 4337SOL     OW24469   3.206   1.254   3.266 -0.1466  0.1636 -0.4367
 4337SOL    HW124470   3.203   1.349   3.251  1.7147  0.4925  1.1507
 4337SOL    HW224471   3.270   1.246   3.337  0.9532 -0.7522 -1.5499
 4338SOL     OW24472   0.861   2.476  10.727 -0.6368 -0.6785 -0.0763
 4338SOL    HW124473   0.782   2.422  10.718  0.3116 -1.9675 -0.6057
 4338SOL    HW224474   0.924   2.405  10.736 -0.0248 -0.1381 -0.1551
 4339SOL     OW24475   3.434   1.050  13.559  0.1224  0.4119 -0.0467
 4339SOL    HW124476   3.493   1.035  13.486 -1.0725 -0.2798 -0.8643
 4339SOL    HW224477   3.374   1.117  13.525  1.1342  1.4715  0.2500
 4340SOL     OW24478   2.915   0.521   5.069  0.4177 -0.5190  0.1896
 4340SOL    HW124479   2.837   0.512   5.125  0.3255 -1.7817 -0.1296
 4340SOL    HW224480   2.976   0.563   5.130 -0.0843 -1.3413  1.2764
 4341SOL     OW24481   3.171   4.624  15.385  0.3863  0.0207  0.0231
 4341SOL    HW124482   3.259   4.655  15.406 -0.5112  1.5441  1.5613
 4341SOL    HW224483   3.170   4.531  15.409 -1.8127 -0.0806 -0.4137
 4342SOL     OW24484   1.595   2.311   6.528  0.1378 -0.3242  0.0034
 4342SOL    HW124485   1.544   2.238   6.563 -1.4055 -0.2622 -2.1063
 4342SOL    HW224486   1.676   2.267   6.505  0.3818 -0.0568  0.3510
 4343SOL     OW24487   3.544   0.603   1.843 -0.1192  0.7882 -0.7156
 4343SOL    HW124488   3.582   0.517   1.823  0.4725  1.5568 -2.8815
 4343SOL    HW224489   3.578   0.649   1.766 -0.8969  1.1262 -0.8495
 4344SOL     OW24490   0.444   2.112   7.829 -0.3445 -0.4191 -0.2319
 4344SOL    HW124491   0.399   2.050   7.772  0.1326 -0.9542 -0.0208
 4344SOL    HW224492   0.508   2.053   7.867 -0.6580 -0.4817  0.2043
 4345SOL     OW24493   0.018   1.843   7.244 -0.0581 -0.0405 -0.4748
 4345SOL    HW124494   4.699   1.756   7.252  2.1709 -0.7858  2.1485
 4345SOL    HW224495   0.110   1.824   7.262  0.1548  0.9153 -0.5616
 4346SOL     OW24496   3.556   1.162   7.358 -0.3996 -0.2462  0.5582
 4346SOL    HW124497   3.545   1.085   7.303 -1.8741  0.4613 -0.1505
 4346SOL    HW224498   3.532   1.136   7.447  0.2173 -1.6844  0.2964
 4347SOL     OW24499   0.276   0.188  11.218 -0.5052  0.0660  0.7445
 4347SOL    HW124500   0.275   0.093  11.216 -2.6217  0.0793  1.3172
 4347SOL    HW224501   0.358   0.208  11.264  1.0007 -0.4121 -1.7144
 4348SOL     OW24502   1.357   1.852   2.714  0.5777  0.5220 -0.3114
 4348SOL    HW124503   1.362   1.760   2.740 -0.6905 -0.2783 -2.8374
 4348SOL    HW224504   1.351   1.839   2.619  0.6843  3.0833 -0.6632
 4349SOL     OW24505   0.863   0.300   5.490  0.4821  0.3636  0.4739
 4349SOL    HW124506   0.885   0.209   5.472 -4.1470 -0.7553  0.5824
 4349SOL    HW224507   0.769   0.304   5.476  1.0779  0.2572 -3.5400
 4350SOL     OW24508   4.162   1.882   6.540  0.2171  0.3485 -0.1309
 4350SOL    HW124509   4.149   1.946   6.609 -2.4002 -0.2362 -0.0930
 4350SOL    HW224510   4.135   1.929   6.461  0.5467  0.2904 -0.2766
 4351SOL     OW24511   4.488   1.938   5.591 -0.2885 -0.3049  0.1871
 4351SOL    HW124512   4.466   1.852   5.555 -0.4233 -0.0060 -0.4524
 4351SOL    HW224513   4.421   1.991   5.548 -0.2048  1.2266  1.9477
 4352SOL     OW24514   4.536   3.654   1.564  0.6401  0.3103 -0.6673
 4352SOL    HW124515   4.584   3.680   1.643  1.5353  1.3036 -1.5256
 4352SOL    HW224516   4.469   3.598   1.602  1.1798  0.4851  0.5573
 4353SOL     OW24517   3.514   0.627  14.675  0.0033 -0.2138  0.2933
 4353SOL    HW124518   3.484   0.586  14.756  1.4792  1.0231  1.4647
 4353SOL    HW224519   3.605   0.600  14.668  0.5609  1.3907  1.5236
 4354SOL     OW24520   0.781   1.766  13.276  0.0477  0.4867  0.0031
 4354SOL    HW124521   0.829   1.828  13.221 -0.5878  0.7584 -0.2503
 4354SOL    HW224522   0.855   1.715  13.310 -1.8040 -0.7141  2.2436
 4355SOL     OW24523   3.817   1.770   6.770  0.1327  0.1383  0.2969
 4355SOL    HW124524   3.833   1.676   6.764  0.8176  0.2120  0.9125
 4355SOL    HW224525   3.735   1.780   6.721  0.8458 -1.0291 -1.1502
 4356SOL     OW24526   2.248   0.370  11.077 -0.0333  0.9334  0.4452
 4356SOL    HW124527   2.190   0.396  11.006 -0.0403 -0.3775 -0.0283
 4356SOL    HW224528   2.294   0.293  11.043  0.2978  1.8527 -1.1870
 4357SOL     OW24529   3.795   1.133   5.653  0.1279 -0.5887 -0.0654
 4357SOL    HW124530   3.838   1.200   5.600 -2.0945  0.0915 -0.9611
 4357SOL    HW224531   3.824   1.053   5.608  1.7071 -0.4639  0.7029
 4358SOL     OW24532   4.297   2.497  17.224 -0.1128 -0.4490  0.2890
 4358SOL    HW124533   4.373   2.501  17.166 -0.6221  1.3345 -0.2199
 4358SOL    HW224534   4.257   2.581  17.202  1.5280  0.6225  1.4066
 4359SOL     OW24535   3.040   1.123   6.445 -0.0819 -0.5600  0.5096
 4359SOL    HW124536   3.066   1.101   6.355 -1.0103  1.2489 -0.2183
 4359SOL    HW224537   3.109   1.183   6.474  0.7934 -1.0854 -0.4535
 4360SOL     OW24538   2.808   4.495   7.832  0.2935  0.0666 -0.4670
 4360SOL    HW124539   2.785   4.442   7.756 -0.5173  1.5758 -1.2791
 4360SOL    HW224540   2.729   4.474   7.883  0.6520  0.6264  0.3223
 4361SOL     OW24541   4.398   2.494  12.109 -0.0878 -0.0130 -0.0129
 4361SOL    HW124542   4.397   2.418  12.166 -1.2729  0.1235  0.1489
 4361SOL    HW224543   4.318   2.537  12.137 -0.4021 -0.2706 -0.5156
 4362SOL     OW24544   4.606   0.386   4.755 -0.0638 -0.2071  0.2714
 4362SOL    HW124545   4.602   0.302   4.710 -2.0032  0.0109  0.0148
 4362SOL    HW224546   4.624   0.440   4.678 -2.3580  0.7983  0.4279
 4363SOL     OW24547   1.976   3.285  16.247 -0.1971 -0.5558 -0.2091
 4363SOL    HW124548   2.010   3.216  16.190 -1.4303  0.1894 -1.8440
 4363SOL    HW224549   2.052   3.300  16.304  0.7834 -0.7402 -1.4772
 4364SOL     OW24550   2.724   3.434   7.521 -0.1855  0.1270  0.2363
 4364SOL    HW124551   2.784   3.363   7.497  0.9347 -0.1889  4.0095
 4364SOL    HW224552   2.667   3.444   7.444  1.8843  1.4792 -1.1229
 4365SOL     OW24553   1.777   0.563   8.067 -0.0655  0.0346 -0.5401
 4365SOL    HW124554   1.815   0.499   8.126 -0.5323  0.7027  0.4956
 4365SOL    HW224555   1.710   0.605   8.121  0.8084  1.6967 -0.7521
 4366SOL     OW24556   2.235   0.346   4.623 -0.4199  0.2869  0.0272
 4366SOL    HW124557   2.152   0.359   4.669 -0.2320 -0.6239  0.6174
 4366SOL    HW224558   2.240   0.251   4.610  2.0264  0.5533 -0.9324
 4367SOL     OW24559   3.532   4.571   7.950  0.0453  0.2997  0.5153
 4367SOL    HW124560   3.477   4.587   8.027 -0.4664  1.9268 -0.1753
 4367SOL    HW224561   3.586   4.504   7.992 -0.3557  0.8543  1.9048
 4368SOL     OW24562   1.609   3.751   2.848  0.4902 -0.3004  0.6314
 4368SOL    HW124563   1.670   3.767   2.777 -0.4121  0.7963  0.0943
 4368SOL    HW224564   1.608   3.828   2.905  0.6179  0.7880 -0.8366
 4369SOL     OW24565   2.334   1.288  17.577 -0.7022 -0.1129 -0.2795
 4369SOL    HW124566   2.300   1.370  17.543 -0.6441  0.6212  1.4437
 4369SOL    HW224567   2.414   1.269  17.528  0.3244  2.2970  0.4575
 4370SOL     OW24568   3.096   0.418  17.501  0.5083 -0.4191 -0.1093
 4370SOL    HW124569   3.185   0.448  17.517  1.2092 -1.1693 -2.5293
 4370SOL    HW224570   3.051   0.485  17.449  0.3573  0.0662  0.6512
 4371SOL     OW24571   4.304   0.441  10.659  0.0204 -0.3990 -0.1779
 4371SOL    HW124572   4.251   0.475  10.731 -1.6334  0.0080 -1.5686
 4371SOL    HW224573   4.296   0.347  10.673 -0.6381 -0.3345 -0.1164
 4372SOL     OW24574   4.467   2.311   5.943  0.6524 -0.0112  0.0863
 4372SOL    HW124575   4.506   2.396   5.964  0.4985  0.2473 -0.6917
 4372SOL    HW224576   4.514   2.291   5.862 -0.7498  0.1577 -0.7712
 4373SOL     OW24577   0.471   0.378   9.826 -0.1095  0.2579  0.1046
 4373SOL    HW124578   0.468   0.302   9.767 -0.9185 -0.1012  0.6055
 4373SOL    HW224579   0.387   0.367   9.871 -1.9028  1.0826 -3.0010
 4374SOL     OW24580   0.979   2.414   3.952  0.3089  0.1268  0.0739
 4374SOL    HW124581   0.961   2.391   4.044  1.7122  0.6672  0.4831
 4374SOL    HW224582   0.928   2.495   3.940 -1.8300 -0.7011  3.4516
 4375SOL     OW24583   3.081   3.719   4.198  0.0011 -0.0444  0.3397
 4375SOL    HW124584   3.031   3.787   4.243 -2.2741 -0.9643 -0.7585
 4375SOL    HW224585   3.088   3.768   4.116 -0.4445 -3.4689 -1.7707
 4376SOL     OW24586   3.907   2.652  12.497  0.3636 -0.5540 -0.0274
 4376SOL    HW124587   3.936   2.560  12.505  1.6970 -0.4128 -3.3866
 4376SOL    HW224588   3.825   2.642  12.449  0.1831 -1.5448  0.4664
 4377SOL     OW24589   3.616   2.959   6.853 -0.1190 -0.1594  0.3931
 4377SOL    HW124590   3.533   2.926   6.816 -0.6337  1.3559  0.1687
 4377SOL    HW224591   3.676   2.953   6.779 -0.1255 -1.2769  0.4910
 4378SOL     OW24592   1.054   2.783  14.365  0.4653 -0.3200  0.6753
 4378SOL    HW124593   0.971   2.779  14.414  0.5569 -2.2098  0.6861
 4378SOL    HW224594   1.092   2.861  14.406 -0.1270 -0.5398  1.6583
 4379SOL     OW24595   3.468   2.194   5.210  1.0655  0.1434  0.2116
 4379SOL    HW124596   3.422   2.157   5.285 -1.2010 -2.8160 -2.6515
 4379SOL    HW224597   3.550   2.145   5.213  2.2054  2.0128  0.0650
 4380SOL     OW24598   2.815   3.966   8.455 -0.0057  0.2910  0.7453
 4380SOL    HW124599   2.854   3.951   8.369  0.9586  0.0516  1.2217
 4380SOL    HW224600   2.723   3.946   8.443  0.3398  0.0147 -1.4198
 4381SOL     OW24601   0.935   1.831  17.270  0.7562  0.0761 -0.2461
 4381SOL    HW124602   0.911   1.791  17.187  0.5222  0.1287 -0.2045
 4381SOL    HW224603   1.016   1.788  17.297  0.5949 -0.0591  0.0214
 4382SOL     OW24604   2.412   1.580   3.794  0.1426  0.1911  0.2580
 4382SOL    HW124605   2.449   1.492   3.793  0.3305  0.2692  0.4541
 4382SOL    HW224606   2.487   1.629   3.758 -0.9493  0.1691 -2.0561
 4383SOL     OW24607   4.507   2.552   4.784  0.2556  0.4245 -0.0855
 4383SOL    HW124608   4.536   2.589   4.700  0.1081  0.7061 -0.0138
 4383SOL    HW224609   4.572   2.482   4.792 -0.7022 -0.5271 -0.9179
 4384SOL     OW24610   0.225   1.794   9.840 -0.0067 -0.8759 -0.1360
 4384SOL    HW124611   0.292   1.727   9.847 -1.4452 -2.2937  0.2174
 4384SOL    HW224612   0.146   1.741   9.827  0.3705 -1.4433 -0.1127
 4385SOL     OW24613   0.673   1.486   2.028  0.0230  0.1191  0.1681
 4385SOL    HW124614   0.641   1.440   1.950  2.8549 -1.3621 -0.1189
 4385SOL    HW224615   0.738   1.550   1.999  0.1699 -0.8547 -1.6185
 4386SOL     OW24616   0.462   0.763   9.861  0.9474  0.6708  0.2647
 4386SOL    HW124617   0.429   0.789   9.775 -0.4087 -4.0607 -0.6056
 4386SOL    HW224618   0.540   0.720   9.827 -1.3389 -2.0172 -1.5427
 4387SOL     OW24619   0.922   4.615   2.491  0.1756 -0.1757 -0.5257
 4387SOL    HW124620   0.949   4.669   2.416  0.5610 -0.2244 -0.4185
 4387SOL    HW224621   0.923   4.529   2.449 -1.6102  0.7997 -2.6013
 4388SOL     OW24622   2.746   1.296   2.636 -0.2027  0.6868 -0.2044
 4388SOL    HW124623   2.714   1.372   2.588 -0.9528  1.6429  1.8245
 4388SOL    HW224624   2.810   1.272   2.569 -0.0814 -0.4959  0.3302
 4389SOL     OW24625   4.080   2.276  13.633 -0.0284 -0.2592  0.0617
 4389SOL    HW124626   4.166   2.235  13.629  0.1703  0.3409 -1.7253
 4389SOL    HW224627   4.027   2.212  13.680 -3.3321  0.2215 -2.9635
 4390SOL     OW24628   3.660   1.211   5.253  0.0129 -0.3012 -0.2132
 4390SOL    HW124629   3.693   1.285   5.304 -1.6080  0.5201 -0.3502
 4390SOL    HW224630   3.736   1.204   5.196 -1.3743 -0.7920 -2.0226
 4391SOL     OW24631   2.508   2.933   9.532 -0.4205 -0.2076 -0.4922
 4391SOL    HW124632   2.485   2.906   9.443  0.3932  2.7265 -1.5977
 4391SOL    HW224633   2.603   2.927   9.520 -0.3601  0.8924 -0.5086
 4392SOL     OW24634   1.717   3.386  12.637 -0.1506  0.2608 -0.4442
 4392SOL    HW124635   1.794   3.426  12.598 -0.7197  2.5672  0.8101
 4392SOL    HW224636   1.754   3.315  12.689  0.2784  1.5968  1.0804
 4393SOL     OW24637   0.898   0.718  11.437  0.7092  0.3403  0.3643
 4393SOL    HW124638   0.973   0.674  11.396  1.4943  1.2619  0.8225
 4393SOL    HW224639   0.866   0.643  11.488 -1.6417  1.2469  0.2177
 4394SOL     OW24640   4.395   2.024  17.390 -0.1188  0.1783  0.3059
 4394SOL    HW124641   4.341   2.045  17.466  0.4047  0.8162  0.4994
 4394SOL    HW224642   4.428   1.941  17.424  2.8171  0.6874 -1.2692
 4395SOL     OW24643   1.834   0.624   5.870 -0.2683 -0.3484  0.6856
 4395SOL    HW124644   1.809   0.547   5.922 -1.7408 -0.8160 -0.7348
 4395SOL    HW224645   1.822   0.602   5.778 -2.9189 -0.5537  1.0601
 4396SOL     OW24646   2.207   3.384  16.343 -0.0210  0.9946 -0.0662
 4396SOL    HW124647   2.266   3.426  16.281 -0.8602 -0.9263 -2.1825
 4396SOL    HW224648   2.256   3.357  16.420 -1.2705 -1.7343 -0.1955
 4397SOL     OW24649   4.393   2.418   9.197 -0.6579 -0.0940 -0.1905
 4397SOL    HW124650   4.384   2.459   9.283 -1.5793  3.3127 -1.8895
 4397SOL    HW224651   4.474   2.458   9.167  0.3866 -0.2470  2.4381
 4398SOL     OW24652   3.390   4.465   8.545 -0.7710 -0.0865  0.1691
 4398SOL    HW124653   3.478   4.498   8.531 -0.8374  1.2306  2.8667
 4398SOL    HW224654   3.405   4.407   8.620  2.5305 -3.2080 -2.9591
 4399SOL     OW24655   1.190   2.483  16.617  0.1773 -0.0853  0.3526
 4399SOL    HW124656   1.248   2.548  16.577  0.6205  0.2320  1.5145
 4399SOL    HW224657   1.207   2.517  16.705 -0.8496 -1.7493  1.1828
 4400SOL     OW24658   2.487   3.340   2.674 -0.0596  0.2671  0.3844
 4400SOL    HW124659   2.518   3.300   2.593  0.5045 -0.3270  0.9033
 4400SOL    HW224660   2.509   3.271   2.736  2.2417 -0.3553 -1.1556
 4401SOL     OW24661   3.108   2.070   7.170  0.3269 -0.3895 -0.1408
 4401SOL    HW124662   3.180   2.066   7.107  1.7667 -1.1547  1.5691
 4401SOL    HW224663   3.153   2.109   7.245  1.2437 -1.3564 -0.1931
 4402SOL     OW24664   4.700   1.866   5.867 -0.6003 -0.6071  0.0652
 4402SOL    HW124665   4.703   1.930   5.939  0.6806 -0.1152 -0.4305
 4402SOL    HW224666   0.007   1.913   5.789 -0.4027 -3.0348 -1.3206
 4403SOL     OW24667   2.330   0.241   3.987  1.1523  0.4826  0.1077
 4403SOL    HW124668   2.239   0.239   4.017  1.0705 -2.2465 -0.4089
 4403SOL    HW224669   2.350   0.148   3.979  1.6470  0.5507  0.4893
 4404SOL     OW24670   4.703   4.333   4.374 -0.0472  0.6548 -0.7270
 4404SOL    HW124671   0.074   4.324   4.400 -0.4711 -0.7051  0.3250
 4404SOL    HW224672   4.692   4.253   4.323  1.2553  0.4221 -0.6442
 4405SOL     OW24673   0.602   0.955  12.186 -0.1477  0.2723 -0.4441
 4405SOL    HW124674   0.544   0.916  12.120 -1.4504  1.9366 -0.3001
 4405SOL    HW224675   0.687   0.964  12.143  0.8346 -1.1201  1.2476
 4406SOL     OW24676   2.060   1.855   5.409  0.4879  0.3351 -0.0233
 4406SOL    HW124677   1.975   1.829   5.442  1.1656 -0.3323  1.2070
 4406SOL    HW224678   2.109   1.773   5.411 -1.0040 -0.5283  0.3728
 4407SOL     OW24679   0.479   1.107   9.033  0.1515 -0.0126  0.3716
 4407SOL    HW124680   0.435   1.049   9.095  1.8770  0.0960  1.6749
 4407SOL    HW224681   0.435   1.074   8.955 -2.2185  1.0604  1.2598
 4408SOL     OW24682   4.608   3.007   1.432  0.2671  0.1965  0.0197
 4408SOL    HW124683   4.658   2.941   1.384  0.8344 -0.1912  1.1372
 4408SOL    HW224684   4.532   2.962   1.471  1.2524 -1.2845  0.2567
 4409SOL     OW24685   3.112   1.896   4.944 -0.2177 -0.8084  0.3218
 4409SOL    HW124686   3.137   1.927   5.031 -2.3672 -2.0617  1.3915
 4409SOL    HW224687   3.017   1.894   4.958 -0.2009 -0.2535  0.4985
 4410SOL     OW24688   3.700   2.300  13.421  0.1559  0.0810  0.1435
 4410SOL    HW124689   3.729   2.238  13.487 -1.8607  0.3449  1.2788
 4410SOL    HW224690   3.782   2.315  13.375 -0.2956  1.7568 -0.1064
 4411SOL     OW24691   0.942   3.914   8.256 -0.4958  0.3341 -0.2150
 4411SOL    HW124692   0.951   3.985   8.193  0.7477 -0.3964 -0.8629
 4411SOL    HW224693   0.950   3.959   8.340  0.2669  1.5126 -0.9228
 4412SOL     OW24694   2.187   2.504  13.230  0.6093 -0.1874 -0.2789
 4412SOL    HW124695   2.268   2.550  13.211  1.7566 -1.6988  0.9941
 4412SOL    HW224696   2.129   2.574  13.260 -0.6265 -1.4561  0.2825
 4413SOL     OW24697   3.535   4.330   7.677 -0.6444 -0.2677  0.8056
 4413SOL    HW124698   3.476   4.278   7.732 -0.0728 -0.0736  1.5890
 4413SOL    HW224699   3.475   4.390   7.632 -0.0625 -0.0025  0.3983
 4414SOL     OW24700   2.395   3.954   2.108  0.3564 -0.5197 -0.2510
 4414SOL    HW124701   2.485   3.936   2.080  0.6933  1.1330 -0.2255
 4414SOL    HW224702   2.391   4.049   2.112 -0.5227 -0.6198  1.1569
 4415SOL     OW24703   2.923   1.797   3.337  0.1140  0.0295 -0.0404
 4415SOL    HW124704   2.971   1.781   3.418 -0.3031 -0.6492  0.0775
 4415SOL    HW224705   2.834   1.803   3.372  0.1855 -0.7009  0.2577
 4416SOL     OW24706   2.514   2.805   4.984 -0.2840 -0.2075 -0.3360
 4416SOL    HW124707   2.451   2.736   5.007  0.0806  0.2874  2.1427
 4416SOL    HW224708   2.567   2.766   4.913  1.2687  0.6083  0.3637
 4417SOL     OW24709   3.259   1.896   5.737 -0.3516  0.2251 -0.3669
 4417SOL    HW124710   3.310   1.971   5.705 -1.2556  1.9103  2.1244
 4417SOL    HW224711   3.329   1.841   5.773  0.1578  1.3396  0.3696
 4418SOL     OW24712   0.518   3.458  16.091 -0.3614  0.2553 -0.0136
 4418SOL    HW124713   0.461   3.483  16.019  1.9172 -2.3456 -2.7262
 4418SOL    HW224714   0.587   3.525  16.085 -0.3672  0.5696  3.2740
 4419SOL     OW24715   1.252   0.948   6.327  0.1303  0.0647 -0.4750
 4419SOL    HW124716   1.252   1.008   6.402  2.3254  0.4124 -0.7360
 4419SOL    HW224717   1.162   0.958   6.295 -0.4188 -0.4238  0.9210
 4420SOL     OW24718   4.264   1.028  13.683 -0.2887 -1.1895 -0.0880
 4420SOL    HW124719   4.285   1.067  13.598 -1.0040 -3.1922 -1.1994
 4420SOL    HW224720   4.170   1.044  13.681 -0.2599 -1.2798 -2.1506
 4421SOL     OW24721   3.192   2.512  15.685 -0.2734  0.1035  0.4840
 4421SOL    HW124722   3.173   2.467  15.768 -0.2720 -3.5531 -1.4944
 4421SOL    HW224723   3.236   2.443  15.634 -2.5613  0.1522 -1.5414
 4422SOL     OW24724   1.538   4.449   5.891 -0.4835  0.8236  0.3625
 4422SOL    HW124725   1.569   4.359   5.907  0.0759  0.3450 -3.3776
 4422SOL    HW224726   1.572   4.487   5.972  0.0686  2.5680 -0.6986
 4423SOL     OW24727   3.302   1.565  10.726  0.3292  0.0177  0.2024
 4423SOL    HW124728   3.287   1.653  10.691 -0.8353 -0.8902 -1.6027
 4423SOL    HW224729   3.397   1.566  10.731  0.2527 -1.7313  1.9467
 4424SOL     OW24730   0.448   0.148   7.290  0.0107 -0.3958 -0.3003
 4424SOL    HW124731   0.519   0.174   7.231  0.9771 -1.5018  0.3613
 4424SOL    HW224732   0.486   0.181   7.371 -2.5643  0.2746  0.6271
 4425SOL     OW24733   3.089   3.362   0.839 -0.0196 -0.0511  0.5466
 4425SOL    HW124734   3.060   3.271   0.845 -0.6507  0.1292  0.1631
 4425SOL    HW224735   3.147   3.373   0.914 -1.7492 -1.0288  2.0307
 4426SOL     OW24736   3.958   0.637  15.366  0.0236 -0.1679 -0.1111
 4426SOL    HW124737   3.990   0.685  15.290 -0.4380 -0.2724 -0.3706
 4426SOL    HW224738   3.864   0.647  15.350  0.4334  1.8411 -1.3090
 4427SOL     OW24739   4.239   1.388   9.388  0.2058 -0.7829 -0.9077
 4427SOL    HW124740   4.242   1.380   9.484  1.7203  2.6619 -0.6402
 4427SOL    HW224741   4.156   1.424   9.358 -0.5395 -1.6061  0.1934
 4428SOL     OW24742   3.386   3.325   3.679  0.8241 -0.0402  0.4081
 4428SOL    HW124743   3.309   3.362   3.636  0.2099 -2.6671 -0.7902
 4428SOL    HW224744   3.353   3.284   3.759  1.3254 -0.1221  0.5731
 4429SOL     OW24745   3.471   3.172   8.253 -0.0302 -0.4658  0.1500
 4429SOL    HW124746   3.476   3.105   8.321  0.2132 -0.7725 -0.1700
 4429SOL    HW224747   3.437   3.130   8.174 -0.5912 -0.2578  0.2815
 4430SOL     OW24748   1.558   1.158   5.540  0.3878 -0.6203  0.5652
 4430SOL    HW124749   1.580   1.065   5.527  5.0051  0.2836  2.0009
 4430SOL    HW224750   1.624   1.186   5.603  0.8061  0.6360 -0.4471
 4431SOL     OW24751   0.004   1.954   3.958  0.6206  0.0738 -0.1041
 4431SOL    HW124752   0.052   1.889   3.906 -1.5737  0.1897 -2.2755
 4431SOL    HW224753   4.669   1.985   3.887  0.4409 -0.4275 -0.1764
 4432SOL     OW24754   1.737   2.958   6.332  0.4610 -0.1365  0.3507
 4432SOL    HW124755   1.817   2.952   6.384 -1.5635 -0.9792  3.3685
 4432SOL    HW224756   1.743   2.869   6.298  0.9208  0.2742 -0.6812
 4433SOL     OW24757   1.729   2.287   5.591 -0.6078  0.1145 -0.7237
 4433SOL    HW124758   1.806   2.248   5.552 -3.0820 -0.5402 -4.9359
 4433SOL    HW224759   1.742   2.381   5.580 -1.5593  0.4373  0.7374
 4434SOL     OW24760   2.811   1.836   4.352  0.6035 -0.1053  0.1006
 4434SOL    HW124761   2.905   1.828   4.368 -0.0539  0.8931  4.5680
 4434SOL    HW224762   2.790   1.744   4.334 -1.3231  0.5309 -0.9326
 4435SOL     OW24763   0.482   3.051   2.923  0.0621  0.7049 -0.0598
 4435SOL    HW124764   0.397   3.013   2.945 -0.1400  0.2826 -1.5442
 4435SOL    HW224765   0.478   3.056   2.827 -1.9937  0.6080  0.0161
 4436SOL     OW24766   2.038   0.115   7.160  0.7167 -0.1271 -0.6609
 4436SOL    HW124767   1.944   0.100   7.173  0.3702  1.0087 -1.8643
 4436SOL    HW224768   2.034   0.195   7.107 -1.0251  0.4096  0.2505
 4437SOL     OW24769   0.950   4.098  13.608  0.1724 -0.2587  0.2067
 4437SOL    HW124770   0.921   4.172  13.554  2.4404  0.2843 -0.2445
 4437SOL    HW224771   0.891   4.094  13.684  0.0808  1.8282  0.2419
 4438SOL     OW24772   2.547   2.602   5.925 -0.3607  0.2047  0.5311
 4438SOL    HW124773   2.454   2.623   5.938 -0.4457  0.4256 -0.4780
 4438SOL    HW224774   2.580   2.670   5.867  0.1849  1.1089  1.9031
 4439SOL     OW24775   2.796   3.703   4.486 -0.6499 -0.3967  0.3868
 4439SOL    HW124776   2.788   3.633   4.422 -0.6905  0.0308 -0.0733
 4439SOL    HW224777   2.871   3.745   4.443 -0.9641  1.8419  2.0077
 4440SOL     OW24778   3.397   0.541   8.334 -0.7511 -0.3086  0.4281
 4440SOL    HW124779   3.456   0.519   8.262 -1.9103 -0.9101 -0.3339
 4440SOL    HW224780   3.433   0.626   8.359  0.5954 -0.3289 -1.4003
 4441SOL     OW24781   2.755   1.712   3.978 -0.0836 -0.0751  0.1872
 4441SOL    HW124782   2.677   1.682   3.931  0.6898  0.7835 -1.6139
 4441SOL    HW224783   2.811   1.719   3.901  0.1190 -0.8736  0.2599
 4442SOL     OW24784   2.061   3.636   9.180  0.1548  0.1250 -0.2067
 4442SOL    HW124785   2.024   3.665   9.097  2.0139 -0.6002 -1.2616
 4442SOL    HW224786   2.091   3.547   9.162 -1.6484 -0.3901 -0.6765
 4443SOL     OW24787   2.448   0.323   5.996 -0.5782  0.4919 -0.1922
 4443SOL    HW124788   2.353   0.309   5.994 -0.5602  0.3598 -0.1156
 4443SOL    HW224789   2.443   0.418   5.992 -0.2641  0.4949 -0.4745
 4444SOL     OW24790   2.121   4.550   1.519 -0.1478 -0.5601  0.4111
 4444SOL    HW124791   2.110   4.459   1.490 -0.1266 -0.9209  1.5100
 4444SOL    HW224792   2.041   4.556   1.572 -0.9812 -1.2251 -0.7731
 4445SOL     OW24793   3.463   2.868  16.730 -0.4992 -0.1256  0.2320
 4445SOL    HW124794   3.517   2.880  16.652  0.3345 -0.1925  0.8031
 4445SOL    HW224795   3.412   2.949  16.739 -2.7033 -1.0002 -4.0728
 4446SOL     OW24796   3.834   1.583   1.921 -0.6005  0.0988  0.4478
 4446SOL    HW124797   3.752   1.580   1.970 -0.1208  0.3059  1.2495
 4446SOL    HW224798   3.853   1.490   1.911 -0.1342  0.3895 -1.3677
 4447SOL     OW24799   3.607   1.759   1.799 -0.0528 -0.2504  0.5660
 4447SOL    HW124800   3.620   1.833   1.859 -0.7333  0.8085 -0.5666
 4447SOL    HW224801   3.511   1.758   1.800  0.0003 -3.8526 -1.1073
 4448SOL     OW24802   3.255   1.528   6.474  0.0872  0.1258  0.1869
 4448SOL    HW124803   3.239   1.495   6.385  0.4294 -2.2838  1.0176
 4448SOL    HW224804   3.249   1.443   6.517  1.8353 -1.4643 -2.6890
 4449SOL     OW24805   0.678   2.781  12.492 -0.3442 -0.4222 -0.1980
 4449SOL    HW124806   0.583   2.774  12.485 -0.2597 -0.9764 -0.8031
 4449SOL    HW224807   0.715   2.703  12.449 -1.6416 -1.0552 -0.1559
 4450SOL     OW24808   0.983   3.933   1.414 -0.2318 -0.3043 -0.3983
 4450SOL    HW124809   1.009   3.962   1.326 -1.8312 -2.1443 -1.4889
 4450SOL    HW224810   0.993   4.020   1.453 -0.0346 -0.7429  0.5109
 4451SOL     OW24811   4.452   4.102   3.870 -0.2220  0.4262 -0.2263
 4451SOL    HW124812   4.371   4.052   3.875 -0.6277  1.2648  1.3286
 4451SOL    HW224813   4.482   4.127   3.957 -1.1241 -1.4045  0.6049
 4452SOL     OW24814   0.251   1.646  10.723  0.9335  0.1761  0.4037
 4452SOL    HW124815   0.218   1.700  10.795 -2.1105  1.6805 -2.1211
 4452SOL    HW224816   0.314   1.584  10.761  2.1348  0.4615 -1.1152
 4453SOL     OW24817   0.133   2.966   5.275 -0.1518 -0.6747  0.1053
 4453SOL    HW124818   0.207   2.966   5.336  1.2301 -0.9762 -1.5686
 4453SOL    HW224819   0.158   2.897   5.214 -1.1298 -0.6305 -0.3472
 4454SOL     OW24820   0.964   2.303   1.159 -0.0680 -0.5801  0.5138
 4454SOL    HW124821   1.043   2.346   1.124 -0.9797  1.6706  1.2724
 4454SOL    HW224822   0.960   2.230   1.097 -0.5567  3.4859 -4.3162
 4455SOL     OW24823   1.733   4.586  10.171 -0.1609 -0.0066  0.1694
 4455SOL    HW124824   1.755   4.499  10.204  1.6705  0.2835 -0.2451
 4455SOL    HW224825   1.669   4.622  10.233 -0.1166 -1.7476  1.2097
 4456SOL     OW24826   3.263   1.389  11.903 -0.0116  0.3965 -0.4713
 4456SOL    HW124827   3.277   1.474  11.861  1.1340 -0.7776 -2.4298
 4456SOL    HW224828   3.176   1.404  11.941  0.3183 -0.7256  0.7155
 4457SOL     OW24829   4.711   0.615   7.912  0.0942  0.1196 -0.8586
 4457SOL    HW124830   4.627   0.624   7.869  0.8057  2.4650 -1.7452
 4457SOL    HW224831   4.705   0.522   7.936 -0.2847  0.3916  0.1035
 4458SOL     OW24832   3.719   3.586   7.634 -1.1565  0.1666 -0.4351
 4458SOL    HW124833   3.714   3.601   7.729 -1.2702  0.6396 -0.5158
 4458SOL    HW224834   3.625   3.585   7.617 -1.4850 -3.2303  1.4998
 4459SOL     OW24835   0.563   2.169   3.304  0.3071 -0.4882 -0.1040
 4459SOL    HW124836   0.632   2.146   3.242  0.0032  0.1170 -0.6669
 4459SOL    HW224837   0.488   2.119   3.272  0.6903 -0.5283 -0.9264
 4460SOL     OW24838   4.574   0.486   6.293  0.3450 -0.5245  0.6925
 4460SOL    HW124839   4.594   0.400   6.255 -1.6037 -1.0301  0.8185
 4460SOL    HW224840   4.661   0.527   6.296 -0.1597  0.6003 -0.2489
 4461SOL     OW24841   4.389   4.378  15.258  0.2594 -0.0644 -0.0311
 4461SOL    HW124842   4.367   4.460  15.302  1.5084 -0.3652  1.1605
 4461SOL    HW224843   4.362   4.401  15.169  1.1072 -0.5849 -0.4202
 4462SOL     OW24844   3.684   0.237   2.029  0.0508  0.0096  0.3739
 4462SOL    HW124845   3.704   0.275   1.944  0.3849 -1.0625 -0.0235
 4462SOL    HW224846   3.751   0.277   2.084  0.1866 -1.1881  1.0864
 4463SOL     OW24847   0.782   0.138  13.799  0.3131  0.2677  0.6343
 4463SOL    HW124848   0.712   0.204  13.805 -0.7375 -0.5177 -2.8326
 4463SOL    HW224849   0.856   0.192  13.769  0.3592  0.2839  0.7789
 4464SOL     OW24850   3.653   3.932  17.114  0.1554 -0.3486 -0.5356
 4464SOL    HW124851   3.688   3.873  17.181 -1.2159 -0.9911 -0.3999
 4464SOL    HW224852   3.723   3.913  17.051  0.0113  0.6794 -1.0095
 4465SOL     OW24853   1.759   2.787   4.533  0.0981 -0.3500  0.9029
 4465SOL    HW124854   1.729   2.728   4.602 -0.5584 -1.8302 -0.6425
 4465SOL    HW224855   1.753   2.865   4.588  0.2394  2.4929 -3.1265
 4466SOL     OW24856   3.041   4.180  12.481 -0.2414 -0.5666 -0.2772
 4466SOL    HW124857   3.088   4.156  12.401  0.9007  1.5481 -0.2334
 4466SOL    HW224858   3.087   4.264  12.487 -1.2582 -0.1170  1.1857
 4467SOL     OW24859   1.129   1.133  11.744 -0.4860 -0.3078 -0.4570
 4467SOL    HW124860   1.223   1.115  11.743 -0.3940  0.1706 -0.2812
 4467SOL    HW224861   1.126   1.204  11.681 -1.8164  0.4117  0.4216
 4468SOL     OW24862   3.246   0.292  13.100 -0.0407 -0.3589 -0.8942
 4468SOL    HW124863   3.262   0.239  13.021  3.8855  0.3596 -0.6192
 4468SOL    HW224864   3.152   0.308  13.094  0.5037  2.3061 -2.0958
 4469SOL     OW24865   4.348   0.410   2.435 -0.1752 -0.1719 -0.0877
 4469SOL    HW124866   4.358   0.324   2.476  1.4229 -0.6238 -1.4125
 4469SOL    HW224867   4.395   0.464   2.499 -0.0913  0.1583 -0.4256
 4470SOL     OW24868   3.840   1.593   2.388  0.0080 -0.0371  0.4973
 4470SOL    HW124869   3.933   1.574   2.393 -0.5803 -2.5648  1.7409
 4470SOL    HW224870   3.798   1.508   2.400  0.8281 -0.1994  2.2042
 4471SOL     OW24871   3.456   1.892   8.621  0.0721  0.0897 -0.2344
 4471SOL    HW124872   3.499   1.896   8.535 -2.3627 -0.8986 -1.4910
 4471SOL    HW224873   3.365   1.918   8.610 -0.1748  0.0003  1.6815
 4472SOL     OW24874   1.754   4.304   3.670  0.3031 -0.6799  0.1899
 4472SOL    HW124875   1.780   4.260   3.751 -0.9798  2.0608  2.1055
 4472SOL    HW224876   1.694   4.243   3.626  0.1327  0.6086 -1.3429
 4473SOL     OW24877   0.341   0.155   3.962  0.1316 -0.1047  0.0259
 4473SOL    HW124878   0.265   0.109   3.997  0.0336 -1.3241 -1.8102
 4473SOL    HW224879   0.388   0.182   4.040  1.4332 -0.2527 -0.7075
 4474SOL     OW24880   3.636   4.146   4.593  0.2646 -0.3733  0.1959
 4474SOL    HW124881   3.622   4.083   4.663  0.2986 -0.6810 -0.0770
 4474SOL    HW224882   3.722   4.185   4.607  1.2034 -1.4635 -2.4465
 4475SOL     OW24883   3.462   2.331   4.711 -0.7671 -0.2093 -0.3241
 4475SOL    HW124884   3.382   2.345   4.761 -0.3963 -0.3914  0.3213
 4475SOL    HW224885   3.499   2.420   4.711 -0.1868 -0.4562  2.6234
 4476SOL     OW24886   2.729   3.419  12.081 -0.5113  0.5036 -0.2794
 4476SOL    HW124887   2.785   3.496  12.090 -0.7548  0.3885  2.1479
 4476SOL    HW224888   2.795   3.352  12.097  0.6351  1.3638 -1.3982
 4477SOL     OW24889   2.214   0.456   0.414  0.7851  0.1061  0.2905
 4477SOL    HW124890   2.120   0.466   0.432  0.4622  1.4518 -2.0515
 4477SOL    HW224891   2.213   0.471   0.320 -1.0134 -2.0373 -0.0217
 4478SOL     OW24892   1.707   2.982  17.322  0.8057 -0.1174 -0.1941
 4478SOL    HW124893   1.612   2.973  17.332  0.7120  0.0591 -0.9469
 4478SOL    HW224894   1.736   2.890  17.315 -0.1350 -0.2784 -1.9129
 4479SOL     OW24895   2.960   1.992   4.713 -0.7040  0.2389  0.1627
 4479SOL    HW124896   2.904   2.003   4.790 -1.3493  1.7322 -0.5216
 4479SOL    HW224897   3.020   1.921   4.736 -1.1798  0.9753  3.5593
 4480SOL     OW24898   0.825   0.551   3.881 -0.1787 -0.5469  0.4304
 4480SOL    HW124899   0.887   0.500   3.934  3.0862  1.7048 -1.1714
 4480SOL    HW224900   0.795   0.620   3.940  0.5644 -0.1548  0.3597
 4481SOL     OW24901   1.860   4.220   2.177  0.5036 -0.1546  0.0427
 4481SOL    HW124902   1.788   4.159   2.162  0.5841 -0.6397  1.5786
 4481SOL    HW224903   1.905   4.195   2.097 -1.1154  0.8858 -1.1705
 4482SOL     OW24904   1.210   2.123  13.881 -0.0445  0.4655  0.1297
 4482SOL    HW124905   1.236   2.151  13.969 -0.4963 -0.0467  0.4325
 4482SOL    HW224906   1.281   2.067  13.849  0.0941  0.7094  0.0108
 4483SOL     OW24907   2.454   0.180  10.496 -0.5444  0.0351  0.7777
 4483SOL    HW124908   2.542   0.142  10.494  0.1644  1.5998  2.0469
 4483SOL    HW224909   2.429   0.167  10.588 -0.6141  1.8614  1.0025
 4484SOL     OW24910   1.485   2.367   5.506  0.0220 -0.6849  0.2989
 4484SOL    HW124911   1.564   2.323   5.539  1.1336  0.8739 -0.2696
 4484SOL    HW224912   1.514   2.348   5.416 -0.2318 -2.2600  0.5385
 4485SOL     OW24913   1.922   1.697   1.616 -0.1426  0.6036  0.5556
 4485SOL    HW124914   1.839   1.705   1.569 -0.6253 -0.5204  1.2097
 4485SOL    HW224915   1.977   1.653   1.551  0.0854  1.9647 -0.1746
 4486SOL     OW24916   2.119   1.123   7.830 -0.0605  0.1430 -0.3321
 4486SOL    HW124917   2.122   1.029   7.812 -1.1571  0.0660 -0.1075
 4486SOL    HW224918   2.214   1.139   7.825  0.3029 -1.2200  2.5276
 4487SOL     OW24919   4.003   2.238   3.781  0.2328 -0.2082  0.3409
 4487SOL    HW124920   3.929   2.181   3.759  1.3442 -2.1380  1.6389
 4487SOL    HW224921   3.952   2.295   3.838 -1.8057 -0.5960 -1.0756
 4488SOL     OW24922   3.279   0.762   7.213 -0.4773  0.1691 -0.1467
 4488SOL    HW124923   3.262   0.824   7.284 -1.0097 -1.3801  1.0798
 4488SOL    HW224924   3.229   0.804   7.144 -1.1991  1.7258  1.3115
 4489SOL     OW24925   1.247   2.402   7.335  0.3192 -0.0619  0.0307
 4489SOL    HW124926   1.242   2.361   7.422  2.1067 -0.4079 -0.0397
 4489SOL    HW224927   1.159   2.436   7.322  0.7871  1.6496  1.3715
 4490SOL     OW24928   4.367   1.016  12.254 -0.0610 -0.0623 -0.4676
 4490SOL    HW124929   4.455   0.998  12.286  0.1916  0.1204 -1.0451
 4490SOL    HW224930   4.332   0.930  12.233 -0.4885 -0.1995  0.7976
 4491SOL     OW24931   3.552   3.544   0.398 -0.3732  0.2975  0.2034
 4491SOL    HW124932   3.532   3.474   0.460 -2.1359 -0.3246 -1.0898
 4491SOL    HW224933   3.590   3.493   0.326 -1.2733  0.8733 -0.6705
 4492SOL     OW24934   1.613   1.992   5.495 -0.2664  0.5596 -0.5087
 4492SOL    HW124935   1.571   2.045   5.563 -1.0477  0.0815 -0.6241
 4492SOL    HW224936   1.670   2.055   5.451  1.8573 -0.3152  0.9945
 4493SOL     OW24937   1.352   3.734  17.498 -0.1392  0.6197 -0.4298
 4493SOL    HW124938   1.445   3.756  17.506 -0.1602  0.4485  0.3398
 4493SOL    HW224939   1.353   3.709  17.406 -1.7664 -0.2419 -0.2172
 4494SOL     OW24940   2.020   3.378  17.557 -0.2298  0.0792  0.0624
 4494SOL    HW124941   1.951   3.314  17.541  1.7823 -2.1795  0.4438
 4494SOL    HW224942   2.007   3.428  17.477 -1.3292  1.8585  1.3538
 4495SOL     OW24943   2.105   2.273   3.825 -0.1214 -0.0671  0.1110
 4495SOL    HW124944   2.180   2.293   3.769  0.7453  1.3163  1.7447
 4495SOL    HW224945   2.146   2.217   3.891  2.6755  1.1095 -0.6168
 4496SOL     OW24946   0.654   3.032   7.696 -0.5469 -0.4527  0.0145
 4496SOL    HW124947   0.605   3.008   7.774  0.2436 -0.3864  0.5323
 4496SOL    HW224948   0.739   3.037   7.741 -0.1538  2.2724 -0.9827
 4497SOL     OW24949   3.434   2.108   5.638 -0.0285 -0.5483 -0.5040
 4497SOL    HW124950   3.417   2.194   5.676  2.8458 -1.2075  2.2716
 4497SOL    HW224951   3.513   2.080   5.684 -0.5058  2.8330  2.3662
 4498SOL     OW24952   0.022   1.738   5.483  0.0354 -0.1944 -0.0306
 4498SOL    HW124953   4.665   1.683   5.491 -1.1135  1.5056  0.4474
 4498SOL    HW224954   0.085   1.678   5.443 -0.3890  0.2635 -1.3902
 4499SOL     OW24955   2.557   2.030  10.225  0.0217 -0.4502  0.0424
 4499SOL    HW124956   2.577   1.937  10.214 -1.4620 -0.8923  1.0817
 4499SOL    HW224957   2.543   2.031  10.320  0.7462 -1.8479  0.1647
 4500SOL     OW24958   4.050   1.660   8.216 -0.1822  0.5148 -0.3743
 4500SOL    HW124959   4.136   1.692   8.187  0.0691 -0.2678 -0.5208
 4500SOL    HW224960   4.057   1.565   8.203 -1.2736  0.5376 -1.0982
 4501SOL     OW24961   0.393   2.051  12.352 -0.0302 -0.3780  0.3501
 4501SOL    HW124962   0.460   2.002  12.399  0.2915  1.2927  1.6340
 4501SOL    HW224963   0.310   2.041  12.399 -0.6743  0.2420 -0.6183
 4502SOL     OW24964   4.099   2.244  14.114 -0.2836  0.0972  0.0127
 4502SOL    HW124965   4.189   2.250  14.080 -0.2731  2.8176  0.4831
 4502SOL    HW224966   4.069   2.155  14.097 -0.0300  0.2175 -1.0562
 4503SOL     OW24967   1.877   0.745   4.013  0.0624  0.6923 -0.1576
 4503SOL    HW124968   1.850   0.836   4.002  0.2448  0.9771  1.8067
 4503SOL    HW224969   1.799   0.706   4.053 -0.5117  1.7439 -0.2633
 4504SOL     OW24970   0.828   0.900   4.905 -0.0021  0.6179  0.3215
 4504SOL    HW124971   0.812   0.825   4.961  0.8371  0.6857  0.6580
 4504SOL    HW224972   0.739   0.934   4.898 -0.5020 -0.7373  0.2635
 4505SOL     OW24973   0.572   3.192   3.353  0.1992 -0.0939 -0.2092
 4505SOL    HW124974   0.564   3.098   3.334  0.5708  0.3291 -2.4237
 4505SOL    HW224975   0.594   3.224   3.266  0.9701  1.0188  0.4013
 4506SOL     OW24976   3.237   1.371  10.542 -0.1533 -0.3314  0.2148
 4506SOL    HW124977   3.316   1.325  10.516 -1.0186 -1.7447  0.0914
 4506SOL    HW224978   3.265   1.435  10.608  0.0951 -1.3155  1.0712
 4507SOL     OW24979   4.296   0.916   6.109  0.5644 -0.7107  0.6943
 4507SOL    HW124980   4.326   0.850   6.171  1.2378 -1.3111 -0.2674
 4507SOL    HW224981   4.205   0.932   6.134  1.0505  0.3577  1.7640
 4508SOL     OW24982   1.677   1.725  11.624 -0.1904  0.3352  0.3667
 4508SOL    HW124983   1.605   1.662  11.627  1.5077 -1.6381  0.3055
 4508SOL    HW224984   1.748   1.683  11.673  1.4926  1.2278 -1.3322
 4509SOL     OW24985   0.850   2.080   7.661  0.4841  0.2809 -0.3454
 4509SOL    HW124986   0.859   2.131   7.742  3.8091  1.0881 -1.2116
 4509SOL    HW224987   0.826   1.997   7.702  1.5313  0.1756  0.0522
 4510SOL     OW24988   0.347   2.416  12.157  0.0065 -0.0172 -0.5653
 4510SOL    HW124989   0.401   2.365  12.096  0.3884  0.5169 -0.6803
 4510SOL    HW224990   0.259   2.381  12.147 -0.6306  1.1600  1.0265
 4511SOL     OW24991   4.501   1.429   5.959  0.3514 -0.0028 -0.2857
 4511SOL    HW124992   4.441   1.360   5.987  0.2051  0.5906  0.8238
 4511SOL    HW224993   4.553   1.450   6.037  2.6884 -3.0509 -1.0107
 4512SOL     OW24994   2.627   2.555  14.419 -0.2903  0.2763  0.2116
 4512SOL    HW124995   2.687   2.484  14.394 -2.1340 -1.1191 -0.1949
 4512SOL    HW224996   2.625   2.545  14.514  0.2355 -0.8132  0.1004
 4513SOL     OW24997   2.200   0.040   2.785 -0.2513  0.1208  0.1868
 4513SOL    HW124998   2.202   0.106   2.854  2.8180  1.5373 -1.2175
 4513SOL    HW224999   2.194   0.091   2.704  0.0267  0.0635  0.1297
 4514SOL     OW25000   1.403   4.088  17.253  0.9485 -0.0011  0.2656
 4514SOL    HW125001   1.393   4.178  17.285 -0.8021 -0.5097  1.1227
 4514SOL    HW225002   1.316   4.050  17.268  0.1525  1.7615  0.0887
 4515SOL     OW25003   2.583   4.071   3.195 -0.2501 -0.3356  0.0943
 4515SOL    HW125004   2.656   4.133   3.190 -1.2389  0.9741  1.7239
 4515SOL    HW225005   2.604   4.027   3.278 -1.3174 -0.6741  0.1737
 4516SOL     OW25006   1.618   3.440   7.874 -0.0522  0.5685 -0.3690
 4516SOL    HW125007   1.575   3.489   7.804  0.0890  2.2384  0.7107
 4516SOL    HW225008   1.698   3.491   7.885  0.6338 -0.7222  0.7144
 4517SOL     OW25009   0.530   0.220  13.906 -0.0939  0.4836 -0.1134
 4517SOL    HW125010   0.498   0.233  13.995  0.2250 -0.3616  0.1184
 4517SOL    HW225011   0.564   0.131  13.901 -1.1998 -0.0681  2.3626
 4518SOL     OW25012   0.862   2.061  10.354 -0.1315  0.4983  0.3461
 4518SOL    HW125013   0.874   2.061  10.259  1.4904  0.0099  0.5459
 4518SOL    HW225014   0.801   2.134  10.361 -0.7711  0.0168 -0.1416
 4519SOL     OW25015   1.559   3.914   2.429 -0.0296 -0.7089  0.4207
 4519SOL    HW125016   1.570   3.917   2.524  0.0820 -0.7552  0.4089
 4519SOL    HW225017   1.542   3.820   2.421 -0.9988 -0.3515 -1.6259
 4520SOL     OW25018   3.792   0.346   3.556 -0.3668 -0.0458 -0.0037
 4520SOL    HW125019   3.868   0.401   3.538  0.1704 -0.9663 -0.5393
 4520SOL    HW225020   3.736   0.367   3.481 -0.3948  0.6367  0.2075
 4521SOL     OW25021   2.373   3.444   3.462 -0.5917  0.1992  0.5082
 4521SOL    HW125022   2.431   3.368   3.467  0.8225  1.1827 -0.8237
 4521SOL    HW225023   2.410   3.499   3.531  1.4471  0.5816 -0.8949
 4522SOL     OW25024   0.693   4.630   8.402 -0.0518 -0.2785 -0.4272
 4522SOL    HW125025   0.753   4.620   8.477 -0.5037 -0.6318 -0.1100
 4522SOL    HW225026   0.644   4.707   8.430  0.0696  0.3875 -2.0740
 4523SOL     OW25027   4.000   0.061   1.155  0.0143  0.3210  0.4323
 4523SOL    HW125028   4.068   0.038   1.091  0.8933  3.2639  0.3041
 4523SOL    HW225029   3.950   4.705   1.131 -0.3609 -0.3530  3.3610
 4524SOL     OW25030   4.654   2.872   2.936  0.3069  0.2899  0.1109
 4524SOL    HW125031   4.637   2.951   2.884  0.5410  0.7840  0.7924
 4524SOL    HW225032   4.605   2.883   3.018 -2.8625  0.2447 -1.7816
 4525SOL     OW25033   1.523   1.066   6.372  0.8079 -0.7932  0.3657
 4525SOL    HW125034   1.569   1.141   6.335  0.7273 -1.0682 -0.2933
 4525SOL    HW225035   1.439   1.106   6.397  2.0128  1.4013  0.9090
 4526SOL     OW25036   0.004   4.472   4.650 -0.1992 -0.0338  0.0999
 4526SOL    HW125037   4.704   4.385   4.685  0.8244 -0.8855 -1.3767
 4526SOL    HW225038   4.701   4.448   4.560 -0.6528  0.2633  0.1452
 4527SOL     OW25039   4.440   1.513  10.035 -0.4674 -0.0318 -0.1527
 4527SOL    HW125040   4.506   1.574  10.069  1.5744 -2.2440 -0.1449
 4527SOL    HW225041   4.389   1.578   9.986 -1.2637  0.8593  1.8438
 4528SOL     OW25042   3.273   3.240   3.959  0.2462  0.2220  0.3807
 4528SOL    HW125043   3.294   3.146   3.966 -0.5324  0.0483  0.3947
 4528SOL    HW225044   3.213   3.251   4.032 -3.4524  0.3263 -2.6555
 4529SOL     OW25045   4.641   2.099   4.996  0.3828 -0.5658  0.3424
 4529SOL    HW125046   4.640   2.033   5.065  1.6718  0.4833  1.3282
 4529SOL    HW225047   0.015   2.100   4.993  0.3364  1.1891 -0.7872
 4530SOL     OW25048   4.235   4.062  13.057 -0.9565  0.0011  0.1398
 4530SOL    HW125049   4.162   4.074  12.996  0.4659  1.7954 -1.2300
 4530SOL    HW225050   4.300   4.024  12.998  0.2637  0.9739  0.8428
 4531SOL     OW25051   3.473   2.414  16.047  0.4630 -0.0912 -0.8315
 4531SOL    HW125052   3.567   2.397  16.039  0.8938  2.6225 -1.5293
 4531SOL    HW225053   3.454   2.490  15.992  0.3523 -1.1989 -2.3164
 4532SOL     OW25054   3.995   0.648  15.661  0.0496  0.0010 -0.0138
 4532SOL    HW125055   3.971   0.663  15.569  0.6456  1.1916  0.0267
 4532SOL    HW225056   4.087   0.623  15.653 -0.0136  0.7974 -3.4966
 4533SOL     OW25057   1.319   2.730   8.705 -0.6208  0.1172 -0.4386
 4533SOL    HW125058   1.278   2.816   8.699 -0.4176  0.2489  0.0853
 4533SOL    HW225059   1.283   2.705   8.791  0.7618 -1.0120 -0.1848
 4534SOL     OW25060   0.543   0.907  11.866 -0.2098 -0.1943  0.0576
 4534SOL    HW125061   0.468   0.936  11.814  0.1580  3.4391  1.5331
 4534SOL    HW225062   0.601   0.872  11.798 -0.2782  0.7805 -0.5075
 4535SOL     OW25063   0.416   1.333   2.812 -0.5491  0.0507  0.2503
 4535SOL    HW125064   0.360   1.265   2.776 -3.3937  2.1028  0.8213
 4535SOL    HW225065   0.343   1.386   2.842 -0.9829 -0.1654 -0.4374
 4536SOL     OW25066   3.175   3.722  13.046 -0.1033  0.0824 -0.2500
 4536SOL    HW125067   3.230   3.696  13.120  1.8980  2.4467 -0.9125
 4536SOL    HW225068   3.131   3.803  13.071 -0.5133  0.2001 -1.3765
 4537SOL     OW25069   0.312   1.629   5.098 -0.4387 -0.0827  0.5000
 4537SOL    HW125070   0.249   1.604   5.030  0.3996  0.7256 -0.5721
 4537SOL    HW225071   0.369   1.554   5.112 -1.2557 -0.7082  0.4826
 4538SOL     OW25072   3.566   0.504   9.992  0.0011  0.2017 -0.2697
 4538SOL    HW125073   3.536   0.578  10.045 -1.7629 -0.3847 -0.4626
 4538SOL    HW225074   3.493   0.489   9.932  1.2880 -0.8836 -1.5693
 4539SOL     OW25075   1.273   3.371  15.531  0.0125 -0.1390 -0.0995
 4539SOL    HW125076   1.299   3.430  15.461  2.8409 -1.3563 -0.0682
 4539SOL    HW225077   1.336   3.392  15.600 -0.2728  0.0696  0.0955
 4540SOL     OW25078   3.174   0.498  10.590 -0.0005  0.0381  0.2388
 4540SOL    HW125079   3.090   0.542  10.578 -0.1766 -0.1192  0.8802
 4540SOL    HW225080   3.239   0.562  10.562  0.8626 -1.3577 -0.9172
 4541SOL     OW25081   3.108   2.893   2.566  0.6042 -0.3405  0.3284
 4541SOL    HW125082   3.193   2.875   2.525  0.6088  0.2204  0.0905
 4541SOL    HW225083   3.040   2.868   2.504  0.0181 -1.1991  1.3088
 4542SOL     OW25084   3.521   4.467   0.787 -0.0235 -0.1380  0.5997
 4542SOL    HW125085   3.515   4.515   0.869  0.5324  1.2252 -0.1550
 4542SOL    HW225086   3.480   4.530   0.727  0.6882  1.8467  2.2156
 4543SOL     OW25087   3.085   0.140   3.834  0.3384  0.1242  0.0911
 4543SOL    HW125088   3.154   0.139   3.768 -1.8253  1.3701 -2.1633
 4543SOL    HW225089   3.148   0.127   3.904  0.4695 -0.6531 -0.1686
 4544SOL     OW25090   0.969   2.646   9.072  0.1723 -0.1561  0.0324
 4544SOL    HW125091   0.968   2.601   9.157 -0.2379  0.1372  0.1803
 4544SOL    HW225092   0.893   2.704   9.073  1.0732  1.0456 -0.9035
 4545SOL     OW25093   2.120   2.786   4.655 -0.1149  0.2957 -0.2965
 4545SOL    HW125094   2.050   2.721   4.658  0.8826 -0.8115 -1.0198
 4545SOL    HW225095   2.068   2.863   4.630 -1.0036 -1.1426 -2.9018
 4546SOL     OW25096   3.332   2.956   4.021 -0.2637 -0.2317 -0.3467
 4546SOL    HW125097   3.242   2.927   4.005  0.2994 -1.8080 -0.6271
 4546SOL    HW225098   3.392   2.882   4.014  0.2703  0.3080 -1.5691
 4547SOL     OW25099   3.139   2.793   6.714  0.2155  0.5593  0.2325
 4547SOL    HW125100   3.069   2.834   6.662 -1.4820 -2.5607  0.1108
 4547SOL    HW225101   3.105   2.705   6.727  1.2902  0.1868  0.5048
 4548SOL     OW25102   1.270   3.213   3.475 -0.3465  0.2339 -0.1329
 4548SOL    HW125103   1.194   3.233   3.529  0.2939  0.7571  0.5700
 4548SOL    HW225104   1.314   3.296   3.490  0.0931  0.0109 -0.1829
 4549SOL     OW25105   3.415   1.263   5.317 -0.2674 -0.3699  0.3054
 4549SOL    HW125106   3.506   1.240   5.301  0.1939 -0.2981  2.8482
 4549SOL    HW225107   3.408   1.282   5.411  0.7000 -0.1036  0.3183
 4550SOL     OW25108   4.297   1.274   8.694 -0.1651  0.3720 -0.2045
 4550SOL    HW125109   4.251   1.265   8.777 -1.8282 -0.3179 -1.2045
 4550SOL    HW225110   4.369   1.212   8.707 -0.6731 -0.4582 -1.4011
 4551SOL     OW25111   2.324   1.467  10.184  0.3713 -0.2777 -0.6131
 4551SOL    HW125112   2.412   1.503  10.189 -0.2847  1.1517  0.6999
 4551SOL    HW225113   2.282   1.541  10.140 -2.9706 -2.0183 -0.4050
 4552SOL     OW25114   0.060   4.466  10.681  0.0025 -0.7318  0.1971
 4552SOL    HW125115   0.061   4.508  10.595  0.2918  0.2193  0.6611
 4552SOL    HW225116   4.707   4.511  10.721 -0.6300 -0.7016 -0.9898
 4553SOL     OW25117   2.107   4.562   2.034  0.3635  0.1397 -0.3415
 4553SOL    HW125118   2.157   4.533   2.110 -2.1347  1.3450  1.7635
 4553SOL    HW225119   2.158   4.641   2.017 -0.0158  0.2054 -1.1567
 4554SOL     OW25120   1.457   0.156   6.060  0.0415 -0.5049 -0.4772
 4554SOL    HW125121   1.472   0.222   5.992 -0.1380 -0.9013 -0.9005
 4554SOL    HW225122   1.397   0.200   6.120 -1.4270 -1.8176 -0.9759
 4555SOL     OW25123   2.465   1.528   6.274 -0.8295  0.5300 -0.2923
 4555SOL    HW125124   2.383   1.553   6.317 -1.0472  0.3589 -0.6001
 4555SOL    HW225125   2.512   1.506   6.354 -2.3262 -0.1781  0.4069
 4556SOL     OW25126   1.972   0.655   4.696 -0.6068 -0.3497 -0.3650
 4556SOL    HW125127   1.929   0.611   4.622  1.0821 -0.8422 -1.0688
 4556SOL    HW225128   2.013   0.726   4.646 -1.0496  1.0107  1.2163
 4557SOL     OW25129   1.210   0.967   8.921 -0.9266  0.4148 -0.4337
 4557SOL    HW125130   1.292   1.007   8.892 -1.1578  0.4945 -0.9878
 4557SOL    HW225131   1.230   0.983   9.013 -0.5660  1.1416 -0.6380
 4558SOL     OW25132   4.275   0.039   8.728  0.0779 -0.2553 -0.2533
 4558SOL    HW125133   4.221   0.056   8.805  1.0931 -0.1322  0.4230
 4558SOL    HW225134   4.247   4.668   8.723 -0.0351 -0.3020  1.2050
 4559SOL     OW25135   3.022   1.431   6.114  0.5128 -0.2903  0.1047
 4559SOL    HW125136   3.114   1.449   6.134  0.1624  1.9716 -0.3875
 4559SOL    HW225137   2.978   1.488   6.176 -3.1441 -1.8638 -1.0351
 4560SOL     OW25138   4.126   0.463   4.158 -0.6486 -0.3805 -0.0815
 4560SOL    HW125139   4.220   0.464   4.140 -0.9161  0.7444 -1.3649
 4560SOL    HW225140   4.113   0.557   4.168  1.3429 -0.0708 -0.3469
 4561SOL     OW25141   4.232   0.601  15.955 -0.3243  0.0593  0.3317
 4561SOL    HW125142   4.311   0.565  15.994 -0.0532  0.1056 -0.1857
 4561SOL    HW225143   4.265   0.614  15.866  0.0930  0.6720  0.5793
 4562SOL     OW25144   1.635   0.943   5.339 -0.6803 -0.1031 -0.5334
 4562SOL    HW125145   1.655   0.851   5.325  0.5009 -0.0927  1.0918
 4562SOL    HW225146   1.540   0.943   5.351 -0.7802  0.2856 -1.2960
 4563SOL     OW25147   4.064   1.753   7.088  0.9020  0.0619  0.3220
 4563SOL    HW125148   4.047   1.764   6.994 -1.1487 -0.2027  0.6627
 4563SOL    HW225149   4.035   1.832   7.134 -0.7366 -0.6314  0.4881
 4564SOL     OW25150   0.834   3.372   3.745 -0.1358 -0.1890  0.4079
 4564SOL    HW125151   0.766   3.371   3.678  1.2856 -0.1751 -1.0511
 4564SOL    HW225152   0.818   3.460   3.779  0.8767  0.3562 -0.5312
 4565SOL     OW25153   4.647   2.910   8.454  0.0985  0.4517  0.6831
 4565SOL    HW125154   0.020   2.916   8.434 -0.3021  2.1392 -0.6475
 4565SOL    HW225155   4.624   3.002   8.450 -2.0267 -0.2095 -1.9184
 4566SOL     OW25156   4.418   3.806  11.773  0.3413 -0.1598  0.1128
 4566SOL    HW125157   4.462   3.761  11.844 -0.7615 -1.7047 -0.1664
 4566SOL    HW225158   4.334   3.760  11.770  1.1416 -1.6484  0.4540
 4567SOL     OW25159   0.997   3.957   2.400 -0.4615  0.0378  0.0859
 4567SOL    HW125160   0.928   3.951   2.466 -1.9495 -0.1049 -1.4809
 4567SOL    HW225161   1.073   3.976   2.456  0.7464  1.0574 -1.8661
 4568SOL     OW25162   1.797   0.579   6.830  0.2556  0.5155  0.3135
 4568SOL    HW125163   1.817   0.637   6.904  1.0963  0.0681  0.4343
 4568SOL    HW225164   1.844   0.614   6.755 -0.7748  1.6835  0.2145
 4569SOL     OW25165   3.129   0.819  13.187 -0.3016 -0.3774 -0.6699
 4569SOL    HW125166   3.222   0.804  13.174  0.2620  0.7719  2.0594
 4569SOL    HW225167   3.126   0.803  13.282 -1.8633 -2.1208 -1.0084
 4570SOL     OW25168   4.543   2.749   3.594 -0.6004  0.0327  0.1207
 4570SOL    HW125169   4.487   2.671   3.594 -1.4770  0.6683 -0.2264
 4570SOL    HW225170   4.574   2.742   3.503  1.5034  0.3163  0.8160
 4571SOL     OW25171   3.709   0.494   8.458 -0.0409 -0.8811  0.5209
 4571SOL    HW125172   3.669   0.530   8.537  1.9211  1.6197  0.3806
 4571SOL    HW225173   3.750   0.413   8.489 -1.4415 -1.6669  0.3220
 4572SOL     OW25174   3.091   4.684   7.332 -0.2830 -0.1082  0.1053
 4572SOL    HW125175   3.091   4.615   7.398  0.0582  2.5937  2.8775
 4572SOL    HW225176   3.001   4.670   7.303  0.5188 -1.7793 -1.6465
 4573SOL     OW25177   0.987   2.792   1.670  0.6831  0.3979 -0.2553
 4573SOL    HW125178   0.997   2.767   1.578  1.1688  1.1677 -0.4093
 4573SOL    HW225179   1.053   2.739   1.716  0.8747  2.3205  1.6796
 4574SOL     OW25180   2.488   2.056   3.917  0.5617  0.7533  0.1164
 4574SOL    HW125181   2.513   1.969   3.888 -0.8820 -0.0802  1.3584
 4574SOL    HW225182   2.525   2.109   3.846 -0.9697 -0.1488 -1.3590
 4575SOL     OW25183   4.226   3.602   4.518  0.2796  0.3402  0.3494
 4575SOL    HW125184   4.218   3.684   4.470  1.1186  0.3418  0.2205
 4575SOL    HW225185   4.184   3.542   4.456  0.7044 -0.4632  0.8296
 4576SOL     OW25186   2.290   0.561   3.041 -0.2101 -0.1954 -0.6824
 4576SOL    HW125187   2.358   0.567   3.108  0.5726 -1.3749 -1.3514
 4576SOL    HW225188   2.214   0.527   3.087  0.8970  0.8360  1.8811
 4577SOL     OW25189   3.099   1.208  10.742  0.6093 -0.4693 -0.2620
 4577SOL    HW125190   3.101   1.287  10.797 -0.5827  1.2805 -2.7258
 4577SOL    HW225191   3.147   1.245  10.668 -1.7338 -1.0333 -2.0395
 4578SOL     OW25192   2.654   4.293  15.641 -0.2038 -0.1449  0.3301
 4578SOL    HW125193   2.727   4.231  15.635  1.2188  1.8834 -3.6383
 4578SOL    HW225194   2.621   4.288  15.551  0.7049 -2.6140  0.1322
 4579SOL     OW25195   2.628   1.398   1.085 -0.0744 -0.2234  0.2856
 4579SOL    HW125196   2.704   1.347   1.113  1.6037  0.9330 -2.2684
 4579SOL    HW225197   2.587   1.393   1.172  2.4391 -0.9165  1.4270
 4580SOL     OW25198   4.548   1.582   2.708  0.6218 -0.2590  0.3844
 4580SOL    HW125199   4.621   1.546   2.758  2.9799  1.5917 -1.6890
 4580SOL    HW225200   4.554   1.521   2.634  0.0654 -1.9812  1.7543
 4581SOL     OW25201   1.782   1.562   4.762  0.7538 -0.6207  0.3073
 4581SOL    HW125202   1.743   1.634   4.811  0.1027  0.4768 -1.7959
 4581SOL    HW225203   1.744   1.485   4.804  0.9752 -0.7073  0.3504
 4582SOL     OW25204   1.931   1.109   8.395  0.0982 -0.2467  0.0033
 4582SOL    HW125205   1.964   1.023   8.369  0.9446  0.3354 -0.8604
 4582SOL    HW225206   1.887   1.133   8.313  0.6481 -1.9592 -0.7898
 4583SOL     OW25207   4.194   0.826   4.584 -0.3145  0.2099  0.7821
 4583SOL    HW125208   4.252   0.867   4.648  0.6921 -0.6476  0.4182
 4583SOL    HW225209   4.113   0.837   4.635 -2.7167 -2.0702 -2.5326
 4584SOL     OW25210   0.783   2.809   7.165  0.4973  0.3826 -0.1216
 4584SOL    HW125211   0.769   2.854   7.248 -0.4170 -2.5698  1.3299
 4584SOL    HW225212   0.876   2.826   7.154  0.4748 -0.4033 -1.6142
 4585SOL     OW25213   0.385   1.436  17.154  0.2769 -0.0056 -0.3206
 4585SOL    HW125214   0.367   1.361  17.098 -0.2078  0.9403 -1.4331
 4585SOL    HW225215   0.348   1.505  17.099 -0.5135 -0.1648  0.0081
 4586SOL     OW25216   4.421   0.825   5.626  0.1615  0.9074 -0.0626
 4586SOL    HW125217   4.402   0.870   5.708  0.9866 -0.3399  0.8013
 4586SOL    HW225218   4.467   0.887   5.570  1.6119  0.5923  0.7833
 4587SOL     OW25219   0.266   0.993   5.159 -0.3289  0.2381 -0.4941
 4587SOL    HW125220   0.321   0.952   5.225 -0.1277  1.1220 -0.1182
 4587SOL    HW225221   0.195   0.930   5.174 -0.4011  1.1298  2.9245
 4588SOL     OW25222   3.835   3.163   1.590  0.5743 -0.0608  0.2251
 4588SOL    HW125223   3.916   3.113   1.599 -0.5229 -1.6482  1.2589
 4588SOL    HW225224   3.841   3.234   1.653  0.6952 -3.1186  3.6728
 4589SOL     OW25225   2.672   4.624  11.493 -0.0498 -0.4039  0.2278
 4589SOL    HW125226   2.621   4.542  11.490 -0.7448 -0.0654  2.6595
 4589SOL    HW225227   2.614   4.659  11.561  0.5500 -1.2465  1.1797
 4590SOL     OW25228   1.566   2.472  14.337  0.1504  0.1244 -0.1621
 4590SOL    HW125229   1.484   2.463  14.288 -1.0249  3.0944  1.2389
 4590SOL    HW225230   1.630   2.486  14.268  0.2373  3.1763  0.5058
 4591SOL     OW25231   3.410   1.340   7.697  0.1161 -0.3634  0.1972
 4591SOL    HW125232   3.357   1.420   7.698  1.6086  0.5886  2.3460
 4591SOL    HW225233   3.392   1.309   7.786 -0.9486  0.7334  0.3667
 4592SOL     OW25234   2.261   0.159   5.040  0.0547  0.1834 -0.0784
 4592SOL    HW125235   2.204   0.103   4.987 -0.3109  0.0417  0.4597
 4592SOL    HW225236   2.199   0.220   5.080  1.0934 -1.1753  3.6420
 4593SOL     OW25237   4.683   2.192  13.912 -0.3812 -0.1395  0.2736
 4593SOL    HW125238   4.702   2.284  13.892  1.9977 -0.0203  3.1644
 4593SOL    HW225239   0.018   2.166  13.984 -0.6798 -2.9762 -0.5157
 4594SOL     OW25240   2.490   0.638   8.626 -0.3800 -0.1717  0.0374
 4594SOL    HW125241   2.583   0.622   8.613 -0.6080 -0.9297 -0.6869
 4594SOL    HW225242   2.485   0.721   8.673 -0.2351 -1.3843  2.1694
 4595SOL     OW25243   3.004   0.600   7.689 -0.1755 -0.3130  0.1025
 4595SOL    HW125244   2.999   0.657   7.612  1.3732 -1.2388 -0.6735
 4595SOL    HW225245   2.984   0.517   7.645 -1.0542 -0.4020  0.6709
 4596SOL     OW25246   3.188   2.837  12.374 -0.2375 -0.1922  0.1578
 4596SOL    HW125247   3.186   2.876  12.461  0.9119 -0.3534  0.2500
 4596SOL    HW225248   3.254   2.888  12.327 -0.9782  2.1671  1.6714
 4597SOL     OW25249   0.197   0.557  16.000 -0.1223 -0.7522 -0.3693
 4597SOL    HW125250   0.205   0.486  16.063  1.2768 -0.2217  0.0462
 4597SOL    HW225251   0.280   0.602  16.013  0.7583 -1.6930 -2.6569
 4598SOL     OW25252   0.434   1.713   7.799  0.1318  0.0523  0.3574
 4598SOL    HW125253   0.472   1.630   7.770 -0.6802 -0.8347  1.7925
 4598SOL    HW225254   0.498   1.731   7.868  1.7903  1.1618 -1.4761
 4599SOL     OW25255   0.958   0.894   4.069  0.7123 -0.4101  0.2823
 4599SOL    HW125256   0.920   0.981   4.057  0.7282 -0.3451  0.6912
 4599SOL    HW225257   0.877   0.843   4.073  0.3651  0.2274  1.6903
 4600SOL     OW25258   3.567   2.087   1.346 -0.1655  0.7440  0.4211
 4600SOL    HW125259   3.616   2.080   1.428 -0.0374 -2.1503  0.0706
 4600SOL    HW225260   3.484   2.081   1.392 -0.3442 -0.8695 -0.1268
 4601SOL     OW25261   4.231   1.666   9.584 -0.2340  0.0221 -0.1122
 4601SOL    HW125262   4.262   1.693   9.498 -1.5811  1.8276 -0.0282
 4601SOL    HW225263   4.158   1.612   9.555 -0.3572  0.6547 -0.9677
 4602SOL     OW25264   1.837   1.512   0.490 -0.2922 -0.1407 -0.4210
 4602SOL    HW125265   1.742   1.512   0.479 -0.1523  3.4162 -1.3665
 4602SOL    HW225266   1.850   1.606   0.495  2.1336 -0.4199 -1.5438
 4603SOL     OW25267   1.578   2.696   7.857  0.7274 -0.7642  0.2275
 4603SOL    HW125268   1.655   2.695   7.914  1.1539 -1.8389 -0.3745
 4603SOL    HW225269   1.544   2.782   7.881  2.7201  0.2093 -0.4013
 4604SOL     OW25270   1.432   3.247   6.347  0.1541 -0.3181  0.1845
 4604SOL    HW125271   1.419   3.172   6.290 -0.7528  0.1600 -0.2375
 4604SOL    HW225272   1.515   3.221   6.386  0.8675 -0.5858 -1.5100
 4605SOL     OW25273   2.041   1.698  13.418  0.3935 -0.1024 -0.3517
 4605SOL    HW125274   1.968   1.662  13.468  1.6737 -2.6079 -0.3398
 4605SOL    HW225275   2.115   1.705  13.478 -1.2654  1.8204  1.4787
 4606SOL     OW25276   2.543   0.798   6.945 -0.0894 -0.0974 -0.3245
 4606SOL    HW125277   2.499   0.727   6.992  0.4927  0.4302  0.9992
 4606SOL    HW225278   2.631   0.779   6.978 -0.7109 -2.6315 -0.0940
 4607SOL     OW25279   0.490   1.245   1.896 -0.7356  0.2248 -0.0954
 4607SOL    HW125280   0.485   1.158   1.935  2.3814  0.4179  0.6795
 4607SOL    HW225281   0.501   1.217   1.805  0.2965  0.0299  0.0973
 4608SOL     OW25282   1.247   0.261   9.577  0.8172 -0.3323 -0.4962
 4608SOL    HW125283   1.322   0.204   9.563 -0.2896 -1.3739 -2.2003
 4608SOL    HW225284   1.291   0.339   9.609 -0.4942  0.1347  0.1904
 4609SOL     OW25285   1.222   2.193   4.691 -0.0281 -0.6590  0.7385
 4609SOL    HW125286   1.314   2.213   4.706  0.3419 -1.4715 -0.4510
 4609SOL    HW225287   1.175   2.273   4.714  2.2829  0.5340  1.2562
 4610SOL     OW25288   3.528   0.070   6.725  0.1403  0.3023 -0.4357
 4610SOL    HW125289   3.613   0.090   6.763  0.5358 -0.4944 -0.8957
 4610SOL    HW225290   3.489   0.155   6.743 -1.2082 -0.3620 -0.1719
 4611SOL     OW25291   4.663   4.334   2.353  0.0489  0.6116  0.1871
 4611SOL    HW125292   4.590   4.387   2.383 -0.1060  0.2117  0.5176
 4611SOL    HW225293   4.682   4.264   2.415  2.1283  0.4640 -0.6070
 4612SOL     OW25294   3.154   0.781   0.591  0.3078 -0.1672  0.0596
 4612SOL    HW125295   3.235   0.807   0.545  0.3632  1.5112  1.0889
 4612SOL    HW225296   3.110   0.733   0.521 -2.2733  1.9086  0.2788
 4613SOL     OW25297   0.406   4.693   6.065  0.0643 -0.1668 -0.1170
 4613SOL    HW125298   0.432   4.718   5.976 -0.1683 -1.0917 -0.4344
 4613SOL    HW225299   0.423   0.060   6.101 -2.6715  1.0688 -1.8511
 4614SOL     OW25300   4.297   0.395  11.113 -0.4065 -0.0799 -0.5600
 4614SOL    HW125301   4.236   0.441  11.170  1.6151  0.5235  1.1263
 4614SOL    HW225302   4.249   0.397  11.030  1.1747 -0.6298 -1.4871
 4615SOL     OW25303   2.016   3.995   2.947  0.2103 -1.0468  0.1163
 4615SOL    HW125304   2.008   4.013   2.853  1.8058 -0.1044  0.1699
 4615SOL    HW225305   2.043   3.904   2.930  0.0621 -1.0950  0.1355
 4616SOL     OW25306   1.719   1.374   0.902 -0.1283 -0.3795  0.4377
 4616SOL    HW125307   1.774   1.435   0.951 -2.7676  1.4496  1.1391
 4616SOL    HW225308   1.777   1.309   0.861 -1.0860 -0.2454 -1.1298
 4617SOL     OW25309   0.516   4.038   0.278  0.1706 -0.8042  0.1897
 4617SOL    HW125310   0.590   4.016   0.222 -1.3781  1.0598 -2.5741
 4617SOL    HW225311   0.554   4.037   0.366  0.5902 -2.3189 -0.0193
 4618SOL     OW25312   1.196   1.031   1.371  0.3291  0.0540  0.2151
 4618SOL    HW125313   1.193   1.126   1.386 -0.5749 -0.0638  0.7416
 4618SOL    HW225314   1.239   1.012   1.454  0.6388  1.1437  0.3083
 4619SOL     OW25315   1.513   3.091   3.121  0.2539  0.1834 -0.1820
 4619SOL    HW125316   1.531   3.002   3.091  2.6512 -0.1065  2.1337
 4619SOL    HW225317   1.478   3.070   3.208  1.5610  0.2328  0.3519
 4620SOL     OW25318   0.822   1.291   8.590  0.3613 -0.5036 -0.1355
 4620SOL    HW125319   0.762   1.222   8.561  0.0537  0.0694 -0.8824
 4620SOL    HW225320   0.808   1.314   8.682 -0.4352  4.1388 -1.4182
 4621SOL     OW25321   0.668   1.256   6.559  0.1489 -0.6368 -0.2317
 4621SOL    HW125322   0.656   1.197   6.634 -2.3506  0.4014  0.1838
 4621SOL    HW225323   0.762   1.272   6.564  0.3503 -2.5822  2.4961
 4622SOL     OW25324   3.448   2.182   2.609 -0.3702 -0.1448  0.6423
 4622SOL    HW125325   3.400   2.117   2.558 -1.5326 -0.2699  1.8986
 4622SOL    HW225326   3.538   2.150   2.616 -0.3720 -0.5999 -1.3964
 4623SOL     OW25327   3.333   0.703   4.997  1.0752  0.3988 -1.0308
 4623SOL    HW125328   3.332   0.788   4.952 -0.8724  1.1263  0.4004
 4623SOL    HW225329   3.326   0.728   5.089  3.3771 -1.1208 -0.4285
 4624SOL     OW25330   3.067   2.366   0.073  0.1058 -0.0943 -0.5169
 4624SOL    HW125331   3.000   2.299   0.083  0.5432 -0.4718 -0.0925
 4624SOL    HW225332   3.018   2.438   0.033  0.0174 -0.5767 -1.2645
 4625SOL     OW25333   1.308   1.826   1.403  0.7897  1.0207 -0.4358
 4625SOL    HW125334   1.375   1.839   1.336 -1.1324  1.2471 -2.3300
 4625SOL    HW225335   1.319   1.903   1.458 -1.5719  1.0419 -0.0128
 4626SOL     OW25336   4.560   3.220   7.442 -0.5247  0.3969  0.6876
 4626SOL    HW125337   4.494   3.208   7.374  2.0270 -0.6566 -1.6153
 4626SOL    HW225338   4.533   3.163   7.514  0.0421 -0.0491  0.5436
 4627SOL     OW25339   1.415   1.018   7.725  0.4234 -0.6141 -0.1458
 4627SOL    HW125340   1.440   1.050   7.812  0.4289 -1.4012  0.1445
 4627SOL    HW225341   1.401   0.924   7.738 -0.5540 -0.6411 -1.4057
 4628SOL     OW25342   3.326   0.730   5.765 -0.3888 -0.3791 -0.1034
 4628SOL    HW125343   3.261   0.667   5.798 -0.0873  0.4939  2.2091
 4628SOL    HW225344   3.276   0.788   5.707  0.4785  0.8453  0.3738
 4629SOL     OW25345   1.600   4.376   8.014  0.1520 -0.4178  0.2985
 4629SOL    HW125346   1.632   4.428   8.088 -4.5632  0.0887  1.9726
 4629SOL    HW225347   1.563   4.443   7.957  2.3585  0.6449  0.1289
 4630SOL     OW25348   2.301   1.811  13.035 -0.5754  0.1150 -0.1242
 4630SOL    HW125349   2.218   1.815  13.083 -0.6306  2.0972 -0.3827
 4630SOL    HW225350   2.355   1.847  13.105 -0.6529 -1.0197  0.5104
 4631SOL     OW25351   2.449   1.596  13.399 -0.3961 -0.4892  0.2474
 4631SOL    HW125352   2.498   1.647  13.463  1.3723 -0.1722 -1.3580
 4631SOL    HW225353   2.358   1.606  13.428 -1.0106 -1.3977 -1.3356
 4632SOL     OW25354   2.635   2.299  10.222 -0.1357  0.1607  0.2504
 4632SOL    HW125355   2.547   2.327  10.246 -0.5086 -0.1353 -0.7368
 4632SOL    HW225356   2.618   2.207  10.201 -0.7992  0.2670  0.2958
 4633SOL     OW25357   2.902   2.190   5.109 -0.4472 -0.1329  0.2809
 4633SOL    HW125358   2.976   2.240   5.144  0.3564 -1.3654  0.3610
 4633SOL    HW225359   2.931   2.103   5.137 -0.3653  0.3534  1.7112
 4634SOL     OW25360   3.173   1.434  14.273 -0.4695 -0.4618 -0.1254
 4634SOL    HW125361   3.081   1.462  14.274 -0.6841 -1.1257 -1.5470
 4634SOL    HW225362   3.165   1.347  14.233 -3.6901  0.6734 -1.9691
 4635SOL     OW25363   2.363   2.800   2.994 -0.0565 -0.3514 -0.2429
 4635SOL    HW125364   2.350   2.732   3.060 -1.5897 -0.2752 -0.4624
 4635SOL    HW225365   2.288   2.857   3.011  0.0207 -0.3553  0.1064
 4636SOL     OW25366   4.279   1.747   9.299  0.0270 -0.0966  0.0870
 4636SOL    HW125367   4.186   1.766   9.290 -0.5710 -1.5149  3.2026
 4636SOL    HW225368   4.323   1.816   9.250 -2.6374  0.6809 -1.1531
 4637SOL     OW25369   4.482   3.304   5.196  0.6210 -0.3661  0.1306
 4637SOL    HW125370   4.496   3.244   5.269 -1.8528 -0.2421  0.6943
 4637SOL    HW225371   4.389   3.293   5.178  0.7419 -1.0088 -0.1050
 4638SOL     OW25372   2.924   1.624   3.076  0.3698  0.1996  0.5428
 4638SOL    HW125373   2.945   1.697   3.135 -0.5091  0.4157  0.5850
 4638SOL    HW225374   2.829   1.621   3.067  0.6591 -1.6192 -1.8720
 4639SOL     OW25375   1.570   2.863   4.757  0.1085 -0.3102 -0.2529
 4639SOL    HW125376   1.616   2.906   4.829  0.6237 -1.6500  0.2237
 4639SOL    HW225377   1.553   2.942   4.707  0.9089  0.5975  0.9233
 4640SOL     OW25378   3.353   4.092  16.246  0.1409 -0.3620  0.4145
 4640SOL    HW125379   3.324   4.174  16.286 -0.3067 -1.1337  1.6959
 4640SOL    HW225380   3.423   4.122  16.189 -1.0087 -0.6311 -1.1379
 4641SOL     OW25381   1.576   4.496  15.573 -0.2697 -0.0984 -0.5137
 4641SOL    HW125382   1.649   4.512  15.513 -0.4135 -1.2943 -1.0024
 4641SOL    HW225383   1.613   4.524  15.657  1.1150 -0.3802 -1.0164
 4642SOL     OW25384   4.590   3.818   9.303 -0.2970 -0.7363 -0.4377
 4642SOL    HW125385   4.610   3.732   9.265 -0.4231 -0.9082 -0.1168
 4642SOL    HW225386   4.645   3.814   9.381  1.5828 -0.6874 -1.7612
 4643SOL     OW25387   1.196   3.425   0.831 -0.6369 -0.4257  0.2016
 4643SOL    HW125388   1.239   3.493   0.779  0.1601 -0.5844  0.6579
 4643SOL    HW225389   1.245   3.417   0.913  0.1207 -0.7558 -0.2864
 4644SOL     OW25390   0.343   1.834   5.566  0.1306 -0.2129  0.5860
 4644SOL    HW125391   0.344   1.750   5.612 -0.9111 -0.6681 -0.2201
 4644SOL    HW225392   0.278   1.803   5.503 -0.3956  0.0874  0.9830
 4645SOL     OW25393   1.304   2.588  10.501 -0.1017 -0.4516  0.0928
 4645SOL    HW125394   1.306   2.677  10.465 -0.3845  0.3195  2.0087
 4645SOL    HW225395   1.213   2.562  10.486 -0.8378  1.9061  0.5418
 4646SOL     OW25396   4.096   0.181  13.623 -0.3286 -0.2353 -0.0290
 4646SOL    HW125397   4.029   0.117  13.647 -2.3647  2.3221  1.0936
 4646SOL    HW225398   4.061   0.263  13.657 -0.2663  0.6831 -2.1858
 4647SOL     OW25399   2.392   1.979   9.103 -0.3876 -0.0382 -0.1377
 4647SOL    HW125400   2.419   1.930   9.026 -2.1939 -3.1338  1.2141
 4647SOL    HW225401   2.355   1.912   9.161  0.2283  0.8333  1.2655
 4648SOL     OW25402   2.365   2.506   8.574  0.6262 -0.4404 -0.7590
 4648SOL    HW125403   2.289   2.453   8.551  0.9874 -1.1604 -0.2926
 4648SOL    HW225404   2.316   2.575   8.620  1.2992  0.0642 -0.7952
 4649SOL     OW25405   4.501   0.601   7.776 -0.3009 -0.1177  0.1524
 4649SOL    HW125406   4.429   0.659   7.749 -1.0273 -1.0343  0.1110
 4649SOL    HW225407   4.474   0.520   7.733  0.2525  0.4651 -1.3067
 4650SOL     OW25408   3.759   1.863  15.604  0.4196 -0.1198  0.4967
 4650SOL    HW125409   3.791   1.782  15.644  0.1754 -0.2721  0.3843
 4650SOL    HW225410   3.701   1.894  15.674  1.1391 -0.4716  1.2462
 4651SOL     OW25411   4.649   2.871  15.516 -0.7735  0.0785  0.1120
 4651SOL    HW125412   4.716   2.855  15.450  1.0599  0.3400  1.9147
 4651SOL    HW225413   4.568   2.831  15.484 -0.2751  0.7381 -1.9749
 4652SOL     OW25414   1.275   3.417  13.185  0.2572  0.2102 -0.2974
 4652SOL    HW125415   1.182   3.439  13.183  0.3688  0.5928 -1.4816
 4652SOL    HW225416   1.311   3.491  13.233  2.9867 -1.9559  1.0117
 4653SOL     OW25417   2.827   2.708   5.205  0.0339  0.1425  0.3690
 4653SOL    HW125418   2.877   2.678   5.128  1.1796  3.9088 -0.3297
 4653SOL    HW225419   2.816   2.630   5.260  1.1306 -0.0011  0.3826
 4654SOL     OW25420   1.146   3.186   3.228  0.3640 -0.0536  0.2796
 4654SOL    HW125421   1.125   3.095   3.207  0.9549 -0.3117  0.8136
 4654SOL    HW225422   1.206   3.176   3.302  1.9427  0.3776 -0.9505
 4655SOL     OW25423   1.383   0.766   7.842  0.0696  0.3852  0.0436
 4655SOL    HW125424   1.376   0.672   7.827  0.0387  0.4594 -0.4043
 4655SOL    HW225425   1.296   0.801   7.861 -0.0196 -0.5787  1.3818
 4656SOL     OW25426   2.484   4.534   7.254  0.1506 -0.5774 -0.1934
 4656SOL    HW125427   2.443   4.474   7.315 -0.0586 -2.4108 -2.1285
 4656SOL    HW225428   2.461   4.508   7.165  0.5985 -1.3382 -0.0832
 4657SOL     OW25429   3.350   1.552   0.287  0.6836 -0.1023  0.0770
 4657SOL    HW125430   3.443   1.574   0.289  0.8332 -0.7934  0.8590
 4657SOL    HW225431   3.311   1.639   0.279  0.9644 -0.0166 -0.3183
 4658SOL     OW25432   1.228   4.465  10.557 -0.1343 -0.0849 -0.0102
 4658SOL    HW125433   1.311   4.445  10.600 -0.5827 -2.8657 -0.4295
 4658SOL    HW225434   1.250   4.454  10.465  2.7965  2.0905  0.4606
 4659SOL     OW25435   4.220   1.830  14.724  0.8039 -0.3164 -0.4215
 4659SOL    HW125436   4.268   1.838  14.642  2.3031  2.0210  0.6699
 4659SOL    HW225437   4.200   1.739  14.702 -0.0543  0.1294 -1.4662
 4660SOL     OW25438   0.814   1.426   5.018  0.0065  0.2279 -0.3667
 4660SOL    HW125439   0.725   1.434   5.052  0.9552 -0.8239  2.3462
 4660SOL    HW225440   0.807   1.351   4.958 -1.4300  1.2272 -1.4465
 4661SOL     OW25441   3.295   0.688   6.359  0.2089  0.5471 -0.2327
 4661SOL    HW125442   3.282   0.771   6.404 -0.3782 -0.0199  0.6309
 4661SOL    HW225443   3.242   0.699   6.279 -0.1775  0.0981 -0.0381
 4662SOL     OW25444   1.402   1.737  11.403 -0.0714  0.0178 -0.0844
 4662SOL    HW125445   1.352   1.777  11.475 -1.0863 -0.5072 -0.5000
 4662SOL    HW225446   1.399   1.801  11.332 -0.5798  1.0168  0.8401
 4663SOL     OW25447   3.413   4.287   3.048  0.3984  0.2744 -0.3105
 4663SOL    HW125448   3.456   4.336   2.978  1.9344  1.9772  1.8519
 4663SOL    HW225449   3.341   4.349   3.057  0.1374  0.2398 -2.0468
 4664SOL     OW25450   4.211   0.639   7.220 -0.4983  0.3106  0.6047
 4664SOL    HW125451   4.239   0.548   7.210  1.7349  1.0999 -0.2728
 4664SOL    HW225452   4.282   0.691   7.183  1.0798 -1.9039  0.5870
 4665SOL     OW25453   2.762   0.945   6.785  0.0550  0.5442  0.3707
 4665SOL    HW125454   2.848   0.979   6.811  0.7811 -1.7478  1.0154
 4665SOL    HW225455   2.760   0.877   6.853 -0.3211  1.1270  0.9374
 4666SOL     OW25456   3.836   2.229   4.352 -0.0677  0.0482 -0.3146
 4666SOL    HW125457   3.840   2.178   4.433 -2.0929 -2.7061 -1.9412
 4666SOL    HW225458   3.831   2.317   4.390  2.7036  0.9445 -1.9946
 4667SOL     OW25459   0.287   3.501   6.292  0.2274  0.3380 -0.2373
 4667SOL    HW125460   0.318   3.589   6.272 -0.8308  0.3985 -1.5858
 4667SOL    HW225461   0.368   3.450   6.285 -0.1469 -0.3759  0.7348
 4668SOL     OW25462   0.482   0.320   8.249  0.2159  0.0976  0.4810
 4668SOL    HW125463   0.565   0.349   8.287  0.2517  0.7230 -0.0785
 4668SOL    HW225464   0.429   0.399   8.250 -0.1872 -0.1537 -0.9902
 4669SOL     OW25465   0.244   3.370   4.531 -0.0344 -0.9163  0.6749
 4669SOL    HW125466   0.278   3.442   4.478 -0.8294 -0.7236  0.4260
 4669SOL    HW225467   0.322   3.356   4.585 -0.3589 -1.6695  0.9436
 4670SOL     OW25468   1.359   0.291  13.380 -0.2939 -0.5258  0.2578
 4670SOL    HW125469   1.447   0.317  13.405 -0.3970 -1.2199  1.3490
 4670SOL    HW225470   1.355   0.326  13.291 -1.7107  0.1290  0.5799
 4671SOL     OW25471   2.001   3.576   0.596  0.3215  0.6546 -0.3564
 4671SOL    HW125472   1.963   3.657   0.629 -1.2539 -0.3603  0.3611
 4671SOL    HW225473   1.947   3.560   0.518  0.9000  0.0392 -0.6283
 4672SOL     OW25474   3.680   3.894   0.772  0.0908 -0.0074  0.5032
 4672SOL    HW125475   3.758   3.867   0.725  0.2163  0.8201  0.2399
 4672SOL    HW225476   3.668   3.814   0.824  0.1846 -1.6712 -2.0187
 4673SOL     OW25477   0.666   3.139  10.732  0.4568 -0.6563 -0.5059
 4673SOL    HW125478   0.684   3.100  10.818 -1.4528  0.8877  0.5976
 4673SOL    HW225479   0.595   3.197  10.759  0.2150 -0.9358 -0.5427
 4674SOL     OW25480   4.572   0.120  11.786  0.1946  0.1253 -0.4597
 4674SOL    HW125481   4.485   0.138  11.820  0.6918  0.0038  0.8740
 4674SOL    HW225482   4.565   0.154  11.697  2.8509  1.2846 -0.2447
 4675SOL     OW25483   0.931   1.168   4.038  0.6930  0.1704 -0.2137
 4675SOL    HW125484   0.950   1.244   3.983  0.8850  0.1200 -0.2171
 4675SOL    HW225485   1.002   1.180   4.101  0.9277  0.7674 -0.5915
 4676SOL     OW25486   2.039   3.768   3.519  0.2225 -0.1721  0.1781
 4676SOL    HW125487   2.071   3.688   3.476 -1.4009 -1.3415  1.1688
 4676SOL    HW225488   2.016   3.735   3.606  0.8435 -5.0019 -1.4853
 4677SOL     OW25489   4.592   0.197   0.580 -0.1080  0.0364 -0.0335
 4677SOL    HW125490   4.537   0.254   0.526  0.5703 -1.6195 -2.5220
 4677SOL    HW225491   4.579   0.217   0.672 -1.2394 -0.9331  0.0248
 4678SOL     OW25492   2.572   0.851   8.852 -0.0198  0.3558 -0.6050
 4678SOL    HW125493   2.493   0.854   8.906  0.7842  0.0732  0.5830
 4678SOL    HW225494   2.588   0.941   8.823 -1.0205  0.2081 -1.6311
 4679SOL     OW25495   2.207   3.889   8.388  0.2713  0.3447  0.4007
 4679SOL    HW125496   2.142   3.870   8.456 -0.5199 -0.1093 -0.4729
 4679SOL    HW225497   2.257   3.963   8.422 -0.1540 -0.3960  2.6391
 4680SOL     OW25498   1.683   1.910  12.900 -0.5638  0.3790  0.2554
 4680SOL    HW125499   1.595   1.947  12.902 -2.0824 -3.0720 -2.9061
 4680SOL    HW225500   1.738   1.974  12.854  0.1976 -0.2569  0.2825
 4681SOL     OW25501   4.478   0.594   1.670  0.4341  0.3143 -0.2851
 4681SOL    HW125502   4.456   0.520   1.727  0.7859 -0.9329 -1.7680
 4681SOL    HW225503   4.554   0.562   1.620  0.0559  2.1603 -2.0312
 4682SOL     OW25504   4.345   2.749   4.938  0.0200 -0.2710 -0.4342
 4682SOL    HW125505   4.336   2.744   4.843 -0.7888  0.1860 -0.3807
 4682SOL    HW225506   4.418   2.688   4.944 -0.2941 -0.6093 -0.0129
 4683SOL     OW25507   2.062   1.492   4.210 -0.4514 -0.2913 -0.5232
 4683SOL    HW125508   2.126   1.537   4.265 -0.1266 -1.6487  0.1921
 4683SOL    HW225509   2.103   1.493   4.123 -2.0727 -0.1588 -1.2877
 4684SOL     OW25510   1.864   0.204   5.736  0.7517 -0.2863 -0.5413
 4684SOL    HW125511   1.882   0.241   5.649 -0.3593  1.0142 -0.2084
 4684SOL    HW225512   1.924   0.130   5.742 -0.1438 -1.0662 -1.2175
 4685SOL     OW25513   3.603   1.428  12.350  0.2718  0.6219  0.2912
 4685SOL    HW125514   3.523   1.429  12.298  1.1738  2.4618 -1.0588
 4685SOL    HW225515   3.567   1.477  12.424  0.8205  1.7709 -0.2061
 4686SOL     OW25516   4.022   3.218   6.272  0.4696 -0.1885  0.4617
 4686SOL    HW125517   3.988   3.264   6.348  0.3527  1.2877 -0.4679
 4686SOL    HW225518   3.943   3.185   6.229  0.9282  0.0462 -0.5850
 4687SOL     OW25519   3.984   4.554   6.228  0.7191 -0.3866 -0.2886
 4687SOL    HW125520   4.036   4.481   6.263  2.1872  0.8300  0.0612
 4687SOL    HW225521   4.000   4.621   6.295 -2.4359 -0.5097  0.5693
 4688SOL     OW25522   2.624   4.256  11.682 -0.0069 -0.2695 -0.4040
 4688SOL    HW125523   2.549   4.256  11.622  1.3207  2.1992 -2.0427
 4688SOL    HW225524   2.589   4.319  11.746  3.2111  1.3851 -0.2757
 4689SOL     OW25525   4.295   2.885   3.300  0.0275 -0.0357  0.5303
 4689SOL    HW125526   4.223   2.826   3.322 -2.1043  1.9814 -1.1560
 4689SOL    HW225527   4.314   2.924   3.385  2.3710 -0.5066  0.2175
 4690SOL     OW25528   3.373   2.307   9.303  0.1277  0.4926 -0.1765
 4690SOL    HW125529   3.279   2.301   9.288  0.2487  0.4209 -0.9366
 4690SOL    HW225530   3.377   2.263   9.388  2.5896  1.8880  0.4266
 4691SOL     OW25531   3.406   0.293   6.815 -0.3234  0.0815  0.3135
 4691SOL    HW125532   3.408   0.287   6.910  0.8318 -1.1495  0.2222
 4691SOL    HW225533   3.488   0.341   6.803 -0.6047  0.0158 -1.8827
 4692SOL     OW25534   3.225   4.288   2.832  0.8735  0.7089  0.3579
 4692SOL    HW125535   3.313   4.324   2.827  0.4007  2.0158  1.5017
 4692SOL    HW225536   3.181   4.358   2.881 -0.1245 -0.0628  0.5724
 4693SOL     OW25537   3.076   4.226   4.088 -0.0727  0.5240  0.1943
 4693SOL    HW125538   2.995   4.182   4.063 -0.1925  0.3679  0.8789
 4693SOL    HW225539   3.111   4.263   4.007  0.1671 -0.7622 -0.2874
 4694SOL     OW25540   3.597   3.452   3.769 -0.1402  0.1020 -0.4711
 4694SOL    HW125541   3.595   3.529   3.712 -1.1730 -0.0146 -0.5936
 4694SOL    HW225542   3.530   3.397   3.727 -1.3517 -0.4337  2.2095
 4695SOL     OW25543   2.539   4.163   3.827 -0.0355  0.3653 -0.0589
 4695SOL    HW125544   2.566   4.076   3.854 -0.2712  0.8826  1.8748
 4695SOL    HW225545   2.620   4.205   3.796  0.4534 -1.2797 -1.0048
 4696SOL     OW25546   3.987   0.797   7.276  0.1787  0.4894 -0.1845
 4696SOL    HW125547   4.028   0.882   7.258  0.9034  0.3237  0.7153
 4696SOL    HW225548   4.061   0.739   7.258 -0.1288 -0.2134  0.7845
 4697SOL     OW25549   2.066   3.754   2.824  0.0236  0.2522  0.3057
 4697SOL    HW125550   2.069   3.754   2.728 -1.3166  1.2811  0.2495
 4697SOL    HW225551   2.038   3.663   2.834  0.6633  0.0907  0.5833
 4698SOL     OW25552   3.430   0.578   5.476 -0.3702 -0.2489 -0.0477
 4698SOL    HW125553   3.385   0.586   5.560  1.0342 -0.3065  0.7209
 4698SOL    HW225554   3.518   0.613   5.491 -0.4844  1.6614 -3.8990
 4699SOL     OW25555   1.844   0.062  11.662 -0.1626 -0.4591 -0.2203
 4699SOL    HW125556   1.822   0.083  11.753  0.4125 -0.4823 -0.0736
 4699SOL    HW225557   1.765   0.105  11.628  0.1422  1.4117  1.4111
 4700SOL     OW25558   2.187   3.036   8.476  0.5468  0.2406 -0.5923
 4700SOL    HW125559   2.246   3.001   8.543  2.1519  0.0719 -2.0584
 4700SOL    HW225560   2.206   2.976   8.403 -0.5724 -1.7624  0.7692
 4701SOL     OW25561   2.957   0.707  16.501  0.2740  0.0799  0.5350
 4701SOL    HW125562   3.029   0.769  16.489  2.7512 -2.3059  3.1323
 4701SOL    HW225563   2.927   0.732  16.589 -1.5153  0.3551 -0.1398
 4702SOL     OW25564   4.550   1.665   3.007  0.4466 -0.0581 -0.4561
 4702SOL    HW125565   4.538   1.577   2.973 -1.5038  0.3225 -0.7629
 4702SOL    HW225566   4.638   1.695   2.986 -0.4716  2.9793 -0.1168
 4703SOL     OW25567   2.803   0.986   2.657  0.4016 -0.3544 -0.1899
 4703SOL    HW125568   2.723   0.991   2.605 -1.5533  0.3834  2.9144
 4703SOL    HW225569   2.857   1.036   2.595  0.6695 -2.0528 -1.3302
 4704SOL     OW25570   2.686   3.165   2.789  0.4736  0.1676  0.2758
 4704SOL    HW125571   2.682   3.080   2.832 -4.3922  0.3636  0.2449
 4704SOL    HW225572   2.769   3.160   2.740 -0.8469  0.3733 -2.0032
 4705SOL     OW25573   4.686   0.433   1.864 -0.3027  0.0056 -0.1429
 4705SOL    HW125574   0.014   0.474   1.793 -1.2804 -0.5353 -1.1226
 4705SOL    HW225575   4.664   0.349   1.825  0.1642 -0.4536  0.5744
 4706SOL     OW25576   1.572   3.797  15.860 -0.0023 -0.1823  0.0151
 4706SOL    HW125577   1.588   3.753  15.944 -0.3986  1.1512  0.8015
 4706SOL    HW225578   1.531   3.731  15.804 -1.5626  1.5552 -0.8760
 4707SOL     OW25579   3.166   2.754  11.461 -0.2947  0.2752  0.7205
 4707SOL    HW125580   3.246   2.785  11.503  1.2623 -0.3082 -1.8139
 4707SOL    HW225581   3.187   2.661  11.461 -1.1954  0.0630 -0.3553
 4708SOL     OW25582   4.160   3.904   2.022 -0.1472  0.1218 -0.5803
 4708SOL    HW125583   4.099   3.974   1.999 -2.5020 -1.5361  0.5888
 4708SOL    HW225584   4.089   3.839   2.026  1.1956 -1.2692  0.7743
 4709SOL     OW25585   2.702   1.586  11.133 -0.2972  0.2070  0.4678
 4709SOL    HW125586   2.760   1.534  11.188  0.3292  0.1366 -0.2632
 4709SOL    HW225587   2.764   1.618  11.067 -0.5056  2.1243  1.2029
 4710SOL     OW25588   3.315   3.635   9.597 -0.1753 -0.3057 -0.0119
 4710SOL    HW125589   3.379   3.583   9.644  1.3987 -0.4908 -2.3556
 4710SOL    HW225590   3.274   3.566   9.544 -0.7638  0.0661 -0.0444
 4711SOL     OW25591   0.407   4.620   7.809 -0.0851 -0.7814 -0.0889
 4711SOL    HW125592   0.379   4.648   7.722  1.0221 -0.7799 -0.4528
 4711SOL    HW225593   0.365   4.687   7.863  2.9292 -0.7066  2.1505
 4712SOL     OW25594   4.719   1.560   4.476 -0.3408 -0.5123 -0.1343
 4712SOL    HW125595   0.019   1.560   4.383  0.5449  0.1492  0.0615
 4712SOL    HW225596   4.629   1.590   4.481  0.0611  0.5913  0.6814
 4713SOL     OW25597   3.686   0.236   4.703 -0.3192 -0.1554  0.1645
 4713SOL    HW125598   3.674   0.326   4.733 -0.9343 -0.7772  1.7918
 4713SOL    HW225599   3.672   0.189   4.786 -0.9152  0.1118  0.2199
 4714SOL     OW25600   3.573   3.890   5.955  0.7642 -0.1496 -0.0963
 4714SOL    HW125601   3.502   3.844   5.909  0.0303  1.6619 -0.7459
 4714SOL    HW225602   3.537   3.913   6.041  1.4298  0.4843  0.0086
 4715SOL     OW25603   0.117   3.770   4.765 -1.3851  0.4770  0.0125
 4715SOL    HW125604   0.162   3.854   4.752 -0.3800 -0.2530 -1.2117
 4715SOL    HW225605   0.184   3.716   4.808 -1.9075 -0.1001  0.0910
 4716SOL     OW25606   2.156   1.881   1.020 -0.0258  0.5884  0.0329
 4716SOL    HW125607   2.114   1.933   1.088  0.0429 -0.4897  0.9024
 4716SOL    HW225608   2.244   1.918   1.032 -0.2627  0.7990  1.0946
 4717SOL     OW25609   3.727   4.378  14.023  0.1841  0.1133  0.3474
 4717SOL    HW125610   3.789   4.391  13.951  2.0086 -0.5494  1.8024
 4717SOL    HW225611   3.655   4.432  13.991 -0.6519 -1.4213 -0.3031
 4718SOL     OW25612   0.102   1.010   2.374 -0.0924 -0.0272 -0.3039
 4718SOL    HW125613   0.087   0.945   2.443 -0.9410  0.1493 -0.3188
 4718SOL    HW225614   0.185   0.983   2.335 -0.7353  0.0728 -1.7718
 4719SOL     OW25615   1.504   0.771   8.955  0.3864  0.0503  0.4911
 4719SOL    HW125616   1.450   0.759   9.034 -0.9075  1.1520 -0.2354
 4719SOL    HW225617   1.462   0.845   8.911  0.6306 -1.2656 -1.9369
 4720SOL     OW25618   0.599   1.524  14.147  0.1853  0.3523  0.2485
 4720SOL    HW125619   0.685   1.510  14.187  0.6147 -0.9576 -1.1276
 4720SOL    HW225620   0.546   1.449  14.171 -1.0182  1.3992  0.8696
 4721SOL     OW25621   1.439   0.479  10.163  0.4963  0.2767 -0.1017
 4721SOL    HW125622   1.516   0.532  10.185  0.7707 -0.9737  1.9213
 4721SOL    HW225623   1.456   0.414  10.231  1.0496  0.3665 -0.1554
 4722SOL     OW25624   2.488   2.328  14.132  0.3995  0.6834 -0.1559
 4722SOL    HW125625   2.393   2.338  14.128  0.1551 -0.5660  2.1338
 4722SOL    HW225626   2.497   2.260  14.066 -1.8855 -0.1770  0.3959
 4723SOL     OW25627   0.943   3.690  12.097  0.5755 -0.1679 -0.2703
 4723SOL    HW125628   1.017   3.688  12.158  1.0835  2.5407 -0.8117
 4723SOL    HW225629   0.983   3.641  12.025  0.0869 -2.1787  0.8205
 4724SOL     OW25630   3.553   3.536   9.331 -0.0040 -0.1404 -0.3482
 4724SOL    HW125631   3.621   3.542   9.398 -1.9031 -0.7064  1.6407
 4724SOL    HW225632   3.524   3.627   9.337 -0.2609 -0.4901  3.6891
 4725SOL     OW25633   2.152   1.379  11.031  0.2621 -0.1255 -0.0021
 4725SOL    HW125634   2.213   1.374  10.957 -0.3621  0.1072 -0.5353
 4725SOL    HW225635   2.150   1.474  11.037 -0.0926 -0.0660 -0.9744
 4726SOL     OW25636   3.306   1.031  10.496  0.1690 -0.2249 -0.0672
 4726SOL    HW125637   3.314   0.994  10.408  1.8706 -1.4854  0.6139
 4726SOL    HW225638   3.216   1.063  10.493  1.2661  2.8232 -0.1671
 4727SOL     OW25639   2.794   3.237  15.144 -0.2305  1.1954  0.0177
 4727SOL    HW125640   2.835   3.242  15.057 -0.6979  0.3806 -0.2554
 4727SOL    HW225641   2.825   3.318  15.184  0.2907  0.6781  0.6589
 4728SOL     OW25642   2.949   4.398   8.857 -0.5081 -0.3723 -0.4736
 4728SOL    HW125643   2.955   4.422   8.949 -0.8568 -0.3369 -0.4608
 4728SOL    HW225644   2.880   4.458   8.827 -0.0965  1.4375  2.1452
 4729SOL     OW25645   4.472   3.485   8.857 -0.2122  0.4808  1.1116
 4729SOL    HW125646   4.492   3.579   8.860  2.2544 -0.0524  1.0552
 4729SOL    HW225647   4.386   3.482   8.900 -0.7114 -0.2127  0.0592
 4730SOL     OW25648   3.246   1.999  15.583  0.2177  0.1724 -0.2129
 4730SOL    HW125649   3.278   2.005  15.493 -0.4729 -1.8379 -0.6121
 4730SOL    HW225650   3.295   1.925  15.619  0.5817  0.7245  0.4127
 4731SOL     OW25651   3.836   1.782  13.503  0.2938  0.3446  0.0227
 4731SOL    HW125652   3.817   1.688  13.506 -1.1009  0.7037  2.6061
 4731SOL    HW225653   3.751   1.810  13.538  0.8344  0.3812  1.3152
 4732SOL     OW25654   0.558   0.127   9.207  0.7732  0.0420 -0.1893
 4732SOL    HW125655   0.603   0.087   9.132  0.2024 -0.1504 -0.4295
 4732SOL    HW225656   0.474   0.081   9.200  0.1565  1.0420  0.7090
 4733SOL     OW25657   0.809   2.810   4.128 -0.1629 -0.3622 -0.2081
 4733SOL    HW125658   0.760   2.743   4.175  1.5192 -1.4717 -0.0437
 4733SOL    HW225659   0.792   2.780   4.039 -1.1434  3.1440 -1.2078
 4734SOL     OW25660   0.390   2.762   3.662  0.1012 -0.1904 -0.5382
 4734SOL    HW125661   0.314   2.720   3.621  0.5797 -0.7046 -0.9020
 4734SOL    HW225662   0.419   2.824   3.595 -0.5104  1.8459  1.0934
 4735SOL     OW25663   2.372   2.545   3.431 -0.4981  0.0096  0.0585
 4735SOL    HW125664   2.368   2.453   3.458 -1.8681 -0.0117 -0.2318
 4735SOL    HW225665   2.382   2.579   3.520 -3.7038 -2.0454  1.2259
 4736SOL     OW25666   3.272   3.000   7.684 -0.0246 -0.0809 -0.8230
 4736SOL    HW125667   3.335   2.964   7.747 -0.4840 -0.7689 -0.7569
 4736SOL    HW225668   3.324   3.054   7.624 -1.1394  0.5153 -1.2409
 4737SOL     OW25669   1.441   1.598   8.197  0.2308  0.0719 -0.1735
 4737SOL    HW125670   1.472   1.507   8.204 -0.1006  0.1312  2.0481
 4737SOL    HW225671   1.434   1.611   8.102  0.0049 -0.9550 -0.3006
 4738SOL     OW25672   2.002   0.248   3.089 -0.9564 -0.0774 -0.4125
 4738SOL    HW125673   1.922   0.237   3.038 -1.1489 -0.0696 -0.1060
 4738SOL    HW225674   1.963   0.299   3.160 -0.3336 -2.6035  1.7382
 4739SOL     OW25675   2.727   0.020   5.939  0.5704 -0.0967 -0.0347
 4739SOL    HW125676   2.777   4.696   5.871 -0.1923 -1.6788  0.4547
 4739SOL    HW225677   2.783   4.707   6.009 -0.1868 -1.5239 -0.1404
 4740SOL     OW25678   3.292   1.142  11.044 -0.1519  0.3230  0.0748
 4740SOL    HW125679   3.226   1.100  11.100  0.1460  1.2538  1.1054
 4740SOL    HW225680   3.233   1.209  11.009 -0.4833 -0.1701 -0.3223
 4741SOL     OW25681   0.880   3.188   5.266 -0.3429 -0.3221 -0.7417
 4741SOL    HW125682   0.959   3.148   5.230  1.3674  2.8320 -0.5143
 4741SOL    HW225683   0.820   3.152   5.200 -1.6520  0.4794  0.0037
 4742SOL     OW25684   2.235   1.098   7.123  0.3157  0.0019  0.2002
 4742SOL    HW125685   2.328   1.116   7.109 -0.3290  1.6635 -1.9410
 4742SOL    HW225686   2.241   1.132   7.213  0.6471  1.8823 -0.5285
 4743SOL     OW25687   0.505   0.021   2.532 -0.5520 -0.1430 -0.1751
 4743SOL    HW125688   0.592   0.048   2.559 -0.5906 -0.6525  0.4523
 4743SOL    HW225689   0.515   0.029   2.437 -0.5688 -1.3734 -0.2858
 4744SOL     OW25690   2.570   0.632  15.987 -0.6882 -0.3461  0.1462
 4744SOL    HW125691   2.642   0.586  16.031 -0.2275  0.8440  0.6674
 4744SOL    HW225692   2.604   0.626  15.898  0.5250  2.6184  0.3879
 4745SOL     OW25693   3.036   3.084   4.430 -0.0181  0.3144 -0.3218
 4745SOL    HW125694   3.040   2.990   4.414  0.8606  0.1470  0.9622
 4745SOL    HW225695   3.025   3.123   4.343  1.6939  2.7869  0.5909
 4746SOL     OW25696   0.830   3.846   3.928 -0.1653 -0.3419 -0.4799
 4746SOL    HW125697   0.831   3.750   3.929 -1.1240 -0.3473  0.9260
 4746SOL    HW225698   0.801   3.868   4.017  0.9748 -0.7651 -0.0018
 4747SOL     OW25699   3.686   0.714   0.523 -0.0622  0.8144 -0.4149
 4747SOL    HW125700   3.632   0.640   0.495 -0.3785  0.9064 -0.0428
 4747SOL    HW225701   3.683   0.702   0.618  0.0596 -0.0389 -0.5160
 4748SOL     OW25702   0.934   1.542   5.412 -0.1639  0.2240  0.4970
 4748SOL    HW125703   0.932   1.467   5.471  1.3113 -0.2334 -0.0180
 4748SOL    HW225704   0.958   1.496   5.332 -0.7986  1.0044 -0.1470
 4749SOL     OW25705   4.039   3.480  16.139 -0.2632 -0.2833 -0.4599
 4749SOL    HW125706   3.994   3.553  16.096 -1.8453 -0.5166  0.8478
 4749SOL    HW225707   4.120   3.487  16.087  0.8993 -1.3744  1.2114
 4750SOL     OW25708   1.329   3.349   5.519  0.3341  0.6793 -0.1621
 4750SOL    HW125709   1.324   3.257   5.493  1.3433  0.9810 -1.4344
 4750SOL    HW225710   1.263   3.361   5.588 -0.1796 -2.0767 -0.1701
 4751SOL     OW25711   3.507   2.963   8.406 -0.1655 -0.0211  0.1375
 4751SOL    HW125712   3.571   2.987   8.472 -0.8932  2.7535 -0.1732
 4751SOL    HW225713   3.548   2.882   8.377  1.6515  1.2282 -0.8168
 4752SOL     OW25714   2.893   3.386   4.119 -0.0744 -0.2008  0.1410
 4752SOL    HW125715   2.927   3.340   4.042  0.0147 -2.1947  1.3867
 4752SOL    HW225716   2.801   3.365   4.107  0.1464 -1.1025  0.0878
 4753SOL     OW25717   0.746   1.394   3.317 -0.3003 -0.6483 -0.5201
 4753SOL    HW125718   0.801   1.372   3.392 -1.8796  1.5889  1.3137
 4753SOL    HW225719   0.812   1.388   3.248 -0.4074  0.8169 -0.7468
 4754SOL     OW25720   3.622   2.594  10.233  0.1305  0.2475  0.3856
 4754SOL    HW125721   3.541   2.614  10.186  0.1541 -0.0424  0.2242
 4754SOL    HW225722   3.651   2.681  10.262  1.8054 -0.3656  0.5912
 4755SOL     OW25723   1.354   4.487   5.454 -0.8738 -0.1650 -0.2481
 4755SOL    HW125724   1.390   4.515   5.538  0.6061 -1.6036 -0.3861
 4755SOL    HW225725   1.260   4.482   5.470 -0.6672 -3.2334 -0.0102
 4756SOL     OW25726   3.551   1.942   4.642  0.0311  0.2174  0.4693
 4756SOL    HW125727   3.595   1.863   4.611 -1.0580 -0.0017 -0.5029
 4756SOL    HW225728   3.518   1.917   4.728  1.4107 -2.1730  0.3025
 4757SOL     OW25729   2.074   3.133   9.542  0.3820  0.4141  0.2971
 4757SOL    HW125730   1.989   3.126   9.500  0.2579  0.3223  0.5617
 4757SOL    HW225731   2.078   3.229   9.541 -0.1243  0.4405  1.2254
 4758SOL     OW25732   1.191   0.431  15.446 -0.1924  0.0310 -0.5058
 4758SOL    HW125733   1.189   0.393  15.534  0.8156  0.0551 -0.4724
 4758SOL    HW225734   1.239   0.363  15.400 -0.9641 -0.9208  0.1031
 4759SOL     OW25735   3.679   2.739   0.212  0.0809 -0.3894 -0.3076
 4759SOL    HW125736   3.715   2.716   0.298 -1.3634  0.7536  0.6027
 4759SOL    HW225737   3.765   2.761   0.176  0.9600 -2.1435  0.6595
 4760SOL     OW25738   0.034   1.973   5.613  0.1681  0.1804 -0.4179
 4760SOL    HW125739   0.042   1.894   5.559  2.3238 -0.5416  0.9630
 4760SOL    HW225740   4.660   1.982   5.609  0.3753  2.2793 -0.6014
 4761SOL     OW25741   3.474   2.785   3.673  0.1921 -0.3377  0.0846
 4761SOL    HW125742   3.428   2.793   3.590  1.0620  1.5525 -0.2135
 4761SOL    HW225743   3.516   2.870   3.679  0.0580 -0.3509  1.1758
 4762SOL     OW25744   0.599   0.426   5.707  0.0526 -0.0943  0.0069
 4762SOL    HW125745   0.657   0.457   5.637  0.1587 -1.9299 -0.7159
 4762SOL    HW225746   0.651   0.423   5.787  0.1405  0.1605 -0.0398
 4763SOL     OW25747   3.096   4.365   8.000  0.5093  0.5612  0.5343
 4763SOL    HW125748   3.011   4.322   7.992  0.0454  1.1857  2.0604
 4763SOL    HW225749   3.152   4.303   8.047  1.1543 -0.4544 -1.5810
 4764SOL     OW25750   0.404   0.561  12.778 -0.0295  0.1590  0.2439
 4764SOL    HW125751   0.425   0.604  12.861 -2.5484 -0.5501  1.2235
 4764SOL    HW225752   0.356   0.483  12.806  1.9561 -0.5321  1.7228
 4765SOL     OW25753   3.997   3.198   6.576 -0.1299 -0.1684  0.2572
 4765SOL    HW125754   4.007   3.292   6.560 -0.9235 -0.3847 -1.4454
 4765SOL    HW225755   3.933   3.221   6.644 -0.6687  1.8032 -0.9161
 4766SOL     OW25756   2.430   4.650   4.856  0.3087  0.2881  0.0471
 4766SOL    HW125757   2.462   0.011   4.819 -0.0596 -0.0073 -0.9336
 4766SOL    HW225758   2.409   4.602   4.777 -0.1927  0.7669 -0.1120
 4767SOL     OW25759   2.525   0.930   2.569  0.3159 -0.3441  0.3807
 4767SOL    HW125760   2.482   0.943   2.653  1.8985  1.6985  0.8739
 4767SOL    HW225761   2.449   0.928   2.511  2.1838  0.1205 -2.0799
 4768SOL     OW25762   3.631   0.078  12.156  0.2046  0.2938  0.1825
 4768SOL    HW125763   3.562   0.032  12.204 -0.4615 -0.9065 -1.9315
 4768SOL    HW225764   3.714   0.037  12.180  1.1543  0.3516 -2.9214
 4769SOL     OW25765   2.606   3.508  11.355  0.0311 -0.6548  0.5210
 4769SOL    HW125766   2.544   3.543  11.291 -0.8003 -2.0110  0.5939
 4769SOL    HW225767   2.558   3.428  11.376 -0.0100 -1.0770 -1.1289
 4770SOL     OW25768   2.664   1.130   8.182 -0.5488  0.2014  0.4617
 4770SOL    HW125769   2.592   1.077   8.215 -1.1489  0.8123  0.1294
 4770SOL    HW225770   2.680   1.171   8.267  1.7596  2.1426 -0.9200
 4771SOL     OW25771   0.916   4.591   9.202  0.3672 -0.5938  0.3769
 4771SOL    HW125772   0.847   4.558   9.259  3.0238 -0.4050  3.6920
 4771SOL    HW225773   0.912   4.531   9.128  0.8832 -0.3908  0.1776
 4772SOL     OW25774   4.376   4.454   4.731  0.4139  0.1012 -0.2264
 4772SOL    HW125775   4.289   4.454   4.772  0.4309  2.7289 -0.1896
 4772SOL    HW225776   4.416   4.408   4.804 -0.9102 -3.1471 -1.5678
 4773SOL     OW25777   2.149   4.296  11.880  0.1263  0.1360 -0.6926
 4773SOL    HW125778   2.152   4.240  11.802  1.9308 -1.4283  0.5069
 4773SOL    HW225779   2.062   4.288  11.917 -0.0072  0.4822 -0.9307
 4774SOL     OW25780   1.583   2.498   4.556 -0.4989 -0.2662  0.6604
 4774SOL    HW125781   1.645   2.513   4.485  1.0273 -2.9036  1.4314
 4774SOL    HW225782   1.500   2.492   4.508 -0.9675  0.8787  1.3227
 4775SOL     OW25783   0.557   2.440   3.368  0.0374  0.4626 -0.9034
 4775SOL    HW125784   0.469   2.468   3.342 -0.6860 -1.4002 -0.4946
 4775SOL    HW225785   0.562   2.350   3.335  1.5537  0.0394  0.4761
 4776SOL     OW25786   0.577   0.703   3.572 -0.3064  0.0621 -0.1986
 4776SOL    HW125787   0.627   0.624   3.550  1.1084  0.5175  1.3419
 4776SOL    HW225788   0.640   0.775   3.570 -0.2655  0.1017  2.2531
 4777SOL     OW25789   2.906   0.614   2.204  0.2188  0.1831 -0.7651
 4777SOL    HW125790   2.951   0.580   2.281 -2.0985 -0.9176  0.1230
 4777SOL    HW225791   2.847   0.538   2.206  3.0495 -1.9810  0.3332
 4778SOL     OW25792   4.303   1.215   3.023 -0.0278  0.0711 -0.1551
 4778SOL    HW125793   4.287   1.139   3.080  0.1512 -0.1664 -0.4237
 4778SOL    HW225794   4.233   1.195   2.961 -0.6052  0.5051  0.3539
 4779SOL     OW25795   1.069   2.856  10.812  0.1097 -0.2436  0.3115
 4779SOL    HW125796   1.160   2.880  10.794 -0.3692  0.0674 -1.7942
 4779SOL    HW225797   1.076   2.829  10.903 -0.5851 -2.5383 -0.2968
 4780SOL     OW25798   2.618   4.236   8.037 -0.3187 -0.1681  0.2260
 4780SOL    HW125799   2.553   4.300   8.007 -0.0838  0.3922  0.9124
 4780SOL    HW225800   2.572   4.206   8.114  0.7826  3.0025  2.1154
 4781SOL     OW25801   3.148   4.417   8.524 -0.4857  0.5482 -0.7529
 4781SOL    HW125802   3.109   4.466   8.596 -1.0721 -0.8654 -0.1075
 4781SOL    HW225803   3.237   4.451   8.519 -0.4029  0.7232  2.1214
 4782SOL     OW25804   3.114   2.849   1.123  0.5833  0.4511 -0.3462
 4782SOL    HW125805   3.038   2.794   1.105 -0.7417  2.3361 -0.4449
 4782SOL    HW225806   3.135   2.874   1.033  0.8509  1.3230 -0.0371
 4783SOL     OW25807   1.280   4.486   4.853 -0.0090 -0.3441 -0.0353
 4783SOL    HW125808   1.228   4.432   4.914  0.0642  0.9687  1.1873
 4783SOL    HW225809   1.360   4.450   4.893  0.4822  1.2399  0.3980
 4784SOL     OW25810   4.491   0.045  15.683 -0.0449  0.3157 -0.0211
 4784SOL    HW125811   4.539   0.050  15.600 -1.1520 -4.1838 -0.9324
 4784SOL    HW225812   4.448   0.131  15.680 -1.7753 -0.6005 -2.0675
 4785SOL     OW25813   1.635   2.808   7.540  0.1801  0.5753 -0.2503
 4785SOL    HW125814   1.568   2.873   7.563 -0.4679  0.4471 -1.7598
 4785SOL    HW225815   1.588   2.724   7.535  2.3237 -0.5648 -1.0453
 4786SOL     OW25816   0.068   2.230   5.422 -0.0174  0.2683 -0.3256
 4786SOL    HW125817   4.703   2.229   5.381  0.1719 -3.3585 -0.6327
 4786SOL    HW225818   0.124   2.257   5.350  1.0371  0.1057  0.4207
 4787SOL     OW25819   1.303   3.268   0.390  0.6409 -0.6438 -0.2521
 4787SOL    HW125820   1.307   3.303   0.479  0.4669 -0.8194 -0.1758
 4787SOL    HW225821   1.243   3.323   0.340  2.0860  0.0773 -1.1858
 4788SOL     OW25822   0.089   0.865   4.785  0.0550  0.2421 -0.2106
 4788SOL    HW125823   0.055   0.949   4.814  1.2017  1.1725 -1.5993
 4788SOL    HW225824   0.147   0.838   4.857 -0.4763  0.2774  0.2373
 4789SOL     OW25825   0.643   4.358   3.877 -0.0355 -0.1997 -0.1386
 4789SOL    HW125826   0.679   4.422   3.815 -0.8470  0.6311  0.2535
 4789SOL    HW225827   0.709   4.375   3.944 -0.6778  0.3724  0.3511
 4790SOL     OW25828   0.267   0.108  11.907  0.3213  0.3321 -0.2601
 4790SOL    HW125829   0.361   0.106  11.888  0.9758  0.1261  3.1148
 4790SOL    HW225830   0.226   0.070  11.830  0.2881  0.3942 -0.2736
 4791SOL     OW25831   2.672   1.242   7.151 -0.6525 -0.2936 -0.5573
 4791SOL    HW125832   2.651   1.317   7.096 -0.6740  0.2729  0.2236
 4791SOL    HW225833   2.597   1.186   7.130 -1.3581 -0.0303  1.2481
 4792SOL     OW25834   1.110   4.354  14.415  0.3085 -0.0303 -0.5540
 4792SOL    HW125835   1.049   4.420  14.382 -1.6809 -0.5408  2.1057
 4792SOL    HW225836   1.191   4.404  14.415  0.2216  0.1144 -2.7347
 4793SOL     OW25837   3.225   0.006  10.187  0.2861 -0.1601  0.0900
 4793SOL    HW125838   3.286   4.689  10.249 -1.0885 -1.7266  0.4963
 4793SOL    HW225839   3.283   0.054  10.129 -1.8029  1.8041 -0.3767
 4794SOL     OW25840   1.409   1.680   6.184 -0.5950 -0.4197  0.2259
 4794SOL    HW125841   1.452   1.619   6.243 -0.5752 -1.5439 -0.9487
 4794SOL    HW225842   1.387   1.632   6.104 -0.9653 -0.7667  0.5336
 4795SOL     OW25843   3.140   1.166  15.076  0.0467 -0.3410  0.4471
 4795SOL    HW125844   3.141   1.246  15.022  0.7884 -0.3803  0.4039
 4795SOL    HW225845   3.168   1.199  15.161  0.0923  0.5208  0.1041
 4796SOL     OW25846   1.912   2.651  16.885 -0.0687  0.6880 -0.2495
 4796SOL    HW125847   1.859   2.652  16.805 -1.3345  0.7746  0.5909
 4796SOL    HW225848   1.992   2.620  16.843 -1.1381 -0.3830 -1.4906
 4797SOL     OW25849   1.770   1.369   7.404  0.0787 -0.5785  0.1868
 4797SOL    HW125850   1.762   1.300   7.469 -0.7022  0.0027  0.7044
 4797SOL    HW225851   1.683   1.408   7.399 -0.3678 -1.7522 -1.1119
 4798SOL     OW25852   1.113   3.344   2.981  0.0900  0.1558 -0.0770
 4798SOL    HW125853   1.195   3.330   2.932  1.3028 -0.5880  2.1746
 4798SOL    HW225854   1.129   3.281   3.051 -2.1019 -1.5378 -1.0983
 4799SOL     OW25855   2.828   4.225   8.555  0.0119 -0.0347 -0.2970
 4799SOL    HW125856   2.916   4.220   8.519  0.8406  0.4668  1.6673
 4799SOL    HW225857   2.809   4.132   8.539  0.2682  0.0342 -0.9635
 4800SOL     OW25858   3.245   4.100  14.465 -0.1357 -0.3434  0.3022
 4800SOL    HW125859   3.281   4.011  14.461 -1.5507 -0.9489  1.1193
 4800SOL    HW225860   3.232   4.116  14.371  2.0526 -2.0439 -0.3143
 4801SOL     OW25861   0.192   4.048   3.368 -0.2021  0.2992 -0.5161
 4801SOL    HW125862   0.123   4.043   3.434 -0.0745  0.8883 -0.3412
 4801SOL    HW225863   0.266   4.060   3.427 -0.0614  0.7445 -0.7871
 4802SOL     OW25864   1.565   3.653   4.835 -0.3453 -0.4657 -0.1664
 4802SOL    HW125865   1.556   3.566   4.796  1.6932 -0.8495  0.2438
 4802SOL    HW225866   1.493   3.654   4.898 -1.8736  0.2651 -1.9328
 4803SOL     OW25867   2.013   2.155  10.117 -0.2946 -0.3769 -0.5599
 4803SOL    HW125868   1.990   2.076  10.068 -1.0432 -0.0847 -0.6790
 4803SOL    HW225869   1.946   2.161  10.185 -0.1276  1.3684 -0.5507
 4804SOL     OW25870   1.386   4.212  15.063  0.3519  0.3609 -0.1756
 4804SOL    HW125871   1.384   4.228  15.157  0.9943 -1.7700  0.1999
 4804SOL    HW225872   1.304   4.256  15.037  0.5623 -0.4042 -2.1378
 4805SOL     OW25873   1.706   1.089   7.225 -0.1486  0.4411  0.3046
 4805SOL    HW125874   1.650   1.167   7.232 -0.0343  0.7727 -2.4282
 4805SOL    HW225875   1.721   1.068   7.317 -0.7627  1.5306  0.6536
 4806SOL     OW25876   0.044   2.608  17.431 -0.2160  0.2256  0.3480
 4806SOL    HW125877   0.126   2.623  17.478  0.7197 -0.4672 -1.0681
 4806SOL    HW225878   0.010   2.695  17.411  1.0134  0.0767 -2.4223
 4807SOL     OW25879   3.157   0.771   2.276 -0.2271  0.0389 -0.3512
 4807SOL    HW125880   3.188   0.681   2.281 -2.3427 -0.7366 -1.0337
 4807SOL    HW225881   3.064   0.766   2.251 -0.4854 -0.0564  0.6000
 4808SOL     OW25882   2.452   0.931   1.793 -0.2986 -0.0918  0.0956
 4808SOL    HW125883   2.374   0.932   1.738 -1.0856  4.1100  1.3154
 4808SOL    HW225884   2.449   0.843   1.830 -2.0480 -0.3995 -0.7828
 4809SOL     OW25885   1.523   1.189   6.746  0.1878 -0.0918  0.0917
 4809SOL    HW125886   1.481   1.232   6.821  1.6085 -0.6204  1.1894
 4809SOL    HW225887   1.544   1.103   6.783 -0.4519 -0.6926 -0.9396
 4810SOL     OW25888   3.115   1.290   0.099 -0.3099 -0.3367  0.1218
 4810SOL    HW125889   3.111   1.248   0.013  3.4138 -1.3240  0.4134
 4810SOL    HW225890   3.185   1.238   0.140  1.3806  1.9167  0.0903
 4811SOL     OW25891   0.457   0.676  13.014  0.5443 -0.0321  1.1053
 4811SOL    HW125892   0.418   0.763  13.020  0.5228 -0.0602  1.3600
 4811SOL    HW225893   0.551   0.694  13.004  0.8259 -1.7212  0.6249
 4812SOL     OW25894   2.908   4.646  11.351  0.1093 -0.0849  0.1237
 4812SOL    HW125895   2.852   4.629  11.426  2.8340  2.2843  2.6846
 4812SOL    HW225896   2.971   4.695  11.403  0.8744 -1.1477  0.2144
 4813SOL     OW25897   0.437   2.165  13.461 -0.1450 -0.2738  0.2839
 4813SOL    HW125898   0.454   2.095  13.524  2.2874 -1.2322 -1.4367
 4813SOL    HW225899   0.495   2.132  13.393  2.5122  1.5681  1.6346
 4814SOL     OW25900   0.527   3.775  15.634  0.3923  0.4410 -0.3170
 4814SOL    HW125901   0.563   3.765  15.723  1.6305  0.0267 -0.8533
 4814SOL    HW225902   0.498   3.685  15.619  2.4339 -0.1583 -0.7067
 4815SOL     OW25903   3.762   3.602  14.101  0.6187  0.1316 -0.2652
 4815SOL    HW125904   3.685   3.546  14.093  0.2735  0.1004  3.0826
 4815SOL    HW225905   3.781   3.589  14.194 -1.6658 -2.3166 -0.1456
 4816SOL     OW25906   1.632   0.984   6.957  0.4031 -0.1022 -0.4756
 4816SOL    HW125907   1.624   1.048   7.028  1.9851  0.7036 -1.0240
 4816SOL    HW225908   1.603   0.905   7.003  2.3562 -0.6005 -0.0926
 4817SOL     OW25909   2.010   2.166   4.179  0.0122  0.6574  0.0414
 4817SOL    HW125910   1.969   2.161   4.093 -1.0411  0.1595  0.5733
 4817SOL    HW225911   2.032   2.074   4.192  0.0898  0.7079  0.2617
 4818SOL     OW25912   0.421   2.312  14.372  0.8142  0.1537 -0.4427
 4818SOL    HW125913   0.351   2.259  14.409 -0.7848  0.6521 -2.7512
 4818SOL    HW225914   0.365   2.372  14.322 -2.5928 -1.0890  1.8808
 4819SOL     OW25915   3.662   0.744  17.134 -0.4031 -0.1052 -0.5685
 4819SOL    HW125916   3.754   0.718  17.131 -1.4863 -4.1485  2.3141
 4819SOL    HW225917   3.669   0.797  17.054 -1.5473 -0.4843 -0.9223
 4820SOL     OW25918   1.728   4.598   3.201  0.0845  0.3033 -0.1578
 4820SOL    HW125919   1.731   4.560   3.289  1.4024 -0.3336 -0.4791
 4820SOL    HW225920   1.818   4.604   3.168 -0.2617  0.7672 -1.0287
 4821SOL     OW25921   1.358   3.257   2.548  0.1148  0.0921 -0.3462
 4821SOL    HW125922   1.384   3.296   2.465  1.0759 -1.1294 -0.6359
 4821SOL    HW225923   1.265   3.270   2.533  0.4810  2.6793 -0.2383
 4822SOL     OW25924   2.750   3.506   3.338 -0.2946  0.2341 -0.8191
 4822SOL    HW125925   2.697   3.582   3.362 -1.4620 -0.5305 -0.9447
 4822SOL    HW225926   2.689   3.435   3.361  0.6927 -0.2125  0.3927
 4823SOL     OW25927   3.695   3.215   5.580 -0.0690 -0.0561 -0.4908
 4823SOL    HW125928   3.646   3.275   5.523 -2.1581  1.8179  3.2608
 4823SOL    HW225929   3.642   3.137   5.597  1.7669 -0.9563  1.0988
 4824SOL     OW25930   2.614   3.372   6.924 -0.2418  0.2752  0.4791
 4824SOL    HW125931   2.560   3.393   6.848 -0.6505  1.3492  1.0582
 4824SOL    HW225932   2.631   3.457   6.965 -1.1209  0.5698  0.2486
 4825SOL     OW25933   3.412   1.449   2.856 -0.1461  0.2515 -0.2234
 4825SOL    HW125934   3.470   1.394   2.805 -1.3224 -1.1623 -0.0394
 4825SOL    HW225935   3.471   1.453   2.930  0.8970 -1.3224 -0.9757
 4826SOL     OW25936   4.684   1.963   5.236 -0.7116 -0.1868  0.0986
 4826SOL    HW125937   4.646   2.042   5.275  0.8453  0.1021  1.0491
 4826SOL    HW225938   4.673   1.892   5.300 -1.4571 -0.4849 -0.3632
 4827SOL     OW25939   2.087   4.016   3.245 -0.1397  0.0759  0.3251
 4827SOL    HW125940   2.034   3.984   3.172  0.2124  2.2680 -0.8696
 4827SOL    HW225941   2.166   4.040   3.195 -0.8318  0.2192 -0.6981
 4828SOL     OW25942   0.623   2.070   2.895 -0.0725 -0.4109 -0.0012
 4828SOL    HW125943   0.587   1.988   2.862 -1.7500 -0.7646  2.6146
 4828SOL    HW225944   0.642   2.107   2.809 -0.2625 -1.3501 -0.4425
 4829SOL     OW25945   1.143   3.629   7.449  0.3519  0.4591 -0.1951
 4829SOL    HW125946   1.179   3.686   7.518  1.6107  0.5547 -0.9190
 4829SOL    HW225947   1.121   3.543   7.484  0.9637  0.3436 -0.0758
 4830SOL     OW25948   0.875   2.961  12.183 -0.2657 -0.2719 -0.0164
 4830SOL    HW125949   0.791   2.918  12.170 -0.3087 -0.1445 -0.1711
 4830SOL    HW225950   0.868   3.045  12.138  0.4804 -0.0257  0.3174
 4831SOL     OW25951   4.549   0.833   3.394  0.1070 -0.8241 -0.4377
 4831SOL    HW125952   4.459   0.866   3.399  0.5044  0.1008  0.5900
 4831SOL    HW225953   4.598   0.908   3.360 -0.1815 -2.0090 -3.5062
 4832SOL     OW25954   1.779   0.310   2.406  0.1192 -0.4098 -0.0987
 4832SOL    HW125955   1.838   0.246   2.444  2.7410  0.6175 -2.4298
 4832SOL    HW225956   1.741   0.265   2.331 -0.3660 -1.7886  0.9831
 4833SOL     OW25957   3.634   2.498  13.574  0.1500 -0.7946  0.2523
 4833SOL    HW125958   3.654   2.415  13.531  0.8986 -0.5575  0.1575
 4833SOL    HW225959   3.586   2.538  13.501 -0.3705  0.6077  1.3729
 4834SOL     OW25960   4.293   3.314  10.007  0.4068 -0.0001  0.0122
 4834SOL    HW125961   4.237   3.388   9.983 -1.0154 -1.0720  0.0132
 4834SOL    HW225962   4.375   3.358  10.027 -0.0748  1.9924 -2.3646
 4835SOL     OW25963   4.597   3.098   2.802 -0.1577  0.2621  0.0220
 4835SOL    HW125964   4.674   3.143   2.768 -0.5485  0.6867 -0.3047
 4835SOL    HW225965   4.554   3.168   2.851 -0.2780  0.0257  0.2582
 4836SOL     OW25966   0.756   3.904   5.400  0.3882 -0.1944  0.1634
 4836SOL    HW125967   0.692   3.975   5.392  0.1949 -0.2620  1.0674
 4836SOL    HW225968   0.815   3.933   5.331 -0.6265 -1.3472 -1.1701
 4837SOL     OW25969   3.663   1.917   5.421 -0.5383 -0.3258 -0.6714
 4837SOL    HW125970   3.698   2.006   5.408 -1.3164 -0.1287 -1.3725
 4837SOL    HW225971   3.570   1.931   5.408 -0.2244  0.4423 -2.1404
 4838SOL     OW25972   3.992   1.791   9.297 -0.0243  0.1482  0.0007
 4838SOL    HW125973   3.949   1.716   9.257  1.1525 -0.2696 -0.4858
 4838SOL    HW225974   3.972   1.786   9.390 -1.1883 -1.4184 -0.3296
 4839SOL     OW25975   0.238   0.702   8.059 -0.2241  0.0139  0.1607
 4839SOL    HW125976   0.201   0.725   8.144 -0.1190  2.7567 -0.5174
 4839SOL    HW225977   0.159   0.681   8.008 -0.4166  2.1365 -0.4281
 4840SOL     OW25978   3.915   1.049   3.242 -0.2760  0.1051 -0.0991
 4840SOL    HW125979   3.929   1.104   3.165 -1.2987 -2.7638 -2.3178
 4840SOL    HW225980   3.921   0.960   3.208 -2.1860 -0.8939  2.1648
 4841SOL     OW25981   1.240   2.513   2.583  0.5301 -0.1832 -0.2332
 4841SOL    HW125982   1.196   2.534   2.666  0.1911 -3.0354  0.3138
 4841SOL    HW225983   1.322   2.486   2.625 -1.7183 -2.3436  2.8081
 4842SOL     OW25984   3.508   3.128   9.996  0.6737  0.0246 -0.0311
 4842SOL    HW125985   3.419   3.123   9.963  1.1824  1.5255 -1.6678
 4842SOL    HW225986   3.548   3.047   9.966 -2.4920 -1.0348 -1.3551
 4843SOL     OW25987   1.247   4.197   6.097 -0.2391  0.5307  0.0689
 4843SOL    HW125988   1.251   4.251   6.017 -0.5581  1.3505  0.6135
 4843SOL    HW225989   1.187   4.127   6.072 -1.1486  0.8037  1.5206
 4844SOL     OW25990   2.568   3.583   4.020  0.1689  0.4071 -0.4012
 4844SOL    HW125991   2.544   3.491   4.024  3.1531 -0.2896  1.0540
 4844SOL    HW225992   2.602   3.595   4.109  1.2935 -1.7686 -0.5526
 4845SOL     OW25993   2.217   3.303  11.495 -0.1083  0.3731  0.0606
 4845SOL    HW125994   2.306   3.272  11.477 -0.8452 -1.4356 -0.5546
 4845SOL    HW225995   2.177   3.216  11.500 -1.9538  1.2175 -0.1408
 4846SOL     OW25996   1.100   4.177   7.298 -0.6826 -1.0065 -0.1330
 4846SOL    HW125997   1.173   4.226   7.336 -0.5700 -0.7671 -0.6592
 4846SOL    HW225998   1.096   4.093   7.344  0.3209 -0.6665  0.5819
 4847SOL     OW25999   0.991   2.693   3.008 -0.3292 -0.2378 -0.1773
 4847SOL    HW126000   0.902   2.698   2.975 -1.3552 -0.8265  2.5460
 4847SOL    HW226001   0.977   2.652   3.093 -1.5109 -1.7853 -1.1149
 4848SOL     OW26002   3.147   1.207   8.206  0.0324  0.1797 -0.0530
 4848SOL    HW126003   3.085   1.221   8.276  0.9690  0.6258  0.6869
 4848SOL    HW226004   3.118   1.271   8.141 -0.8618 -1.2463 -1.0556
 4849SOL     OW26005   3.511   1.771  12.244  0.5645 -0.8423 -0.1461
 4849SOL    HW126006   3.459   1.748  12.321  0.6179  1.6533  0.6275
 4849SOL    HW226007   3.523   1.687  12.199  0.0922  0.1205 -2.0665
 4850SOL     OW26008   1.218   3.339   3.883 -0.0093 -0.2548  0.1620
 4850SOL    HW126009   1.310   3.326   3.863  0.0598  0.5017 -0.0237
 4850SOL    HW226010   1.193   3.370   3.796  1.4154 -1.4159 -0.6675
 4851SOL     OW26011   1.645   0.909  16.841 -0.4254  0.1257  0.3052
 4851SOL    HW126012   1.730   0.904  16.883  0.8571  0.3806 -2.2352
 4851SOL    HW226013   1.590   0.835  16.867  1.6628 -1.6004 -0.1689
 4852SOL     OW26014   3.279   4.050   3.033  0.2220 -0.1586 -0.2581
 4852SOL    HW126015   3.335   4.127   3.021 -2.4353  1.9844  1.2986
 4852SOL    HW226016   3.240   4.038   2.946  0.9209 -1.4576 -0.3946
 4853SOL     OW26017   4.678   1.664   3.827 -0.4226  0.0137 -0.0096
 4853SOL    HW126018   4.589   1.697   3.829 -0.3869  0.1607 -1.0276
 4853SOL    HW226019   4.720   1.734   3.777 -0.2640  0.3182  0.5413
 4854SOL     OW26020   3.662   1.157  12.403 -0.0436 -0.5890 -0.6321
 4854SOL    HW126021   3.621   1.244  12.410  1.1142 -0.0979  0.1361
 4854SOL    HW226022   3.737   1.184  12.457  2.9453 -1.1386 -4.5129
 4855SOL     OW26023   4.157   0.833   2.714 -0.1077 -0.1590 -0.8973
 4855SOL    HW126024   4.141   0.746   2.752 -1.9882  0.4542 -0.2971
 4855SOL    HW226025   4.099   0.892   2.762 -1.6098 -2.8922  0.6271
 4856SOL     OW26026   3.089   2.261   8.228  0.0607 -0.0470  0.2452
 4856SOL    HW126027   3.096   2.172   8.194  2.9128 -0.0195  0.7771
 4856SOL    HW226028   3.026   2.298   8.166  0.9026 -0.8180 -1.0634
 4857SOL     OW26029   0.548   3.657   9.819 -0.3028 -0.0488  0.0909
 4857SOL    HW126030   0.574   3.595   9.750  0.8272 -0.2346  0.6873
 4857SOL    HW226031   0.575   3.741   9.783  0.3412 -1.5164 -2.8791
 4858SOL     OW26032   4.129   3.348   4.724 -0.5005 -0.5459 -0.0484
 4858SOL    HW126033   4.199   3.318   4.665  0.0020 -0.2565  0.4083
 4858SOL    HW226034   4.096   3.419   4.670  1.3355 -0.7739 -1.4806
 4859SOL     OW26035   0.655   3.820   1.724  0.0235  0.0607 -0.1715
 4859SOL    HW126036   0.699   3.762   1.662 -0.6558  1.0603 -1.5663
 4859SOL    HW226037   0.722   3.823   1.793 -1.2029 -0.3065  1.0370
 4860SOL     OW26038   0.337   3.050   4.528 -0.5062 -0.2957 -0.0262
 4860SOL    HW126039   0.296   2.964   4.534 -0.3554 -0.4148 -0.6946
 4860SOL    HW226040   0.289   3.103   4.465 -1.2287 -3.7729 -2.4086
 4861SOL     OW26041   4.184   4.360   2.695 -0.1907 -0.5967 -0.4698
 4861SOL    HW126042   4.169   4.300   2.622 -1.2429 -2.9680  1.7429
 4861SOL    HW226043   4.280   4.363   2.694 -0.1608 -1.5477  0.0299
 4862SOL     OW26044   0.430   4.135   5.065 -0.0136 -0.1576 -0.3798
 4862SOL    HW126045   0.506   4.098   5.110 -0.7789 -2.3496 -0.8738
 4862SOL    HW226046   0.450   4.228   5.078 -1.1974  0.2303 -1.3286
 4863SOL     OW26047   3.275   1.123   5.129  0.2697 -0.7985  0.0546
 4863SOL    HW126048   3.188   1.163   5.126  0.7864  0.4096  1.1796
 4863SOL    HW226049   3.313   1.179   5.197  0.2836 -0.2876 -0.3735
 4864SOL     OW26050   4.588   4.334   8.098  0.4785 -0.5302 -0.1615
 4864SOL    HW126051   4.504   4.306   8.135  0.2462  1.4345  0.8110
 4864SOL    HW226052   4.601   4.262   8.037 -1.2521 -0.3442 -0.7560
 4865SOL     OW26053   3.028   0.406   1.879  0.5135 -0.0139  0.1257
 4865SOL    HW126054   3.118   0.429   1.903  0.4576 -1.1632  1.4228
 4865SOL    HW226055   2.974   0.484   1.892  0.2212 -0.1539 -0.2440
 4866SOL     OW26056   4.190   1.408   6.569 -0.3003 -0.1374  0.4905
 4866SOL    HW126057   4.160   1.360   6.646 -2.3288  0.1989 -0.0976
 4866SOL    HW226058   4.128   1.379   6.503 -1.4243  0.5881  1.2342
 4867SOL     OW26059   0.614   0.709   6.733 -0.1816  0.1764  0.1053
 4867SOL    HW126060   0.656   0.623   6.736  0.4693  0.5285  1.0789
 4867SOL    HW226061   0.690   0.765   6.718 -0.4175  0.1095 -1.3071
 4868SOL     OW26062   1.825   0.633   7.800 -0.5987 -0.1632  0.5685
 4868SOL    HW126063   1.813   0.601   7.889  1.2983 -1.8200  0.2348
 4868SOL    HW226064   1.903   0.584   7.771 -0.1167 -0.0697  1.7268
 4869SOL     OW26065   1.068   3.409   6.115  0.6835  0.2663 -0.1229
 4869SOL    HW126066   1.126   3.381   6.045  1.4146  1.7527 -0.1104
 4869SOL    HW226067   1.005   3.337   6.114  1.2067 -0.1296 -2.4050
 4870SOL     OW26068   2.587   4.557   3.623  0.2453  0.1058 -0.6294
 4870SOL    HW126069   2.529   4.518   3.558 -0.6252  1.8215 -0.8526
 4870SOL    HW226070   2.530   4.566   3.699  0.7111  0.2097 -0.2854
 4871SOL     OW26071   1.401   3.403   8.702 -0.3019 -0.2875 -0.1293
 4871SOL    HW126072   1.455   3.481   8.689 -1.3940  0.3981 -0.5851
 4871SOL    HW226073   1.395   3.387   8.796  0.7152  1.4788  0.2427
 4872SOL     OW26074   2.240   0.250   1.766  0.3719  0.1358 -0.3671
 4872SOL    HW126075   2.329   0.284   1.753  0.4339  0.3225  0.5607
 4872SOL    HW226076   2.231   0.192   1.690  0.0808 -1.4100  0.8646
 4873SOL     OW26077   4.152   0.430  15.359  0.2352  0.8744  0.4438
 4873SOL    HW126078   4.210   0.462  15.428  1.5934 -2.5368  0.9213
 4873SOL    HW226079   4.104   0.511  15.340  0.4366  1.4667  2.4518
 4874SOL     OW26080   1.445   4.290  16.698 -0.2292  0.3954  0.5868
 4874SOL    HW126081   1.433   4.291  16.603 -1.5918 -1.2810  0.7295
 4874SOL    HW226082   1.468   4.379  16.722 -0.2332  1.0306 -1.8023
 4875SOL     OW26083   4.404   3.072   5.538  0.0252 -0.1804  0.6207
 4875SOL    HW126084   4.490   3.051   5.574  1.1038 -0.3035 -1.9768
 4875SOL    HW226085   4.418   3.075   5.443  1.7309 -0.8291  0.8588
 4876SOL     OW26086   2.210   1.471   3.955  0.1624  1.1075  0.0963
 4876SOL    HW126087   2.202   1.402   3.889  1.2247  0.6348  0.4583
 4876SOL    HW226088   2.257   1.537   3.903 -0.3289  0.3366 -1.3161
 4877SOL     OW26089   0.075   1.977   6.811 -0.1621  0.4239 -0.0285
 4877SOL    HW126090   0.115   2.010   6.892  1.7169 -0.3157 -0.6378
 4877SOL    HW226091   0.064   1.885   6.835 -0.0568  0.0013 -1.5855
 4878SOL     OW26092   1.156   1.101   4.901 -0.5691 -0.1422  0.2900
 4878SOL    HW126093   1.234   1.046   4.890  0.4928  1.2540  0.9522
 4878SOL    HW226094   1.172   1.126   4.992  1.2031 -1.3102  0.2944
 4879SOL     OW26095   1.961   4.111   7.888 -0.1588  0.4057  0.1571
 4879SOL    HW126096   1.943   4.201   7.859  0.8417  1.2548  2.1381
 4879SOL    HW226097   1.901   4.095   7.961  0.9279 -1.0152  0.7377
 4880SOL     OW26098   0.429   0.959  13.065  0.1869 -0.1315  0.0716
 4880SOL    HW126099   0.481   0.946  12.986  1.4459  0.7017  0.7581
 4880SOL    HW226100   0.472   1.039  13.094 -1.9243  0.9222  0.3446
 4881SOL     OW26101   3.656   4.587   2.698  0.8010 -0.4871 -0.0586
 4881SOL    HW126102   3.738   4.537   2.708  0.2545 -2.0149 -3.1797
 4881SOL    HW226103   3.693   4.674   2.688  1.0523 -0.7687 -1.5989
 4882SOL     OW26104   4.053   3.404   4.412 -0.0467 -0.4007 -0.1334
 4882SOL    HW126105   4.010   3.441   4.335 -0.0294 -2.1295 -0.9920
 4882SOL    HW226106   4.059   3.313   4.383 -0.8296 -1.1728  2.0942
 4883SOL     OW26107   0.339   0.437   7.872  0.3723 -0.4996 -0.0738
 4883SOL    HW126108   0.391   0.384   7.811 -0.5294 -0.5024 -0.8337
 4883SOL    HW226109   0.308   0.378   7.941  1.0464 -1.7569 -0.8438
 4884SOL     OW26110   0.162   2.235   3.269 -0.1139  0.0510 -0.0750
 4884SOL    HW126111   0.118   2.179   3.206  0.0529  2.8681 -2.7298
 4884SOL    HW226112   0.116   2.319   3.258 -3.7402 -2.1490 -1.7337
 4885SOL     OW26113   1.665   0.209  13.420  0.7306 -0.2086 -0.0419
 4885SOL    HW126114   1.648   0.282  13.360  1.4281 -0.3443 -0.4099
 4885SOL    HW226115   1.634   0.247  13.502  2.9368  2.7803 -0.5903
 4886SOL     OW26116   3.357   2.175  17.407 -0.4355  0.2315  0.1691
 4886SOL    HW126117   3.372   2.238  17.477  1.0074  1.2431 -1.0419
 4886SOL    HW226118   3.358   2.229  17.328  0.8440  1.4005  0.9770
 4887SOL     OW26119   3.687   0.115   7.504 -0.3525  0.2922  0.2547
 4887SOL    HW126120   3.608   0.167   7.488 -0.4255 -0.1812 -0.9589
 4887SOL    HW226121   3.660   0.043   7.560  0.5033  0.7673  1.2668
 4888SOL     OW26122   1.903   3.901  15.698  0.1073  0.7201 -0.3187
 4888SOL    HW126123   1.867   3.825  15.652 -0.7538  1.0930 -0.2548
 4888SOL    HW226124   1.922   3.865  15.785  1.2427  1.2367 -0.3456
 4889SOL     OW26125   0.248   1.774   8.685  0.3485  0.0010  0.3434
 4889SOL    HW126126   0.255   1.851   8.628 -0.9628  0.7598  1.2112
 4889SOL    HW226127   0.270   1.803   8.774  0.7135  0.6953  0.0290
 4890SOL     OW26128   3.262   4.670   2.320  0.5775 -0.1209  0.5607
 4890SOL    HW126129   3.298   0.031   2.353  1.2665  0.2329 -1.0608
 4890SOL    HW226130   3.310   4.607   2.374  1.8126  1.7401  1.6373
 4891SOL     OW26131   1.044   3.727   3.775 -0.3230  0.4975  0.1953
 4891SOL    HW126132   0.994   3.793   3.823 -0.0498  0.9174 -0.1044
 4891SOL    HW226133   1.077   3.671   3.845  1.0175  1.1303  0.0734
 4892SOL     OW26134   4.312   1.724   0.167  0.2412  0.4858  0.1212
 4892SOL    HW126135   4.316   1.681   0.253  2.5403 -0.5496 -0.4889
 4892SOL    HW226136   4.295   1.653   0.105  1.8851 -1.3031  1.7005
 4893SOL     OW26137   1.832   1.606   1.146  0.0851 -0.0584  0.3923
 4893SOL    HW126138   1.888   1.639   1.075 -0.2378  0.9601  0.6063
 4893SOL    HW226139   1.764   1.673   1.142 -0.4212 -0.7101 -1.6535
 4894SOL     OW26140   3.322   2.550  13.214 -0.3173  0.6588  0.3503
 4894SOL    HW126141   3.363   2.612  13.153 -0.9435  1.0925  0.3684
 4894SOL    HW226142   3.373   2.561  13.294  2.3528 -0.3103 -1.2237
 4895SOL     OW26143   1.265   1.314   2.481 -0.2799  0.9803 -0.1135
 4895SOL    HW126144   1.261   1.409   2.476  0.3320  0.9084 -2.3006
 4895SOL    HW226145   1.232   1.303   2.391 -0.8460 -0.4956  0.2660
 4896SOL     OW26146   0.511   1.074   3.893  0.2300 -0.0327 -0.1480
 4896SOL    HW126147   0.558   1.124   3.827  0.5859  0.8704  0.7902
 4896SOL    HW226148   0.584   1.064   3.955 -0.4448  1.9754  0.9870
 4897SOL     OW26149   2.918   1.476  14.778  0.3504 -0.7258  0.0944
 4897SOL    HW126150   2.968   1.546  14.736  0.6526 -2.2302 -2.0596
 4897SOL    HW226151   2.986   1.436  14.832  2.2563 -0.4006 -2.0919
 4898SOL     OW26152   4.449   4.608   5.555  0.0312 -0.0697 -0.2528
 4898SOL    HW126153   4.398   4.665   5.499  1.6611  0.4018 -1.2466
 4898SOL    HW226154   4.402   4.619   5.638  0.0792 -0.5707 -0.1551
 4899SOL     OW26155   2.928   0.159   3.501  0.1019 -0.2975 -0.2899
 4899SOL    HW126156   2.901   0.250   3.488  0.5548 -0.4043 -2.0575
 4899SOL    HW226157   2.937   0.164   3.596  1.4909 -1.3713 -0.3708
 4900SOL     OW26158   2.856   3.709   1.672  0.2912 -0.0736  0.6707
 4900SOL    HW126159   2.789   3.648   1.701  0.3645 -1.3500 -1.8260
 4900SOL    HW226160   2.841   3.771   1.744 -3.0447  0.4638 -0.5207
 4901SOL     OW26161   2.986   2.335  10.483 -0.1188 -0.1026 -0.1983
 4901SOL    HW126162   3.043   2.394  10.533 -1.3648  0.5341  0.4652
 4901SOL    HW226163   3.024   2.248  10.493 -0.3371 -0.3721 -1.7627
 4902SOL     OW26164   4.667   0.583   1.502  0.7378  0.0461  0.8036
 4902SOL    HW126165   0.020   0.541   1.545  0.2585 -0.4883  1.1050
 4902SOL    HW226166   4.664   0.525   1.426  0.1859  1.6227 -0.3743
 4903SOL     OW26167   3.988   1.977   1.939 -0.0609  0.2937 -0.1871
 4903SOL    HW126168   3.908   2.007   1.897 -0.9098 -0.1741  1.0842
 4903SOL    HW226169   4.011   2.057   1.986 -0.9377  0.7756 -0.5890
 4904SOL     OW26170   3.684   1.568   8.837 -0.0518  0.2305  0.5234
 4904SOL    HW126171   3.618   1.624   8.877  0.2189  0.6024  0.4503
 4904SOL    HW226172   3.742   1.628   8.790  3.0392 -2.4318  0.8937
 4905SOL     OW26173   1.521   1.286   7.235  0.0816  0.2923  0.2253
 4905SOL    HW126174   1.464   1.239   7.296  1.1969  1.4913  2.2023
 4905SOL    HW226175   1.481   1.267   7.150  2.9775 -0.4598 -0.9466
 4906SOL     OW26176   1.188   0.682  15.107  0.3461  0.2952 -0.4852
 4906SOL    HW126177   1.237   0.718  15.033  2.3470 -0.0186  0.6678
 4906SOL    HW226178   1.258   0.633  15.150  2.7172  0.4167 -4.2036
 4907SOL     OW26179   1.206   3.088  10.060  0.5690 -0.5238 -0.0557
 4907SOL    HW126180   1.133   3.122  10.008  0.8126  1.1929  0.7532
 4907SOL    HW226181   1.279   3.149  10.051  0.9155 -0.9895 -0.4136
 4908SOL     OW26182   1.210   1.216   4.130  0.2775  0.0589  0.3544
 4908SOL    HW126183   1.304   1.226   4.122 -0.1574  2.6548 -1.4802
 4908SOL    HW226184   1.196   1.217   4.224  1.3739 -1.3616  0.5311
 4909SOL     OW26185   2.900   2.669   7.498  0.2239  0.1884  0.3803
 4909SOL    HW126186   2.945   2.683   7.415  0.6710  0.1867  0.6241
 4909SOL    HW226187   2.946   2.721   7.564 -2.0287  2.6385  0.0520
 4910SOL     OW26188   1.434   0.399   6.914 -0.2698  0.0885  0.8809
 4910SOL    HW126189   1.355   0.395   6.860  2.4109 -0.2081 -3.0549
 4910SOL    HW226190   1.504   0.411   6.850  0.3802  1.3678  1.8257
 4911SOL     OW26191   1.057   3.971   3.167  0.3638  0.0782 -0.0875
 4911SOL    HW126192   1.016   3.907   3.225  1.0641 -3.0182 -3.0224
 4911SOL    HW226193   1.089   3.907   3.104  2.7042  2.1554 -0.9791
 4912SOL     OW26194   3.494   1.971   7.330  0.0291 -0.0910  0.3967
 4912SOL    HW126195   3.447   2.031   7.272  1.3964  0.3333 -0.2724
 4912SOL    HW226196   3.486   1.882   7.296 -1.5936  0.1087  0.2557
 4913SOL     OW26197   2.782   2.898   6.042 -0.0270 -0.3803 -0.0601
 4913SOL    HW126198   2.826   2.983   6.041 -2.3580  0.8382  0.5585
 4913SOL    HW226199   2.809   2.860   6.125  0.1761 -0.5247 -0.1927
 4914SOL     OW26200   4.411   3.683   2.556 -0.2312 -0.5950 -0.2655
 4914SOL    HW126201   4.435   3.652   2.468  2.3666  0.4414  0.1010
 4914SOL    HW226202   4.330   3.632   2.564 -1.3310  1.3100  0.5745
 4915SOL     OW26203   3.235   3.577   3.134  0.0947 -0.1459  0.0882
 4915SOL    HW126204   3.171   3.518   3.174  0.2161  0.3216  0.9900
 4915SOL    HW226205   3.219   3.659   3.182 -3.4244 -0.6924 -0.1755
 4916SOL     OW26206   3.885   3.338   3.248 -0.3992 -0.4012  0.1950
 4916SOL    HW126207   3.799   3.311   3.279  0.6888 -0.9212  2.6923
 4916SOL    HW226208   3.885   3.426   3.285 -0.4602 -0.4051  0.2052
 4917SOL     OW26209   0.542   0.078   5.834  0.1805 -0.3764  0.5223
 4917SOL    HW126210   0.585   4.714   5.848  1.8192  0.4769  0.6325
 4917SOL    HW226211   0.621   0.129   5.850 -0.4845  0.4317  1.1930
 4918SOL     OW26212   0.867   3.059   3.277  0.0832  0.1067  0.5554
 4918SOL    HW126213   0.831   3.127   3.220  0.4457  0.6307  0.9512
 4918SOL    HW226214   0.941   3.107   3.314 -0.0936  0.7405  0.0975
 4919SOL     OW26215   2.451   1.344  13.600 -0.1289  0.4741  0.4691
 4919SOL    HW126216   2.457   1.293  13.519  1.8062 -0.9877  1.5496
 4919SOL    HW226217   2.544   1.340  13.621 -0.6203 -2.1818  2.2000
 4920SOL     OW26218   2.629   2.152   2.838 -0.3803 -0.3216 -0.1663
 4920SOL    HW126219   2.534   2.162   2.847 -0.3015 -0.6069  0.9092
 4920SOL    HW226220   2.646   2.232   2.789 -0.3054 -1.0082 -1.2736
 4921SOL     OW26221   0.236   1.647   3.331  0.0302 -0.2870 -0.1587
 4921SOL    HW126222   0.282   1.563   3.328 -1.8625 -1.2530 -1.6845
 4921SOL    HW226223   0.170   1.617   3.394 -1.3762  3.2260  0.0164
 4922SOL     OW26224   0.947   3.129   4.166  0.8598  0.2999  0.0174
 4922SOL    HW126225   0.988   3.078   4.096  0.0709  0.7934 -0.7943
 4922SOL    HW226226   0.959   3.214   4.125  2.0797  0.2033  0.1627
 4923SOL     OW26227   4.477   4.572  13.270  0.1044 -0.3212 -0.4613
 4923SOL    HW126228   4.518   4.546  13.353 -1.5269  0.8685  0.7106
 4923SOL    HW226229   4.537   4.552  13.199  2.9176 -0.0451  1.8458
 4924SOL     OW26230   3.566   3.972  15.570  0.4243 -0.0045  0.6065
 4924SOL    HW126231   3.636   3.987  15.506 -1.1767 -0.6843 -1.3038
 4924SOL    HW226232   3.601   4.005  15.653  2.2823  2.5129 -1.1737
 4925SOL     OW26233   3.483   1.247   4.950  0.4543 -0.4877  0.4367
 4925SOL    HW126234   3.530   1.164   4.954 -0.0406 -0.7104  2.0934
 4925SOL    HW226235   3.405   1.234   5.005 -0.1407 -1.6518 -0.6756
 4926SOL     OW26236   1.970   1.325   5.014  0.5141  0.4689  0.1430
 4926SOL    HW126237   1.958   1.363   5.101  0.4611  1.6250 -0.3703
 4926SOL    HW226238   1.892   1.362   4.973 -0.9062 -2.3236  0.3157
 4927SOL     OW26239   2.628   0.265   5.812 -0.2747 -0.5139 -0.3061
 4927SOL    HW126240   2.579   0.308   5.882 -0.7691 -1.1279 -0.2734
 4927SOL    HW226241   2.683   0.206   5.864  0.9280  1.0168  0.1434
 4928SOL     OW26242   1.576   0.668   3.327  0.1772  0.7240 -0.4214
 4928SOL    HW126243   1.522   0.653   3.250 -0.8364  0.7525  0.2902
 4928SOL    HW226244   1.576   0.588   3.380 -0.1437 -0.3993 -2.0975
 4929SOL     OW26245   0.105   2.440   7.668  0.1419  0.0003 -0.4478
 4929SOL    HW126246   0.130   2.348   7.657 -0.7964 -0.4182  0.9325
 4929SOL    HW226247   0.156   2.456   7.747 -0.3845  0.1049 -0.1259
 4930SOL     OW26248   0.738   2.029   1.444 -0.0449 -0.3962 -0.1917
 4930SOL    HW126249   0.830   2.045   1.461 -0.0278  0.5889 -1.2143
 4930SOL    HW226250   0.739   2.077   1.361  1.4746  0.2905  0.2312
 4931SOL     OW26251   2.149   4.092   0.243 -0.3786 -0.4836  0.2074
 4931SOL    HW126252   2.173   4.004   0.215  0.9079  0.3799 -1.4211
 4931SOL    HW226253   2.188   4.145   0.174  2.1438 -1.9212  0.5213
 4932SOL     OW26254   0.865   1.739   9.899 -0.1812  0.1576  0.2160
 4932SOL    HW126255   0.910   1.731   9.983  0.6165 -0.3723 -0.2664
 4932SOL    HW226256   0.936   1.763   9.840  0.1866  1.4727  1.2013
 4933SOL     OW26257   3.538   3.733   4.379  0.4372 -0.6648  0.2942
 4933SOL    HW126258   3.629   3.703   4.388  0.5241 -0.5824 -0.3164
 4933SOL    HW226259   3.526   3.735   4.474 -1.9799  0.7044 -0.0418
 4934SOL     OW26260   2.626   1.839  10.973  0.7023  0.0008 -0.1846
 4934SOL    HW126261   2.694   1.783  11.010 -0.2697 -0.4875  0.8471
 4934SOL    HW226262   2.653   1.834  10.881 -0.2909  0.5199 -0.5133
 4935SOL     OW26263   1.233   4.623  14.021  0.7601  0.2175  0.3695
 4935SOL    HW126264   1.154   4.674  14.004 -0.3754 -1.1988  1.4575
 4935SOL    HW226265   1.263   4.601  13.933  0.4699  0.2655  0.2592
 4936SOL     OW26266   2.115   3.279   6.528 -0.3732  0.1268  0.2183
 4936SOL    HW126267   2.057   3.355   6.533 -2.0590 -1.1598  0.6960
 4936SOL    HW226268   2.147   3.297   6.440  2.6034 -2.0292  0.8488
 4937SOL     OW26269   2.558   0.016   1.689 -0.1590 -0.3753  0.1548
 4937SOL    HW126270   2.479   4.683   1.688 -1.3116  1.3136  0.0679
 4937SOL    HW226271   2.549   0.064   1.607 -0.4051  0.0849  0.4531
 4938SOL     OW26272   4.021   0.904   3.550 -0.3715  0.3887 -0.4161
 4938SOL    HW126273   4.026   0.999   3.539  0.8627  0.1480 -1.9168
 4938SOL    HW226274   3.929   0.883   3.535 -0.5253  0.8039 -0.0703
 4939SOL     OW26275   3.506   3.349   4.062 -0.7024 -0.1726  0.0504
 4939SOL    HW126276   3.473   3.397   4.138  1.1615 -1.0052  1.3873
 4939SOL    HW226277   3.427   3.344   4.007 -0.5008  0.4548 -0.3024
 4940SOL     OW26278   0.143   0.140   7.528 -0.1350 -0.0200 -0.0345
 4940SOL    HW126279   0.237   0.132   7.513 -0.7107 -1.8281 -2.4859
 4940SOL    HW226280   0.138   0.085   7.606 -0.1250  0.0387  0.0083
 4941SOL     OW26281   1.747   1.251   6.339 -0.3923 -0.5876  0.5278
 4941SOL    HW126282   1.762   1.226   6.430  3.5883  0.3148  0.1138
 4941SOL    HW226283   1.817   1.207   6.289 -0.5636 -0.2902  0.0232
 4942SOL     OW26284   4.475   1.770   3.248  0.5614 -0.2078 -0.7769
 4942SOL    HW126285   4.516   1.754   3.163 -0.0776 -1.5453 -0.8283
 4942SOL    HW226286   4.410   1.701   3.259 -1.0288  1.4392  0.2496
 4943SOL     OW26287   2.991   1.096   0.493 -0.7858  0.4706 -0.0423
 4943SOL    HW126288   2.938   1.138   0.561 -0.5287  0.6369  0.0572
 4943SOL    HW226289   3.070   1.147   0.509 -1.1665  0.5598  1.5611
 4944SOL     OW26290   0.066   1.429   2.765 -0.3374  0.3463  0.3191
 4944SOL    HW126291   0.122   1.458   2.837 -0.4055 -0.2943  0.6226
 4944SOL    HW226292   0.111   1.479   2.696 -0.9189 -1.8842 -1.6724
 4945SOL     OW26293   1.107   0.891   7.885 -0.0662 -0.0363  0.1473
 4945SOL    HW126294   1.039   0.935   7.936 -0.1068  0.5761 -0.4339
 4945SOL    HW226295   1.063   0.833   7.822 -1.1075  0.2903  0.5697
 4946SOL     OW26296   3.784   3.860   5.336  0.6980 -0.0039 -0.6546
 4946SOL    HW126297   3.739   3.802   5.274 -0.4542  0.8416 -0.6117
 4946SOL    HW226298   3.868   3.871   5.290 -0.9913 -0.7642 -3.9568
 4947SOL     OW26299   1.448   1.993   9.429  0.4859 -0.6736  0.0224
 4947SOL    HW126300   1.454   2.029   9.341 -2.7480 -0.5149 -0.1339
 4947SOL    HW226301   1.493   1.908   9.426 -3.1432 -2.5495 -1.2284
 4948SOL     OW26302   2.781   2.268   7.782 -0.2914 -0.1750 -0.1721
 4948SOL    HW126303   2.846   2.237   7.845 -0.5823  0.6944  0.5536
 4948SOL    HW226304   2.787   2.363   7.792  0.2537 -0.2427  0.1280
 4949SOL     OW26305   0.290   2.028   2.615  0.2222 -0.1097  0.2472
 4949SOL    HW126306   0.302   1.996   2.525 -0.2629 -0.5549  0.3391
 4949SOL    HW226307   0.337   2.111   2.613 -2.0899  1.1612 -1.5252
 4950SOL     OW26308   3.629   4.484  16.332 -0.1374  0.0332  0.0721
 4950SOL    HW126309   3.578   4.416  16.375  0.3397 -0.2911  0.1282
 4950SOL    HW226310   3.556   4.545  16.325 -0.0147  0.1551 -0.1663
 4951SOL     OW26311   3.683   0.636  12.276 -0.1215  0.5372 -0.2166
 4951SOL    HW126312   3.739   0.570  12.317 -1.2139 -0.0183  0.3790
 4951SOL    HW226313   3.714   0.712  12.325 -1.2158 -0.1669  1.5772
 4952SOL     OW26314   3.319   2.568   3.420 -0.2855 -0.4948  0.1723
 4952SOL    HW126315   3.368   2.500   3.373  0.4218  0.0873  0.0626
 4952SOL    HW226316   3.309   2.533   3.509 -0.2798 -0.4656  0.1842
 4953SOL     OW26317   1.432   4.363   1.574 -0.2123 -0.2024  0.3514
 4953SOL    HW126318   1.434   4.310   1.495  0.3665 -3.0150  2.2856
 4953SOL    HW226319   1.441   4.448   1.531 -0.3757  0.9831  2.6527
 4954SOL     OW26320   3.832   3.373   7.842 -0.2264 -0.4993 -0.1440
 4954SOL    HW126321   3.797   3.462   7.848  1.1150  0.0416 -0.2912
 4954SOL    HW226322   3.808   3.341   7.929 -1.1838 -0.2553 -0.3143
 4955SOL     OW26323   1.764   0.900  16.581  0.3230 -0.1078 -0.0621
 4955SOL    HW126324   1.840   0.877  16.635  0.3046  0.0251  0.0201
 4955SOL    HW226325   1.702   0.920  16.651  0.4495  0.1493 -0.0229
 4956SOL     OW26326   4.354   2.738   2.159 -0.0302 -0.5720  0.3942
 4956SOL    HW126327   4.448   2.756   2.161 -0.0454 -0.4764  0.2842
 4956SOL    HW226328   4.333   2.806   2.094  2.6795 -1.1535 -1.0729
 4957SOL     OW26329   1.689   2.699   1.896  0.0594  0.6259  0.1678
 4957SOL    HW126330   1.776   2.720   1.862 -0.7807  1.2138 -1.6099
 4957SOL    HW226331   1.694   2.608   1.925  1.0157  1.2497  1.9795
 4958SOL     OW26332   1.587   2.887  13.055  0.3360 -0.1537 -0.2759
 4958SOL    HW126333   1.583   2.979  13.028 -1.5445 -0.3542 -0.7139
 4958SOL    HW226334   1.556   2.905  13.144  2.1825  1.9357 -0.0346
 4959SOL     OW26335   2.604   2.056   2.167  0.3760  0.4563 -0.6423
 4959SOL    HW126336   2.527   2.082   2.218  0.6479 -1.3514  0.7174
 4959SOL    HW226337   2.670   2.096   2.223 -0.2062  0.7648 -0.1712
 4960SOL     OW26338   4.553   3.499   1.861 -0.0024  0.1807 -0.3231
 4960SOL    HW126339   4.594   3.418   1.830  1.8906  0.6334  1.0099
 4960SOL    HW226340   4.477   3.494   1.803  0.5110  1.3289 -1.0969
 4961SOL     OW26341   1.240   1.549  14.236 -0.2987  0.2340  0.2523
 4961SOL    HW126342   1.257   1.520  14.146 -0.9955 -0.0502  0.2144
 4961SOL    HW226343   1.243   1.461  14.275 -1.8318 -0.0093 -0.1743
 4962SOL     OW26344   1.389   4.530   6.690 -0.4165  0.5207  0.4092
 4962SOL    HW126345   1.376   4.554   6.781 -0.9387 -0.7047  0.6723
 4962SOL    HW226346   1.470   4.480   6.692 -1.5351 -1.4313 -1.8987
 4963SOL     OW26347   4.429   4.591   2.999 -0.1471 -0.4713 -0.2046
 4963SOL    HW126348   4.492   4.522   2.977  0.8205  0.1044  0.7304
 4963SOL    HW226349   4.381   4.550   3.071 -1.9215  2.1001  0.0769
 4964SOL     OW26350   4.628   3.641   1.117 -0.0086 -0.3277  0.1040
 4964SOL    HW126351   4.622   3.593   1.200  2.4987  0.4365  0.7524
 4964SOL    HW226352   4.598   3.582   1.049 -2.2649  0.8749  0.0739
 4965SOL     OW26353   3.117   1.367  11.650 -0.1903 -0.3749  0.7223
 4965SOL    HW126354   3.059   1.300  11.686  0.7538 -1.0309  1.0066
 4965SOL    HW226355   3.114   1.433  11.719  0.0507  0.3458  0.0487
 4966SOL     OW26356   3.472   0.301   2.924  0.5379 -0.0354 -0.5442
 4966SOL    HW126357   3.420   0.278   3.001  0.1646 -0.9088 -1.0611
 4966SOL    HW226358   3.419   0.258   2.856 -1.4317  0.7433  0.5047
 4967SOL     OW26359   4.149   0.060   2.007  0.2807 -0.2658  0.4600
 4967SOL    HW126360   4.198   4.698   2.011  0.4976 -0.1968 -0.5702
 4967SOL    HW226361   4.067   0.044   2.053  0.1263  1.3284  0.7268
 4968SOL     OW26362   4.716   0.838   2.636  0.7294 -0.0172 -0.7064
 4968SOL    HW126363   4.709   0.744   2.653 -1.8077  0.1333 -0.9102
 4968SOL    HW226364   0.057   0.864   2.703 -0.4232  0.6779  0.1037
 4969SOL     OW26365   0.659   1.110   7.565  0.0032  1.2136  0.4803
 4969SOL    HW126366   0.591   1.129   7.630  2.0029  2.3821  2.2264
 4969SOL    HW226367   0.707   1.038   7.606 -0.9570  0.7353  0.7867
 4970SOL     OW26368   0.132   1.910  13.033  0.7688  0.4966  0.2701
 4970SOL    HW126369   0.107   1.916  12.941 -2.4994  0.7848  1.1745
 4970SOL    HW226370   0.147   2.002  13.056  0.4868  0.0571  2.2185
 4971SOL     OW26371   1.120   3.110   5.168  0.1977 -0.2433 -0.3025
 4971SOL    HW126372   1.198   3.146   5.211  0.0060 -1.7540  1.2804
 4971SOL    HW226373   1.139   3.134   5.077  0.3923  0.0483 -0.1852
 4972SOL     OW26374   0.943   4.035   3.778 -0.0243 -0.4958 -0.2219
 4972SOL    HW126375   0.871   4.069   3.725 -1.6424 -3.0221  0.3855
 4972SOL    HW226376   0.903   3.956   3.815 -1.3085 -1.0593 -2.8039
 4973SOL     OW26377   0.146   3.329   7.871  0.2094 -0.3569  0.0471
 4973SOL    HW126378   0.065   3.377   7.887  0.0191 -0.2717 -1.1756
 4973SOL    HW226379   0.208   3.390   7.909  1.2048 -1.3318 -0.0057
 4974SOL     OW26380   2.520   4.113   7.745  0.2423 -0.3146  0.0203
 4974SOL    HW126381   2.511   4.038   7.805  3.2340 -0.8473 -0.2194
 4974SOL    HW226382   2.504   4.195   7.791 -0.0747  0.3985 -1.3857
 4975SOL     OW26383   0.611   4.461   7.038  0.5525 -0.0761  0.3200
 4975SOL    HW126384   0.687   4.404   7.050 -1.1569 -1.5153  4.0108
 4975SOL    HW226385   0.635   4.543   7.081  1.1457 -0.3553  0.5108
 4976SOL     OW26386   4.095   2.143   5.126  0.5015 -0.3857 -0.0893
 4976SOL    HW126387   4.022   2.106   5.076 -0.3579 -0.1243  0.9710
 4976SOL    HW226388   4.047   2.225   5.136  0.9652 -0.1438  0.1715
 4977SOL     OW26389   0.288   1.939   2.333 -0.1399  0.7328  0.5788
 4977SOL    HW126390   0.347   1.958   2.260  0.6663 -1.4777  0.6756
 4977SOL    HW226391   0.209   1.956   2.282 -0.1387  1.1353  0.7125
 4978SOL     OW26392   3.866   4.074   6.668 -0.9131  0.3771 -0.1225
 4978SOL    HW126393   3.922   4.035   6.735 -0.4843  0.2216 -0.5759
 4978SOL    HW226394   3.935   4.079   6.602 -0.2207 -1.3248  0.4740
 4979SOL     OW26395   3.372   1.403   8.239 -0.4218 -0.5506  0.1276
 4979SOL    HW126396   3.407   1.321   8.202 -2.0690 -0.1801 -2.2871
 4979SOL    HW226397   3.292   1.367   8.278 -1.3324  3.4657  1.9154
 4980SOL     OW26398   4.107   4.302   6.221 -0.3551 -0.4732 -0.0982
 4980SOL    HW126399   4.186   4.258   6.250 -1.3246 -1.8127  0.4917
 4980SOL    HW226400   4.142   4.314   6.133  0.3701  1.7388  0.4917
 4981SOL     OW26401   0.576   2.642   2.252  0.1530 -0.2245  0.2277
 4981SOL    HW126402   0.599   2.588   2.176  0.2697  0.6528 -0.3687
 4981SOL    HW226403   0.497   2.688   2.224  0.2830  0.4208  0.9174
 4982SOL     OW26404   0.340   1.862  14.536  0.2521  0.3192  0.1500
 4982SOL    HW126405   0.308   1.952  14.532  0.3062  0.3775  1.1789
 4982SOL    HW226406   0.430   1.868  14.567  0.0021 -0.6679  1.0564
 4983SOL     OW26407   1.612   2.118   2.036 -0.0273 -0.0363 -0.7070
 4983SOL    HW126408   1.601   2.146   2.127  0.8200  0.3262 -0.7128
 4983SOL    HW226409   1.705   2.099   2.030 -0.1154 -0.0091 -2.2338
 4984SOL     OW26410   1.368   1.803  15.784  0.1843 -0.1834  0.0365
 4984SOL    HW126411   1.436   1.868  15.767 -0.3974  0.4711  0.2298
 4984SOL    HW226412   1.321   1.842  15.857  2.2150  1.0034  0.7186
 4985SOL     OW26413   3.384   3.266   9.206 -0.0139 -0.0730  0.0163
 4985SOL    HW126414   3.413   3.175   9.201  2.1825  0.7685 -2.7843
 4985SOL    HW226415   3.306   3.255   9.152  2.4876 -1.8096 -3.2096
 4986SOL     OW26416   1.921   4.180   1.923 -0.2296 -0.3106 -0.1618
 4986SOL    HW126417   1.963   4.099   1.894 -0.7772 -0.3632 -0.8102
 4986SOL    HW226418   1.853   4.205   1.860  0.2836  0.1888 -0.5230
 4987SOL     OW26419   2.908   1.109   7.235 -0.1960  0.1694  0.2858
 4987SOL    HW126420   2.883   1.091   7.326 -0.3648 -1.9675 -0.1757
 4987SOL    HW226421   2.820   1.133   7.206  0.5127  0.4435 -1.6213
 4988SOL     OW26422   0.588   4.315   1.862 -0.3351 -0.1522  0.2839
 4988SOL    HW126423   0.599   4.248   1.794  0.1301  1.2014 -0.9716
 4988SOL    HW226424   0.619   4.267   1.939 -0.5845 -3.2781 -1.5542
 4989SOL     OW26425   4.635   2.444  15.010 -0.4366  0.2621  0.1905
 4989SOL    HW126426   4.686   2.373  15.048 -1.7844 -0.2601  1.0404
 4989SOL    HW226427   4.551   2.424  15.053 -0.0108 -0.7294  0.5578
 4990SOL     OW26428   2.682   4.433   5.440  0.3479  0.0217  0.0339
 4990SOL    HW126429   2.744   4.367   5.408 -0.2155  0.1988 -1.4319
 4990SOL    HW226430   2.715   4.505   5.385 -0.9333 -0.6032 -1.5404
 4991SOL     OW26431   1.463   1.948   4.324  0.0601  0.4311  0.2401
 4991SOL    HW126432   1.463   1.853   4.313 -0.5386  0.3879  0.6258
 4991SOL    HW226433   1.557   1.960   4.337  0.3404 -0.3254 -1.0861
 4992SOL     OW26434   1.995   1.721   6.238 -0.1402 -0.3534  0.6722
 4992SOL    HW126435   1.977   1.633   6.203  1.5549 -1.3399  2.2641
 4992SOL    HW226436   2.058   1.768   6.183  0.4976 -1.1145  0.7528
 4993SOL     OW26437   0.776   2.454   1.077 -0.2714 -0.4733 -0.2772
 4993SOL    HW126438   0.840   2.396   1.119  0.0304  0.3303  0.3632
 4993SOL    HW226439   0.698   2.398   1.079 -0.5638 -0.0957 -1.3585
 4994SOL     OW26440   2.987   1.486   3.358  0.0830  0.1191  0.8486
 4994SOL    HW126441   2.983   1.471   3.263 -1.7121 -4.1949  1.6073
 4994SOL    HW226442   2.952   1.575   3.363 -1.5877 -0.6522  2.3427
 4995SOL     OW26443   1.600   2.863   5.623  0.2631 -0.0645  0.2508
 4995SOL    HW126444   1.516   2.902   5.645  0.7844  0.8037  0.6790
 4995SOL    HW226445   1.628   2.910   5.545  1.0843  0.6978  1.0061
 4996SOL     OW26446   3.831   1.897   9.020 -0.1102  0.0715  0.1107
 4996SOL    HW126447   3.926   1.882   9.016  0.3726  2.5694  2.2165
 4996SOL    HW226448   3.814   1.861   9.107  0.5223 -0.6720 -0.0703
 4997SOL     OW26449   2.559   2.150  17.554 -0.0593 -0.3395  0.5324
 4997SOL    HW126450   2.647   2.128  17.523 -0.3711  0.6623 -1.0374
 4997SOL    HW226451   2.516   2.128  17.471 -1.3437  0.0414  1.0948
 4998SOL     OW26452   0.512   2.900   1.628 -0.3481  0.5963 -0.3732
 4998SOL    HW126453   0.429   2.932   1.664  0.2973  0.3093  1.3910
 4998SOL    HW226454   0.542   2.859   1.709 -0.2132 -0.7239 -1.0851
 4999SOL     OW26455   3.441   1.080   6.010  0.3967  0.3194  0.1085
 4999SOL    HW126456   3.359   1.074   5.961  0.7580 -0.6740 -0.3796
 4999SOL    HW226457   3.477   0.996   5.981  1.2158  1.1165 -1.2077
 5000SOL     OW26458   2.869   3.995   7.525 -0.1369  0.1623  0.3701
 5000SOL    HW126459   2.898   3.906   7.544  0.5139  0.2778 -0.0536
 5000SOL    HW226460   2.797   3.980   7.464 -0.0217 -0.7998  0.4775
 5001SOL     OW26461   3.056   3.863   8.581  0.6264  0.2127 -0.3019
 5001SOL    HW126462   2.980   3.905   8.541  0.6460  1.8199  1.3477
 5001SOL    HW226463   3.124   3.864   8.514  1.3254 -1.3026  0.3973
 5002SOL     OW26464   3.797   3.991   5.010  0.4669 -0.4031  0.3830
 5002SOL    HW126465   3.870   4.000   4.949  0.9749  0.9050  1.1806
 5002SOL    HW226466   3.842   3.938   5.075  0.1905  0.0701  0.9581
 5003SOL     OW26467   1.756   0.246   4.435 -0.1551 -0.2087  0.4274
 5003SOL    HW126468   1.772   0.292   4.352 -0.5022 -2.0436 -0.6670
 5003SOL    HW226469   1.691   0.182   4.406 -0.9401  0.0443  1.6529
 5004SOL     OW26470   3.954   3.752   0.775  0.2510 -0.2279  0.3138
 5004SOL    HW126471   4.009   3.786   0.705 -0.1472  0.0047  0.1167
 5004SOL    HW226472   4.013   3.750   0.851 -0.2025  1.0016  0.6937
 5005SOL     OW26473   4.608   4.378  16.413  0.0242  0.0746  0.0411
 5005SOL    HW126474   4.669   4.322  16.461 -1.1085 -3.1249 -2.2486
 5005SOL    HW226475   4.554   4.415  16.483  0.3946  2.3657 -0.8971
 5006SOL     OW26476   1.132   1.107   5.861  0.5224  0.2861  0.0465
 5006SOL    HW126477   1.149   1.024   5.905 -1.2787 -0.9650 -1.6448
 5006SOL    HW226478   1.207   1.110   5.801 -0.2390  2.5402 -0.8117
 5007SOL     OW26479   4.234   4.488   0.237 -0.2696  0.2511  0.0476
 5007SOL    HW126480   4.176   4.413   0.227  0.9054 -1.0673  3.0984
 5007SOL    HW226481   4.320   4.459   0.206 -0.2772 -0.9670  1.1364
 5008SOL     OW26482   3.437   4.147   0.485  0.2975  0.2179 -0.1435
 5008SOL    HW126483   3.471   4.164   0.397  1.1042 -3.5382 -0.5667
 5008SOL    HW226484   3.449   4.053   0.502  0.7207  0.3626  0.3723
 5009SOL     OW26485   0.249   2.854   4.858  0.0569 -0.5478  0.2664
 5009SOL    HW126486   0.223   2.837   4.768  1.6388  1.6032 -0.5834
 5009SOL    HW226487   0.179   2.914   4.883 -1.8221 -2.3952 -0.5026
 5010SOL     OW26488   3.126   3.535  17.424  0.0452 -0.4524 -0.1535
 5010SOL    HW126489   3.049   3.588  17.444  0.1699  0.3781 -1.8426
 5010SOL    HW226490   3.173   3.534  17.507  2.3702 -1.3446 -1.4818
 5011SOL     OW26491   2.276   4.437  10.837  0.5174 -0.2947  0.2261
 5011SOL    HW126492   2.234   4.412  10.755 -0.2576 -0.7562  0.7657
 5011SOL    HW226493   2.298   4.349  10.866 -2.3630 -0.9424  0.4401
 5012SOL     OW26494   2.073   1.197   9.075  0.1101 -0.3725  0.1372
 5012SOL    HW126495   2.106   1.140   9.006  0.8185  0.7059 -0.4306
 5012SOL    HW226496   1.979   1.200   9.056  0.1191 -1.4049 -0.0488
 5013SOL     OW26497   0.616   0.269  12.965 -0.5252  0.0712  0.1483
 5013SOL    HW126498   0.566   0.194  12.998 -0.5186  0.8237  1.8937
 5013SOL    HW226499   0.585   0.332  13.031 -2.0150 -0.2855 -0.2027
 5014SOL     OW26500   2.377   2.688   4.587  0.5844  0.2293  0.5085
 5014SOL    HW126501   2.289   2.717   4.609  0.7091  0.7535  0.2937
 5014SOL    HW226502   2.378   2.605   4.635  0.6721  0.6882  1.2954
 5015SOL     OW26503   4.698   2.441   4.390  0.1005  0.3094  0.4912
 5015SOL    HW126504   4.687   2.358   4.436  1.3790  1.0288  2.1127
 5015SOL    HW226505   0.066   2.429   4.358  0.4333  2.2719  0.6432
 5016SOL     OW26506   2.968   3.821   6.334  0.0715 -0.4870  0.1959
 5016SOL    HW126507   2.962   3.851   6.425 -0.8877 -2.6264  0.8341
 5016SOL    HW226508   2.899   3.873   6.294 -0.3901 -1.1141  0.1726
 5017SOL     OW26509   3.556   3.105  11.684  0.6302 -0.6379 -0.7477
 5017SOL    HW126510   3.625   3.061  11.634 -0.7147 -0.3726 -2.8416
 5017SOL    HW226511   3.534   3.049  11.759  1.2766 -0.9157 -0.7703
 5018SOL     OW26512   3.630   1.116   9.076  0.1508  0.0049 -0.3432
 5018SOL    HW126513   3.569   1.053   9.115  0.6379  0.2960  0.8874
 5018SOL    HW226514   3.588   1.202   9.080 -0.5906 -0.3245 -1.0434
 5019SOL     OW26515   4.465   4.069   0.107  0.2292 -0.1005 -0.5530
 5019SOL    HW126516   4.507   3.990   0.141  1.3853  2.1754  3.3196
 5019SOL    HW226517   4.536   4.117   0.064 -0.3699 -0.6084 -2.0973
 5020SOL     OW26518   3.052   0.085   6.476  0.3129 -0.5636  0.2753
 5020SOL    HW126519   3.000   0.151   6.431 -0.9981 -0.6094  1.7450
 5020SOL    HW226520   3.076   0.134   6.554 -1.1649 -0.9250  0.9629
 5021SOL     OW26521   0.699   0.071   8.972 -0.4287 -0.1270 -0.0324
 5021SOL    HW126522   0.775   0.015   8.954  1.5606  1.8754  2.2236
 5021SOL    HW226523   0.632   0.004   8.959 -1.6636  1.1700 -0.3662
 5022SOL     OW26524   4.605   0.323   7.916 -0.7481 -0.4770 -0.0135
 5022SOL    HW126525   4.656   0.286   7.988 -1.7308 -0.4520  0.7089
 5022SOL    HW226526   4.545   0.378   7.967 -0.8122  0.6935 -1.3572
 5023SOL     OW26527   1.556   4.143   9.085 -0.0981 -0.1166 -0.1817
 5023SOL    HW126528   1.565   4.238   9.094  0.0271 -0.2223  0.8949
 5023SOL    HW226529   1.473   4.124   9.130  0.4921 -2.2332  0.0018
 5024SOL     OW26530   2.017   1.888   0.701  0.4366  0.0471 -0.0370
 5024SOL    HW126531   1.930   1.868   0.737  1.3034 -1.6754  1.0916
 5024SOL    HW226532   2.070   1.857   0.775  0.0556 -2.6739 -0.8846
 5025SOL     OW26533   2.414   3.363  10.985  1.1012  0.1950 -0.0681
 5025SOL    HW126534   2.370   3.294  10.936  2.2200 -0.1303 -0.6253
 5025SOL    HW226535   2.355   3.437  10.974 -0.3857 -0.7984  1.0863
 5026SOL     OW26536   2.274   0.975   8.102  0.2901  0.3236  0.1493
 5026SOL    HW126537   2.217   1.052   8.101  0.7526  0.6313 -1.6100
 5026SOL    HW226538   2.206   0.909   8.093  2.1484 -1.7821  1.4188
 5027SOL     OW26539   3.734   0.745   7.176  0.3737 -0.0415 -0.2975
 5027SOL    HW126540   3.723   0.651   7.169  1.8451 -0.2406 -0.0633
 5027SOL    HW226541   3.827   0.746   7.198  0.1214 -1.3446  0.8016
 5028SOL     OW26542   4.276   2.977   2.050  0.0382 -0.2396 -0.0355
 5028SOL    HW126543   4.213   2.992   2.119  1.2385  3.1334  0.3379
 5028SOL    HW226544   4.290   3.066   2.017 -1.8981  0.1020  0.1226
 5029SOL     OW26545   1.593   4.149  17.050 -0.2264  0.4303 -0.1516
 5029SOL    HW126546   1.633   4.236  17.058  0.4199 -0.0124  1.6561
 5029SOL    HW226547   1.535   4.143  17.126 -1.8088 -0.8513 -1.4844
 5030SOL     OW26548   3.817   2.648   2.415  0.3062 -0.0810  0.0726
 5030SOL    HW126549   3.888   2.686   2.468  0.4535 -0.5583  0.2173
 5030SOL    HW226550   3.749   2.712   2.438  2.7276  1.9582  1.6059
 5031SOL     OW26551   0.656   3.063   4.065 -0.3063 -0.8003  0.5904
 5031SOL    HW126552   0.629   2.992   4.123 -0.1599  0.3425  2.0647
 5031SOL    HW226553   0.740   3.084   4.107 -0.8275  1.2251  0.6462
 5032SOL     OW26554   3.407   0.266   7.097  0.4574  0.3739  0.4685
 5032SOL    HW126555   3.373   0.200   7.157 -0.6883 -0.5062 -1.1407
 5032SOL    HW226556   3.478   0.305   7.147 -0.5857  1.0875  1.3950
 5033SOL     OW26557   2.365   3.640   7.448 -0.5106  0.5850 -0.1165
 5033SOL    HW126558   2.433   3.580   7.416  0.1116  0.0178  2.2177
 5033SOL    HW226559   2.322   3.582   7.512 -0.0104  0.9091  0.5080
 5034SOL     OW26560   0.117   4.112  16.353  0.1929 -0.2270 -0.2786
 5034SOL    HW126561   0.065   4.121  16.433  0.7553  0.8309 -0.0348
 5034SOL    HW226562   0.144   4.202  16.336  1.9343 -0.2861  2.3320
 5035SOL     OW26563   1.236   3.132   4.599  0.2193 -0.2689  0.3493
 5035SOL    HW126564   1.250   3.174   4.514 -0.4436  1.8867  1.3049
 5035SOL    HW226565   1.229   3.049   4.553 -1.3324 -0.1389  0.3384
 5036SOL     OW26566   3.110   1.949   1.656 -0.0830  0.2980  0.3190
 5036SOL    HW126567   3.155   1.905   1.584  1.3496  4.3220 -1.2592
 5036SOL    HW226568   3.080   2.025   1.606 -1.9367 -0.7250 -0.1207
 5037SOL     OW26569   1.494   0.994   1.282 -0.0975  0.0558  0.2435
 5037SOL    HW126570   1.516   1.059   1.216 -0.5855 -0.8100 -0.7658
 5037SOL    HW226571   1.432   1.050   1.328 -0.2746 -1.4386  1.8567
 5038SOL     OW26572   0.335   0.126   1.725 -0.6281 -0.0128  0.1602
 5038SOL    HW126573   0.254   0.168   1.697 -1.2635 -1.8889 -0.8191
 5038SOL    HW226574   0.327   0.097   1.816 -0.8804 -0.5954 -0.0474
 5039SOL     OW26575   0.851   1.345   1.098  0.2630  0.1401 -0.1856
 5039SOL    HW126576   0.791   1.339   1.173 -1.3683 -4.2734 -1.8395
 5039SOL    HW226577   0.825   1.432   1.066 -1.5553 -0.8185 -1.3064
 5040SOL     OW26578   1.466   1.496  11.531  0.4250  0.0088 -0.3106
 5040SOL    HW126579   1.444   1.577  11.487  1.1192  0.0208 -0.6362
 5040SOL    HW226580   1.385   1.445  11.525  1.1581 -1.3024  0.8003
 5041SOL     OW26581   1.164   0.626   7.573  0.0702 -0.4161  0.3580
 5041SOL    HW126582   1.129   0.618   7.484  0.9667 -0.5334  0.0181
 5041SOL    HW226583   1.170   0.720   7.590 -0.9565 -0.4646  0.9395
 5042SOL     OW26584   1.770   2.758  10.678 -0.1048  0.0211  0.0639
 5042SOL    HW126585   1.775   2.800  10.764 -0.7614 -0.8305  0.5150
 5042SOL    HW226586   1.855   2.714  10.673  0.5836  1.7061 -3.1867
 5043SOL     OW26587   2.590   1.798   7.131  0.2416  0.0873  0.1372
 5043SOL    HW126588   2.548   1.794   7.217 -0.1171  1.9695  0.0645
 5043SOL    HW226589   2.645   1.877   7.140  3.5245 -2.2236  0.5229
 5044SOL     OW26590   0.107   2.546   5.923 -0.7936 -0.7858 -0.3816
 5044SOL    HW126591   0.196   2.538   5.955 -1.3321 -0.0770  1.3093
 5044SOL    HW226592   0.121   2.590   5.839  0.7994 -0.3179  0.1326
 5045SOL     OW26593   1.837   2.012   1.749  0.1176  0.1058  0.0350
 5045SOL    HW126594   1.811   2.026   1.658 -2.9035  0.0649  0.8946
 5045SOL    HW226595   1.885   1.930   1.749 -0.9628 -0.5276  2.1202
 5046SOL     OW26596   3.096   2.770  13.449 -0.5726  0.7884  0.3442
 5046SOL    HW126597   3.091   2.753  13.355  0.5025  0.1983  0.3979
 5046SOL    HW226598   3.189   2.764  13.469 -0.5920  2.4351  0.9162
 5047SOL     OW26599   4.520   2.571   8.340  0.1574  0.1527 -0.4140
 5047SOL    HW126600   4.500   2.498   8.283 -1.1897  0.1424  0.0762
 5047SOL    HW226601   4.616   2.574   8.343  0.1581  0.0652 -0.3537
 5048SOL     OW26602   1.757   0.092   4.122  0.0073 -0.2382  0.1758
 5048SOL    HW126603   1.726   0.167   4.070  2.4778 -0.6592 -1.9021
 5048SOL    HW226604   1.682   0.032   4.113  1.0690 -1.4760 -0.3255
 5049SOL     OW26605   1.816   4.616  17.501 -0.2380  0.0918 -0.4609
 5049SOL    HW126606   1.876   4.604  17.575 -2.9457 -2.6155  1.2988
 5049SOL    HW226607   1.872   4.608  17.424  2.3771  1.9687  1.2498
 5050SOL     OW26608   3.838   4.305   3.851 -0.0311  0.8209 -0.4396
 5050SOL    HW126609   3.819   4.386   3.803 -0.9336  0.0747 -1.3475
 5050SOL    HW226610   3.933   4.296   3.839 -0.3806 -1.0493 -1.8639
 5051SOL     OW26611   0.417   1.187   2.234 -0.0291 -0.2378  0.2909
 5051SOL    HW126612   0.345   1.170   2.295 -1.1493 -0.5348 -1.1141
 5051SOL    HW226613   0.419   1.283   2.229  1.8528 -0.1919  2.1256
 5052SOL     OW26614   0.572   2.262  11.561  0.4603  0.0847 -0.0541
 5052SOL    HW126615   0.503   2.233  11.622 -0.4078 -1.7407 -1.9217
 5052SOL    HW226616   0.529   2.235  11.480 -0.6576  1.0156  0.2208
 5053SOL     OW26617   4.072   2.520  11.051 -0.3308 -0.2406 -0.8778
 5053SOL    HW126618   4.122   2.568  10.985 -0.0344  0.9125  0.1695
 5053SOL    HW226619   4.128   2.448  11.080 -1.1485 -0.0837  1.0657
 5054SOL     OW26620   1.049   1.599  12.694  0.0459  0.1897  0.0806
 5054SOL    HW126621   0.973   1.543  12.711 -0.8931  1.5563  0.3334
 5054SOL    HW226622   1.029   1.665  12.760  1.0821  1.2397 -0.6482
 5055SOL     OW26623   0.227   2.985  17.639 -0.6200  0.0892 -0.4122
 5055SOL    HW126624   0.305   2.946  17.600  0.0287  1.9077 -0.9536
 5055SOL    HW226625   0.176   2.906  17.655 -1.8419  0.8123 -0.6996
 5056SOL     OW26626   1.612   2.116   1.010 -0.1900  0.1610 -0.0061
 5056SOL    HW126627   1.527   2.082   1.039  0.3825 -2.0746 -0.9153
 5056SOL    HW226628   1.592   2.121   0.917 -0.0277  2.8367  0.1023
 5057SOL     OW26629   0.450   4.603   8.655 -0.1293  0.1516  0.6881
 5057SOL    HW126630   0.363   4.567   8.671  0.1258  0.1259  2.0401
 5057SOL    HW226631   0.423   4.684   8.612 -3.7786 -1.5745 -0.2759
 5058SOL     OW26632   1.755   1.542  12.578  0.2587 -0.3021 -0.1100
 5058SOL    HW126633   1.850   1.547  12.584  0.4379 -1.6492 -1.8157
 5058SOL    HW226634   1.731   1.596  12.653 -1.4645 -1.9404  0.5276
 5059SOL     OW26635   1.290   2.198  10.395 -0.0592 -0.3692 -0.3090
 5059SOL    HW126636   1.213   2.193  10.451  1.1042  0.1468  1.3616
 5059SOL    HW226637   1.336   2.127  10.439  0.0641 -1.1427 -1.6697
 5060SOL     OW26638   2.703   0.537   5.239 -0.0754  0.4076 -0.1459
 5060SOL    HW126639   2.667   0.614   5.284  2.3900  1.1791  0.4965
 5060SOL    HW226640   2.621   0.512   5.196 -0.1619 -0.1775  0.3630
 5061SOL     OW26641   0.770   3.956  12.685  0.0533 -0.1419 -0.6820
 5061SOL    HW126642   0.736   3.921  12.603  4.5969 -1.9110 -1.7828
 5061SOL    HW226643   0.843   4.010  12.654 -0.0404  0.1720 -0.3492
 5062SOL     OW26644   0.846   4.545   3.081 -0.0597  0.6572 -0.3124
 5062SOL    HW126645   0.874   4.597   3.157 -1.0983  1.5163 -0.5192
 5062SOL    HW226646   0.929   4.504   3.054 -0.2642  0.3175 -0.4281
 5063SOL     OW26647   2.202   0.070   2.489 -0.2259  0.2766 -0.4438
 5063SOL    HW126648   2.283   0.114   2.515  0.6436 -2.3150  1.2626
 5063SOL    HW226649   2.233   4.706   2.458 -0.5906  0.2166 -0.6395
 5064SOL     OW26650   0.879   0.207  12.908 -0.2941  0.0960  0.2233
 5064SOL    HW126651   0.799   0.253  12.931 -1.3541 -0.4896 -2.3712
 5064SOL    HW226652   0.861   0.114  12.919  1.4776  0.1197  3.4655
 5065SOL     OW26653   1.704   3.687   3.807  0.0678 -0.1487 -0.0584
 5065SOL    HW126654   1.635   3.667   3.744 -1.1969 -0.3230  1.3744
 5065SOL    HW226655   1.730   3.774   3.777  1.5338 -0.6542 -0.2559
 5066SOL     OW26656   2.717   4.424  15.268  0.1009  0.2955  0.2715
 5066SOL    HW126657   2.673   4.449  15.187  1.0609  2.4318  0.3955
 5066SOL    HW226658   2.779   4.496  15.281 -1.0981  1.0274  1.8239
 5067SOL     OW26659   0.868   4.312   8.219 -0.4324  0.0869 -0.1723
 5067SOL    HW126660   0.961   4.318   8.242 -0.2154 -0.5798 -0.8822
 5067SOL    HW226661   0.879   4.224   8.182 -2.1398  0.2190 -0.9965
 5068SOL     OW26662   1.669   3.198   6.517 -0.0133  0.9339  0.1653
 5068SOL    HW126663   1.705   3.189   6.605 -0.2782  1.2125  0.3019
 5068SOL    HW226664   1.678   3.103   6.509  1.7733  1.0824  0.4174
 5069SOL     OW26665   1.121   3.998  14.321  0.1208 -0.1690 -0.1002
 5069SOL    HW126666   1.185   3.966  14.384  2.3362  0.6262 -1.9430
 5069SOL    HW226667   1.038   3.989  14.367  0.1415 -1.2747 -0.2805
 5070SOL     OW26668   1.977   4.238   7.422 -0.2432  0.2317  0.7055
 5070SOL    HW126669   2.044   4.190   7.375 -0.2640 -1.9564  2.9299
 5070SOL    HW226670   1.901   4.233   7.363 -3.0776 -0.7114  4.4177
 5071SOL     OW26671   3.470   3.002   2.221 -0.6441 -0.1418 -0.6158
 5071SOL    HW126672   3.406   2.966   2.160  1.1226  1.8936 -3.6791
 5071SOL    HW226673   3.550   2.968   2.182 -0.9963  1.1518 -2.4334
 5072SOL     OW26674   4.626   3.555   7.472  0.3782  0.1233 -0.6253
 5072SOL    HW126675   4.596   3.564   7.382 -0.0531 -1.1731 -0.6150
 5072SOL    HW226676   4.594   3.465   7.482 -1.5177  0.3861 -4.3146
 5073SOL     OW26677   3.056   4.438   3.437 -0.1981  0.1734 -0.1415
 5073SOL    HW126678   3.063   4.424   3.531 -0.0127  1.1248 -0.0146
 5073SOL    HW226679   2.972   4.482   3.423 -0.4078 -0.3454 -0.5270
 5074SOL     OW26680   2.614   2.480   3.098 -0.6156 -0.5129  0.0518
 5074SOL    HW126681   2.657   2.500   3.181  1.6198 -0.8970 -1.0366
 5074SOL    HW226682   2.685   2.498   3.038 -0.8696 -1.0425 -0.4041
 5075SOL     OW26683   3.201   1.319   4.414  0.5812 -0.0606 -0.4002
 5075SOL    HW126684   3.173   1.240   4.461  0.2915 -0.0897 -0.6176
 5075SOL    HW226685   3.259   1.373   4.467  1.0900 -1.4203  0.4276
 5076SOL     OW26686   2.755   2.861  16.035 -0.0829 -0.4144 -0.2539
 5076SOL    HW126687   2.840   2.866  16.079  0.6165 -0.0139 -1.6711
 5076SOL    HW226688   2.723   2.950  16.044  2.6237  0.4107  1.1999
 5077SOL     OW26689   1.595   0.092   5.701 -0.7867  0.2824 -0.0262
 5077SOL    HW126690   1.531   0.157   5.672 -0.8234  0.4167  0.3527
 5077SOL    HW226691   1.676   0.140   5.681  0.1482 -1.7111 -1.0025
 5078SOL     OW26692   0.721   2.639   8.841 -0.7252  0.3254 -0.4091
 5078SOL    HW126693   0.725   2.716   8.783  0.4416  1.2976  0.9471
 5078SOL    HW226694   0.703   2.689   8.921 -0.4498 -0.6867  0.2843
 5079SOL     OW26695   1.284   3.698   7.900 -0.5527  0.4151 -0.8802
 5079SOL    HW126696   1.334   3.776   7.872  0.0551 -0.6848 -2.8805
 5079SOL    HW226697   1.257   3.726   7.987  1.0322  0.9015 -0.5454
 5080SOL     OW26698   2.731   3.560   3.798  0.3088 -0.1577  0.3529
 5080SOL    HW126699   2.681   3.574   3.878 -0.5678 -0.1904 -0.1903
 5080SOL    HW226700   2.727   3.464   3.799  2.2831 -0.2566 -1.0813
 5081SOL     OW26701   1.769   0.248   3.487  0.0673  0.4008  0.2267
 5081SOL    HW126702   1.836   0.180   3.480 -1.2909 -1.0846  1.7439
 5081SOL    HW226703   1.695   0.192   3.509  0.7716 -1.2161 -1.4817
 5082SOL     OW26704   2.375   2.204   8.341 -0.1191 -0.1611 -0.0119
 5082SOL    HW126705   2.408   2.143   8.275 -2.1333 -0.2474 -0.9257
 5082SOL    HW226706   2.416   2.287   8.313 -1.6370  0.5690 -0.0559
 5083SOL     OW26707   1.691   4.103  16.673 -0.0625 -0.0565  0.5156
 5083SOL    HW126708   1.650   4.188  16.660  2.0708  1.0398  0.9998
 5083SOL    HW226709   1.729   4.089  16.586 -1.4888 -0.4963 -0.0365
 5084SOL     OW26710   3.877   0.873   8.623 -0.1292 -0.7452  0.3946
 5084SOL    HW126711   3.800   0.855   8.677 -0.0415 -1.1553  0.3825
 5084SOL    HW226712   3.946   0.860   8.688 -1.3115  0.2538  1.8454
 5085SOL     OW26713   1.922   2.779   0.328  0.1670 -0.3351  0.8148
 5085SOL    HW126714   1.853   2.832   0.368  1.4361  2.1762 -0.3145
 5085SOL    HW226715   1.977   2.855   0.310 -2.1818  0.1620 -4.1060
 5086SOL     OW26716   2.561   2.020   1.267  0.7412 -0.0591 -0.6087
 5086SOL    HW126717   2.655   2.013   1.247  1.3957 -3.2462  3.5904
 5086SOL    HW226718   2.555   2.006   1.362  0.7313 -0.1619 -0.6236
 5087SOL     OW26719   3.615   1.453   0.106 -0.6758 -0.6383  0.7050
 5087SOL    HW126720   3.660   1.386   0.158 -3.2036 -1.7034  1.4976
 5087SOL    HW226721   3.589   1.402   0.029 -0.9172  1.4127 -0.5551
 5088SOL     OW26722   3.722   3.014   8.576  0.9274  0.2460  0.2795
 5088SOL    HW126723   3.721   2.944   8.641 -0.6247  0.3141  0.3324
 5088SOL    HW226724   3.816   3.009   8.559  1.1121 -1.6926  1.8563
 5089SOL     OW26725   3.266   1.474  12.808 -0.8631 -0.1083  0.1082
 5089SOL    HW126726   3.238   1.548  12.753 -1.3341 -0.2681  0.1386
 5089SOL    HW226727   3.272   1.530  12.885 -1.5156 -0.0478  0.1147
 5090SOL     OW26728   3.699   3.241   6.466 -0.1184 -0.1576 -0.6307
 5090SOL    HW126729   3.703   3.243   6.370 -0.5090 -0.8715 -0.6620
 5090SOL    HW226730   3.738   3.328   6.480 -0.9126  0.2783 -1.1022
 5091SOL     OW26731   2.093   1.478  13.760  0.0982  0.0233  0.2679
 5091SOL    HW126732   2.046   1.394  13.761 -1.7304  1.0336  0.5287
 5091SOL    HW226733   2.079   1.506  13.851  2.5324 -0.1985  0.7026
 5092SOL     OW26734   4.113   3.142  13.150  0.5528 -0.0311 -0.1823
 5092SOL    HW126735   4.114   3.228  13.191 -1.2666 -0.8906  1.6999
 5092SOL    HW226736   4.200   3.122  13.116  1.5025  0.1836  2.1237
 5093SOL     OW26737   0.384   4.190   0.871  0.0814 -0.5750 -0.2316
 5093SOL    HW126738   0.306   4.219   0.824  2.0683  2.5971 -1.6008
 5093SOL    HW226739   0.382   4.247   0.948  0.8209 -0.4032 -0.3424
 5094SOL     OW26740   3.330   4.597   7.765 -0.2471  0.5287  0.3379
 5094SOL    HW126741   3.406   4.562   7.812  0.1038 -0.2599 -0.8135
 5094SOL    HW226742   3.268   4.524   7.767  0.7348 -0.3346 -0.1399
 5095SOL     OW26743   2.004   1.485   5.487  0.6483 -0.5328 -0.0449
 5095SOL    HW126744   2.052   1.416   5.532 -0.9468 -0.6917  1.4509
 5095SOL    HW226745   2.071   1.539   5.445  0.2483 -0.1593 -0.2051
 5096SOL     OW26746   0.169   0.624  17.243  0.3674 -0.1801  0.1860
 5096SOL    HW126747   0.073   0.619  17.244  0.3190  1.7370  3.1832
 5096SOL    HW226748   0.194   0.572  17.166  1.5739 -3.0186  2.4882
 5097SOL     OW26749   0.642   1.650   8.838  0.0974 -0.3277  0.0762
 5097SOL    HW126750   0.715   1.607   8.883  0.2234 -0.3698 -0.1682
 5097SOL    HW226751   0.570   1.587   8.838 -0.5455  0.4216 -1.9680
 5098SOL     OW26752   1.583   4.099   7.956 -0.5344 -0.0399  0.1636
 5098SOL    HW126753   1.614   4.187   7.977 -2.0263  0.1142  1.7268
 5098SOL    HW226754   1.652   4.064   8.013 -1.0729  0.0235  0.8508
 5099SOL     OW26755   2.216   3.289  13.459 -0.3700  0.3544 -0.5132
 5099SOL    HW126756   2.174   3.239  13.389  1.8188 -1.5890 -0.4468
 5099SOL    HW226757   2.304   3.257  13.441 -0.8401 -2.0022  1.3232
 5100SOL     OW26758   3.373   2.715   7.583 -0.2228 -0.6344  0.2047
 5100SOL    HW126759   3.293   2.759   7.555  1.5319  2.7142  0.5652
 5100SOL    HW226760   3.439   2.780   7.562 -2.2063  1.2814 -0.0609
 5101SOL     OW26761   4.030   4.711   6.452 -0.4251  0.5265  0.7858
 5101SOL    HW126762   4.084   0.067   6.467  0.5276 -0.1181  0.6744
 5101SOL    HW226763   4.070   4.649   6.513 -2.4067  0.4603  2.0137
 5102SOL     OW26764   3.268   2.641   4.547  0.4665  0.3711  0.1588
 5102SOL    HW126765   3.277   2.646   4.642  1.7174  0.8116  0.0201
 5102SOL    HW226766   3.359   2.625   4.523 -0.2486 -2.2974 -0.8329
 5103SOL     OW26767   3.340   0.349   5.662 -0.5730  0.3949 -0.0415
 5103SOL    HW126768   3.334   0.315   5.751  0.8765 -0.9614 -0.4579
 5103SOL    HW226769   3.417   0.301   5.630 -0.9444 -0.7865  0.8308
 5104SOL     OW26770   4.455   0.932  11.748 -0.1242  0.2089  0.2381
 5104SOL    HW126771   4.485   0.844  11.727  1.1972  0.7747 -0.2779
 5104SOL    HW226772   4.475   0.941  11.842 -1.2966  0.7502  0.4307
 5105SOL     OW26773   1.484   3.286   3.871 -0.0364  0.4981 -0.0829
 5105SOL    HW126774   1.558   3.341   3.896 -0.3809  0.3174  1.3212
 5105SOL    HW226775   1.534   3.204   3.871 -0.4120  0.2942  1.8213
 5106SOL     OW26776   2.100   3.941   9.617 -0.2218  0.6471  0.3162
 5106SOL    HW126777   2.192   3.915   9.612 -0.5413 -0.1888 -1.3432
 5106SOL    HW226778   2.109   4.023   9.666  0.9603  0.5776  0.2262
 5107SOL     OW26779   2.842   0.787  11.571  0.2740 -0.5285  0.7052
 5107SOL    HW126780   2.816   0.864  11.522 -0.5967 -2.3837 -1.7331
 5107SOL    HW226781   2.751   0.766  11.594  0.4213 -1.3619  0.5074
 5108SOL     OW26782   0.059   4.286   9.028  0.4888 -0.4560 -0.4185
 5108SOL    HW126783   0.001   4.229   9.080 -2.6593  3.9508  0.9273
 5108SOL    HW226784   4.716   4.338   8.978  0.5238 -0.1650 -0.1605
 5109SOL     OW26785   0.584   3.811   8.997  0.1419  0.2095 -0.7102
 5109SOL    HW126786   0.667   3.852   9.022  0.1021  0.3122 -0.7437
 5109SOL    HW226787   0.527   3.820   9.074  0.3051 -0.3736 -0.5259
 5110SOL     OW26788   3.907   1.147   5.180 -0.6522  0.3734  0.4317
 5110SOL    HW126789   3.877   1.064   5.144  2.6668 -1.0771  0.9626
 5110SOL    HW226790   3.989   1.136   5.229 -1.4757  1.1597  1.9738
 5111SOL     OW26791   0.903   4.576  13.939 -0.3172 -0.2090 -0.5669
 5111SOL    HW126792   0.943   4.571  14.026 -0.6160 -0.8924 -0.4698
 5111SOL    HW226793   0.953   4.501  13.905 -0.1828 -0.0999 -0.6125
 5112SOL     OW26794   2.089   4.177   4.821  0.2049 -0.0016  0.1780
 5112SOL    HW126795   2.112   4.100   4.874 -1.1706 -0.0231  0.7525
 5112SOL    HW226796   2.170   4.227   4.828  1.0840 -1.1392 -1.6369
 5113SOL     OW26797   3.659   2.651   6.229 -0.0702  0.1975  0.0714
 5113SOL    HW126798   3.658   2.700   6.311 -0.9251 -0.4904  0.4859
 5113SOL    HW226799   3.591   2.588   6.253  0.3674 -0.2624  0.1076
 5114SOL     OW26800   1.377   2.111   7.748  0.3454 -0.3684 -0.7024
 5114SOL    HW126801   1.391   2.034   7.802  3.5597  0.1852 -0.7128
 5114SOL    HW226802   1.347   2.166   7.820  0.0463 -0.5015 -0.7283
 5115SOL     OW26803   3.703   4.364  14.319 -0.1496  0.2688  0.7006
 5115SOL    HW126804   3.617   4.321  14.324 -0.8130  1.1580 -2.6673
 5115SOL    HW226805   3.716   4.378  14.225  1.6772 -0.4096  0.8638
 5116SOL     OW26806   1.978   3.739  11.209  0.2048 -0.0738 -0.8923
 5116SOL    HW126807   2.027   3.775  11.282 -1.6054  1.5662 -0.4898
 5116SOL    HW226808   2.035   3.668  11.179 -0.3423 -1.6017  1.7418
 5117SOL     OW26809   0.372   1.178   3.138 -0.0231 -0.1438 -0.8568
 5117SOL    HW126810   0.309   1.137   3.196  2.0256 -2.2341 -0.0976
 5117SOL    HW226811   0.319   1.208   3.064 -2.3439  0.7110  1.1722
 5118SOL     OW26812   4.500   3.916   4.900  0.3957 -0.3139  0.1731
 5118SOL    HW126813   4.484   3.838   4.953 -2.7522  0.8938  1.0117
 5118SOL    HW226814   4.525   3.873   4.819  0.4311 -1.8299  0.9783
 5119SOL     OW26815   4.186   0.141   8.437  0.5189 -0.0446 -0.5493
 5119SOL    HW126816   4.218   0.103   8.518 -0.8420  0.3140  0.1531
 5119SOL    HW226817   4.101   0.098   8.439  1.3141 -1.5044  1.1792
 5120SOL     OW26818   3.585   2.339   8.891  0.0687 -0.4053 -0.0371
 5120SOL    HW126819   3.613   2.376   8.975 -2.0249 -0.0381  0.5179
 5120SOL    HW226820   3.492   2.320   8.902  0.5231 -3.0375 -0.7773
 5121SOL     OW26821   1.156   2.543   2.836  0.3768  0.2264  0.5066
 5121SOL    HW126822   1.114   2.461   2.863  1.6352 -0.4235  0.4703
 5121SOL    HW226823   1.098   2.595   2.891  0.1583 -0.5019  0.9716
 5122SOL     OW26824   1.419   0.576  15.169 -0.8088 -0.0923 -0.3946
 5122SOL    HW126825   1.506   0.542  15.148 -0.6964 -1.4133  2.2411
 5122SOL    HW226826   1.437   0.600  15.259 -0.3731 -1.6127 -0.0778
 5123SOL     OW26827   1.212   1.451   6.997 -0.0643  0.2015  0.5356
 5123SOL    HW126828   1.182   1.452   7.088  0.9067 -2.3515  0.8848
 5123SOL    HW226829   1.237   1.543   6.986 -1.4402  0.1743 -2.5175
 5124SOL     OW26830   1.274   0.180   9.280  0.1515  0.0365  0.2876
 5124SOL    HW126831   1.218   0.256   9.266  0.7172  0.3076 -0.5434
 5124SOL    HW226832   1.283   0.181   9.375  0.7603 -0.0851  0.2287
 5125SOL     OW26833   1.443   0.486   0.045 -0.3237 -0.5435  0.0794
 5125SOL    HW126834   1.507   0.415   0.043  0.9494  0.6450 -2.3551
 5125SOL    HW226835   1.421   0.479   0.138 -2.3882 -1.0923 -0.4493
 5126SOL     OW26836   0.535   0.690   5.403 -0.5229  0.2001 -0.4273
 5126SOL    HW126837   0.600   0.756   5.428  0.8783 -0.4725 -2.2791
 5126SOL    HW226838   0.476   0.688   5.478 -1.2123 -1.9735 -1.0244
 5127SOL     OW26839   2.503   0.765   2.260 -0.0793 -0.3210 -0.2041
 5127SOL    HW126840   2.566   0.713   2.310 -1.6981 -0.7219  1.4355
 5127SOL    HW226841   2.436   0.789   2.325 -0.4406  0.4106 -0.8502
 5128SOL     OW26842   3.213   0.997   5.892 -0.1305  0.2718 -0.0397
 5128SOL    HW126843   3.119   1.014   5.891 -0.2707 -0.4378  0.9233
 5128SOL    HW226844   3.226   0.955   5.807 -1.1038  0.1460 -0.1297
 5129SOL     OW26845   3.980   2.469   5.472  0.2192 -0.2180 -0.1585
 5129SOL    HW126846   4.049   2.452   5.408 -0.1267 -0.1768 -0.5408
 5129SOL    HW226847   3.940   2.382   5.471 -0.4126  0.0561  0.5919
 5130SOL     OW26848   1.271   1.984   6.924 -0.3112 -0.1574 -0.1454
 5130SOL    HW126849   1.312   1.990   6.838  0.9013  0.4196  0.4649
 5130SOL    HW226850   1.334   2.035   6.975  0.2638  0.4964 -1.5224
 5131SOL     OW26851   3.299   2.807   5.306 -0.8983 -0.1537 -0.1469
 5131SOL    HW126852   3.248   2.884   5.332 -0.3698  0.6015 -1.3278
 5131SOL    HW226853   3.317   2.761   5.388 -0.5746 -0.7781 -0.5683
 5132SOL     OW26854   2.469   2.079   1.556  0.1355 -0.0658  0.0269
 5132SOL    HW126855   2.525   2.070   1.633  1.3619  0.0667 -0.8493
 5132SOL    HW226856   2.421   2.161   1.572 -1.9211 -1.3903  0.6852
 5133SOL     OW26857   0.546   0.275   4.513  0.0775  0.4951 -0.4161
 5133SOL    HW126858   0.548   0.179   4.517 -0.1085  0.6120  2.7351
 5133SOL    HW226859   0.641   0.284   4.506 -0.1870  1.5963 -2.7153
 5134SOL     OW26860   1.531   1.965  11.518  0.8887  0.1057  0.6155
 5134SOL    HW126861   1.553   2.029  11.586  0.7035  0.5518  0.2524
 5134SOL    HW226862   1.591   1.897  11.548  0.8119 -0.0541  0.4022
 5135SOL     OW26863   4.532   3.523   8.318  0.6094 -0.3293 -0.0407
 5135SOL    HW126864   4.446   3.481   8.317  0.4918 -0.0983  0.2674
 5135SOL    HW226865   4.523   3.573   8.400 -1.1946  1.0886 -1.1075
 5136SOL     OW26866   4.010   2.228   4.777  0.1268 -0.1976  0.0162
 5136SOL    HW126867   4.085   2.260   4.726 -2.0551  0.5176 -2.7718
 5136SOL    HW226868   3.948   2.200   4.709 -0.4324 -1.5849  1.0889
 5137SOL     OW26869   1.717   2.532   7.247  0.4748 -0.0459 -0.0601
 5137SOL    HW126870   1.794   2.494   7.205  1.4222  1.6296  0.1687
 5137SOL    HW226871   1.697   2.476   7.322  0.7859 -0.5551 -0.3609
 5138SOL     OW26872   3.416   0.982   1.758  0.0624  0.1416 -0.3456
 5138SOL    HW126873   3.501   0.961   1.796  0.3338  3.0206  0.6695
 5138SOL    HW226874   3.419   0.916   1.689 -1.8113 -1.0531  0.7057
 5139SOL     OW26875   0.388   2.953   3.359  0.2862 -0.0799  0.4197
 5139SOL    HW126876   0.460   2.891   3.367 -0.5044 -1.0730 -0.1581
 5139SOL    HW226877   0.339   2.895   3.300 -0.0010  1.2253 -0.6156
 5140SOL     OW26878   3.854   3.321  14.235  0.4855  0.1239  0.5433
 5140SOL    HW126879   3.843   3.396  14.293 -0.0523  0.6885 -0.2753
 5140SOL    HW226880   3.949   3.322  14.219  0.3960 -0.0115  0.0006
 5141SOL     OW26881   1.449   3.089  11.959  0.0457  0.0596  0.9245
 5141SOL    HW126882   1.543   3.086  11.978  0.6786  2.8959 -1.7632
 5141SOL    HW226883   1.413   3.020  12.013  1.7276 -1.3688  0.2555
 5142SOL     OW26884   3.038   4.373   4.316 -0.3053  0.0283  0.3842
 5142SOL    HW126885   3.027   4.314   4.241 -1.6253  0.5734  0.1426
 5142SOL    HW226886   2.979   4.445   4.292  0.8820  1.4377  1.7285
 5143SOL     OW26887   4.358   1.249   6.120 -0.1408 -0.0087 -0.0808
 5143SOL    HW126888   4.383   1.324   6.175 -1.7255  0.3584  0.1511
 5143SOL    HW226889   4.416   1.182   6.155 -0.2474  0.6782  1.4431
 5144SOL     OW26890   0.974   1.751  15.372  0.0870  0.6937 -0.1650
 5144SOL    HW126891   0.977   1.704  15.289 -2.3866 -0.0069  0.1616
 5144SOL    HW226892   1.051   1.704  15.406  0.9320  0.1146 -2.8586
 5145SOL     OW26893   4.342   4.305   8.217  0.2584 -0.2128 -0.4637
 5145SOL    HW126894   4.289   4.370   8.172 -0.7827  0.3563  1.5655
 5145SOL    HW226895   4.299   4.220   8.209  2.0480 -1.1307 -0.3471
 5146SOL     OW26896   4.487   4.494   7.841 -0.0692 -0.0081 -0.3561
 5146SOL    HW126897   4.564   4.498   7.898  0.1297  0.3589 -0.6535
 5146SOL    HW226898   4.422   4.549   7.885 -0.3874 -1.6298  1.1810
 5147SOL     OW26899   1.041   0.180  11.195  0.2050  0.0945  0.2557
 5147SOL    HW126900   1.072   0.091  11.212 -1.8045 -0.7403 -0.3458
 5147SOL    HW226901   1.015   0.204  11.284  0.0958 -0.8452  0.4776
 5148SOL     OW26902   0.764   1.361   8.842  0.0219  0.1241  0.5470
 5148SOL    HW126903   0.811   1.424   8.896  2.4760  0.6807 -2.1910
 5148SOL    HW226904   0.819   1.284   8.858 -1.0620 -0.4334  1.5561
 5149SOL     OW26905   2.681   1.363   8.915  0.3024  0.3816  0.3783
 5149SOL    HW126906   2.642   1.376   9.001 -1.0160 -0.5763 -0.0606
 5149SOL    HW226907   2.769   1.385   8.944  0.6373 -1.3267  0.6863
 5150SOL     OW26908   0.947   4.645   5.857  0.4449  0.2595  0.5663
 5150SOL    HW126909   0.967   4.601   5.939  2.3224 -0.8831 -0.4994
 5150SOL    HW226910   1.032   4.676   5.826 -0.0038 -0.3651 -1.3405
 5151SOL     OW26911   0.593   0.836   6.049  0.8330 -0.0640 -0.3846
 5151SOL    HW126912   0.594   0.914   5.992  0.1748 -0.7514 -1.3399
 5151SOL    HW226913   0.525   0.869   6.108 -0.6312  2.1406 -3.2866
 5152SOL     OW26914   3.121   2.180   5.637 -0.2212  0.0278 -0.1297
 5152SOL    HW126915   3.135   2.199   5.729 -2.4264  0.7294  0.0426
 5152SOL    HW226916   3.169   2.254   5.599  0.5944 -0.9577 -1.0244
 5153SOL     OW26917   1.945   4.414   9.932  0.6759  0.4736  0.1282
 5153SOL    HW126918   1.954   4.411  10.027  2.0794  2.0560  0.0340
 5153SOL    HW226919   2.026   4.463   9.917  1.6375 -0.9383  0.7485
 5154SOL     OW26920   1.252   0.622  10.316 -0.5618 -0.2660  0.0968
 5154SOL    HW126921   1.311   0.567  10.264  0.2399  1.8649 -1.2294
 5154SOL    HW226922   1.286   0.710  10.303  1.8522 -1.3424 -0.8905
 5155SOL     OW26923   3.542   0.782   2.119  0.0700  0.1260  0.0409
 5155SOL    HW126924   3.554   0.757   2.028 -0.1163  0.4475 -0.0736
 5155SOL    HW226925   3.447   0.787   2.126  0.0695  1.3801 -0.9572
 5156SOL     OW26926   1.396   0.700   9.947 -0.2958 -1.1660  0.0142
 5156SOL    HW126927   1.320   0.671   9.897 -0.3818  1.2880 -1.2797
 5156SOL    HW226928   1.404   0.628  10.010 -2.5575 -0.9412  0.5859
 5157SOL     OW26929   3.065   2.527   2.473 -0.1503 -0.0198  0.4581
 5157SOL    HW126930   2.982   2.573   2.464  0.7007  1.3452 -0.4445
 5157SOL    HW226931   3.099   2.544   2.384 -0.4898 -0.3945  0.2573
 5158SOL     OW26932   2.698   2.355   6.543 -0.4873  0.3755  0.1361
 5158SOL    HW126933   2.609   2.332   6.517  0.3109 -1.8430 -0.6478
 5158SOL    HW226934   2.720   2.269   6.578 -1.3537  0.0924 -0.0248
 5159SOL     OW26935   2.158   2.168   7.021 -0.0164 -0.4478  0.0425
 5159SOL    HW126936   2.245   2.192   7.053 -0.0904 -1.6324  1.1517
 5159SOL    HW226937   2.120   2.114   7.090  0.4286 -0.7876  0.0233
 5160SOL     OW26938   4.065   0.664   2.269  0.4176  0.6327  0.1507
 5160SOL    HW126939   4.069   0.722   2.193 -0.0346  0.8355  0.2865
 5160SOL    HW226940   4.147   0.614   2.259 -1.5108 -2.5791  0.5106
 5161SOL     OW26941   3.039   4.568  14.248  0.6059  0.3812  0.4452
 5161SOL    HW126942   3.130   4.593  14.257  0.3454  1.3411  0.4485
 5161SOL    HW226943   3.032   4.476  14.276  0.5495  0.7435  1.6040
 5162SOL     OW26944   3.628   2.408   4.159 -0.1908 -0.2755 -0.2306
 5162SOL    HW126945   3.644   2.496   4.126  0.5902  0.1879  1.3466
 5162SOL    HW226946   3.711   2.377   4.195 -1.2111 -0.9299  1.5828
 5163SOL     OW26947   4.459   4.699   0.694 -0.9679  0.0483  0.1838
 5163SOL    HW126948   4.389   4.672   0.634 -0.2743  0.1224 -0.6526
 5163SOL    HW226949   4.503   0.045   0.642 -1.7123  0.4264  0.0299
 5164SOL     OW26950   1.307   0.201  17.681 -0.1626  0.4882 -0.8941
 5164SOL    HW126951   1.246   0.256   0.045  1.2316 -0.8670  2.2768
 5164SOL    HW226952   1.272   0.221  17.595 -0.7714 -0.3975 -0.8571
 5165SOL     OW26953   2.125   1.590   4.816  0.3132 -0.1774 -0.4267
 5165SOL    HW126954   2.186   1.653   4.778 -0.4531  0.1984 -1.0307
 5165SOL    HW226955   2.189   1.518   4.820 -0.4911 -1.0948 -3.9095
 5166SOL     OW26956   2.536   0.669   3.841 -0.0076 -0.2266  0.0057
 5166SOL    HW126957   2.554   0.692   3.932 -0.2534 -0.4040  0.1007
 5166SOL    HW226958   2.456   0.617   3.843  0.5553 -1.2073 -2.2602
 5167SOL     OW26959   0.064   3.658   8.871  0.6119 -0.2944 -0.1059
 5167SOL    HW126960   4.701   3.705   8.880  0.2309 -0.5414 -2.5138
 5167SOL    HW226961   0.109   3.672   8.954  0.6212 -2.9407  0.3361
 5168SOL     OW26962   2.330   1.587  12.008  0.1987 -0.4679  0.1944
 5168SOL    HW126963   2.333   1.529  12.084  1.5975  0.7901  1.1042
 5168SOL    HW226964   2.423   1.611  12.006 -0.4223  1.7050 -1.6727
 5169SOL     OW26965   2.712   0.186  11.286 -0.2220  0.5405  0.0223
 5169SOL    HW126966   2.626   0.221  11.260  0.2212  0.8273 -1.0418
 5169SOL    HW226967   2.773   0.221  11.221 -0.2791 -1.6998 -1.2056
 5170SOL     OW26968   2.264   1.334   8.534 -0.0480 -0.1382  0.4190
 5170SOL    HW126969   2.317   1.352   8.611  2.1474 -0.0172 -1.1340
 5170SOL    HW226970   2.249   1.417   8.489 -1.1963  0.6013  2.1623
 5171SOL     OW26971   4.696   0.211   8.662  0.3017  0.0163 -0.6535
 5171SOL    HW126972   4.675   0.302   8.644  0.4375 -0.4390 -3.1384
 5171SOL    HW226973   4.621   0.169   8.619  0.5304 -1.5907  0.5080
 5172SOL     OW26974   0.574   2.106   5.545  0.3429 -0.3742  0.6911
 5172SOL    HW126975   0.618   2.037   5.593  1.4554 -0.1156  0.0311
 5172SOL    HW226976   0.649   2.146   5.502  0.5669 -1.7773 -0.2215
 5173SOL     OW26977   2.264   1.408  16.578 -0.6909  0.0648 -0.5521
 5173SOL    HW126978   2.177   1.369  16.576 -0.4483 -0.4248 -1.9531
 5173SOL    HW226979   2.243   1.480  16.517 -1.4000 -1.2617 -1.8643
 5174SOL     OW26980   0.067   2.356   3.003  0.5562  0.3179  0.3697
 5174SOL    HW126981   0.000   2.421   2.980 -0.2109 -0.0337  1.5885
 5174SOL    HW226982   0.024   2.312   3.077 -2.3750  1.7396 -0.4726
 5175SOL     OW26983   2.054   2.229  14.317 -0.0718  0.0991 -0.1784
 5175SOL    HW126984   1.991   2.158  14.329  1.0863 -1.1153 -1.2942
 5175SOL    HW226985   2.044   2.250  14.224 -0.4312 -2.4022 -0.6912
 5176SOL     OW26986   4.010   0.516   9.789  0.8653 -0.7873  0.3208
 5176SOL    HW126987   4.078   0.521   9.723  1.1359  2.0193  0.7892
 5176SOL    HW226988   4.043   0.577   9.855 -2.8309  2.0683 -0.4636
 5177SOL     OW26989   4.567   3.448   3.569 -0.1619 -0.9726  0.5474
 5177SOL    HW126990   4.629   3.507   3.526 -0.1059  0.6584  2.8501
 5177SOL    HW226991   4.615   3.433   3.650 -0.4044 -0.9692  0.6915
 5178SOL     OW26992   2.827   3.608   6.626 -0.2677  0.2851 -0.4629
 5178SOL    HW126993   2.878   3.689   6.638  1.0258 -0.5152 -0.4997
 5178SOL    HW226994   2.790   3.623   6.539 -2.7159 -2.1033  0.1867
 5179SOL     OW26995   1.825   0.017   8.782  0.2730 -0.4882  0.3179
 5179SOL    HW126996   1.761   0.010   8.853  0.6429  1.9625  0.9210
 5179SOL    HW226997   1.796   0.080   8.716  0.4699 -0.1130  0.5846
 5180SOL     OW26998   3.480   0.243   9.208 -0.0517 -0.1839  0.0320
 5180SOL    HW126999   3.451   0.243   9.299  1.8440 -0.5207  0.6230
 5180SOL    HW227000   3.529   0.161   9.210  0.4184  0.1322  1.1719
 5181SOL     OW27001   2.271   2.470   1.990 -0.5502  0.0073 -0.7193
 5181SOL    HW127002   2.336   2.509   1.931  1.1866  0.4077  1.4536
 5181SOL    HW227003   2.323   2.395   2.019  0.6020  1.3026  0.5961
 5182SOL     OW27004   2.680   3.184  16.925 -0.4174 -0.0265  0.6658
 5182SOL    HW127005   2.708   3.258  16.980  0.2462 -0.2407  0.6181
 5182SOL    HW227006   2.618   3.141  16.983 -1.8210  1.8015  0.5218
 5183SOL     OW27007   4.487   1.142   7.012 -0.4855 -0.0473 -0.8567
 5183SOL    HW127008   4.524   1.141   6.924  1.5312 -0.0102 -0.0014
 5183SOL    HW227009   4.412   1.202   7.010 -0.4235  0.1092  1.4017
 5184SOL     OW27010   4.080   2.563   7.339  0.0041 -0.3225 -0.0804
 5184SOL    HW127011   4.061   2.652   7.309 -0.1969 -0.3713 -0.0988
 5184SOL    HW227012   4.161   2.574   7.389  0.2529  2.0328 -0.9744
 5185SOL     OW27013   2.632   1.586   4.750  0.4401 -0.4327  0.1852
 5185SOL    HW127014   2.579   1.506   4.747  0.7768 -0.5966 -1.2668
 5185SOL    HW227015   2.714   1.559   4.707  0.2499  0.7637 -0.9299
 5186SOL     OW27016   0.745   3.301   2.320 -0.1838  0.4515  0.3786
 5186SOL    HW127017   0.821   3.320   2.267 -0.8917  1.2623 -0.3453
 5186SOL    HW227018   0.713   3.391   2.319 -1.6249 -0.0934 -1.3296
 5187SOL     OW27019   3.878   0.933   1.975  0.4469 -0.1101  0.3701
 5187SOL    HW127020   3.898   0.933   2.068 -1.3629  0.8726  0.7351
 5187SOL    HW227021   3.963   0.905   1.939 -0.5630 -0.1530 -2.0223
 5188SOL     OW27022   3.664   1.679   7.162  0.0235  0.1528  0.3226
 5188SOL    HW127023   3.651   1.762   7.116  1.2487  0.9602  1.4224
 5188SOL    HW227024   3.736   1.638   7.113 -0.5045 -2.3323  1.5953
 5189SOL     OW27025   3.255   1.618   4.415  0.1462 -0.2873 -0.0948
 5189SOL    HW127026   3.270   1.592   4.506  1.9579 -0.2602 -0.3792
 5189SOL    HW227027   3.342   1.590   4.384  0.9181 -0.0629  1.8871
 5190SOL     OW27028   1.041   3.640   1.414  0.0345  0.2486 -0.5499
 5190SOL    HW127029   0.961   3.589   1.429 -0.0776  0.4562 -0.4369
 5190SOL    HW227030   1.010   3.730   1.418 -3.9192 -1.0817 -1.0417
 5191SOL     OW27031   4.326   1.418  13.398 -0.0499 -0.2983 -1.0556
 5191SOL    HW127032   4.403   1.430  13.342 -0.5565  2.2908 -1.2023
 5191SOL    HW227033   4.332   1.485  13.466 -1.7989  1.8110 -2.9829
 5192SOL     OW27034   3.615   1.886  15.854  0.0186 -0.2411  0.4515
 5192SOL    HW127035   3.678   1.837  15.908  0.3458  1.1097  1.2941
 5192SOL    HW227036   3.592   1.959  15.911 -2.0828 -2.4580  2.3998
 5193SOL     OW27037   4.459   1.220   5.082 -0.5337 -0.1480 -1.0982
 5193SOL    HW127038   4.393   1.206   5.014 -2.0853  0.1122  0.3344
 5193SOL    HW227039   4.485   1.310   5.067  0.0988 -0.0918  0.3658
 5194SOL     OW27040   4.057   0.969   2.220  0.0277 -0.3317  0.1915
 5194SOL    HW127041   4.060   1.063   2.202 -1.1280  0.0773  2.1672
 5194SOL    HW227042   4.094   0.967   2.308 -0.7008 -1.7123  0.4543
 5195SOL     OW27043   1.823   2.621  14.476  0.7252 -0.2483  0.2463
 5195SOL    HW127044   1.886   2.588  14.540  1.9862 -0.6248 -1.1962
 5195SOL    HW227045   1.739   2.596  14.515  0.4681  0.4048  0.1056
 5196SOL     OW27046   4.113   3.431  13.171 -0.3014  0.2395 -0.3251
 5196SOL    HW127047   4.207   3.446  13.174 -0.1863 -0.6859  0.5467
 5196SOL    HW227048   4.081   3.517  13.199  0.9629  0.1367  1.4019
 5197SOL     OW27049   0.765   0.329  12.458  0.2096  0.2706  0.4275
 5197SOL    HW127050   0.791   0.414  12.424  0.1391  0.8791  1.9161
 5197SOL    HW227051   0.720   0.362  12.535  0.0086 -0.8888  0.8176
 5198SOL     OW27052   1.882   2.101   3.270  0.3300 -0.4686 -0.7984
 5198SOL    HW127053   1.951   2.036   3.285  0.7222  0.4326  1.2577
 5198SOL    HW227054   1.867   2.101   3.175  1.1573 -2.3394 -0.9364
 5199SOL     OW27055   4.322   2.002   5.292 -0.1275  0.3314 -0.5472
 5199SOL    HW127056   4.234   1.993   5.256  0.4790  0.3452 -2.0581
 5199SOL    HW227057   4.352   1.918   5.258 -1.0115 -0.5571  0.9080
 5200SOL     OW27058   1.918   0.680   2.563  0.0473 -0.2288 -0.3954
 5200SOL    HW127059   1.861   0.603   2.569  0.4772 -0.7521 -3.0194
 5200SOL    HW227060   1.910   0.711   2.473  2.6155 -0.7461 -0.7973
 5201SOL     OW27061   0.324   2.054   2.984  0.3311 -0.1287 -0.1468
 5201SOL    HW127062   0.367   2.135   2.960 -1.4703  0.6890 -0.5914
 5201SOL    HW227063   0.387   1.984   3.002  1.3529  1.0952  1.0595
 5202SOL     OW27064   4.167   2.464   8.327  0.1410 -0.2081  0.6465
 5202SOL    HW127065   4.164   2.544   8.379  1.1479  0.5496 -0.4424
 5202SOL    HW227066   4.247   2.423   8.361  1.1456  2.2948  1.3306
 5203SOL     OW27067   4.273   2.225  15.923  0.1554 -0.5427  0.0167
 5203SOL    HW127068   4.220   2.232  15.844  1.7826 -0.0694 -1.0470
 5203SOL    HW227069   4.318   2.142  15.903  1.5778  0.0875  0.5592
 5204SOL     OW27070   3.387   3.896   7.649 -0.5533  0.3514 -0.3097
 5204SOL    HW127071   3.408   3.854   7.733  0.8171 -2.8772 -2.2553
 5204SOL    HW227072   3.407   3.820   7.595 -0.0929 -1.1807  1.9862
 5205SOL     OW27073   2.593   3.322   4.113  0.2928 -0.1648  0.0839
 5205SOL    HW127074   2.508   3.328   4.156  1.2200  2.1045  1.5958
 5205SOL    HW227075   2.605   3.234   4.149 -0.7647 -0.8206 -1.1781
 5206SOL     OW27076   3.607   4.249   4.161 -0.2597  0.5788  0.4665
 5206SOL    HW127077   3.523   4.213   4.191  0.5822 -1.0367  0.9099
 5206SOL    HW227078   3.582   4.336   4.129  0.7613  1.1522  1.2642
 5207SOL     OW27079   4.635   3.900  12.477 -0.1533  0.3679  0.1677
 5207SOL    HW127080   4.690   3.959  12.529 -1.6305  0.4656  1.6388
 5207SOL    HW227081   4.698   3.853  12.423 -0.0005 -0.7591  1.3298
 5208SOL     OW27082   0.247   3.638   3.779 -0.0868  0.0742  0.4063
 5208SOL    HW127083   0.240   3.598   3.692 -0.3355  0.0441  0.4380
 5208SOL    HW227084   0.235   3.558   3.830 -0.0133  0.0269  0.3494
 5209SOL     OW27085   3.174   3.122  14.431 -0.0464  0.3840  0.0253
 5209SOL    HW127086   3.103   3.169  14.474  0.6795  1.1567  0.3841
 5209SOL    HW227087   3.251   3.142  14.484 -0.8891 -0.2781  1.5001
 5210SOL     OW27088   1.288   2.374   0.377  0.5779 -0.6628 -0.1789
 5210SOL    HW127089   1.229   2.423   0.320 -1.2434 -0.9057  1.5099
 5210SOL    HW227090   1.287   2.423   0.459 -0.6414 -0.6399 -0.2134
 5211SOL     OW27091   0.063   2.094   7.416 -0.2388  0.2085  0.3538
 5211SOL    HW127092   0.081   2.001   7.403 -0.4097  0.4743 -1.8399
 5211SOL    HW227093   4.698   2.104   7.375 -1.0809 -1.0419  1.8357
 5212SOL     OW27094   1.581   1.087   3.948  0.2634  0.4389 -0.5652
 5212SOL    HW127095   1.581   1.156   3.881 -3.2931  0.5030 -0.5236
 5212SOL    HW227096   1.543   1.015   3.897 -0.5540  0.4985 -0.0443
 5213SOL     OW27097   2.433   0.660   4.336 -0.2088 -1.0107  0.0251
 5213SOL    HW127098   2.386   0.576   4.332 -0.6526 -0.5837 -3.8997
 5213SOL    HW227099   2.355   0.715   4.326  1.3325  1.4691  1.7526
 5214SOL     OW27100   1.290   4.121   9.242 -0.2477  0.1159 -0.2314
 5214SOL    HW127101   1.297   4.087   9.331  0.5215 -1.9605 -1.0817
 5214SOL    HW227102   1.293   4.216   9.253  1.5683  0.0661 -0.2387
 5215SOL     OW27103   0.728   1.610   0.910  0.5203 -0.1338 -0.0651
 5215SOL    HW127104   0.670   1.620   0.985  1.2201 -0.6588  0.5469
 5215SOL    HW227105   0.667   1.599   0.837 -1.8007  0.2404  1.8443
 5216SOL     OW27106   1.443   4.392   3.371 -0.1801 -0.3818 -0.2300
 5216SOL    HW127107   1.500   4.468   3.384 -1.9837  0.5669  2.1922
 5216SOL    HW227108   1.381   4.403   3.444  0.1105  0.6975 -0.1373
 5217SOL     OW27109   2.393   1.008   7.755  0.7511 -0.8032  0.0047
 5217SOL    HW127110   2.475   1.049   7.782 -0.0397  0.2875  0.7542
 5217SOL    HW227111   2.413   0.923   7.794  1.8609  1.0050  3.4174
 5218SOL     OW27112   2.192   1.613   5.334  0.0754 -0.1783  0.5219
 5218SOL    HW127113   2.248   1.536   5.327 -2.3498 -2.0210  1.3263
 5218SOL    HW227114   2.172   1.626   5.241  2.9915  0.5816 -0.0012
 5219SOL     OW27115   2.166   1.646  11.071 -0.0126 -0.2492 -0.0070
 5219SOL    HW127116   2.216   1.727  11.064 -1.3681  0.5299 -0.4913
 5219SOL    HW227117   2.090   1.673  11.122 -1.7221 -1.0219 -2.1716
 5220SOL     OW27118   4.368   2.263   6.318 -0.1283 -0.7967  0.1483
 5220SOL    HW127119   4.456   2.232   6.299  0.4197 -0.9053  2.8763
 5220SOL    HW227120   4.381   2.295   6.408 -1.1659  1.4672 -0.5071
 5221SOL     OW27121   2.402   1.970   1.056 -0.7342  0.2818 -0.1396
 5221SOL    HW127122   2.438   1.998   1.140 -2.2785 -2.2731  1.3896
 5221SOL    HW227123   2.468   1.998   0.993 -0.1402 -0.9009 -0.0436
 5222SOL     OW27124   3.191   3.680  10.205  0.4134 -0.1885  0.0827
 5222SOL    HW127125   3.207   3.711  10.116 -1.5509  0.7598  0.0611
 5222SOL    HW227126   3.108   3.631  10.205  0.7056 -0.6659  2.4550
 5223SOL     OW27127   4.027   0.901   6.013  0.3211  0.2824 -0.7262
 5223SOL    HW127128   3.957   0.966   6.003  0.0402  0.2326  1.0222
 5223SOL    HW227129   3.969   0.830   6.039  0.1107  1.5690  2.2314
 5224SOL     OW27130   1.749   0.666  12.982 -0.1880  0.1314 -0.9716
 5224SOL    HW127131   1.821   0.724  13.005 -0.0136 -1.1078  1.6051
 5224SOL    HW227132   1.709   0.708  12.906 -1.1593 -0.2530 -0.6867
 5225SOL     OW27133   3.640   1.051   6.827  0.2568 -0.4342 -0.2370
 5225SOL    HW127134   3.674   0.965   6.854 -0.3047 -0.3779  0.6417
 5225SOL    HW227135   3.557   1.061   6.873  0.2118 -0.5395 -0.2958
 5226SOL     OW27136   2.529   4.410   4.381  0.1391 -0.3284  0.0564
 5226SOL    HW127137   2.554   4.348   4.449  0.5661 -1.8995 -1.5418
 5226SOL    HW227138   2.495   4.479   4.439  0.7975 -0.2819  0.3830
 5227SOL     OW27139   1.783   2.717  17.335  0.0867 -0.8234 -0.4075
 5227SOL    HW127140   1.847   2.666  17.284  0.7992 -1.3650  0.9925
 5227SOL    HW227141   1.701   2.670  17.323 -0.0902 -0.6568  0.1353
 5228SOL     OW27142   0.369   4.601   7.248 -0.1895  0.0114  0.1865
 5228SOL    HW127143   0.386   4.612   7.155  0.8488  0.4075  0.4168
 5228SOL    HW227144   0.406   4.687   7.270  0.0577 -0.1528  0.4122
 5229SOL     OW27145   2.829   4.048   6.556  0.1418 -0.3819 -0.4159
 5229SOL    HW127146   2.825   4.111   6.484 -2.2790 -1.7378 -1.4722
 5229SOL    HW227147   2.778   4.104   6.614  0.9442 -0.8062  0.6818
 5230SOL     OW27148   2.605   3.785   6.409 -0.1725 -0.4755  0.0341
 5230SOL    HW127149   2.549   3.863   6.417  0.1149 -0.1889 -0.7429
 5230SOL    HW227150   2.688   3.820   6.378 -0.5621 -1.8335 -2.5155
 5231SOL     OW27151   2.406   2.246  15.633  0.2011 -0.5176  0.0190
 5231SOL    HW127152   2.405   2.309  15.705 -0.2684 -0.4619 -0.0418
 5231SOL    HW227153   2.445   2.172  15.680 -0.7546  0.3013  2.0814
 5232SOL     OW27154   4.428   3.062   7.601 -0.1483 -0.3528  0.2792
 5232SOL    HW127155   4.341   3.081   7.566 -0.0834 -0.5283  0.0187
 5232SOL    HW227156   4.425   2.966   7.607 -0.8807 -0.2103  2.2004
 5233SOL     OW27157   0.811   1.166   7.837  0.2701  0.3461 -0.3792
 5233SOL    HW127158   0.826   1.080   7.797 -0.1721 -0.1214  0.4474
 5233SOL    HW227159   0.757   1.151   7.915 -0.5930  1.0125 -0.8611
 5234SOL     OW27160   1.464   1.270  12.818 -0.4861  0.0989  0.5314
 5234SOL    HW127161   1.455   1.362  12.794  0.9192 -0.2562 -1.4049
 5234SOL    HW227162   1.557   1.287  12.838 -0.2514 -0.1161 -0.3795
 5235SOL     OW27163   2.579   2.585   7.329 -0.4708  0.0608 -0.0393
 5235SOL    HW127164   2.633   2.599   7.252 -1.6857  2.3780 -0.4704
 5235SOL    HW227165   2.633   2.580   7.408  0.4265  1.5409 -0.5524
 5236SOL     OW27166   1.802   1.702   7.490 -0.6248 -0.5276 -0.3709
 5236SOL    HW127167   1.740   1.636   7.458 -0.1543 -0.5782 -1.1775
 5236SOL    HW227168   1.813   1.673   7.581  1.0074 -2.4464 -1.1765
 5237SOL     OW27169   4.698   1.696  10.664  0.0261 -0.0125 -0.6789
 5237SOL    HW127170   4.671   1.630  10.727  1.3067 -0.9471 -1.1139
 5237SOL    HW227171   0.070   1.684  10.680 -0.1620 -0.6226 -0.0518
 5238SOL     OW27172   0.581   0.987   7.332 -0.3303  0.1293 -0.3308
 5238SOL    HW127173   0.515   1.056   7.324 -0.8578 -0.3883 -0.4494
 5238SOL    HW227174   0.627   1.015   7.411 -1.4457  0.1269  0.3128
 5239SOL     OW27175   1.848   1.066  11.567 -0.3218  0.1014 -0.0037
 5239SOL    HW127176   1.898   1.062  11.486 -0.7121 -2.0025 -0.1390
 5239SOL    HW227177   1.770   1.019  11.537 -0.4889  0.2429  0.2033
 5240SOL     OW27178   1.056   0.896  17.305 -0.0307  0.0921  0.0210
 5240SOL    HW127179   1.068   0.938  17.390  3.0489 -1.8670  0.5624
 5240SOL    HW227180   1.034   0.973  17.254 -0.2096  0.7631  1.1018
 5241SOL     OW27181   2.039   0.301   8.745  0.0946 -0.3264 -0.4134
 5241SOL    HW127182   2.052   0.304   8.840 -0.5946 -2.1363 -0.2738
 5241SOL    HW227183   2.121   0.270   8.706  1.1990 -0.7819  2.2116
 5242SOL     OW27184   3.303   0.556   8.813 -0.0524  0.6999  0.0946
 5242SOL    HW127185   3.340   0.474   8.845 -0.9067 -0.1561 -1.1275
 5242SOL    HW227186   3.383   0.590   8.772 -0.3783 -0.1447 -1.2449
 5243SOL     OW27187   2.779   2.526   2.422 -0.8476  0.2926  0.0675
 5243SOL    HW127188   2.684   2.529   2.431 -1.0388 -1.0433 -1.3974
 5243SOL    HW227189   2.803   2.442   2.382  1.0556  1.3049 -0.9388
 5244SOL     OW27190   4.004   3.162   4.900  0.2194  0.6618 -0.3163
 5244SOL    HW127191   4.078   3.101   4.893 -1.4503 -1.3904  0.0821
 5244SOL    HW227192   4.039   3.236   4.850 -0.4490  1.4802  0.4434
 5245SOL     OW27193   2.001   3.681  15.150 -0.4559 -0.1949  0.1005
 5245SOL    HW127194   1.992   3.614  15.218  0.9120  1.1609  1.6075
 5245SOL    HW227195   1.949   3.753  15.186  1.2822  0.8415  0.5304
 5246SOL     OW27196   1.063   1.598   4.343 -0.8019  0.1726 -0.1387
 5246SOL    HW127197   1.080   1.687   4.373 -0.6671  0.1530 -0.1576
 5246SOL    HW227198   1.116   1.561   4.413  0.3393  0.1272 -1.0184
 5247SOL     OW27199   0.613   0.436   8.485 -0.0227 -0.6720 -0.3821
 5247SOL    HW127200   0.691   0.480   8.452  0.5260 -1.0382  0.4351
 5247SOL    HW227201   0.609   0.489   8.564 -1.9633  0.7657 -1.4236
 5248SOL     OW27202   0.672   1.272   4.797 -0.0152  0.1916  0.3949
 5248SOL    HW127203   0.751   1.220   4.782 -0.3461 -0.5435  1.1968
 5248SOL    HW227204   0.700   1.346   4.744  1.6929  0.3128  1.4899
 5249SOL     OW27205   2.126   1.946   1.462  0.0680 -0.1480 -0.7478
 5249SOL    HW127206   2.134   1.987   1.549  0.0317 -2.0283  0.1486
 5249SOL    HW227207   2.204   1.891   1.456  0.9355  0.9329  0.6915
 5250SOL     OW27208   2.208   3.391   0.057  0.4336  0.1568 -0.0278
 5250SOL    HW127209   2.208   3.296   0.053  1.0518  0.2475 -2.2338
 5250SOL    HW227210   2.149   3.413  17.671 -0.2372  1.5912  0.9546
 5251SOL     OW27211   3.276   0.482  10.981  0.2303  0.4514 -0.0499
 5251SOL    HW127212   3.286   0.445  11.068  0.8669 -0.4865 -0.5187
 5251SOL    HW227213   3.183   0.503  10.974 -0.2148 -2.2281 -1.9960
 5252SOL     OW27214   0.232   0.579  14.353 -0.5022  0.4980  0.3417
 5252SOL    HW127215   0.218   0.485  14.341 -0.1891  0.6238 -0.9736
 5252SOL    HW227216   0.281   0.611  14.278 -0.6819  0.1427  0.0717
 5253SOL     OW27217   2.591   3.676  16.387  0.0524 -0.0179 -0.0348
 5253SOL    HW127218   2.565   3.615  16.318  0.2046  0.4712 -0.5174
 5253SOL    HW227219   2.687   3.678  16.390 -0.0272  0.7115  1.9758
 5254SOL     OW27220   3.762   4.681   3.239  0.4110  0.1899  0.0648
 5254SOL    HW127221   3.812   0.039   3.218 -2.0471  2.5174  3.0086
 5254SOL    HW227222   3.683   4.701   3.190 -0.5662 -0.8463  1.2149
 5255SOL     OW27223   0.954   1.625   2.046  0.9451  0.9415  0.9392
 5255SOL    HW127224   0.993   1.697   1.997  0.5133  0.6256  0.1427
 5255SOL    HW227225   1.033   1.571   2.049 -0.2839 -0.8801  0.1900
 5256SOL     OW27226   4.656   4.720   6.680  0.2953  0.2519  0.1389
 5256SOL    HW127227   0.010   4.686   6.632 -0.3236 -1.2021  0.2168
 5256SOL    HW227228   4.678   4.702   6.771 -1.1663 -1.0044  0.2364
 5257SOL     OW27229   0.683   1.329   7.016  0.2436  0.4580 -0.3956
 5257SOL    HW127230   0.620   1.257   7.009  0.9320 -0.2145  0.3386
 5257SOL    HW227231   0.660   1.388   6.944  2.4821  2.4702  0.5606
 5258SOL     OW27232   4.506   3.505   2.294  0.2373  0.0943 -0.2415
 5258SOL    HW127233   4.553   3.576   2.250  2.3495 -1.9988 -1.3702
 5258SOL    HW227234   4.426   3.499   2.241 -0.5601 -1.0986  1.1187
 5259SOL     OW27235   3.676   0.923   1.796  0.2376 -0.1309 -0.2207
 5259SOL    HW127236   3.740   0.934   1.866  0.4711  2.2362 -0.8003
 5259SOL    HW227237   3.722   0.850   1.756  1.6157  0.5785  0.0915
 5260SOL     OW27238   3.208   1.805   9.016 -0.2992  0.3211 -0.3007
 5260SOL    HW127239   3.189   1.871   9.083  0.4378  0.8605 -0.6284
 5260SOL    HW227240   3.186   1.720   9.056  0.8404  0.3657  0.4253
 5261SOL     OW27241   2.895   2.113   6.424  0.8120 -0.3451 -0.5400
 5261SOL    HW127242   2.928   2.029   6.391  1.1028  0.7620 -3.0451
 5261SOL    HW227243   2.816   2.131   6.374  0.6833 -1.6514 -0.8135
 5262SOL     OW27244   0.549   2.545   8.127  0.1513 -0.6086 -0.3222
 5262SOL    HW127245   0.628   2.524   8.177  1.3115 -0.2877 -2.0425
 5262SOL    HW227246   0.527   2.455   8.101  0.8716 -1.0523  0.6235
 5263SOL     OW27247   3.493   2.363   1.596 -0.0506 -0.1201 -0.0390
 5263SOL    HW127248   3.563   2.299   1.582 -1.7220 -2.0546  0.5325
 5263SOL    HW227249   3.461   2.370   1.506 -1.9246  0.1644  0.6531
 5264SOL     OW27250   2.605   3.222   7.715  0.4803 -0.3152 -0.8799
 5264SOL    HW127251   2.614   3.308   7.675 -1.4650  1.6581  2.9506
 5264SOL    HW227252   2.511   3.207   7.726  0.5987 -2.1382 -2.4344
 5265SOL     OW27253   0.668   0.646   4.594 -0.6541 -0.0767 -0.3188
 5265SOL    HW127254   0.685   0.740   4.583  2.5513 -0.7290 -0.6941
 5265SOL    HW227255   0.610   0.631   4.519  0.2125 -0.5444 -0.8971
 5266SOL     OW27256   0.866   3.764   2.216 -0.5178  0.1105  0.5461
 5266SOL    HW127257   0.936   3.710   2.179 -1.8327 -1.2358  0.0252
 5266SOL    HW227258   0.903   3.842   2.257 -0.3052  1.7475 -2.8288
 5267SOL     OW27259   4.094   2.891  17.641 -0.0828 -0.1140  0.0707
 5267SOL    HW127260   4.074   2.974  17.684  0.8813  1.2028 -2.0102
 5267SOL    HW227261   4.057   2.829   0.017  1.8609 -1.7860 -0.4075
 5268SOL     OW27262   1.877   0.974   0.511  0.0545 -0.0736 -0.0184
 5268SOL    HW127263   1.860   1.050   0.456 -0.6940 -1.2511 -1.4402
 5268SOL    HW227264   1.955   0.933   0.472  0.4113 -0.3207  0.9529
 5269SOL     OW27265   4.149   1.647  10.304  0.0065  0.4318  0.2106
 5269SOL    HW127266   4.112   1.712  10.245  1.3226 -0.4074 -1.5556
 5269SOL    HW227267   4.242   1.662  10.285  0.3471  1.3164  2.5913
 5270SOL     OW27268   0.660   0.525  15.774 -0.4820  0.1411  0.0976
 5270SOL    HW127269   0.727   0.564  15.830  0.4191 -0.5248 -0.5290
 5270SOL    HW227270   0.696   0.522  15.686 -1.0258 -2.0122 -0.0636
 5271SOL     OW27271   4.719   3.335   8.252  0.4514 -0.1299  0.2943
 5271SOL    HW127272   4.654   3.404   8.255 -0.5613 -1.2030  2.6634
 5271SOL    HW227273   0.061   3.364   8.318  1.3148 -0.0256 -0.5632
 5272SOL     OW27274   2.783   0.656  11.255 -0.2082 -0.4947 -0.6617
 5272SOL    HW127275   2.809   0.739  11.216 -0.7414  0.2033  0.4675
 5272SOL    HW227276   2.763   0.595  11.184 -3.9182  0.2713 -0.2642
 5273SOL     OW27277   2.033   2.658   6.632  0.7102  0.2540 -0.5963
 5273SOL    HW127278   1.997   2.593   6.692 -0.8096  3.0254  1.4819
 5273SOL    HW227279   2.099   2.700   6.686 -0.5211  1.7043 -0.2123
 5274SOL     OW27280   2.770   0.808   3.830 -0.6532  0.2075  0.4619
 5274SOL    HW127281   2.683   0.770   3.834 -1.0087  0.7597 -2.0860
 5274SOL    HW227282   2.832   0.735   3.823 -0.3884  0.3114  1.5590
 5275SOL     OW27283   4.658   1.525  16.342 -0.2887 -0.3673  0.2078
 5275SOL    HW127284   4.650   1.618  16.318 -0.9783 -0.9021 -1.5741
 5275SOL    HW227285   4.595   1.488  16.281  0.3821  0.4250 -0.9602
 5276SOL     OW27286   4.713   3.864  13.311 -0.4642  0.0977 -0.2061
 5276SOL    HW127287   4.693   3.869  13.405 -0.1924 -1.9478 -0.0363
 5276SOL    HW227288   4.624   3.878  13.281 -0.9769  1.4676  1.9642
 5277SOL     OW27289   2.335   3.953   8.700  0.2990 -0.5400 -0.0091
 5277SOL    HW127290   2.330   4.000   8.618 -0.3989 -1.6851 -0.6204
 5277SOL    HW227291   2.395   4.006   8.752 -0.5421  1.7048 -1.3787
 5278SOL     OW27292   3.765   4.374   7.951 -0.0847 -0.2729  0.5780
 5278SOL    HW127293   3.853   4.389   7.984 -0.0612 -1.1996  0.9270
 5278SOL    HW227294   3.783   4.360   7.858 -0.2921 -1.1942  0.6776
 5279SOL     OW27295   4.185   4.161   5.963  0.1566  0.0925 -0.1808
 5279SOL    HW127296   4.184   4.087   6.025 -1.9316 -0.3268 -0.7297
 5279SOL    HW227297   4.271   4.200   5.979 -0.0739 -0.0470  1.4922
 5280SOL     OW27298   0.455   1.087   1.620  1.2029 -0.0420  0.3668
 5280SOL    HW127299   0.519   1.019   1.599  0.8840 -0.2324  0.0101
 5280SOL    HW227300   0.379   1.078   1.563  0.3241  2.6191  1.1574
 5281SOL     OW27301   3.416   2.996   6.330  0.1893  0.0926  0.4579
 5281SOL    HW127302   3.459   2.913   6.306 -1.7223  0.1132 -3.0130
 5281SOL    HW227303   3.383   2.963   6.413 -4.1906  2.5455 -0.3624
 5282SOL     OW27304   1.085   3.670   4.274 -0.0629  0.0310  0.1966
 5282SOL    HW127305   1.146   3.621   4.218 -1.1527  0.6083 -1.4963
 5282SOL    HW227306   1.022   3.604   4.302  0.5358 -0.8628 -0.5381
 5283SOL     OW27307   1.365   3.905   7.580 -0.0844 -0.0843  0.2964
 5283SOL    HW127308   1.372   3.895   7.675  0.4965 -3.5036 -0.0782
 5283SOL    HW227309   1.450   3.942   7.557 -0.6518 -0.4000 -2.2827
 5284SOL     OW27310   1.124   3.961   7.476  0.1781  0.5533  0.9790
 5284SOL    HW127311   1.131   4.024   7.548  2.2575  1.9162 -0.3836
 5284SOL    HW227312   1.212   3.927   7.491 -0.3737 -0.8048  1.1161
 5285SOL     OW27313   0.251   0.459   2.932 -0.0946  0.4693 -0.2777
 5285SOL    HW127314   0.318   0.521   2.960  1.1658  0.4602 -3.3110
 5285SOL    HW227315   0.297   0.401   2.871  0.7906  1.2922 -0.4061
 5286SOL     OW27316   4.440   1.594  10.632  0.2930 -0.2217 -0.1816
 5286SOL    HW127317   4.511   1.657  10.645 -1.0697  0.5146  3.7894
 5286SOL    HW227318   4.416   1.601  10.540  0.5933  0.3166 -0.2141
 5287SOL     OW27319   0.258   3.814   9.944  0.3151 -0.1066 -0.4822
 5287SOL    HW127320   0.197   3.807  10.018  2.6326 -2.2892  1.2650
 5287SOL    HW227321   0.285   3.723   9.934  1.0600  0.4562 -3.5235
 5288SOL     OW27322   3.949   3.431   6.427  0.3267  0.4860 -0.5973
 5288SOL    HW127323   3.920   3.503   6.482  1.8913  1.2429 -0.7590
 5288SOL    HW227324   4.027   3.464   6.382  0.6317 -0.2294 -0.5973
 5289SOL     OW27325   2.780   3.961   6.230 -0.3600  0.0791 -0.4868
 5289SOL    HW127326   2.744   4.039   6.273  0.2337  0.9114 -1.5104
 5289SOL    HW227327   2.782   3.990   6.139  1.3559 -1.2089 -0.8432
 5290SOL     OW27328   1.738   1.952   4.354  0.4793 -0.1646 -0.2963
 5290SOL    HW127329   1.775   1.961   4.441  0.0553 -1.0477 -0.0232
 5290SOL    HW227330   1.818   1.918   4.313  0.5703  1.2343 -1.2859
 5291SOL     OW27331   2.613   4.716   4.154 -0.1998 -0.1652 -0.0362
 5291SOL    HW127332   2.548   0.040   4.208 -0.4385 -0.8766  0.2736
 5291SOL    HW227333   2.685   0.058   4.155 -0.3491  0.0056 -0.3747
 5292SOL     OW27334   1.322   1.201   7.417 -0.0688 -0.4124  0.0010
 5292SOL    HW127335   1.253   1.173   7.477  0.7836  0.4364  1.3549
 5292SOL    HW227336   1.262   1.208   7.342 -0.1209 -1.5220 -0.0568
 5293SOL     OW27337   3.618   1.008   5.019 -0.1176 -0.7012 -0.4310
 5293SOL    HW127338   3.712   1.000   5.036  0.1445  1.0345 -1.0521
 5293SOL    HW227339   3.589   0.976   5.105  0.0273  0.0526 -0.1002
 5294SOL     OW27340   2.738   3.706   2.391  0.2216 -0.2462 -0.8531
 5294SOL    HW127341   2.766   3.706   2.483 -1.4708  1.0242 -0.3249
 5294SOL    HW227342   2.796   3.775   2.359 -2.3043  1.2531 -2.2397
 5295SOL     OW27343   0.884   4.366   3.345 -0.1541  0.1139  0.0864
 5295SOL    HW127344   0.882   4.445   3.399 -0.6685  0.2851 -0.1793
 5295SOL    HW227345   0.952   4.398   3.285  0.4184 -0.2449  0.5475
 5296SOL     OW27346   1.998   3.930   4.231 -0.4790  0.0864 -0.3574
 5296SOL    HW127347   1.921   3.913   4.285  0.6140  1.7935  1.7196
 5296SOL    HW227348   2.021   4.018   4.261  0.1781 -0.3797  0.5030
 5297SOL     OW27349   3.632   3.808   6.881  0.2742  0.5542 -0.0901
 5297SOL    HW127350   3.605   3.892   6.919  0.7636  0.5604  0.2546
 5297SOL    HW227351   3.583   3.803   6.800  1.5623 -2.1753 -0.7023
 5298SOL     OW27352   1.527   1.185   8.464  0.6379 -0.1844  0.3028
 5298SOL    HW127353   1.587   1.256   8.442 -1.8025  1.6164 -0.5110
 5298SOL    HW227354   1.449   1.209   8.415  0.1127 -1.0739  0.7063
 5299SOL     OW27355   4.466   1.345  10.726 -0.4473 -0.1431  0.4872
 5299SOL    HW127356   4.406   1.288  10.679  1.3877 -0.9732 -0.8677
 5299SOL    HW227357   4.447   1.435  10.698  0.3979 -0.1507 -0.1113
 5300SOL     OW27358   2.015   1.581  12.595 -0.3554  0.0596 -0.4198
 5300SOL    HW127359   2.048   1.636  12.666 -0.8212  1.7117 -1.4943
 5300SOL    HW227360   2.060   1.619  12.520  0.6766 -0.7095 -0.1904
 5301SOL     OW27361   4.263   3.850   8.379 -0.0384 -0.3402  0.1567
 5301SOL    HW127362   4.200   3.810   8.439 -0.0835  0.3725  0.5892
 5301SOL    HW227363   4.341   3.802   8.408 -0.2460 -1.0815 -0.5141
 5302SOL     OW27364   0.828   4.472   5.361 -0.5235  0.1243  0.5025
 5302SOL    HW127365   0.777   4.490   5.441  2.2603  1.4000  1.9979
 5302SOL    HW227366   0.862   4.383   5.365 -0.4524  0.1570  0.6479
 5303SOL     OW27367   4.118   2.194  12.397 -0.1293  0.0191 -0.1134
 5303SOL    HW127368   4.068   2.114  12.381  0.6911 -0.7798  1.3021
 5303SOL    HW227369   4.102   2.239  12.314  2.6680 -0.2897 -0.8122
 5304SOL     OW27370   2.025   0.525   4.271 -0.0819 -0.2702  0.0785
 5304SOL    HW127371   1.939   0.489   4.291 -0.6336  2.4654  2.7687
 5304SOL    HW227372   2.012   0.593   4.338  2.5833 -1.3017  1.6419
 5305SOL     OW27373   2.779   4.624   2.956 -0.0907 -0.2228 -0.2611
 5305SOL    HW127374   2.718   4.693   2.928  1.6422  0.3405 -2.6829
 5305SOL    HW227375   2.739   4.550   2.910 -0.6200 -0.8712  1.2711
 5306SOL     OW27376   4.534   0.160   2.047  0.0672 -0.2516 -0.0178
 5306SOL    HW127377   4.511   0.091   1.985  2.3492 -1.4023  0.4136
 5306SOL    HW227378   4.455   0.197   2.087  0.6980  2.2706 -1.0760
 5307SOL     OW27379   0.846   2.858   5.662 -0.3289 -0.0388 -0.2665
 5307SOL    HW127380   0.859   2.950   5.641 -2.1534  0.1075 -0.7410
 5307SOL    HW227381   0.845   2.873   5.756 -2.2702  0.3837 -0.3704
 5308SOL     OW27382   1.751   2.451   2.867  0.0704 -0.1757  0.1173
 5308SOL    HW127383   1.829   2.493   2.904 -0.6705 -0.5601  2.0968
 5308SOL    HW227384   1.698   2.450   2.946 -0.9716 -0.0555 -0.5783
 5309SOL     OW27385   4.027   1.046  17.681  0.0472  0.6162  0.1497
 5309SOL    HW127386   4.061   1.088  17.602  1.5360  0.8118  0.8900
 5309SOL    HW227387   3.945   1.009  17.648  1.2879 -0.8533 -1.3166
 5310SOL     OW27388   2.305   3.178  10.823 -0.3985  0.3844 -0.8656
 5310SOL    HW127389   2.368   3.134  10.766 -0.0382 -1.2355  0.7625
 5310SOL    HW227390   2.230   3.127  10.793 -1.3659 -0.3749  2.8595
 5311SOL     OW27391   0.956   1.812   5.628 -0.1840 -0.2461 -0.2198
 5311SOL    HW127392   0.941   1.876   5.558 -0.3245  0.6969  0.6632
 5311SOL    HW227393   1.043   1.840   5.657 -0.1448  1.1863 -1.7451
 5312SOL     OW27394   4.682   0.859   1.311 -0.0229 -0.3932 -0.1023
 5312SOL    HW127395   4.631   0.804   1.252  1.9991  1.0703 -3.2145
 5312SOL    HW227396   0.041   0.810   1.331  0.2691  0.3188  0.4806
 5313SOL     OW27397   4.248   1.667   1.365 -0.1968 -0.3476 -0.1079
 5313SOL    HW127398   4.298   1.748   1.378 -1.1318  0.1788  0.1815
 5313SOL    HW227399   4.193   1.661   1.443 -0.5712 -1.5172 -0.4633
 5314SOL     OW27400   1.862   0.413   1.130  0.3751 -0.0183 -0.2198
 5314SOL    HW127401   1.825   0.499   1.152 -0.0245 -0.3089  0.2359
 5314SOL    HW227402   1.955   0.435   1.137  0.7821 -1.7118 -0.4827
 5315SOL     OW27403   1.531   2.169   7.185 -0.2458 -0.1953 -0.0726
 5315SOL    HW127404   1.496   2.175   7.274  1.6878  0.2524  0.6393
 5315SOL    HW227405   1.621   2.146   7.205 -0.1672  1.0810  1.0298
 5316SOL     OW27406   1.191   3.321   5.904  0.7005  0.3665  0.0765
 5316SOL    HW127407   1.257   3.389   5.895  2.9441 -1.7304  0.4434
 5316SOL    HW227408   1.153   3.326   5.817  0.0067 -1.7949  0.2393
 5317SOL     OW27409   1.716   3.942   3.712 -0.1637 -0.0053 -0.0347
 5317SOL    HW127410   1.715   4.037   3.708 -2.1073  0.0604  2.3105
 5317SOL    HW227411   1.640   3.933   3.654  0.1735 -0.2475 -0.4458
 5318SOL     OW27412   1.435   0.169   8.918 -0.0187  0.3414 -0.0105
 5318SOL    HW127413   1.496   0.097   8.934  1.2817  1.2051 -1.0950
 5318SOL    HW227414   1.364   0.117   8.880  0.7390 -0.3511 -0.4723
 5319SOL     OW27415   1.717   1.924  11.895  0.1757 -0.1556 -0.0522
 5319SOL    HW127416   1.710   1.849  11.954  1.5763  1.3913  2.0882
 5319SOL    HW227417   1.765   1.880  11.825  0.9503  0.7043 -0.0577
 5320SOL     OW27418   1.092   3.946   2.843  0.0795 -0.2585  0.0683
 5320SOL    HW127419   1.054   3.858   2.841  1.3289 -0.8035  0.5105
 5320SOL    HW227420   1.152   3.932   2.770  0.9503 -0.2691  0.8001
 5321SOL     OW27421   0.471   3.281   1.785  0.3743 -0.1957  0.5681
 5321SOL    HW127422   0.377   3.286   1.766  0.9263  1.3274 -1.7904
 5321SOL    HW227423   0.509   3.302   1.700  1.7148  1.8880  1.6840
 5322SOL     OW27424   1.265   1.917   4.742 -0.0365 -0.0876  0.9332
 5322SOL    HW127425   1.272   1.898   4.836  2.7598  1.7708  1.1099
 5322SOL    HW227426   1.258   2.012   4.747  0.9029  0.0940 -1.5101
 5323SOL     OW27427   3.732   0.606   2.263  0.6949  0.3667  0.5800
 5323SOL    HW127428   3.668   0.667   2.227  1.0472 -0.5686 -1.6549
 5323SOL    HW227429   3.813   0.657   2.260  0.8319  0.1259  0.1502
 5324SOL     OW27430   1.272   3.034   8.398  0.3412  0.1858  0.0839
 5324SOL    HW127431   1.227   3.047   8.314  0.7742 -2.6217 -0.5856
 5324SOL    HW227432   1.358   3.067   8.374 -0.4434  2.2246  0.0565
 5325SOL     OW27433   0.995   1.583   4.029  0.4723  0.2149 -0.1316
 5325SOL    HW127434   0.966   1.583   4.120  1.8555  0.7972  0.3155
 5325SOL    HW227435   1.037   1.668   4.019  0.3765  0.1603 -0.9675
 5326SOL     OW27436   0.837   3.264  14.238 -0.2207 -1.2068 -0.3973
 5326SOL    HW127437   0.752   3.305  14.221  0.4533  0.5787  0.5979
 5326SOL    HW227438   0.896   3.332  14.206  0.8223 -1.3838  1.1716
 5327SOL     OW27439   4.312   1.317  16.711  0.6022 -0.0662 -0.1194
 5327SOL    HW127440   4.343   1.403  16.685  1.1039 -0.0096  0.6932
 5327SOL    HW227441   4.230   1.316  16.662  0.4209  1.6885  0.1434
 5328SOL     OW27442   1.591   2.201  10.435 -0.1925 -0.4461  0.4871
 5328SOL    HW127443   1.613   2.190  10.528 -1.9570  1.0355  1.0815
 5328SOL    HW227444   1.510   2.149  10.436 -0.7956  0.4376 -2.7289
 5329SOL     OW27445   1.543   2.210  11.663 -0.3998  0.5355  0.3595
 5329SOL    HW127446   1.492   2.282  11.627  0.2944  1.9583  2.2158
 5329SOL    HW227447   1.520   2.214  11.756  0.5640  2.4407  0.5185
 5330SOL     OW27448   2.281   1.152   2.256 -0.0114 -0.2426 -0.1821
 5330SOL    HW127449   2.265   1.079   2.197  0.5100 -0.8272  0.3959
 5330SOL    HW227450   2.376   1.154   2.268 -0.2534 -0.2494  1.7943
 5331SOL     OW27451   3.346   0.827   3.452 -0.3352  0.1509 -0.7671
 5331SOL    HW127452   3.286   0.883   3.502 -1.6336 -1.6161 -0.3538
 5331SOL    HW227453   3.324   0.741   3.488 -0.2099 -0.2732 -1.7029
 5332SOL     OW27454   4.291   1.989   4.559  0.5600  0.5154  0.1438
 5332SOL    HW127455   4.376   2.017   4.592  0.8776  0.6123 -0.7740
 5332SOL    HW227456   4.294   1.992   4.463 -0.6622  1.0974  0.1134
 5333SOL     OW27457   1.128   2.222   9.655  0.5052  0.5067  0.4371
 5333SOL    HW127458   1.071   2.146   9.644  0.0612  0.6759  1.6441
 5333SOL    HW227459   1.112   2.222   9.749  1.5339  0.6612  0.6140
 5334SOL     OW27460   0.207   0.877   2.806  0.7682 -0.1065 -0.3301
 5334SOL    HW127461   0.187   0.900   2.897  2.6328 -0.4917  0.1769
 5334SOL    HW227462   0.201   0.781   2.800 -1.4751 -0.0079  0.4606
 5335SOL     OW27463   3.699   0.117   8.092  0.2927  0.2008 -0.3141
 5335SOL    HW127464   3.662   0.201   8.119  0.0026 -0.0571  0.0921
 5335SOL    HW227465   3.701   0.119   7.997  3.1563  0.3886 -0.2492
 5336SOL     OW27466   2.244   2.345  14.044 -0.0846  0.0498  0.3968
 5336SOL    HW127467   2.213   2.431  14.073 -1.3829 -0.0756 -0.6420
 5336SOL    HW227468   2.163   2.295  14.043 -0.0334  0.0216 -2.5574
 5337SOL     OW27469   0.099   4.115   2.601 -0.1950  0.0431 -0.0477
 5337SOL    HW127470   0.097   4.023   2.574 -0.9944  0.6022 -1.8886
 5337SOL    HW227471   0.005   4.127   2.617 -0.0973 -1.7963  1.9522
 5338SOL     OW27472   1.366   3.966  15.800 -0.4214 -0.1639 -0.3389
 5338SOL    HW127473   1.425   3.897  15.827  1.8845  1.8428 -0.2581
 5338SOL    HW227474   1.324   3.914  15.732 -1.7593 -0.0053  0.3468
 5339SOL     OW27475   3.841   0.628  14.954 -0.7389 -0.2998 -0.3732
 5339SOL    HW127476   3.884   0.562  14.900 -0.3114 -0.3964  0.0834
 5339SOL    HW227477   3.776   0.581  15.008 -1.0442  1.9930  1.2551
 5340SOL     OW27478   3.435   3.629   5.103 -0.1389 -0.2718  0.2536
 5340SOL    HW127479   3.357   3.676   5.132 -0.5599 -2.1581  2.1626
 5340SOL    HW227480   3.405   3.572   5.032  0.2009  1.0236 -0.9305
 5341SOL     OW27481   4.145   3.725  13.899 -0.1081  0.5693  0.0378
 5341SOL    HW127482   4.122   3.656  13.837  0.6094 -1.3937  1.9623
 5341SOL    HW227483   4.056   3.742  13.932 -0.1666  0.6195 -0.1435
 5342SOL     OW27484   3.439   1.445  14.381 -0.1910 -0.4546  0.7978
 5342SOL    HW127485   3.410   1.353  14.377 -0.1953 -0.4844  1.5618
 5342SOL    HW227486   3.367   1.490  14.336  0.9290  1.0357  0.5251
 5343SOL     OW27487   4.248   2.244   7.459 -0.0162 -0.2174  0.2652
 5343SOL    HW127488   4.262   2.339   7.461  0.1247 -0.2172 -0.6938
 5343SOL    HW227489   4.208   2.233   7.372 -1.0752  0.3132  0.6878
 5344SOL     OW27490   2.513   4.192   4.561  0.3250  0.5092 -0.0547
 5344SOL    HW127491   2.536   4.112   4.609 -1.8643  0.3966  0.8368
 5344SOL    HW227492   2.420   4.194   4.585 -0.0797 -2.1824 -1.3721
 5345SOL     OW27493   2.353   0.741   2.026 -0.6710 -0.9790  0.3553
 5345SOL    HW127494   2.315   0.827   2.045 -0.8572 -1.0276  0.2054
 5345SOL    HW227495   2.417   0.746   2.096 -0.9592 -0.3016  0.5779
 5346SOL     OW27496   4.389   2.197   7.998  0.1465 -0.1927 -0.6531
 5346SOL    HW127497   4.334   2.118   7.996 -0.5263  0.2682 -0.5154
 5346SOL    HW227498   4.417   2.185   7.907  0.4658 -0.6744 -0.4907
 5347SOL     OW27499   1.672   3.305  11.367 -0.1488  0.2855 -0.2018
 5347SOL    HW127500   1.617   3.360  11.422  1.5281  1.0729  0.6871
 5347SOL    HW227501   1.685   3.227  11.421 -0.4567  0.8342  0.6766
 5348SOL     OW27502   2.288   3.072   3.451 -0.7906  0.2395 -0.4331
 5348SOL    HW127503   2.196   3.093   3.436 -0.6425  0.8630 -0.4750
 5348SOL    HW227504   2.306   3.120   3.532  0.5526 -1.7843  0.4669
 5349SOL     OW27505   0.508   0.266   3.370 -0.2244  0.2048  0.0333
 5349SOL    HW127506   0.575   0.331   3.350  0.4996  0.0191  1.8995
 5349SOL    HW227507   0.486   0.284   3.462 -0.2341  2.3302 -0.3909
 5350SOL     OW27508   1.602   2.435   2.179 -0.2726  0.1091 -0.0443
 5350SOL    HW127509   1.678   2.446   2.237 -0.0116  1.6875 -0.6772
 5350SOL    HW227510   1.565   2.523   2.166  1.6088  0.8095 -0.7552
 5351SOL     OW27511   3.858   3.510   2.438  0.3579  0.4073  0.0798
 5351SOL    HW127512   3.885   3.527   2.348 -0.3857  1.5097  0.0626
 5351SOL    HW227513   3.766   3.535   2.438  0.9877  2.8134 -0.2259
 5352SOL     OW27514   4.170   2.882  16.258 -0.1011  0.5180  0.2165
 5352SOL    HW127515   4.212   2.803  16.293  1.1911  0.5486 -1.2323
 5352SOL    HW227516   4.232   2.928  16.201  1.2146 -1.7310 -0.1659
 5353SOL     OW27517   3.102   3.801   7.915  0.5369  0.8116 -0.1709
 5353SOL    HW127518   3.076   3.712   7.939 -1.0619  1.7824  1.7292
 5353SOL    HW227519   3.192   3.786   7.888 -0.0991 -0.2525 -1.6849
 5354SOL     OW27520   4.375   4.412   3.338  0.1222  0.4169  0.1387
 5354SOL    HW127521   4.414   4.337   3.294 -2.0680 -0.9131  0.5254
 5354SOL    HW227522   4.455   4.465   3.345  0.0792  0.3923  0.8159
 5355SOL     OW27523   4.531   2.691  15.236  0.0772  0.3814 -0.6350
 5355SOL    HW127524   4.613   2.724  15.272 -0.7637  2.7489 -0.8707
 5355SOL    HW227525   4.486   2.667  15.317  2.9121  1.3498  1.2324
 5356SOL     OW27526   2.844   1.382   6.606 -0.2901 -0.2660  0.2679
 5356SOL    HW127527   2.921   1.341   6.566  0.4012  1.0619  0.2244
 5356SOL    HW227528   2.875   1.377   6.697  0.6536 -3.0066 -0.2323
 5357SOL     OW27529   3.608   2.249  15.525 -0.0194  0.6374  0.1209
 5357SOL    HW127530   3.615   2.180  15.591 -2.1729 -1.1998 -1.5432
 5357SOL    HW227531   3.626   2.323  15.582 -0.7811  2.8882 -2.5389
 5358SOL     OW27532   1.749   3.028   3.460  0.3452  0.0765  0.0312
 5358SOL    HW127533   1.771   2.935   3.458  2.8598  0.6090  2.4811
 5358SOL    HW227534   1.708   3.036   3.374  0.3153 -1.3209 -0.0852
 5359SOL     OW27535   3.555   1.889   2.896 -0.0506 -0.0520  0.5980
 5359SOL    HW127536   3.487   1.845   2.947  0.0307 -1.0090 -0.1034
 5359SOL    HW227537   3.617   1.820   2.870 -0.5026 -0.4693  0.6147
 5360SOL     OW27538   1.010   1.573   6.205 -0.1373  0.0433  0.5219
 5360SOL    HW127539   0.928   1.536   6.174 -0.2747  0.8873 -0.1019
 5360SOL    HW227540   1.050   1.596   6.121 -0.6292  0.6634  0.4664
 5361SOL     OW27541   2.583   3.601   7.036  0.8758 -0.3160  0.0632
 5361SOL    HW127542   2.622   3.688   7.028  1.0096 -0.4079 -0.2554
 5361SOL    HW227543   2.487   3.606   7.038  0.9474  0.5805  1.3606
 5362SOL     OW27544   1.224   0.351   5.705  0.2523  0.1299  0.1613
 5362SOL    HW127545   1.159   0.323   5.769  0.6924  2.0942  1.4827
 5362SOL    HW227546   1.224   0.446   5.719  0.9551  0.2492 -0.6046
 5363SOL     OW27547   2.802   0.093   4.615 -0.5695 -0.3268 -0.1367
 5363SOL    HW127548   2.828   0.110   4.706 -1.3487 -0.7093  0.1569
 5363SOL    HW227549   2.740   0.021   4.629  0.8898 -1.8084 -1.3207
 5364SOL     OW27550   4.215   4.483   8.724  0.0479 -0.6678  0.0747
 5364SOL    HW127551   4.283   4.433   8.769  0.4513  1.1263  1.4695
 5364SOL    HW227552   4.233   4.476   8.630 -0.6771 -0.0684 -0.1099
 5365SOL     OW27553   0.692   1.352   8.329 -0.1756  0.3943 -0.0806
 5365SOL    HW127554   0.608   1.396   8.317  0.7074  1.7037 -1.4656
 5365SOL    HW227555   0.669   1.280   8.387 -1.1191  0.5104 -0.3121
 5366SOL     OW27556   3.367   0.831  16.122  0.7165 -0.4639 -0.3158
 5366SOL    HW127557   3.427   0.870  16.186  2.4871 -2.7291 -0.6067
 5366SOL    HW227558   3.287   0.883  16.135  1.3525  0.0187  1.8239
 5367SOL     OW27559   1.083   0.559  14.256  0.0673  0.1205 -0.2576
 5367SOL    HW127560   1.105   0.652  14.257  1.5060 -0.2601  2.5958
 5367SOL    HW227561   1.164   0.524  14.294  0.9799  0.2049 -2.1166
 5368SOL     OW27562   3.337   2.816   5.640 -0.6694  1.3083  0.2587
 5368SOL    HW127563   3.407   2.877   5.616 -0.8087  0.1109 -3.2339
 5368SOL    HW227564   3.391   2.768   5.702  0.5026 -0.2771 -2.0094
 5369SOL     OW27565   0.840   0.224   1.880  0.4610 -0.4448 -0.7653
 5369SOL    HW127566   0.793   0.147   1.847  0.0604 -1.7069  2.7692
 5369SOL    HW227567   0.880   0.248   1.796  0.1209  0.4084 -0.6801
 5370SOL     OW27568   0.050   3.582  16.953  0.5125  0.1383 -0.1258
 5370SOL    HW127569   0.045   3.519  17.025  0.8136 -0.1477 -0.3629
 5370SOL    HW227570   0.005   3.655  16.997  2.4271  1.6554 -0.7097
 5371SOL     OW27571   3.387   1.443   8.748 -0.2201 -0.0299  0.1407
 5371SOL    HW127572   3.368   1.405   8.663  1.3900  0.3137 -0.3542
 5371SOL    HW227573   3.433   1.524   8.728  1.9824 -0.5117  3.3153
 5372SOL     OW27574   1.727   1.193  14.744 -0.0424 -0.1955 -0.3668
 5372SOL    HW127575   1.814   1.214  14.776 -0.3324  0.1778  0.1740
 5372SOL    HW227576   1.747   1.168  14.654  3.2365  0.7627  0.1126
 5373SOL     OW27577   1.869   2.881  10.933  0.6133  0.8868  0.1548
 5373SOL    HW127578   1.879   2.960  10.880  0.6009  1.6617  1.3182
 5373SOL    HW227579   1.917   2.911  11.010  0.7458  2.5738 -0.5789
 5374SOL     OW27580   0.863   4.561   6.565  0.5468 -0.0636  0.2720
 5374SOL    HW127581   0.809   4.587   6.640  2.3957  3.9479  0.2054
 5374SOL    HW227582   0.952   4.561   6.600  0.9094  1.5355 -0.6528
 5375SOL     OW27583   0.327   1.149   4.166 -0.5972 -0.1403  0.9272
 5375SOL    HW127584   0.415   1.185   4.161 -0.3843 -0.6154  1.2747
 5375SOL    HW227585   0.275   1.225   4.191 -2.1103 -1.3827  1.6109
 5376SOL     OW27586   4.522   2.695   7.973  0.2557 -0.3886 -0.0691
 5376SOL    HW127587   4.550   2.633   7.906  0.2672 -0.8999  0.4097
 5376SOL    HW227588   4.603   2.746   7.979 -1.0269  1.9297 -2.1827
 5377SOL     OW27589   0.002   0.865   9.362 -0.1063 -0.2710 -0.8291
 5377SOL    HW127590   0.057   0.799   9.406 -0.4462 -0.2898 -0.4306
 5377SOL    HW227591   4.683   0.811   9.294  0.5704  0.1700 -1.5811
 5378SOL     OW27592   1.834   3.068   8.247 -0.3336 -0.4422 -0.1273
 5378SOL    HW127593   1.810   3.157   8.220  0.9533 -0.0395  0.0518
 5378SOL    HW227594   1.862   3.031   8.164  1.0699  0.9282 -0.2769
 5379SOL     OW27595   3.160   3.339   6.892  0.1303  0.3119  0.4122
 5379SOL    HW127596   3.196   3.362   6.807  0.1548 -2.9536 -0.4660
 5379SOL    HW227597   3.068   3.362   6.881 -0.1760 -0.9564  0.3479
 5380SOL     OW27598   4.602   2.857  14.711  0.6313 -0.5190  0.1599
 5380SOL    HW127599   4.660   2.783  14.726  0.7073 -0.3390  0.7832
 5380SOL    HW227600   4.548   2.855  14.791 -1.0546 -2.0232 -1.0207
 5381SOL     OW27601   1.901   4.478   8.878 -0.3960 -0.1758 -0.4634
 5381SOL    HW127602   1.895   4.562   8.834 -1.5633  1.3217  2.5185
 5381SOL    HW227603   1.888   4.494   8.972  0.6745 -0.4770 -0.2736
 5382SOL     OW27604   3.738   4.617   9.004 -0.5568  0.1546 -0.2449
 5382SOL    HW127605   3.801   4.668   8.952 -2.1371  0.9805 -1.3310
 5382SOL    HW227606   3.711   4.547   8.945  1.1001 -1.6290  1.1012
 5383SOL     OW27607   3.479   3.628   7.546  0.4318  0.2235  0.0631
 5383SOL    HW127608   3.413   3.576   7.592 -0.1924  0.7162 -0.2717
 5383SOL    HW227609   3.466   3.595   7.458 -1.6665  3.3308 -0.8199
 5384SOL     OW27610   4.360   4.667   3.639 -0.8833  0.3712 -0.1628
 5384SOL    HW127611   4.312   4.717   3.706  1.9424  1.3373  1.1388
 5384SOL    HW227612   4.437   4.719   3.618 -0.1266  0.6211  3.1253
 5385SOL     OW27613   0.276   3.506   7.210 -0.3445  0.3548 -0.9933
 5385SOL    HW127614   0.205   3.568   7.192 -0.6976 -0.0550 -1.0173
 5385SOL    HW227615   0.270   3.502   7.305 -0.9406  3.4249 -0.8900
 5386SOL     OW27616   1.325   1.035  12.847  0.3478 -0.0380 -0.1310
 5386SOL    HW127617   1.391   1.101  12.829  0.0712  0.4671  0.7048
 5386SOL    HW227618   1.277   1.070  12.922  0.1324 -1.2730  0.3217
 5387SOL     OW27619   4.126   0.681   9.161  0.2194  0.6369  0.1824
 5387SOL    HW127620   4.199   0.681   9.100  1.0155 -1.9537  1.1392
 5387SOL    HW227621   4.061   0.647   9.099  0.2766 -1.8365  1.4514
 5388SOL     OW27622   4.183   3.098   3.030 -1.2251  0.1732 -0.5547
 5388SOL    HW127623   4.246   3.076   3.099 -2.3823 -2.7537 -0.4262
 5388SOL    HW227624   4.236   3.083   2.951 -0.0727 -5.1714  1.2239
 5389SOL     OW27625   4.212   2.243   6.086  0.2008 -0.5515  0.0715
 5389SOL    HW127626   4.251   2.232   6.172  1.4809 -1.4959 -0.6401
 5389SOL    HW227627   4.285   2.261   6.027 -1.6456  2.6957 -1.2242
 5390SOL     OW27628   2.365   2.136   6.265  0.0958 -0.2216 -0.1839
 5390SOL    HW127629   2.426   2.095   6.203  0.6805  0.0460  0.2104
 5390SOL    HW227630   2.324   2.060   6.305  0.7148 -0.1393  0.5988
 5391SOL     OW27631   0.433   3.888   5.351  0.3351  0.6476  0.2707
 5391SOL    HW127632   0.341   3.901   5.376  1.0148  3.1036  1.5540
 5391SOL    HW227633   0.469   3.967   5.392 -0.9566  1.8442 -0.8768
 5392SOL     OW27634   0.806   3.892  14.053  0.2988 -0.5692  0.3030
 5392SOL    HW127635   0.719   3.883  14.091 -0.3190  0.4309 -0.8701
 5392SOL    HW227636   0.853   3.930  14.127  1.0754 -2.9590  1.0321
 5393SOL     OW27637   3.829   3.966   7.906  0.4162  0.5467 -0.5378
 5393SOL    HW127638   3.918   3.966   7.941 -0.8027  2.0654  2.6381
 5393SOL    HW227639   3.800   4.055   7.927 -1.2150 -0.1616  0.3032
 5394SOL     OW27640   1.774   3.163  10.015  0.1064  0.3405  0.7672
 5394SOL    HW127641   1.804   3.080  10.053 -0.8450 -0.4919 -0.2733
 5394SOL    HW227642   1.767   3.226  10.086 -0.4982  0.1626  0.8657
 5395SOL     OW27643   2.977   0.237   4.479  0.0129 -0.5430  0.0978
 5395SOL    HW127644   2.928   0.285   4.412 -1.7718 -3.2175 -0.5187
 5395SOL    HW227645   2.910   0.188   4.527 -0.9315  0.9145  0.2470
 5396SOL     OW27646   0.866   2.021   5.477 -0.2507  0.1464 -0.6243
 5396SOL    HW127647   0.832   2.024   5.387 -1.5804 -0.8958 -0.1460
 5396SOL    HW227648   0.945   2.073   5.460 -1.1083  2.2599  2.0013
 5397SOL     OW27649   4.417   0.705  15.752  0.0764 -0.1468 -0.3913
 5397SOL    HW127650   4.474   0.722  15.827 -1.4460 -1.9232  1.1495
 5397SOL    HW227651   4.419   0.793  15.715 -0.4067  1.1947  2.7565
 5398SOL     OW27652   2.330   3.801   3.382  1.2146  0.0402 -0.1549
 5398SOL    HW127653   2.272   3.870   3.413 -0.4896 -1.3410 -0.3208
 5398SOL    HW227654   2.276   3.750   3.322  1.9604 -0.0310 -0.7785
 5399SOL     OW27655   2.147   1.980  15.378  0.7255  0.3039  0.7427
 5399SOL    HW127656   2.053   1.980  15.358  0.9637 -0.8228 -0.3623
 5399SOL    HW227657   2.171   2.072  15.386 -2.0584  0.8107  3.2075
 5400SOL     OW27658   1.226   4.338   2.421 -0.0320 -0.2485 -0.6180
 5400SOL    HW127659   1.171   4.298   2.354 -1.6649  1.3214 -0.2236
 5400SOL    HW227660   1.305   4.294   2.391  0.2057  1.4699 -2.5505
 5401SOL     OW27661   2.527   1.853   4.336  0.3544 -0.4208  0.0287
 5401SOL    HW127662   2.544   1.785   4.271 -1.1313 -1.7461  1.0211
 5401SOL    HW227663   2.598   1.916   4.321 -0.9840  1.2434  0.7058
 5402SOL     OW27664   2.893   2.789   3.516 -0.1029 -0.7086  0.0689
 5402SOL    HW127665   2.897   2.877   3.478  2.3434 -1.0826 -0.5311
 5402SOL    HW227666   2.938   2.738   3.449  1.2574  0.0911  0.3841
 5403SOL     OW27667   0.185   0.658   4.376  0.3709 -0.2650  0.0847
 5403SOL    HW127668   0.166   0.745   4.342 -0.1876 -0.8954 -1.2225
 5403SOL    HW227669   0.111   0.604   4.349  0.2734  0.8815 -1.8962
 5404SOL     OW27670   1.917   0.931  11.046 -0.1929  0.0069 -0.2224
 5404SOL    HW127671   1.885   0.986  10.975 -0.9361  1.0218  0.8875
 5404SOL    HW227672   1.923   0.996  11.116  0.1298 -0.1639 -0.0909
 5405SOL     OW27673   3.694   1.696   4.847 -0.1891 -0.1225 -0.1274
 5405SOL    HW127674   3.725   1.704   4.756 -1.4471 -0.1479 -0.5653
 5405SOL    HW227675   3.612   1.648   4.834 -0.4622 -0.2672  2.2844
 5406SOL     OW27676   0.516   3.180   3.697 -0.2687 -0.3264 -0.4326
 5406SOL    HW127677   0.573   3.237   3.645 -1.2391  2.0445  1.1005
 5406SOL    HW227678   0.580   3.116   3.729  0.9413  0.7327 -0.7115
 5407SOL     OW27679   2.650   4.476   5.685 -0.3816  0.2655  0.1016
 5407SOL    HW127680   2.661   4.465   5.590 -0.9573  1.1411 -0.0645
 5407SOL    HW227681   2.729   4.522   5.715  1.4969 -2.2839 -0.9101
 5408SOL     OW27682   2.319   1.873   2.838 -0.0130  0.3041 -0.2013
 5408SOL    HW127683   2.393   1.891   2.780  0.0113 -1.0817 -0.5830
 5408SOL    HW227684   2.281   1.799   2.792  2.5845 -0.1285 -1.6216
 5409SOL     OW27685   0.908   2.652   1.423  0.1419 -0.2572 -0.2431
 5409SOL    HW127686   0.813   2.663   1.429  0.4258  0.8676  2.2216
 5409SOL    HW227687   0.939   2.693   1.342 -0.2251  2.0752  0.7954
 5410SOL     OW27688   3.761   1.501   5.041  0.3358 -0.0869 -0.2006
 5410SOL    HW127689   3.816   1.436   4.998 -0.6163  0.0764 -1.6526
 5410SOL    HW227690   3.717   1.537   4.964 -0.6416  0.3309  0.5572
 5411SOL     OW27691   4.360   3.053  13.086  0.0203  0.7834 -0.0638
 5411SOL    HW127692   4.399   2.980  13.134  0.2890  1.7993  1.2600
 5411SOL    HW227693   4.378   3.021  12.998 -3.1737 -1.7780  0.2039
 5412SOL     OW27694   1.724   1.856   3.958 -0.0282  0.2745 -0.3833
 5412SOL    HW127695   1.744   1.875   3.867  0.3958  1.2248 -0.0990
 5412SOL    HW227696   1.635   1.891   3.967  0.2540  0.1354  2.9672
 5413SOL     OW27697   4.632   3.448   7.966  0.0093  0.5566  0.1682
 5413SOL    HW127698   4.559   3.476   7.910  1.1931  0.7610 -1.2763
 5413SOL    HW227699   4.581   3.393   8.025 -1.1325 -0.2596 -1.5706
 5414SOL     OW27700   2.380   1.830   1.484 -0.0836  0.2640  0.3784
 5414SOL    HW127701   2.408   1.919   1.507  1.0436  0.8918 -3.4052
 5414SOL    HW227702   2.433   1.782   1.549  0.8983  3.2974  1.8418
 5415SOL     OW27703   0.714   3.582   9.010  0.0690  0.0448 -0.4425
 5415SOL    HW127704   0.806   3.591   8.984  0.4871 -0.6283  0.8337
 5415SOL    HW227705   0.680   3.664   8.972  0.4409  1.7167  2.8364
 5416SOL     OW27706   4.150   3.611   5.318  0.0615 -0.2118 -0.7047
 5416SOL    HW127707   4.180   3.552   5.386 -0.3499  1.2089  0.7035
 5416SOL    HW227708   4.055   3.608   5.333  0.2707 -0.7628  0.4655
 5417SOL     OW27709   2.925   0.478  14.989 -0.4650  0.0764 -0.4048
 5417SOL    HW127710   3.018   0.487  14.968  0.1686  0.6014  2.7536
 5417SOL    HW227711   2.901   0.568  14.968 -0.9794  0.3293  1.3463
 5418SOL     OW27712   3.706   3.681   8.945  0.2851 -0.4867  0.2978
 5418SOL    HW127713   3.761   3.660   9.020  1.4226 -0.6919 -0.5909
 5418SOL    HW227714   3.623   3.651   8.981 -0.5183  0.2543 -0.9273
 5419SOL     OW27715   3.560   3.886   0.498  0.5813  0.0889 -0.0660
 5419SOL    HW127716   3.510   3.859   0.576 -0.0208  1.4604  0.0213
 5419SOL    HW227717   3.636   3.911   0.549 -0.2274 -0.1079  1.2539
 5420SOL     OW27718   0.414   1.596  11.580 -0.0765  0.3464  0.2781
 5420SOL    HW127719   0.437   1.526  11.519 -0.0078  1.4556 -0.9650
 5420SOL    HW227720   0.431   1.666  11.517  3.6121 -1.6970 -0.9312
 5421SOL     OW27721   2.215   2.951  13.560 -0.2853 -0.6359  0.1857
 5421SOL    HW127722   2.128   2.912  13.552 -0.3752 -0.5778  0.8533
 5421SOL    HW227723   2.213   2.993  13.646  0.7820 -2.5804  1.1415
 5422SOL     OW27724   1.405   1.123  11.648  0.1781 -0.1854  0.3592
 5422SOL    HW127725   1.458   1.182  11.703  1.4017  1.5907 -2.7185
 5422SOL    HW227726   1.472   1.070  11.605 -0.2826 -0.2558 -0.2777
 5423SOL     OW27727   4.218   1.264   4.568  0.2724 -0.2110 -0.1320
 5423SOL    HW127728   4.132   1.259   4.528  0.2250 -2.1879  0.2452
 5423SOL    HW227729   4.220   1.348   4.614 -0.2663 -1.4723  2.1563
 5424SOL     OW27730   0.114   3.226   7.478 -0.3037 -0.1119  0.2576
 5424SOL    HW127731   0.021   3.204   7.475 -0.9384  2.3291  1.6536
 5424SOL    HW227732   0.148   3.179   7.402  2.3310  0.8980  0.7818
 5425SOL     OW27733   3.934   0.993   0.282 -0.2204 -0.4174 -0.5582
 5425SOL    HW127734   4.010   0.936   0.293  0.1063  0.0201 -0.5174
 5425SOL    HW227735   3.937   1.017   0.190 -0.2577  1.0202 -0.1989
 5426SOL     OW27736   2.637   3.069   5.741  0.0459  0.3003  0.1458
 5426SOL    HW127737   2.556   3.040   5.697 -0.9348  2.0325  0.8093
 5426SOL    HW227738   2.613   3.160   5.756  0.0215  0.3143  0.0290
 5427SOL     OW27739   4.401   2.760   4.258 -0.4940  0.5242 -0.4557
 5427SOL    HW127740   4.486   2.759   4.215 -1.3446  0.8053 -2.1382
 5427SOL    HW227741   4.386   2.671   4.290  0.3881  0.7767  0.6551
 5428SOL     OW27742   0.805   3.539   1.969  0.6055 -0.2636 -0.1264
 5428SOL    HW127743   0.712   3.526   1.986  0.1115  3.0870 -0.2099
 5428SOL    HW227744   0.805   3.619   1.916 -0.3510  0.9329  1.6499
 5429SOL     OW27745   2.061   2.213   3.038 -0.2980 -0.6857 -0.4457
 5429SOL    HW127746   2.054   2.145   2.971 -0.5649 -0.1703 -0.9475
 5429SOL    HW227747   2.154   2.215   3.057  0.3434  0.9173 -3.8273
 5430SOL     OW27748   1.397   2.688  12.233 -0.5123  0.1118  0.3961
 5430SOL    HW127749   1.326   2.624  12.240  0.1228 -0.8834 -2.4644
 5430SOL    HW227750   1.462   2.655  12.295 -0.3077 -0.6027 -0.1974
 5431SOL     OW27751   3.438   3.395   2.978  0.3296  0.0533  0.1541
 5431SOL    HW127752   3.501   3.455   2.938  3.1450 -1.4274  2.3273
 5431SOL    HW227753   3.392   3.452   3.041  0.4417 -1.2432  1.4091
 5432SOL     OW27754   2.525   4.548  10.892 -0.2905 -0.1861  0.2057
 5432SOL    HW127755   2.519   4.495  10.971 -0.0353  1.1737  1.1344
 5432SOL    HW227756   2.443   4.526  10.848 -0.1370 -0.6997  0.1765
 5433SOL     OW27757   3.518   3.357   5.218 -0.2385 -0.4184 -0.0972
 5433SOL    HW127758   3.468   3.419   5.166  2.2357  1.4311 -0.2580
 5433SOL    HW227759   3.453   3.287   5.232  1.3397 -1.7819  0.4335
 5434SOL     OW27760   1.129   1.264   4.384  0.1206 -0.2872  0.0956
 5434SOL    HW127761   1.106   1.345   4.431 -0.5500  0.5557 -1.6946
 5434SOL    HW227762   1.048   1.213   4.386 -0.6143  0.7482 -2.7995
 5435SOL     OW27763   4.642   4.144  16.162 -0.4277 -0.0939 -0.1673
 5435SOL    HW127764   4.709   4.116  16.224 -0.3244 -0.7629 -0.5932
 5435SOL    HW227765   4.684   4.186  16.087 -0.5501  1.3678  0.5748
 5436SOL     OW27766   4.580   1.803   6.929 -0.1698  0.1131 -0.8194
 5436SOL    HW127767   4.561   1.720   6.973  2.0518  0.1060  0.0986
 5436SOL    HW227768   4.561   1.866   6.998 -1.0210 -1.4947  0.3925
 5437SOL     OW27769   0.098   3.985   7.841  0.4415  0.0546 -0.4954
 5437SOL    HW127770   0.192   3.972   7.827  0.6571  1.1076 -0.0267
 5437SOL    HW227771   0.070   3.894   7.830 -2.6739  0.7107  1.9302
 5438SOL     OW27772   4.172   3.649  13.329  0.5760 -0.6425  0.0176
 5438SOL    HW127773   4.258   3.687  13.348 -0.0374  0.6193  0.2210
 5438SOL    HW227774   4.135   3.629  13.415  0.8706 -0.8775  0.0886
 5439SOL     OW27775   3.991   3.239  11.295 -0.2528  0.5473  0.2782
 5439SOL    HW127776   3.969   3.250  11.388  1.2143 -0.3926  0.7209
 5439SOL    HW227777   4.059   3.174  11.304 -0.7591 -0.1891 -1.2513
 5440SOL     OW27778   4.116   3.535   0.712  0.2542  0.3876 -0.4440
 5440SOL    HW127779   4.102   3.455   0.661 -0.0405  0.3580 -0.3153
 5440SOL    HW227780   4.155   3.493   0.789 -3.1144 -1.9699 -0.0453
 5441SOL     OW27781   0.467   1.774  12.235  0.2995  0.1033  0.4954
 5441SOL    HW127782   0.502   1.685  12.232 -2.2164 -0.9399  1.8291
 5441SOL    HW227783   0.516   1.811  12.308 -0.4783  0.6623  0.7264
 5442SOL     OW27784   2.212   3.149   1.252  0.1422  0.6998  0.3324
 5442SOL    HW127785   2.183   3.230   1.210  2.8912  1.9583  0.7891
 5442SOL    HW227786   2.253   3.187   1.330  2.0993  0.8273 -0.7498
 5443SOL     OW27787   2.335   1.626  10.808 -0.2172 -0.3548 -0.0082
 5443SOL    HW127788   2.285   1.577  10.873  2.8592 -0.7464  2.0740
 5443SOL    HW227789   2.337   1.710  10.855 -0.4579 -0.2205 -0.2335
 5444SOL     OW27790   4.597   3.889   1.844  0.2532 -0.2762 -0.2141
 5444SOL    HW127791   4.635   3.942   1.774 -0.9194  0.3386 -0.3867
 5444SOL    HW227792   4.667   3.824   1.844 -0.0911 -0.6499  1.6581
 5445SOL     OW27793   1.229   1.679  12.493 -0.4354 -0.0023  0.0733
 5445SOL    HW127794   1.232   1.774  12.492 -0.0706 -0.0354 -2.6004
 5445SOL    HW227795   1.168   1.654  12.562  0.2440  0.4460  0.8500
 5446SOL     OW27796   4.255   3.487   2.192 -0.0165 -0.5970  0.0534
 5446SOL    HW127797   4.188   3.491   2.123 -0.5247  0.9465  0.6476
 5446SOL    HW227798   4.240   3.408   2.244 -1.4142  0.4777  1.2689
 5447SOL     OW27799   3.551   4.310   7.061 -0.3450 -0.0907 -0.5315
 5447SOL    HW127800   3.465   4.268   7.059 -0.7170  0.6827 -0.7160
 5447SOL    HW227801   3.529   4.402   7.073 -0.7379 -0.1525 -0.7489
 5448SOL     OW27802   4.251   3.032   4.714 -0.0835  0.2069 -0.3504
 5448SOL    HW127803   4.258   2.951   4.765  0.1061 -0.1363 -0.9287
 5448SOL    HW227804   4.218   2.984   4.639 -0.4623  0.4387 -0.3292
 5449SOL     OW27805   4.021   3.057   2.512 -0.1165  0.1441 -0.1696
 5449SOL    HW127806   4.115   3.071   2.514 -0.0920  0.0389 -0.7046
 5449SOL    HW227807   4.004   3.093   2.600 -1.2806 -2.0670  0.5311
 5450SOL     OW27808   3.587   0.537   4.916 -0.6091 -0.0725  0.0621
 5450SOL    HW127809   3.675   0.546   4.955 -0.2253  0.0879 -0.8499
 5450SOL    HW227810   3.527   0.519   4.989  0.6600 -2.5315  0.4963
 5451SOL     OW27811   2.583   3.714   3.324  0.1423  0.3456 -0.4533
 5451SOL    HW127812   2.490   3.716   3.346  0.6436  0.3285  1.7111
 5451SOL    HW227813   2.582   3.719   3.228  0.4832  1.5718 -0.3987
 5452SOL     OW27814   0.983   2.380   3.390 -0.1687  0.2838 -0.0485
 5452SOL    HW127815   0.929   2.424   3.324  0.1537 -1.0858 -1.2315
 5452SOL    HW227816   1.071   2.418   3.386  0.2308 -0.4778  1.8633
 5453SOL     OW27817   0.710   0.975   3.573 -0.5217 -0.3166  0.0252
 5453SOL    HW127818   0.805   0.976   3.565 -0.6088 -2.1473 -1.2357
 5453SOL    HW227819   0.701   1.055   3.624  0.4642  1.5144 -2.6594
 5454SOL     OW27820   2.831   2.010   1.549 -0.3936 -0.0966 -0.3541
 5454SOL    HW127821   2.816   1.983   1.458  0.8929 -0.2705 -0.5196
 5454SOL    HW227822   2.898   1.950   1.582  0.3933  0.3510 -1.1265
 5455SOL     OW27823   1.094   2.203   8.959 -0.1156 -0.1222 -0.4850
 5455SOL    HW127824   1.081   2.236   8.871  0.5254  0.1588 -0.4757
 5455SOL    HW227825   1.070   2.110   8.960  1.6104 -0.5628  0.9916
 5456SOL     OW27826   2.087   3.993   5.049  0.1894  0.0604  0.1124
 5456SOL    HW127827   2.091   4.000   5.144 -0.3624  0.1103  0.1320
 5456SOL    HW227828   2.023   4.063   5.036  2.5444  2.5068  1.6800
 5457SOL     OW27829   0.534   0.290  11.635  0.0381 -0.2341 -0.0737
 5457SOL    HW127830   0.608   0.312  11.691  0.4908  0.3398 -0.9012
 5457SOL    HW227831   0.516   0.207  11.680 -1.7645  0.4007  0.3613
 5458SOL     OW27832   0.716   2.771   3.560  0.6196 -0.1695 -0.0323
 5458SOL    HW127833   0.741   2.842   3.620 -1.8223  0.8892 -0.2660
 5458SOL    HW227834   0.703   2.814   3.475  0.0385 -1.8829 -0.8030
 5459SOL     OW27835   4.673   0.367   6.709 -0.3251  0.1343  0.2788
 5459SOL    HW127836   0.034   0.368   6.659 -0.3032 -0.0062  0.3140
 5459SOL    HW227837   4.602   0.368   6.644 -1.6753 -0.8225  1.7463
 5460SOL     OW27838   0.638   1.113   8.053  0.1585 -0.0503 -0.3125
 5460SOL    HW127839   0.554   1.084   8.089  2.2134 -3.1595  2.0442
 5460SOL    HW227840   0.616   1.201   8.024  3.5598  0.6204 -0.8688
 5461SOL     OW27841   2.663   2.214   5.288 -0.0193 -0.0150  0.0068
 5461SOL    HW127842   2.749   2.199   5.249 -0.1375 -1.8112  0.4236
 5461SOL    HW227843   2.658   2.150   5.359 -3.1159  0.3486  0.0912
 5462SOL     OW27844   2.049   1.220   4.612  0.0313 -0.1823  0.4981
 5462SOL    HW127845   1.985   1.290   4.625  1.0834  1.0913 -1.2634
 5462SOL    HW227846   2.095   1.235   4.695  1.3718 -3.3621  0.3189
 5463SOL     OW27847   3.130   0.880   3.868 -0.0365 -0.6547 -0.0354
 5463SOL    HW127848   3.219   0.863   3.901 -0.6966 -1.0335  1.5761
 5463SOL    HW227849   3.114   0.790   3.838  0.9661 -1.4347  1.7178
 5464SOL     OW27850   4.145   2.776  12.428  0.1612 -0.0150  0.3141
 5464SOL    HW127851   4.066   2.738  12.468 -0.4027 -0.6164 -1.3573
 5464SOL    HW227852   4.113   2.792  12.340  0.3189  0.4207  0.3408
 5465SOL     OW27853   0.787   2.181   5.115 -0.2495 -0.0529  0.1181
 5465SOL    HW127854   0.730   2.140   5.049  1.8612  0.3516 -1.9735
 5465SOL    HW227855   0.864   2.137   5.080 -1.6430 -1.7135 -0.8941
 5466SOL     OW27856   0.203   4.027  13.210 -0.2905 -0.2774  0.0705
 5466SOL    HW127857   0.143   3.958  13.237  1.2466 -1.1317  1.3454
 5466SOL    HW227858   0.206   4.072  13.294  0.3902 -0.1583 -0.0151
 5467SOL     OW27859   0.716   4.179   6.309  0.2989 -0.4347 -0.1071
 5467SOL    HW127860   0.780   4.136   6.365 -0.4630  0.8016  1.7155
 5467SOL    HW227861   0.737   4.270   6.331 -2.3476  0.0108  0.6339
 5468SOL     OW27862   4.270   2.048   8.277  0.1981 -0.0564 -0.6823
 5468SOL    HW127863   4.195   2.105   8.258  1.3146  0.9598 -2.0300
 5468SOL    HW227864   4.284   2.006   8.192  3.0494 -2.6582  1.0559
 5469SOL     OW27865   4.308   1.492   5.370  0.2515  0.0919  0.2686
 5469SOL    HW127866   4.242   1.561   5.374  0.2986  0.1014  0.9196
 5469SOL    HW227867   4.250   1.427   5.408  0.0966  1.9726  3.2943
 5470SOL     OW27868   4.594   0.918   8.461 -0.3074  0.6176  0.0109
 5470SOL    HW127869   4.614   1.010   8.447  2.9148 -0.0625  0.2098
 5470SOL    HW227870   4.540   0.920   8.540  0.4054 -0.5769  0.5246
 5471SOL     OW27871   0.230   4.429  12.785 -0.0809 -0.1652 -0.0662
 5471SOL    HW127872   0.180   4.398  12.709 -1.3585  0.3999  0.5443
 5471SOL    HW227873   0.318   4.399  12.765 -0.1399 -1.9279  2.3743
 5472SOL     OW27874   0.141   0.718   7.211 -0.1388  0.1279  0.4047
 5472SOL    HW127875   0.107   0.679   7.292  1.4319 -0.1217  0.9419
 5472SOL    HW227876   0.138   0.642   7.154  2.0892  1.1755 -1.1114
 5473SOL     OW27877   3.402   2.254   1.817  0.3763  0.5054  0.3486
 5473SOL    HW127878   3.439   2.172   1.784  0.1209  0.8680 -0.8552
 5473SOL    HW227879   3.425   2.316   1.748  0.1016 -0.3969 -0.5560
 5474SOL     OW27880   1.563   0.414   3.448  0.4060  0.3013  0.1259
 5474SOL    HW127881   1.593   0.386   3.362 -3.4084  1.1652 -1.4698
 5474SOL    HW227882   1.632   0.383   3.507 -0.3912 -1.9372 -0.1187
 5475SOL     OW27883   4.430   0.443   9.031  0.6196 -0.0049 -0.1526
 5475SOL    HW127884   4.362   0.432   9.098 -2.1535 -1.8288 -3.2485
 5475SOL    HW227885   4.390   0.384   8.967 -2.4176 -0.3272  2.0310
 5476SOL     OW27886   3.893   2.530  15.484  0.2795 -0.1485  0.1158
 5476SOL    HW127887   3.923   2.494  15.400 -0.9927 -0.3250 -0.2512
 5476SOL    HW227888   3.802   2.555  15.471 -0.0545 -2.5090 -2.0194
 5477SOL     OW27889   3.562   2.798   5.411  0.3245  0.3680  0.1738
 5477SOL    HW127890   3.514   2.749   5.344 -0.2151 -0.9953  1.5396
 5477SOL    HW227891   3.630   2.825   5.349  1.6548 -1.7778  0.6568
 5478SOL     OW27892   1.066   0.515   3.050 -0.0894  0.5521 -0.1178
 5478SOL    HW127893   0.977   0.538   3.076 -0.1659 -0.4527  0.5272
 5478SOL    HW227894   1.058   0.505   2.955 -2.2525  0.7898  0.0487
 5479SOL     OW27895   3.359   2.849   3.438  0.4948  0.2493  0.1495
 5479SOL    HW127896   3.283   2.905   3.459  0.6589  0.1577  0.9972
 5479SOL    HW227897   3.316   2.764   3.436 -0.6665  0.7978  1.4310
 5480SOL     OW27898   0.597   0.409   9.505 -0.2908  0.4722 -0.3918
 5480SOL    HW127899   0.610   0.315   9.516 -1.1197  0.4789  0.6200
 5480SOL    HW227900   0.541   0.418   9.428 -0.6543 -0.3233 -0.2147
 5481SOL     OW27901   4.112   1.999   2.838 -0.7914  0.4398 -0.4030
 5481SOL    HW127902   4.177   1.928   2.840  0.4312  1.6786  3.4743
 5481SOL    HW227903   4.165   2.067   2.879  0.7150 -1.7922  1.4115
 5482SOL     OW27904   0.138   4.535  10.950  0.3257  0.2260 -0.5892
 5482SOL    HW127905   0.115   4.534  10.857 -1.6073 -0.0980 -0.1035
 5482SOL    HW227906   0.114   4.446  10.974 -2.3228  0.9341 -0.6238
 5483SOL     OW27907   0.799   0.630  13.544  0.0908  0.4406  0.0501
 5483SOL    HW127908   0.875   0.685  13.526  0.2163 -0.0478 -0.9682
 5483SOL    HW227909   0.745   0.662  13.472  1.0858 -0.9084 -1.3121
 5484SOL     OW27910   1.373   3.507   1.322  0.1574  0.2397 -0.2542
 5484SOL    HW127911   1.445   3.483   1.380 -0.2817  1.5497  0.8571
 5484SOL    HW227912   1.310   3.541   1.386  0.3229 -1.7536  0.9701
 5485SOL     OW27913   4.555   2.975   0.500 -0.6574 -0.2753 -0.0358
 5485SOL    HW127914   4.602   2.894   0.482 -0.6795 -0.6488  1.5915
 5485SOL    HW227915   4.495   2.941   0.566  0.6801 -3.0306 -0.2524
 5486SOL     OW27916   0.733   0.424  13.717  0.0188  0.4774 -0.1736
 5486SOL    HW127917   0.761   0.487  13.651  1.7334  1.4433  1.4759
 5486SOL    HW227918   0.809   0.429  13.776 -0.3526  1.8641  0.1788
 5487SOL     OW27919   2.770   2.010   7.186  0.7235  0.3349  0.3345
 5487SOL    HW127920   2.824   2.081   7.150 -1.5032  0.6341 -2.4918
 5487SOL    HW227921   2.702   2.064   7.226  1.9363  1.3683  0.9942
 5488SOL     OW27922   3.755   4.502   6.106 -0.0338 -0.2895  0.5819
 5488SOL    HW127923   3.839   4.516   6.150 -0.1481  1.1951  0.3288
 5488SOL    HW227924   3.730   4.414   6.134 -0.0680 -0.3959  0.2135
 5489SOL     OW27925   1.059   0.348   3.756 -0.5993 -0.2821 -0.2674
 5489SOL    HW127926   1.021   0.374   3.840 -1.2516 -2.0891 -0.0181
 5489SOL    HW227927   1.024   0.262   3.734 -1.3061  0.1526 -0.8873
 5490SOL     OW27928   3.097   3.662  11.447 -0.4438 -0.4688  0.1446
 5490SOL    HW127929   3.153   3.645  11.522  1.7514  1.5837 -1.0334
 5490SOL    HW227930   3.102   3.757  11.446 -1.7285 -0.3995 -0.5296
 5491SOL     OW27931   0.287   0.357   9.406  0.1662  0.0070 -0.3044
 5491SOL    HW127932   0.223   0.360   9.335  1.2316  2.1137 -1.1787
 5491SOL    HW227933   0.368   0.375   9.358  0.7869  2.1332  1.5300
 5492SOL     OW27934   3.517   1.429   7.448 -0.3533  0.2494 -0.1156
 5492SOL    HW127935   3.523   1.357   7.386  0.0747  0.7145 -0.6170
 5492SOL    HW227936   3.445   1.410   7.509  0.0525  0.2685  0.3684
 5493SOL     OW27937   0.864   2.981  14.925  0.5965  0.4898 -0.0286
 5493SOL    HW127938   0.874   2.975  14.830 -0.9070  0.6276 -0.1984
 5493SOL    HW227939   0.947   2.938  14.947  0.5221  0.0841 -0.5342
 5494SOL     OW27940   4.715   1.107   3.960  0.5799  0.1430  0.2894
 5494SOL    HW127941   0.013   1.018   3.929  1.1539 -0.3530  2.1143
 5494SOL    HW227942   4.633   1.122   3.911  1.0684 -1.7888 -1.1472
 5495SOL     OW27943   0.637   2.000   6.076 -0.1144  0.7070 -0.7862
 5495SOL    HW127944   0.671   1.934   6.016  0.1147 -0.6411  0.8284
 5495SOL    HW227945   0.570   1.945   6.116  1.7068 -0.3132  0.8848
 5496SOL     OW27946   3.314   4.114   5.194 -0.1772  0.2825 -0.6858
 5496SOL    HW127947   3.395   4.166   5.199  0.1241 -0.3963  1.3652
 5496SOL    HW227948   3.310   4.080   5.105  0.9788  2.3301 -1.5382
 5497SOL     OW27949   1.386   3.645  17.225 -0.0746 -0.0517 -0.6478
 5497SOL    HW127950   1.437   3.573  17.262 -1.7633 -0.6435  0.5493
 5497SOL    HW227951   1.454   3.706  17.198 -0.8143  1.0065 -0.1308
 5498SOL     OW27952   0.555   3.688   9.433  0.4491  0.1449 -0.1220
 5498SOL    HW127953   0.564   3.613   9.492 -2.5877 -0.5670 -0.5725
 5498SOL    HW227954   0.641   3.690   9.392 -0.7846  1.8897 -2.6214
 5499SOL     OW27955   2.337   3.621  10.297  0.2563 -0.3257 -0.0683
 5499SOL    HW127956   2.380   3.666  10.224  0.6398 -0.9613 -0.2343
 5499SOL    HW227957   2.405   3.563  10.329  2.5610  2.0747 -0.5948
 5500SOL     OW27958   3.911   3.823  13.565  0.3800  0.2846 -0.8258
 5500SOL    HW127959   3.932   3.762  13.636 -1.1492 -2.4444 -2.6723
 5500SOL    HW227960   3.818   3.800  13.554  0.2678  1.7814 -3.1232
 5501SOL     OW27961   4.274   1.021   6.728  0.1975 -0.4206 -0.0913
 5501SOL    HW127962   4.368   1.041   6.727 -0.1187  1.0785  0.2994
 5501SOL    HW227963   4.254   1.004   6.636 -0.4248 -3.6250  0.6511
 5502SOL     OW27964   4.445   0.238   1.751  0.0256  0.5244 -0.1714
 5502SOL    HW127965   4.391   0.289   1.812  0.5363  0.9706 -0.0917
 5502SOL    HW227966   4.427   0.152   1.790  0.8952  0.9312  1.1542
 5503SOL     OW27967   4.224   2.651  10.874 -0.7086  0.2837 -0.5078
 5503SOL    HW127968   4.248   2.648  10.781  1.0136  0.6515 -0.0829
 5503SOL    HW227969   4.292   2.714  10.901  0.3965 -0.5526 -1.3524
 5504SOL     OW27970   0.041   3.685   8.412 -0.5057  0.3474 -0.7432
 5504SOL    HW127971   0.077   3.719   8.494 -0.0752 -0.9617 -0.3945
 5504SOL    HW227972   4.668   3.684   8.425 -0.6104 -0.4974 -1.6017
 5505SOL     OW27973   1.075   3.877   0.767 -0.3690  0.5650  0.1994
 5505SOL    HW127974   1.145   3.877   0.702  1.8248 -1.1741  2.5616
 5505SOL    HW227975   1.113   3.907   0.850  3.0343  1.5741 -1.7196
 5506SOL     OW27976   3.498   1.307  10.510  0.1812  0.1104 -0.2038
 5506SOL    HW127977   3.543   1.224  10.525 -0.2399  0.6721  4.1680
 5506SOL    HW227978   3.542   1.373  10.563 -2.4820  1.9263 -0.2821
 5507SOL     OW27979   4.398   3.811  15.981 -0.4674  0.5618  0.0699
 5507SOL    HW127980   4.382   3.883  16.042  1.9458  2.4462 -1.5153
 5507SOL    HW227981   4.464   3.849  15.923 -0.6207 -0.1817 -0.5843
 5508SOL     OW27982   2.271   2.761  12.403 -0.5505  0.1678 -0.7771
 5508SOL    HW127983   2.317   2.702  12.464 -0.4260  1.4194  0.3307
 5508SOL    HW227984   2.299   2.845  12.439  1.4741 -1.0627  0.5073
 5509SOL     OW27985   1.261   3.133   4.067  0.1494 -0.2423 -0.5496
 5509SOL    HW127986   1.215   3.170   3.991  2.3272  0.2107 -1.6449
 5509SOL    HW227987   1.343   3.182   4.068 -0.2039  0.3436  0.2203
 5510SOL     OW27988   1.217   3.880  16.736  0.2707  0.5651 -0.2444
 5510SOL    HW127989   1.187   3.954  16.682 -0.2157  1.4507  1.2435
 5510SOL    HW227990   1.248   3.917  16.818 -0.3948 -0.2189  0.3574
 5511SOL     OW27991   2.569   2.973   3.531  0.4593  0.4551 -0.5355
 5511SOL    HW127992   2.590   2.901   3.471  1.2813  0.2641 -0.0137
 5511SOL    HW227993   2.484   3.006   3.501 -0.4703 -0.0380  1.5702
 5512SOL     OW27994   4.292   1.770   4.086 -0.2592 -0.2999 -0.1584
 5512SOL    HW127995   4.241   1.692   4.109 -0.1199 -0.2158  0.4316
 5512SOL    HW227996   4.259   1.787   3.998 -0.2995 -0.0067 -0.0876
 5513SOL     OW27997   1.160   1.047   1.067  0.2400  0.3501  0.1842
 5513SOL    HW127998   1.126   1.037   1.155 -0.6569 -1.8854 -0.4281
 5513SOL    HW227999   1.186   1.140   1.062 -0.2484  0.4482 -0.6052
 5514SOL     OW28000   4.292   2.434   1.179  0.1720  0.1479  0.2373
 5514SOL    HW128001   4.224   2.444   1.246 -0.3564 -0.5632 -0.1825
 5514SOL    HW228002   4.302   2.525   1.150  1.0234 -0.4445 -1.3143
 5515SOL     OW28003   1.177   3.939   9.080  0.1736 -0.0583 -0.2897
 5515SOL    HW128004   1.205   3.984   9.159  1.3803  0.9231 -1.2627
 5515SOL    HW228005   1.160   4.020   9.031  2.5329  0.6369  0.0419
 5516SOL     OW28006   2.627   1.524   2.524 -0.3114  0.9664 -0.3563
 5516SOL    HW128007   2.536   1.551   2.536 -0.7813 -1.7989  2.4767
 5516SOL    HW228008   2.667   1.586   2.585 -0.5198  0.0652  0.6978
 5517SOL     OW28009   0.746   2.627   8.313  0.7821  0.2535 -0.1954
 5517SOL    HW128010   0.785   2.582   8.388 -0.3573  1.5869  1.1967
 5517SOL    HW228011   0.819   2.621   8.251 -0.3689 -3.0931 -1.2301
 5518SOL     OW28012   4.009   4.290  13.085 -0.2957 -0.1184 -0.4570
 5518SOL    HW128013   4.101   4.314  13.075  0.2337 -2.5116 -1.3554
 5518SOL    HW228014   3.989   4.309  13.176 -2.1399 -1.3452 -0.6229
 5519SOL     OW28015   3.551   2.896  16.483  0.0787  0.4573 -0.0833
 5519SOL    HW128016   3.489   2.839  16.438  0.0192  1.0845 -0.7851
 5519SOL    HW228017   3.546   2.979  16.437  1.2202 -0.9269 -2.6956
 5520SOL     OW28018   2.600   2.275   1.035  0.0678  0.6061 -0.1733
 5520SOL    HW128019   2.507   2.288   1.019 -0.0182 -0.3582 -0.4942
 5520SOL    HW228020   2.617   2.206   0.971 -2.7629  0.0989 -0.3868
 5521SOL     OW28021   1.660   3.240   7.611 -0.1456  0.7996  0.5454
 5521SOL    HW128022   1.674   3.334   7.604  3.2725  0.0119 -3.8209
 5521SOL    HW228023   1.611   3.233   7.529  0.0900 -0.4050  0.5042
 5522SOL     OW28024   3.510   1.099   7.599 -0.0501 -0.6239  0.6073
 5522SOL    HW128025   3.520   1.033   7.667  2.6144 -0.5410  0.2769
 5522SOL    HW228026   3.500   1.184   7.643 -2.1478 -0.9353  0.7226
 5523SOL     OW28027   1.564   3.906   8.346 -0.0416  0.0707 -0.2887
 5523SOL    HW128028   1.545   3.999   8.335  2.0332  0.5693  0.3344
 5523SOL    HW228029   1.485   3.863   8.379 -0.5705  1.3789  0.1306
 5524SOL     OW28030   2.361   0.623   5.072 -0.0354  0.1749  0.1727
 5524SOL    HW128031   2.297   0.583   5.131 -0.7363  2.0929  0.7213
 5524SOL    HW228032   2.311   0.616   4.991 -2.0079  1.3077  1.2882
 5525SOL     OW28033   4.539   3.123   7.868  0.7710  0.7746  0.5214
 5525SOL    HW128034   4.629   3.096   7.883  0.5250 -0.5001 -0.2608
 5525SOL    HW228035   4.521   3.117   7.774 -0.0957  0.8524  0.6806
 5526SOL     OW28036   0.828   4.047   7.413  0.4700 -0.4201  0.1755
 5526SOL    HW128037   0.874   4.130   7.427  2.1647 -1.6348  1.6030
 5526SOL    HW228038   0.741   4.087   7.407  0.0700 -1.5881 -1.9086
 5527SOL     OW28039   0.701   2.380  14.387 -0.3431 -0.7225  0.0690
 5527SOL    HW128040   0.609   2.362  14.405 -0.6135  1.4650  0.8501
 5527SOL    HW228041   0.728   2.434  14.461 -0.0199 -0.7707 -0.0130
 5528SOL     OW28042   4.453   4.695   4.609 -0.7531 -0.0277  0.0750
 5528SOL    HW128043   4.438   4.611   4.652 -0.4173  0.3975  1.0305
 5528SOL    HW228044   4.471   4.668   4.519 -1.7104 -0.0302 -0.1173
 5529SOL     OW28045   3.729   1.828   5.942 -0.0735  0.1381 -0.7244
 5529SOL    HW128046   3.806   1.830   5.885 -0.5120 -1.8497 -1.3975
 5529SOL    HW228047   3.773   1.783   6.015 -0.1122 -0.2419 -0.9328
 5530SOL     OW28048   2.745   1.428   5.210 -0.6393 -0.2044  0.0087
 5530SOL    HW128049   2.765   1.498   5.271  2.3882  0.0844 -1.3270
 5530SOL    HW228050   2.697   1.474   5.141  2.9738  0.0174 -2.3119
 5531SOL     OW28051   2.802   0.000   5.179 -0.3788 -0.2108 -0.1326
 5531SOL    HW128052   2.786   4.676   5.096  0.9361 -2.6338  0.9477
 5531SOL    HW228053   2.713   0.028   5.200  0.3180  1.3201  0.8137
 5532SOL     OW28054   2.542   0.790   5.363 -0.4612  0.4672 -0.2489
 5532SOL    HW128055   2.572   0.859   5.422  1.2109  0.1808 -0.7905
 5532SOL    HW228056   2.496   0.839   5.294 -1.4385 -1.6915 -1.1345
 5533SOL     OW28057   2.808   2.121   2.539  0.5974 -1.0291  0.0987
 5533SOL    HW128058   2.813   2.125   2.634  0.4107  2.3830 -0.0235
 5533SOL    HW228059   2.762   2.043   2.510  0.0047 -1.0464  1.1100
 5534SOL     OW28060   0.092   4.483   7.589 -0.2313  1.1859 -0.3316
 5534SOL    HW128061   0.116   4.511   7.677 -1.9660 -0.3003  0.6157
 5534SOL    HW228062   4.719   4.469   7.600  0.2639  0.0202  2.4229
 5535SOL     OW28063   2.986   0.673  14.085 -0.1480  0.2592  0.0504
 5535SOL    HW128064   3.069   0.718  14.102  2.2880 -4.0556 -0.4645
 5535SOL    HW228065   2.960   0.620  14.160 -0.6710 -0.0798 -0.3730
 5536SOL     OW28066   0.383   3.316   3.114 -0.4955 -0.6840 -0.4460
 5536SOL    HW128067   0.292   3.341   3.099 -0.3984 -1.0498 -1.5883
 5536SOL    HW228068   0.416   3.355   3.033 -1.8257  0.3171 -0.5083
 5537SOL     OW28069   4.107   3.528   4.939 -0.1872  0.6667  0.4116
 5537SOL    HW128070   4.120   3.473   4.862 -1.4834  2.8195 -1.3487
 5537SOL    HW228071   4.186   3.582   4.940 -0.2824  0.8190 -0.1255
 5538SOL     OW28072   3.953   4.654  13.583  0.3678  0.2805 -0.1799
 5538SOL    HW128073   3.879   4.636  13.641  0.0928 -1.9725 -1.2036
 5538SOL    HW228074   3.986   4.565  13.572 -0.5871  0.3037 -3.2684
 5539SOL     OW28075   1.280   3.316   7.999 -0.3711 -0.3331 -0.2848
 5539SOL    HW128076   1.336   3.388   8.029 -0.5540 -0.5279  0.5223
 5539SOL    HW228077   1.197   3.363   7.990  0.3647  1.0215  0.0151
 5540SOL     OW28078   4.177   0.610   9.599 -0.7825 -0.0372 -0.3317
 5540SOL    HW128079   4.248   0.674   9.598 -1.9122  1.2793  2.2888
 5540SOL    HW228080   4.115   0.663   9.549 -1.5480 -1.1555 -0.5726
 5541SOL     OW28081   1.133   2.317   2.411 -0.3427 -0.0410  0.1999
 5541SOL    HW128082   1.181   2.384   2.459  0.9512 -0.9587  0.1765
 5541SOL    HW228083   1.042   2.334   2.435 -0.3947  1.1711 -0.8359
 5542SOL     OW28084   2.723   2.634   7.039  0.2423  0.2294 -0.1963
 5542SOL    HW128085   2.673   2.690   6.980  0.9805  1.3184  0.2255
 5542SOL    HW228086   2.814   2.653   7.017  0.0499 -0.5092 -1.6192
 5543SOL     OW28087   3.856   1.909   2.400 -0.0737  0.0820  0.3770
 5543SOL    HW128088   3.864   1.814   2.414  1.4887 -0.0138 -1.2264
 5543SOL    HW228089   3.818   1.903   2.312  0.0404 -2.3941  0.4738
 5544SOL     OW28090   3.678   1.930   7.793  0.1067  0.1809 -0.8744
 5544SOL    HW128091   3.739   1.865   7.827  2.2425  2.1384 -0.9987
 5544SOL    HW228092   3.687   1.906   7.701  1.3510  1.1919 -1.0177
 5545SOL     OW28093   4.122   3.687   3.711 -0.2837  0.2393  0.2823
 5545SOL    HW128094   4.038   3.662   3.674  0.9480 -0.7642 -1.8389
 5545SOL    HW228095   4.103   3.736   3.791  2.2731 -0.3465  1.2608
 5546SOL     OW28096   2.253   1.442   2.238 -0.0246  0.0313 -0.5723
 5546SOL    HW128097   2.312   1.437   2.162 -1.9935 -2.7212 -1.9143
 5546SOL    HW228098   2.261   1.349   2.258 -0.6530  0.3652  1.2228
 5547SOL     OW28099   3.607   2.470  12.656 -0.1463  0.2671 -0.1517
 5547SOL    HW128100   3.513   2.485  12.645 -0.2287  0.5394  0.9723
 5547SOL    HW228101   3.651   2.502  12.577 -2.0404  2.0976 -0.4759
 5548SOL     OW28102   0.518   0.663  16.895 -0.1333 -0.2313  0.2477
 5548SOL    HW128103   0.515   0.698  16.984  1.1269 -0.0272  0.2104
 5548SOL    HW228104   0.515   0.569  16.908 -0.4946 -0.2726 -0.1161
 5549SOL     OW28105   4.024   1.571   3.690 -0.4079  0.1414 -0.1188
 5549SOL    HW128106   3.957   1.538   3.750 -0.7767 -0.5739 -0.9291
 5549SOL    HW228107   3.988   1.541   3.606 -0.0635 -1.5149  0.3355
 5550SOL     OW28108   0.577   2.309   7.275  0.1368 -0.3490 -0.8276
 5550SOL    HW128109   0.656   2.271   7.314 -0.2461  1.2836  1.5326
 5550SOL    HW228110   0.605   2.399   7.259 -1.3123  0.0401 -1.1137
 5551SOL     OW28111   1.372   2.474   4.389 -0.4160  0.3595  0.0286
 5551SOL    HW128112   1.280   2.500   4.381 -0.5020  1.2315  3.8475
 5551SOL    HW228113   1.360   2.379   4.385 -1.0004  0.4569 -0.6482
 5552SOL     OW28114   1.042   0.889   3.263  0.5170 -0.0539 -0.5391
 5552SOL    HW128115   1.014   0.920   3.177  1.6976 -0.8265 -1.2172
 5552SOL    HW228116   1.053   0.973   3.307 -2.2925  0.4844 -0.9239
 5553SOL     OW28117   4.549   4.697  16.670  0.5658 -0.3232  0.4518
 5553SOL    HW128118   4.481   4.645  16.628 -0.2450  2.8674 -2.2555
 5553SOL    HW228119   4.548   0.060  16.623 -0.6772  0.5715  2.0415
 5554SOL     OW28120   2.751   3.556   2.621 -0.2684  0.0356  0.2239
 5554SOL    HW128121   2.840   3.534   2.648 -0.7695 -1.2827  0.7917
 5554SOL    HW228122   2.702   3.476   2.602  0.0518 -0.0725 -0.1430
 5555SOL     OW28123   4.404   2.249   8.431 -0.0236  1.2159 -0.0395
 5555SOL    HW128124   4.349   2.181   8.391  0.6738  1.4045 -1.3314
 5555SOL    HW228125   4.461   2.281   8.361 -0.8435  0.1473 -1.2203
 5556SOL     OW28126   1.877   3.897  12.697  0.1439 -0.1162  0.3945
 5556SOL    HW128127   1.854   3.817  12.744  0.0698  0.3723  1.1863
 5556SOL    HW228128   1.875   3.963  12.766 -0.9114  0.9876 -0.6903
 5557SOL     OW28129   0.773   0.459   6.812  0.2552  0.5698 -0.6154
 5557SOL    HW128130   0.771   0.428   6.722 -1.6761 -1.1768  0.0195
 5557SOL    HW228131   0.839   0.409   6.860 -0.8604  0.8286  1.1956
 5558SOL     OW28132   3.612   3.314   2.169 -0.1115 -0.1153 -0.1104
 5558SOL    HW128133   3.592   3.279   2.255  0.6667 -1.6086 -0.5223
 5558SOL    HW228134   3.677   3.261   2.122  1.1347  1.9926 -0.7463
 5559SOL     OW28135   2.505   4.110   6.938 -0.1837 -0.2976 -0.1971
 5559SOL    HW128136   2.492   4.201   6.913 -0.9424 -0.7947 -1.6145
 5559SOL    HW228137   2.501   4.058   6.858 -2.4672 -0.7350  0.1800
 5560SOL     OW28138   2.144   4.222  11.597 -0.0504 -0.1956  0.2339
 5560SOL    HW128139   2.164   4.313  11.621 -0.1688 -0.3171  0.7909
 5560SOL    HW228140   2.217   4.200  11.539  0.8951 -1.1735  1.7996
 5561SOL     OW28141   2.708   0.406  16.691 -0.0397  0.0981 -0.4061
 5561SOL    HW128142   2.744   0.445  16.611 -0.8686 -0.6048 -1.1262
 5561SOL    HW228143   2.644   0.344  16.657 -0.3356 -0.3073  0.9052
 5562SOL     OW28144   1.597   3.087  16.960 -0.6771  0.0420 -0.4394
 5562SOL    HW128145   1.652   3.015  16.929  0.2021  0.2504  0.6530
 5562SOL    HW228146   1.659   3.157  16.980 -0.4228 -0.6581  1.2412
 5563SOL     OW28147   3.535   1.745   3.941  0.1611  0.3294  0.3141
 5563SOL    HW128148   3.464   1.689   3.911 -1.5319  2.3249  0.6377
 5563SOL    HW228149   3.494   1.796   4.010  4.0516  0.7590  2.3322
 5564SOL     OW28150   0.656   2.506   3.615  0.2357 -0.0469  0.0806
 5564SOL    HW128151   0.638   2.474   3.527  0.4641  0.2936 -0.0855
 5564SOL    HW228152   0.641   2.599   3.601  0.3013  0.2119  1.6813
 5565SOL     OW28153   1.391   2.653   9.127 -0.2629 -0.3320  0.0017
 5565SOL    HW128154   1.362   2.646   9.218  0.9423 -0.4137  0.3832
 5565SOL    HW228155   1.470   2.704   9.146 -0.0165 -1.3051  1.5252
 5566SOL     OW28156   0.110   3.661   6.685  0.4454  0.5091  0.9060
 5566SOL    HW128157   0.123   3.756   6.682  0.4744  0.4520 -0.9187
 5566SOL    HW228158   0.039   3.641   6.746  0.6349  1.3533  1.4078
 5567SOL     OW28159   4.610   2.218   3.157  0.6081  0.2454 -0.0155
 5567SOL    HW128160   4.552   2.142   3.148  0.9879 -0.0216 -0.2285
 5567SOL    HW228161   4.540   2.272   3.194  1.0647 -0.4463  1.8504
 5568SOL     OW28162   3.938   0.740  17.161 -0.5438 -0.0721  0.0418
 5568SOL    HW128163   3.976   0.713  17.244  0.4939  1.1114 -0.0450
 5568SOL    HW228164   4.012   0.723  17.102 -1.8034 -1.5936 -1.1117
 5569SOL     OW28165   4.537   2.906  15.021  0.0387 -0.2031  0.0258
 5569SOL    HW128166   4.594   2.858  14.961 -0.5118 -0.9747  0.1115
 5569SOL    HW228167   4.518   2.835  15.083  1.9907 -0.7220  0.0359
 5570SOL     OW28168   3.795   0.586   4.373  0.5756  0.0892  0.2712
 5570SOL    HW128169   3.797   0.598   4.467 -1.9839  0.0451  0.3466
 5570SOL    HW228170   3.728   0.650   4.349  0.9900  0.5513  0.3421
 5571SOL     OW28171   0.776   3.595   4.820  0.1953  0.1237 -0.1327
 5571SOL    HW128172   0.863   3.613   4.856  0.9483 -0.9093 -1.4086
 5571SOL    HW228173   0.763   3.510   4.862 -2.6460 -0.2337 -1.7498
 5572SOL     OW28174   1.263   2.568  16.860  0.4403  0.4614 -0.0068
 5572SOL    HW128175   1.245   2.630  16.930  0.7548  1.5044 -0.8478
 5572SOL    HW228176   1.340   2.528  16.901  0.9830  0.3622 -1.1241
 5573SOL     OW28177   1.947   4.667  15.864 -0.6163 -0.0934 -0.1224
 5573SOL    HW128178   2.023   0.000  15.887  0.1259 -1.1558 -0.0746
 5573SOL    HW228179   1.959   4.581  15.902 -0.5590 -0.6324 -1.3493
 5574SOL     OW28180   4.293   0.924   8.048 -0.8573 -0.1226 -0.6768
 5574SOL    HW128181   4.231   0.985   8.087  0.8118 -0.0678  1.9000
 5574SOL    HW228182   4.304   0.865   8.123 -0.2952  2.4318  1.2325
 5575SOL     OW28183   4.259   1.425   3.702 -0.0848 -0.1191 -0.0031
 5575SOL    HW128184   4.271   1.351   3.642 -0.2024 -1.8450  2.0601
 5575SOL    HW228185   4.180   1.473   3.678 -0.1181  0.1977  0.7277
 5576SOL     OW28186   4.602   0.599   4.078 -0.0398  0.1599 -0.1135
 5576SOL    HW128187   4.527   0.542   4.093 -1.5047  1.7150 -1.5253
 5576SOL    HW228188   4.654   0.560   4.148 -3.3070 -1.4283  1.4191
 5577SOL     OW28189   1.199   3.421  15.870  0.3474 -0.2366 -0.0713
 5577SOL    HW128190   1.225   3.341  15.915 -0.2615 -0.6363 -0.4175
 5577SOL    HW228191   1.274   3.427  15.811  0.0372  0.9080 -0.3522
 5578SOL     OW28192   1.549   1.916   3.326  0.2603 -0.1126 -0.4032
 5578SOL    HW128193   1.510   1.910   3.239  0.4227  0.1524 -0.4943
 5578SOL    HW228194   1.636   1.875   3.323 -1.4994 -3.9058  0.1887
 5579SOL     OW28195   3.106   4.163   3.608  0.2239  0.3170 -0.5429
 5579SOL    HW128196   3.194   4.125   3.599  1.5008  3.0224  0.4525
 5579SOL    HW228197   3.103   4.163   3.704 -0.2357 -1.2664 -0.5626
 5580SOL     OW28198   0.575   2.917  11.762 -0.2645  0.0513 -0.1162
 5580SOL    HW128199   0.536   2.976  11.826  1.3674 -0.3574  1.2538
 5580SOL    HW228200   0.494   2.898  11.713 -1.5787  1.5574  1.4913
 5581SOL     OW28201   4.434   3.648   4.919  0.0643  0.8373  0.6486
 5581SOL    HW128202   4.492   3.573   4.911  0.4180  1.2263 -0.4391
 5581SOL    HW228203   4.407   3.648   5.011 -0.8557 -0.4705  0.3758
 5582SOL     OW28204   4.446   1.064   8.843 -0.1468 -0.4392 -0.5933
 5582SOL    HW128205   4.376   1.059   8.908  1.0049 -0.5130  0.6138
 5582SOL    HW228206   4.525   1.080   8.893 -1.1975  0.6358  0.7141
 5583SOL     OW28207   3.740   0.893  14.979 -0.1029  0.4714  0.0550
 5583SOL    HW128208   3.725   0.928  14.891 -0.5779  1.0091  0.3546
 5583SOL    HW228209   3.792   0.818  14.950 -0.9359  0.2133 -0.7395
 5584SOL     OW28210   3.074   4.458   0.347  0.5470  0.0595 -0.0092
 5584SOL    HW128211   3.021   4.495   0.418  1.9705  0.7954  0.6655
 5584SOL    HW228212   3.164   4.444   0.376 -0.3316  1.6436  3.4968
 5585SOL     OW28213   3.958   1.211   4.407 -0.6053 -0.5441 -0.2598
 5585SOL    HW128214   3.991   1.122   4.394 -1.3017 -0.6553 -1.2504
 5585SOL    HW228215   3.867   1.195   4.384 -0.8077 -1.6191  1.3290
 5586SOL     OW28216   1.284   2.252  14.178  0.0223  0.3864 -0.3904
 5586SOL    HW128217   1.195   2.237  14.209  0.6502  0.9588  1.6683
 5586SOL    HW228218   1.287   2.348  14.185  0.1042  0.3346  0.3159
 5587SOL     OW28219   2.574   2.772   3.316 -0.1788  0.3957  0.3936
 5587SOL    HW128220   2.501   2.727   3.357 -0.7886  2.3238  1.4122
 5587SOL    HW228221   2.587   2.720   3.237 -0.6471  0.5818  0.1955
 5588SOL     OW28222   2.175   2.209   2.507  0.3761  0.1750 -0.1746
 5588SOL    HW128223   2.137   2.260   2.436 -0.5381 -1.3195 -0.7499
 5588SOL    HW228224   2.127   2.254   2.577  1.0035  0.0491  0.3324
 5589SOL     OW28225   2.637   1.959  16.609 -0.1793  0.0354  0.0803
 5589SOL    HW128226   2.544   1.961  16.588 -0.4746  1.7764  1.5653
 5589SOL    HW228227   2.669   2.031  16.555  0.5806  0.1003  0.6197
 5590SOL     OW28228   2.890   1.500   1.990  0.4018  0.5077 -0.4312
 5590SOL    HW128229   2.930   1.443   2.055  0.2427 -1.0571 -1.7192
 5590SOL    HW228230   2.970   1.548   1.968  1.0407 -0.0593  0.6562
 5591SOL     OW28231   1.646   4.227   8.312  0.3423 -0.3122 -0.0791
 5591SOL    HW128232   1.575   4.283   8.345  0.9602  1.4405 -1.7157
 5591SOL    HW228233   1.677   4.291   8.248  0.1702 -0.8049 -0.6561
 5592SOL     OW28234   2.036   4.236   8.885  0.0724  0.6497 -0.1591
 5592SOL    HW128235   2.067   4.216   8.796  1.3059 -0.0236  0.4242
 5592SOL    HW228236   2.049   4.331   8.877  3.0584  0.2509 -0.0510
 5593SOL     OW28237   3.029   1.655   2.289 -0.0395 -0.0011  0.1154
 5593SOL    HW128238   3.018   1.634   2.382  1.5449  1.5832  0.6636
 5593SOL    HW228239   3.012   1.567   2.255  0.6541  0.2607 -0.8976
 5594SOL     OW28240   3.969   0.541   8.949 -0.0462 -0.0277  0.1095
 5594SOL    HW128241   3.971   0.544   8.854  0.2170  0.0314  0.1186
 5594SOL    HW228242   3.892   0.592   8.974  0.6985 -0.2540  2.8762
 5595SOL     OW28243   4.019   0.914   9.262  0.1305 -0.3500  0.0186
 5595SOL    HW128244   4.082   0.856   9.219  1.7732  0.6369  1.1125
 5595SOL    HW228245   4.077   0.939   9.334  0.6237 -0.1403 -0.4446
 5596SOL     OW28246   2.768   1.940  14.380 -0.5580 -0.7214  0.7755
 5596SOL    HW128247   2.845   1.916  14.433  0.9610 -1.3082 -1.7077
 5596SOL    HW228248   2.760   2.030  14.411 -0.7410 -0.7729  0.8793
 5597SOL     OW28249   2.739   0.827  10.314  0.1014  0.1406 -0.1158
 5597SOL    HW128250   2.707   0.819  10.403  0.8895  0.0326  0.1610
 5597SOL    HW228251   2.663   0.806  10.260 -1.0373  0.7258  1.2886
 5598SOL     OW28252   4.568   4.527  14.949  0.3156 -0.2642 -0.4403
 5598SOL    HW128253   4.535   4.441  14.972  1.6765 -1.0321 -1.3453
 5598SOL    HW228254   4.663   4.516  14.950  0.4074  0.7423  1.8830
 5599SOL     OW28255   0.949   4.699  14.637 -0.1397 -0.2210  0.2189
 5599SOL    HW128256   0.974   0.056  14.686  0.3133 -0.2612  0.0478
 5599SOL    HW228257   0.869   0.011  14.595  1.2564  1.5974 -1.0085
 5600SOL     OW28258   2.871   4.218   7.968  0.1430 -0.7782  0.3350
 5600SOL    HW128259   2.865   4.136   7.919  0.7094 -0.2599 -0.5872
 5600SOL    HW228260   2.778   4.223   7.992 -0.0978  0.1371 -0.8298
 5601SOL     OW28261   1.790   2.172  10.245  0.3801  0.1303  0.6278
 5601SOL    HW128262   1.786   2.077  10.244 -2.5150  0.2703 -0.5633
 5601SOL    HW228263   1.740   2.193  10.324  1.2729 -0.2421  1.2964
 5602SOL     OW28264   0.727   0.881   8.454 -0.4097 -0.6351 -0.2671
 5602SOL    HW128265   0.709   0.874   8.360 -0.4034  2.0239 -0.4687
 5602SOL    HW228266   0.813   0.839   8.461 -0.0948  0.1650  0.5606
 5603SOL     OW28267   4.665   4.565   2.700 -0.0766  0.1543 -0.0125
 5603SOL    HW128268   0.012   4.519   2.750 -1.3952 -1.1253  0.5746
 5603SOL    HW228269   4.656   4.646   2.751 -2.8579 -1.0920  1.4555
 5604SOL     OW28270   1.448   3.819   7.150  0.3226  0.3267 -0.0803
 5604SOL    HW128271   1.360   3.782   7.160  0.5265 -0.5061 -1.2871
 5604SOL    HW228272   1.433   3.910   7.125 -0.8330 -0.1331 -1.0924
 5605SOL     OW28273   2.127   0.806   2.718  0.0888 -0.0388  0.1020
 5605SOL    HW128274   2.056   0.853   2.761  0.7344 -1.5176  2.8141
 5605SOL    HW228275   2.073   0.768   2.649  0.6889  2.3552 -1.6762
 5606SOL     OW28276   0.370   0.820   3.782  0.4580  0.5521  0.3614
 5606SOL    HW128277   0.385   0.886   3.850  0.4001  0.3058  0.6188
 5606SOL    HW228278   0.460   0.820   3.748  0.1623  0.9044 -0.4133
 5607SOL     OW28279   0.193   3.234   0.683  0.4848 -0.0022  0.4759
 5607SOL    HW128280   0.241   3.301   0.733 -0.0079 -0.4157  1.5123
 5607SOL    HW228281   0.201   3.166   0.750 -0.5807  1.8166  2.4779
 5608SOL     OW28282   0.957   0.551   9.021  0.6620 -0.5194  0.2573
 5608SOL    HW128283   0.871   0.509   9.027  1.8205 -3.2719 -2.6493
 5608SOL    HW228284   0.971   0.584   9.110 -1.4097  1.5943 -0.1863
 5609SOL     OW28285   0.538   2.674   0.064  0.0276  0.0975 -0.1369
 5609SOL    HW128286   0.634   2.677   0.069 -0.1018 -0.6723  2.3704
 5609SOL    HW228287   0.509   2.749   0.011  2.2943  0.7958 -0.4225
 5610SOL     OW28288   0.361   0.596   4.016  0.0714 -0.3913 -0.4211
 5610SOL    HW128289   0.367   0.690   4.033  0.1652 -0.2782 -1.0595
 5610SOL    HW228290   0.442   0.554   4.042 -0.1051  1.0728  2.5777
 5611SOL     OW28291   2.770   3.076   3.672 -0.2927  0.2206  0.2696
 5611SOL    HW128292   2.717   3.076   3.752 -0.0224 -1.2486  0.4495
 5611SOL    HW228293   2.702   3.036   3.618  0.1993 -0.3386  0.0661
 5612SOL     OW28294   0.792   2.684   9.485  1.0174  0.2797  0.0918
 5612SOL    HW128295   0.864   2.733   9.524  1.2427 -0.3841  0.5103
 5612SOL    HW228296   0.804   2.599   9.528  0.2003  0.6651  1.0808
 5613SOL     OW28297   1.389   4.613   5.197  0.4208  0.4847 -0.7611
 5613SOL    HW128298   1.310   4.667   5.207  0.1320  0.4138 -2.6264
 5613SOL    HW228299   1.399   4.570   5.282 -0.7697  2.6881  0.4964
 5614SOL     OW28300   0.047   4.462   0.106 -0.1140 -0.4003  0.5701
 5614SOL    HW128301   4.676   4.487   0.095 -0.1478 -0.8651 -0.2107
 5614SOL    HW228302   0.095   4.489   0.028  1.6407 -0.9834  1.4452
 5615SOL     OW28303   0.662   0.074   7.500 -0.3183  0.0734 -0.4813
 5615SOL    HW128304   0.720   4.718   7.501 -0.0812  0.2630  0.2229
 5615SOL    HW228305   0.717   0.151   7.491 -0.9578  0.4865 -0.8155
 5616SOL     OW28306   1.195   1.642   6.649 -0.1629  0.0747  0.5040
 5616SOL    HW128307   1.260   1.632   6.580 -2.0474  2.0858 -1.5469
 5616SOL    HW228308   1.167   1.732   6.635 -1.5765 -0.4145  0.1083
 5617SOL     OW28309   0.002   3.258   1.454  0.6760  0.1729  0.4030
 5617SOL    HW128310   0.061   3.230   1.384  1.2082  0.6157  0.6730
 5617SOL    HW228311   4.671   3.178   1.453  0.9381 -0.0185  1.1909
 5618SOL     OW28312   1.421   1.531  12.781  0.2079  0.1038 -0.0913
 5618SOL    HW128313   1.508   1.567  12.797  0.5592 -0.0671 -1.6524
 5618SOL    HW228314   1.364   1.606  12.800 -0.9332 -0.9402  0.5974
 5619SOL     OW28315   2.151   4.238   2.753  0.3784  0.5273 -0.1783
 5619SOL    HW128316   2.111   4.160   2.713  0.4037  1.2199 -1.5515
 5619SOL    HW228317   2.100   4.306   2.710  0.6122  0.3240 -0.7828
 5620SOL     OW28318   0.050   3.902   5.182  0.0377 -0.4724  0.4108
 5620SOL    HW128319   0.088   3.931   5.099 -1.1519  0.3134  0.1532
 5620SOL    HW228320   4.682   3.936   5.179  0.3614  0.1954 -1.4145
 5621SOL     OW28321   4.346   2.395   2.744 -0.4347 -0.5923 -0.3816
 5621SOL    HW128322   4.261   2.440   2.747 -0.7720 -1.2054 -0.5791
 5621SOL    HW228323   4.369   2.431   2.658 -0.0359 -0.1123 -0.0699
 5622SOL     OW28324   2.335   3.099   4.011 -0.0432  0.3591 -0.0348
 5622SOL    HW128325   2.287   3.181   3.996  0.8646  0.3849 -2.9813
 5622SOL    HW228326   2.261   3.040   4.011  0.8445 -0.7601 -2.1751
 5623SOL     OW28327   3.302   0.091  15.118 -0.5034 -0.1832 -0.1071
 5623SOL    HW128328   3.284   0.010  15.166 -0.0457  0.9178  1.9216
 5623SOL    HW228329   3.356   0.150  15.170 -1.1483  0.5462 -0.2742
 5624SOL     OW28330   1.395   3.596  13.345  0.1919  0.0555 -0.0123
 5624SOL    HW128331   1.358   3.559  13.425  2.3242 -0.5909  0.6564
 5624SOL    HW228332   1.406   3.685  13.379  0.8221  0.5541 -1.5158
 5625SOL     OW28333   1.529   0.437  13.569 -0.0027  0.0697  0.6077
 5625SOL    HW128334   1.577   0.513  13.537 -2.4241  1.5969  0.5628
 5625SOL    HW228335   1.499   0.469  13.655 -2.1162 -1.2061  0.3575
 5626SOL     OW28336   3.029   1.695  15.602 -0.4330  0.1613  0.6211
 5626SOL    HW128337   3.076   1.632  15.656 -2.7514 -0.2006  2.1998
 5626SOL    HW228338   2.946   1.648  15.594  0.7851 -1.9789  0.4994
 5627SOL     OW28339   1.318   3.323   8.965  0.0519  0.6522  0.1161
 5627SOL    HW128340   1.269   3.396   9.003  1.1152  1.0724  0.6769
 5627SOL    HW228341   1.311   3.264   9.040 -2.3786  0.9090  0.0916
 5628SOL     OW28342   0.047   2.764  11.626  0.3175 -0.1282  0.0620
 5628SOL    HW128343   4.717   2.683  11.634 -1.4806  0.8580 -1.3459
 5628SOL    HW228344   0.022   2.785  11.536  2.2458 -2.2383 -0.9707
 5629SOL     OW28345   4.049   2.997   0.599 -0.5775  0.2515  0.0417
 5629SOL    HW128346   4.004   2.949   0.667  0.4449  1.4604  1.5889
 5629SOL    HW228347   3.986   2.984   0.528  0.8866 -0.0112 -1.2116
 5630SOL     OW28348   3.281   4.576  10.556 -0.3686 -0.2620 -0.0682
 5630SOL    HW128349   3.296   4.493  10.601  2.5512  1.0037  1.3189
 5630SOL    HW228350   3.320   4.567  10.469  1.4618  0.5189  0.6597
 5631SOL     OW28351   2.346   1.903   6.416  0.3151 -0.7627  0.4922
 5631SOL    HW128352   2.323   1.837   6.352  3.3926  1.4383 -2.8595
 5631SOL    HW228353   2.440   1.887   6.420  0.2177 -0.9832  2.0186
 5632SOL     OW28354   0.109   0.605   5.934  0.4103  0.4001 -0.7032
 5632SOL    HW128355   0.078   0.547   5.864 -0.1807  1.6780 -1.5102
 5632SOL    HW228356   0.030   0.612   5.987  0.2688  1.0245 -0.9941
 5633SOL     OW28357   2.251   3.553   8.019  0.3822  0.3426  0.3415
 5633SOL    HW128358   2.187   3.517   8.080 -1.0002  3.2283  0.5613
 5633SOL    HW228359   2.190   3.610   7.972  2.1169  0.4248 -1.8170
 5634SOL     OW28360   1.930   0.405  16.809  0.2398 -0.0084 -0.4437
 5634SOL    HW128361   1.883   0.441  16.734  0.7493  0.9193 -0.3137
 5634SOL    HW228362   1.857   0.400  16.871  1.1407 -1.5954  0.5107
 5635SOL     OW28363   3.050   3.150   2.564 -0.0832  0.2153  0.3993
 5635SOL    HW128364   3.141   3.172   2.543 -0.4627  0.1867 -1.3233
 5635SOL    HW228365   3.057   3.056   2.577  1.3094  0.4193  1.0468
 5636SOL     OW28366   2.466   4.415   8.785 -0.3151  0.0721  0.0431
 5636SOL    HW128367   2.476   4.457   8.870  2.3292  0.5046 -0.4766
 5636SOL    HW228368   2.387   4.450   8.743 -0.0855  1.3380  0.6868
 5637SOL     OW28369   1.319   3.727  15.661 -0.5342  0.3107 -0.8369
 5637SOL    HW128370   1.387   3.667  15.629  0.4832  0.0526  1.7672
 5637SOL    HW228371   1.244   3.683  15.622  0.9812 -0.5209 -2.8126
 5638SOL     OW28372   2.832   3.035   5.068 -0.6348  0.0579  0.6177
 5638SOL    HW128373   2.900   2.977   5.034 -2.3714 -1.2435 -0.6050
 5638SOL    HW228374   2.838   3.109   5.008  0.9743 -1.5896 -1.2312
 5639SOL     OW28375   0.010   0.060  12.006  0.1133 -0.1194 -0.6440
 5639SOL    HW128376   4.683   0.097  11.931  0.6825 -0.3195 -1.1122
 5639SOL    HW228377   0.099   0.058  11.971 -0.6034 -0.3030 -2.4490
 5640SOL     OW28378   1.973   1.475   6.107 -0.7953  0.2282 -0.2785
 5640SOL    HW128379   1.903   1.426   6.065  0.0273 -1.0557 -0.1578
 5640SOL    HW228380   2.010   1.519   6.030  3.3458  0.6098  1.9007
 5641SOL     OW28381   4.085   4.431   3.134 -0.0174  0.1453 -0.1819
 5641SOL    HW128382   4.125   4.346   3.115 -2.4741 -1.1925  0.5685
 5641SOL    HW228383   3.996   4.398   3.150 -0.7233  2.2945  0.4001
 5642SOL     OW28384   1.984   2.500   3.961  0.1633  0.1750 -0.5408
 5642SOL    HW128385   2.065   2.534   3.922  2.6612 -2.4243  2.3129
 5642SOL    HW228386   2.003   2.410   3.936 -1.6745  0.0292 -1.3784
 5643SOL     OW28387   2.047   4.048   3.528 -0.3628 -0.0647  1.0910
 5643SOL    HW128388   2.060   4.051   3.434 -0.4153  1.7159  1.1366
 5643SOL    HW228389   2.046   3.952   3.529 -1.7081 -0.0522  2.3454
 5644SOL     OW28390   1.660   2.504   2.599  0.5452  0.3375 -0.2950
 5644SOL    HW128391   1.604   2.428   2.615  0.4474 -0.0930 -2.5954
 5644SOL    HW228392   1.707   2.506   2.682 -0.2470  0.7143  0.1446
 5645SOL     OW28393   3.283   4.648   9.415  0.0063 -0.4657  0.0775
 5645SOL    HW128394   3.278   4.720   9.352  2.4288  0.9749  1.5479
 5645SOL    HW228395   3.375   4.626   9.405  0.1115 -0.4963  1.2035
 5646SOL     OW28396   0.480   0.023   3.746 -0.2242 -0.5319  0.0900
 5646SOL    HW128397   0.447   0.080   3.816 -0.7944 -1.2552  0.4124
 5646SOL    HW228398   0.403   4.689   3.730 -2.2307  2.1163  0.6157
 5647SOL     OW28399   0.763   1.811  15.544  0.4711 -0.2295 -0.0795
 5647SOL    HW128400   0.817   1.868  15.599 -1.4830  1.4980  0.0209
 5647SOL    HW228401   0.830   1.764  15.494  0.6773  0.5338 -0.5113
 5648SOL     OW28402   4.319   1.991  17.060 -0.2339  0.1344  0.1452
 5648SOL    HW128403   4.337   1.898  17.075  1.5650  0.9161  2.8372
 5648SOL    HW228404   4.253   1.983  16.992  2.3902  0.4791 -2.4261
 5649SOL     OW28405   1.587   3.419   3.296 -0.1124  0.1658  0.2585
 5649SOL    HW128406   1.502   3.460   3.280 -0.6208  0.2450  3.1550
 5649SOL    HW228407   1.603   3.411   3.390 -0.6814 -0.6245  0.2823
 5650SOL     OW28408   3.089   4.039  11.172  0.1065  1.1108 -0.0548
 5650SOL    HW128409   3.006   4.083  11.189 -0.3585  0.3235 -0.2746
 5650SOL    HW228410   3.118   4.002  11.256 -1.0344  1.3029  0.4219
 5651SOL     OW28411   0.688   0.473   3.484  0.0086 -0.6875  0.3700
 5651SOL    HW128412   0.704   0.497   3.393 -2.0183  0.1499  0.2467
 5651SOL    HW228413   0.775   0.438   3.504  0.0778 -0.3707  0.6381
 5652SOL     OW28414   0.333   1.459   2.021 -0.1296 -0.2504 -0.2020
 5652SOL    HW128415   0.241   1.433   2.020  1.2000 -4.8629 -0.7237
 5652SOL    HW228416   0.380   1.379   2.000 -2.3697 -1.6864  0.3405
 5653SOL     OW28417   4.333   0.193   4.684 -0.3251 -0.1363  0.2824
 5653SOL    HW128418   4.319   0.221   4.594 -2.6165  0.9568  0.9682
 5653SOL    HW228419   4.384   0.116   4.658  1.0252  0.9025 -0.1443
 5654SOL     OW28420   2.927   3.598   0.867 -0.0814  0.3453  0.6398
 5654SOL    HW128421   2.957   3.507   0.859 -1.4145  0.1888 -2.4112
 5654SOL    HW228422   3.007   3.648   0.882  1.7078 -2.0130 -1.1555
 5655SOL     OW28423   2.381   0.421   2.096  0.2174 -0.1556 -0.2927
 5655SOL    HW128424   2.464   0.468   2.112  0.6363 -0.6514 -1.0006
 5655SOL    HW228425   2.382   0.361   2.171  1.7179 -0.9078 -0.9069
 5656SOL     OW28426   2.119   1.190  14.673  0.2793 -0.1630 -0.2554
 5656SOL    HW128427   2.062   1.239  14.732  0.7008  1.1977 -0.9894
 5656SOL    HW228428   2.126   1.115  14.733 -3.3094  0.9606  1.5623
 5657SOL     OW28429   2.862   1.000   0.277 -0.2701  0.6782 -0.5351
 5657SOL    HW128430   2.913   1.018   0.355  0.6183  0.7840 -1.1447
 5657SOL    HW228431   2.926   0.974   0.211  0.8397 -2.4468  1.7550
 5658SOL     OW28432   1.287   1.246   5.523  0.6454 -0.1446  0.0822
 5658SOL    HW128433   1.278   1.327   5.473  0.1263 -0.5856 -0.5358
 5658SOL    HW228434   1.382   1.240   5.530  0.5754  1.1400  2.0739
 5659SOL     OW28435   2.326   1.361   1.751 -0.0330 -0.1470 -0.3076
 5659SOL    HW128436   2.396   1.317   1.799 -0.5752  0.8204  1.3468
 5659SOL    HW228437   2.336   1.326   1.662 -2.0368  0.2181 -0.6907
 5660SOL     OW28438   3.398   2.571   6.008  0.8147 -0.0429 -0.3430
 5660SOL    HW128439   3.306   2.550   5.998  0.2696  1.8692  0.6870
 5660SOL    HW228440   3.422   2.497   6.063 -2.0755 -1.1512 -0.5784
 5661SOL     OW28441   2.885   3.385   6.760 -0.1376 -0.0653  0.0421
 5661SOL    HW128442   2.836   3.460   6.727 -0.0175 -0.3040 -0.6788
 5661SOL    HW228443   2.819   3.352   6.820  0.3470 -3.0650 -1.0626
 5662SOL     OW28444   1.949   2.526   7.483  0.0782  0.1587  0.1827
 5662SOL    HW128445   1.889   2.453   7.469  2.3715 -1.5278 -0.7136
 5662SOL    HW228446   1.915   2.552   7.569 -1.3843  0.0057 -0.3450
 5663SOL     OW28447   1.041   0.403   9.436 -0.4862 -0.0174 -0.1282
 5663SOL    HW128448   1.127   0.373   9.466  0.7662  2.8233 -0.8638
 5663SOL    HW228449   0.992   0.401   9.519 -0.4920 -1.2360 -0.1560
 5664SOL     OW28450   0.072   0.153   1.938 -0.0945 -0.5823 -0.0499
 5664SOL    HW128451   4.702   0.172   1.963 -0.0333 -0.8490  0.3550
 5664SOL    HW228452   0.082   0.196   1.852  0.4260 -0.6375 -0.0169
 5665SOL     OW28453   0.924   3.357   8.998  0.3691  0.0448  0.4068
 5665SOL    HW128454   0.979   3.428   9.029 -1.0933  2.1987 -1.9315
 5665SOL    HW228455   0.985   3.327   8.931 -1.8013 -1.9801 -0.7030
 5666SOL     OW28456   2.441   3.936   2.576  0.9098  0.4845  0.3348
 5666SOL    HW128457   2.445   3.858   2.631 -0.6579  1.8012  2.3360
 5666SOL    HW228458   2.395   3.896   2.502 -0.4316  0.4766  1.1847
 5667SOL     OW28459   3.309   0.577  15.840 -0.2920 -0.3963 -0.1232
 5667SOL    HW128460   3.399   0.607  15.846 -0.7214  0.0061  4.0212
 5667SOL    HW228461   3.330   0.490  15.806  2.1721  0.4324 -0.6988
 5668SOL     OW28462   3.576   4.360   6.774 -0.2301 -0.2493  0.4865
 5668SOL    HW128463   3.517   4.286   6.791  0.1740 -0.5902  0.4210
 5668SOL    HW228464   3.605   4.382   6.862 -3.0675 -0.9157  1.5868
 5669SOL     OW28465   2.035   4.680   5.784  0.5252 -0.5229  0.2119
 5669SOL    HW128466   2.071   4.638   5.706  1.1900 -0.4233  0.4691
 5669SOL    HW228467   2.105   4.670   5.847 -0.7244 -0.9107  1.5347
 5670SOL     OW28468   3.535   1.235  17.607  0.2491 -0.4738  0.6839
 5670SOL    HW128469   3.550   1.169  17.538 -1.5271 -0.0496 -0.0997
 5670SOL    HW228470   3.457   1.200  17.651 -0.2573 -1.5048 -1.0170
 5671SOL     OW28471   1.927   4.304  12.055 -0.1929  0.1400  0.1990
 5671SOL    HW128472   1.960   4.345  12.135 -1.3557 -0.6478  1.0840
 5671SOL    HW228473   1.934   4.213  12.084 -0.7185 -0.1564 -0.6227
 5672SOL     OW28474   2.761   1.812   5.231  0.2977 -0.0378 -0.1095
 5672SOL    HW128475   2.707   1.761   5.171 -1.1282 -0.0019  1.1194
 5672SOL    HW228476   2.693   1.868   5.269  0.6225 -1.1490  2.1340
 5673SOL     OW28477   0.082   0.603   8.476 -0.0858 -0.3477  0.0718
 5673SOL    HW128478   0.166   0.634   8.510 -0.3553 -1.3910  1.6903
 5673SOL    HW228479   0.034   0.586   8.557 -0.1976  1.2865  0.3544
 5674SOL     OW28480   1.054   1.579  15.695 -0.0782  0.1560 -0.1361
 5674SOL    HW128481   1.041   1.514  15.626  2.1562 -1.8494  1.3264
 5674SOL    HW228482   1.114   1.641  15.651  0.3972 -0.5177 -0.4386
 5675SOL     OW28483   1.530   1.413   2.399 -0.4366  0.5387  0.2466
 5675SOL    HW128484   1.572   1.398   2.315 -1.5886  1.2200 -0.4523
 5675SOL    HW228485   1.455   1.354   2.402  1.6300 -2.0449  0.5262
 5676SOL     OW28486   0.775   3.009   0.975 -0.2947 -0.1859  0.1853
 5676SOL    HW128487   0.702   2.950   0.961 -0.4496  0.2237 -0.7542
 5676SOL    HW228488   0.747   3.094   0.941  0.6784  0.3172  0.6321
 5677SOL     OW28489   1.698   2.528   6.700  0.0280  0.3080  0.1173
 5677SOL    HW128490   1.646   2.449   6.686  0.9657 -0.2255 -0.3328
 5677SOL    HW228491   1.656   2.576   6.772  0.2430  1.2587 -0.3866
 5678SOL     OW28492   0.584   0.458   1.804 -0.5176  0.4812 -0.0311
 5678SOL    HW128493   0.491   0.439   1.813 -0.5895  0.7405 -0.2281
 5678SOL    HW228494   0.602   0.492   1.892 -1.4137 -0.0589  0.3558
 5679SOL     OW28495   1.138   3.833   4.473  0.1198 -0.0260  0.7227
 5679SOL    HW128496   1.120   3.783   4.394 -0.3948  1.0841  0.1266
 5679SOL    HW228497   1.087   3.790   4.541 -1.5977 -0.5795 -0.8975
 5680SOL     OW28498   1.401   0.138  11.170 -0.3845  0.4750 -0.4953
 5680SOL    HW128499   1.445   0.107  11.091  1.0652  3.1921 -0.7695
 5680SOL    HW228500   1.420   0.232  11.165  2.3922  0.0123  1.5932
 5681SOL     OW28501   1.056   4.050   4.037  0.3772 -0.0807  0.1187
 5681SOL    HW128502   0.982   3.993   4.056 -0.1136  0.5006 -0.0338
 5681SOL    HW228503   1.041   4.065   3.944 -0.5447  4.2677  0.9665
 5682SOL     OW28504   3.854   3.120  16.349 -0.0493 -0.1252  0.5296
 5682SOL    HW128505   3.861   3.173  16.270  0.7671 -0.6024  0.2866
 5682SOL    HW228506   3.943   3.099  16.378  0.2371  0.5975  0.1835
 5683SOL     OW28507   2.051   0.568  13.860 -0.2134 -0.6470 -0.5916
 5683SOL    HW128508   2.113   0.573  13.787  0.5491 -0.5496  0.0632
 5683SOL    HW228509   2.066   0.479  13.891  0.4007 -0.3010  0.1121
 5684SOL     OW28510   3.029   1.030   1.610  0.0714 -0.3384 -0.6592
 5684SOL    HW128511   3.123   1.039   1.627 -0.1279 -0.7986  0.6877
 5684SOL    HW228512   3.030   1.090   1.537 -0.9745 -1.3623 -1.5111
 5685SOL     OW28513   2.913   2.879  11.456  0.1548 -0.1062 -0.3044
 5685SOL    HW128514   2.895   2.898  11.548 -0.1977 -1.5807 -0.0632
 5685SOL    HW228515   3.001   2.840  11.457  0.4726  0.6473  1.7620
 5686SOL     OW28516   1.096   0.894  10.796 -0.0098 -0.4691  0.2995
 5686SOL    HW128517   1.122   0.985  10.780  2.0482 -1.0271  0.4518
 5686SOL    HW228518   1.137   0.848  10.723  1.7225 -2.8246  2.7415
 5687SOL     OW28519   3.000   2.218   3.918  0.0799  0.4198 -0.3861
 5687SOL    HW128520   3.061   2.209   3.845  0.9919 -1.6520  0.6448
 5687SOL    HW228521   2.999   2.129   3.954 -1.2966  0.9212  0.8200
 5688SOL     OW28522   0.884   1.115   5.349 -0.4567  0.7619  0.2922
 5688SOL    HW128523   0.938   1.187   5.380  1.1920 -0.7414  0.9194
 5688SOL    HW228524   0.873   1.143   5.258 -2.0999  0.7038  0.4704
 5689SOL     OW28525   3.680   4.285  13.676  0.2243  0.2411  0.0015
 5689SOL    HW128526   3.630   4.216  13.719 -0.4407 -0.8045 -2.4087
 5689SOL    HW228527   3.611   4.318  13.618 -0.0613 -1.9561 -0.9418
 5690SOL     OW28528   1.398   0.940   4.843  0.4925  0.4126  0.0576
 5690SOL    HW128529   1.403   0.883   4.920  0.8607  2.6199  1.6663
 5690SOL    HW228530   1.450   0.893   4.779  1.0948 -0.0417  0.8796
 5691SOL     OW28531   3.629   3.135   7.760  0.2790  0.2691  0.5102
 5691SOL    HW128532   3.697   3.198   7.781 -1.2270  1.3514  2.1356
 5691SOL    HW228533   3.677   3.096   7.687 -0.1406 -2.7255  1.8453
 5692SOL     OW28534   1.079   2.362   6.214  0.0174  0.1871  0.1825
 5692SOL    HW128535   1.001   2.413   6.191  0.7065  1.0874 -0.1614
 5692SOL    HW228536   1.082   2.293   6.148  2.2191  1.3607 -0.9530
 5693SOL     OW28537   1.245   0.433   8.453 -0.2405 -0.0765 -0.5192
 5693SOL    HW128538   1.255   0.437   8.548 -0.3460  0.3252 -0.5250
 5693SOL    HW228539   1.149   0.432   8.455 -0.1718 -1.1652  2.1652
 5694SOL     OW28540   0.746   0.487  17.157 -0.4120 -0.1015  0.1928
 5694SOL    HW128541   0.795   0.570  17.160  2.4406 -1.8831  2.5827
 5694SOL    HW228542   0.701   0.488  17.072  2.2226  1.4796 -1.2042
 5695SOL     OW28543   1.310   3.862  17.020 -0.8797  0.2600 -0.5290
 5695SOL    HW128544   1.277   3.885  17.107 -3.9698 -0.5127 -1.4693
 5695SOL    HW228545   1.398   3.896  17.030 -0.6465  0.0962 -2.0729
 5696SOL     OW28546   3.747   2.544   3.450  0.3402 -0.1147 -0.3251
 5696SOL    HW128547   3.711   2.626   3.414  2.3770  0.6376 -0.6649
 5696SOL    HW228548   3.745   2.493   3.369 -1.0745 -0.2232 -0.2308
 5697SOL     OW28549   4.222   2.431   4.891 -0.0596  0.2243 -0.0990
 5697SOL    HW128550   4.211   2.369   4.819  0.7815 -1.5375  1.2997
 5697SOL    HW228551   4.309   2.469   4.878 -0.2357  0.5978 -0.1889
 5698SOL     OW28552   4.441   3.627   6.944  0.3637  0.0675 -0.4957
 5698SOL    HW128553   4.415   3.590   6.860  0.3007  1.8581 -1.2559
 5698SOL    HW228554   4.520   3.678   6.926  0.0253  0.3120 -1.2737
 5699SOL     OW28555   1.431   1.944   1.951  0.5598 -0.0554 -0.5490
 5699SOL    HW128556   1.456   1.934   1.859  0.6325 -1.5127 -0.3773
 5699SOL    HW228557   1.497   2.006   1.983  1.0719 -0.2951 -1.1274
 5700SOL     OW28558   2.790   0.416  10.432 -0.1920  0.3615  0.1888
 5700SOL    HW128559   2.810   0.366  10.353  2.2870 -0.4247  1.3191
 5700SOL    HW228560   2.719   0.469  10.396  0.2891  0.5276 -0.5179
 5701SOL     OW28561   4.198   2.941  14.807 -0.2950 -0.2671  0.1134
 5701SOL    HW128562   4.121   2.979  14.848  0.5254  0.3255  1.0757
 5701SOL    HW228563   4.180   2.959  14.714  2.2868  1.0205 -0.1056
 5702SOL     OW28564   2.212   4.490   9.910 -0.0114  0.3065 -0.3924
 5702SOL    HW128565   2.252   4.431   9.973 -1.8524  0.0618  0.5418
 5702SOL    HW228566   2.282   4.553   9.894 -2.0904  2.7228 -0.0166
 5703SOL     OW28567   2.411   4.317   6.694 -0.5878 -0.1845  0.0565
 5703SOL    HW128568   2.334   4.367   6.720 -1.4477 -0.1157 -2.6308
 5703SOL    HW228569   2.370   4.275   6.618  0.3522  0.0695 -0.5934
 5704SOL     OW28570   4.688   4.380   1.768  0.0957 -0.1095  0.3980
 5704SOL    HW128571   4.685   4.469   1.733 -1.5918 -0.3316 -0.0393
 5704SOL    HW228572   4.690   4.395   1.862 -0.4840  0.4207  0.3307
 5705SOL     OW28573   2.200   1.977  17.033  0.2433  0.1126  0.5066
 5705SOL    HW128574   2.239   1.909  17.088 -0.4376 -0.7791 -0.1081
 5705SOL    HW228575   2.197   2.047  17.099  0.6119  0.7024 -0.1145
 5706SOL     OW28576   3.256   3.282   7.253  0.3114  0.6157  0.1043
 5706SOL    HW128577   3.325   3.238   7.203 -0.2857  0.1887 -0.3514
 5706SOL    HW228578   3.218   3.342   7.188  0.1341 -0.0897 -0.4524
 5707SOL     OW28579   0.532   4.467   5.241  0.0045  0.1791 -0.1807
 5707SOL    HW128580   0.557   4.526   5.312  0.1497 -1.0281  0.7828
 5707SOL    HW228581   0.509   4.386   5.288  1.6704 -0.8679 -1.1429
 5708SOL     OW28582   2.283   3.501  16.062  0.4935  0.1808 -0.3394
 5708SOL    HW128583   2.251   3.578  16.108  0.7828 -0.1947  0.4899
 5708SOL    HW228584   2.203   3.471  16.019  0.8509  2.3565 -2.5375
 5709SOL     OW28585   1.461   0.647   5.840 -0.0486 -0.0751 -0.2479
 5709SOL    HW128586   1.410   0.694   5.774 -0.8998  0.5116  0.8321
 5709SOL    HW228587   1.536   0.707   5.846  0.1784 -0.5048  1.2388
 5710SOL     OW28588   0.430   3.594   5.826 -0.3498 -0.3389  0.2515
 5710SOL    HW128589   0.425   3.688   5.846  1.6033 -0.0786 -0.4734
 5710SOL    HW228590   0.336   3.581   5.821  0.0902 -2.2667 -2.8761
 5711SOL     OW28591   0.400   1.569  16.261  0.1992 -0.0597 -0.4085
 5711SOL    HW128592   0.329   1.539  16.317 -0.3284 -1.4721 -1.8442
 5711SOL    HW228593   0.475   1.525  16.301  0.0447 -1.1453 -1.3147
 5712SOL     OW28594   4.097   0.611   8.350  0.1265 -0.2692 -0.2989
 5712SOL    HW128595   4.045   0.577   8.278  0.7956  1.1106 -1.4503
 5712SOL    HW228596   4.058   0.696   8.370 -1.7807 -0.9512 -1.1733
 5713SOL     OW28597   4.116   0.167  15.310 -0.0476 -0.3930  0.0513
 5713SOL    HW128598   4.123   0.263  15.309  0.2039 -0.4077  0.1744
 5713SOL    HW228599   4.064   0.160  15.390  0.6460 -1.4204  0.4068
 5714SOL     OW28600   1.248   3.078   0.165  0.6317 -0.7206  0.0785
 5714SOL    HW128601   1.269   3.126   0.245 -0.2546  0.1302 -0.1991
 5714SOL    HW228602   1.210   3.149   0.113  1.8315  0.7743  1.2347
 5715SOL     OW28603   2.621   1.721   3.699  0.0172  0.1217 -0.3402
 5715SOL    HW128604   2.710   1.700   3.671  1.6492  0.0232  4.8212
 5715SOL    HW228605   2.590   1.762   3.618 -1.1952 -0.2968 -0.0910
 5716SOL     OW28606   3.868   2.107   4.982 -0.5596  0.3802 -0.4417
 5716SOL    HW128607   3.772   2.113   4.984 -0.5620 -0.9311  3.1533
 5716SOL    HW228608   3.892   2.160   4.905 -2.2933  1.2812 -0.3664
 5717SOL     OW28609   1.169   4.131   7.688 -0.0793  0.8180 -0.1115
 5717SOL    HW128610   1.124   4.167   7.764  0.8199  0.2277  0.6913
 5717SOL    HW228611   1.262   4.136   7.710 -0.2458  0.2692  0.7002
 5718SOL     OW28612   2.404   2.286  17.071  0.5712  0.1621  0.0110
 5718SOL    HW128613   2.424   2.269  16.979  0.8961 -1.2557  0.3518
 5718SOL    HW228614   2.474   2.347  17.094 -0.0825  1.4516 -1.4414
 5719SOL     OW28615   4.508   3.539   0.360  0.4895  0.1192 -0.5075
 5719SOL    HW128616   4.454   3.609   0.396  1.3233  0.5748 -0.1433
 5719SOL    HW228617   4.455   3.461   0.378 -0.0814  0.7943  0.7476
 5720SOL     OW28618   0.735   1.895   5.249 -0.8502  0.4609 -0.2154
 5720SOL    HW128619   0.788   1.838   5.193 -0.7904 -0.1758  0.4885
 5720SOL    HW228620   0.672   1.929   5.186 -0.8073  0.0786 -0.4663
 5721SOL     OW28621   4.128   2.977   3.627 -0.0615  0.0778 -0.3027
 5721SOL    HW128622   4.179   3.033   3.568 -1.5595  0.4113 -1.2603
 5721SOL    HW228623   4.196   2.913   3.648 -1.2074 -0.1190  2.7578
 5722SOL     OW28624   0.532   0.423  10.951 -0.1984  0.1747 -0.0723
 5722SOL    HW128625   0.501   0.335  10.974  1.6251  0.2104  2.5522
 5722SOL    HW228626   0.447   0.461  10.932 -0.0289  0.0246 -1.1431
 5723SOL     OW28627   2.706   1.687   2.059 -0.3426 -1.1667 -0.4670
 5723SOL    HW128628   2.666   1.645   2.136  0.6943  3.8729  2.8095
 5723SOL    HW228629   2.770   1.620   2.034  0.0698 -0.2891 -1.7673
 5724SOL     OW28630   3.715   1.759  14.498 -0.1633  0.4165 -0.3642
 5724SOL    HW128631   3.783   1.822  14.473  1.3228 -0.4413  1.5226
 5724SOL    HW228632   3.737   1.687  14.439 -0.1620 -0.7664  1.0640
 5725SOL     OW28633   2.590   1.663  11.985  0.0586 -0.7841 -0.0097
 5725SOL    HW128634   2.546   1.748  11.980  0.9740 -0.2071  1.7440
 5725SOL    HW228635   2.676   1.696  12.011 -1.0435  1.7451  0.3648
 5726SOL     OW28636   4.463   4.709  15.128  0.3821 -0.1597  0.4388
 5726SOL    HW128637   4.515   4.665  15.060  0.1430  0.9758 -0.4876
 5726SOL    HW228638   4.431   0.069  15.087  2.5530 -0.0427 -1.0688
 5727SOL     OW28639   1.704   2.618   3.183  0.2119 -0.2837 -0.5713
 5727SOL    HW128640   1.781   2.566   3.160  0.6587 -0.4519  1.3528
 5727SOL    HW228641   1.646   2.542   3.180  0.6293 -0.5569 -1.7961
 5728SOL     OW28642   0.632   1.407   5.500 -0.4814  0.0079 -0.2305
 5728SOL    HW128643   0.671   1.479   5.548  1.3094 -1.9478  1.2395
 5728SOL    HW228644   0.598   1.443   5.418  0.0956 -0.7093 -0.7874
 5729SOL     OW28645   1.927   2.819   7.586 -0.1181 -0.5671  0.4132
 5729SOL    HW128646   1.901   2.735   7.624  1.2077 -1.0119  0.3315
 5729SOL    HW228647   1.847   2.860   7.554  0.1242 -0.2760  0.1825
 5730SOL     OW28648   0.008   2.930   6.388  0.8026 -0.0037 -0.7029
 5730SOL    HW128649   0.029   2.935   6.481  1.6120 -2.3044 -0.7589
 5730SOL    HW228650   4.677   3.010   6.383 -0.0291 -0.5411 -0.6263
 5731SOL     OW28651   3.373   0.665   6.986 -0.0156 -0.7259 -0.2029
 5731SOL    HW128652   3.320   0.588   6.965 -0.5086 -0.1672 -1.0034
 5731SOL    HW228653   3.335   0.673   7.074  1.8380  0.8838  0.4391
 5732SOL     OW28654   4.449   0.931  16.149 -0.5316 -0.8480  0.6381
 5732SOL    HW128655   4.483   0.991  16.083  0.9442 -1.7226  0.6084
 5732SOL    HW228656   4.518   0.869  16.173 -0.9301 -1.3473  0.4997
 5733SOL     OW28657   0.357   0.281   2.746 -0.1926 -0.0385 -0.6453
 5733SOL    HW128658   0.292   0.295   2.677  0.1956 -1.8470 -1.3841
 5733SOL    HW228659   0.435   0.297   2.692 -1.6215  0.8051 -2.4554
 5734SOL     OW28660   1.132   0.838   9.291 -0.6046  0.2257  0.3750
 5734SOL    HW128661   1.089   0.752   9.291  0.1097 -0.1306 -1.2777
 5734SOL    HW228662   1.214   0.817   9.246  0.1432  0.2430  1.7307
 5735SOL     OW28663   4.108   0.722   6.456  0.4404 -0.6408  0.2148
 5735SOL    HW128664   4.204   0.730   6.461  0.2009  1.1479  1.8377
 5735SOL    HW228665   4.095   0.629   6.435  0.5245 -1.3276  3.2102
 5736SOL     OW28666   0.733   4.703   4.800  0.2793 -0.2095 -0.7195
 5736SOL    HW128667   0.786   0.029   4.865 -0.7482 -0.1681  0.0896
 5736SOL    HW228668   0.759   4.614   4.821  0.2760  0.2692  1.2820
 5737SOL     OW28669   3.796   3.296   4.569  0.6928 -0.1361  0.7273
 5737SOL    HW128670   3.825   3.205   4.557  0.7659  0.2002 -1.7041
 5737SOL    HW228671   3.871   3.352   4.550  0.0241  0.8572  0.9904
 5738SOL     OW28672   3.372   4.147   8.057  0.0402  0.5206 -0.2963
 5738SOL    HW128673   3.464   4.170   8.063 -0.0206  0.9062 -0.8384
 5738SOL    HW228674   3.363   4.142   7.962 -2.4628 -1.4665  0.0260
 5739SOL     OW28675   4.596   1.508   5.685 -0.2372  0.0573 -0.0990
 5739SOL    HW128676   4.522   1.488   5.742 -0.2772  0.7990  0.1131
 5739SOL    HW228677   4.579   1.443   5.617 -0.9298 -2.3431  2.4046
 5740SOL     OW28678   1.856   1.581   1.857 -0.8300 -0.3330 -0.3974
 5740SOL    HW128679   1.871   1.635   1.779 -2.0851  0.3276 -0.1844
 5740SOL    HW228680   1.931   1.522   1.860  0.4318  1.2518 -0.4814
 5741SOL     OW28681   0.082   3.111   1.988  0.1205  0.0426  0.0360
 5741SOL    HW128682   0.081   3.207   1.993  0.1240 -0.0036  0.9568
 5741SOL    HW228683   0.123   3.095   2.073 -2.8227 -1.1404  1.2299
 5742SOL     OW28684   2.858   0.609  10.600  0.8568 -0.0589  0.0750
 5742SOL    HW128685   2.849   0.542  10.531  1.3509 -0.6933  0.6307
 5742SOL    HW228686   2.770   0.595  10.634 -0.1982 -0.7900 -2.8660
 5743SOL     OW28687   3.963   0.089   9.297 -0.1676  0.1841  0.0075
 5743SOL    HW128688   3.911   0.134   9.230 -2.1333 -1.4488  0.4154
 5743SOL    HW228689   3.964   0.146   9.374 -0.0859  1.7412 -1.1473
 5744SOL     OW28690   1.317   1.020   3.065  0.4092 -0.9488  0.3897
 5744SOL    HW128691   1.279   0.936   3.089  1.2483 -0.4910  3.3427
 5744SOL    HW228692   1.382   1.005   2.995 -0.1790 -1.6303 -0.0040
 5745SOL     OW28693   3.898   1.352   5.513  0.2317  0.6086  0.0734
 5745SOL    HW128694   3.882   1.419   5.581 -1.2190  0.0821  0.2442
 5745SOL    HW228695   3.855   1.406   5.447 -0.4980 -0.0893 -0.0217
 5746SOL     OW28696   4.466   0.356  17.665 -0.2301  0.5855 -0.8764
 5746SOL    HW128697   4.432   0.342  17.576 -0.4854 -0.1004 -0.6660
 5746SOL    HW228698   4.554   0.388  17.646  1.0761 -1.8523  1.1600
 5747SOL     OW28699   3.843   0.312   0.083  0.3435 -0.7642 -0.0689
 5747SOL    HW128700   3.758   0.277   0.058  0.2633 -1.5320  1.2808
 5747SOL    HW228701   3.819   0.338   0.172 -0.2587 -1.1348 -0.1255
 5748SOL     OW28702   1.263   3.405   5.172 -0.5522 -0.0505  0.2312
 5748SOL    HW128703   1.342   3.384   5.121 -1.3999 -0.0362 -1.0905
 5748SOL    HW228704   1.305   3.442   5.249  0.6113 -2.3092  0.7000
 5749SOL     OW28705   4.099   3.939   7.475  0.3484  0.1380  0.8853
 5749SOL    HW128706   4.137   3.915   7.559  1.4591  1.3542  0.7413
 5749SOL    HW228707   4.020   3.886   7.473 -0.8719  2.0423 -1.9705
 5750SOL     OW28708   4.704   3.809   2.326 -0.1045  0.0475 -0.3360
 5750SOL    HW128709   4.681   3.884   2.271 -1.0863  0.7703  1.0632
 5750SOL    HW228710   4.691   3.732   2.272 -1.3377 -0.2342  0.3866
 5751SOL     OW28711   2.232   1.681   9.129  0.0737 -0.0908  0.1315
 5751SOL    HW128712   2.186   1.712   9.208  0.9472 -1.6612  1.2578
 5751SOL    HW228713   2.175   1.612   9.095  0.9222 -0.5206 -0.3906
 5752SOL     OW28714   0.899   0.298   8.753 -0.2199  0.1313 -0.2303
 5752SOL    HW128715   0.910   0.386   8.790 -0.8219  0.3516 -0.5765
 5752SOL    HW228716   0.909   0.313   8.659 -0.0063 -1.3480 -0.4385
 5753SOL     OW28717   1.469   1.202   5.214  0.3204 -0.3495  0.0075
 5753SOL    HW128718   1.514   1.156   5.285  1.4083  0.2474 -0.3057
 5753SOL    HW228719   1.531   1.270   5.189  0.3690 -1.1785 -2.1545
 5754SOL     OW28720   4.612   3.388  17.402  0.1389 -0.4819  0.0540
 5754SOL    HW128721   4.658   3.470  17.386 -1.4571  0.7860  1.9329
 5754SOL    HW228722   4.681   3.343  17.451  0.1809 -0.4614  0.0136
 5755SOL     OW28723   1.049   3.322   5.681  0.7877  0.3559 -0.5509
 5755SOL    HW128724   1.012   3.372   5.608 -3.1612  0.4647  1.5030
 5755SOL    HW228725   0.977   3.260   5.696  0.9236 -0.6114 -3.8311
 5756SOL     OW28726   2.245   3.532   2.248 -0.7389 -0.2911 -0.1203
 5756SOL    HW128727   2.301   3.539   2.170 -1.2151  0.7141 -0.3713
 5756SOL    HW228728   2.311   3.559   2.310 -0.8276 -0.1422 -0.0918
 5757SOL     OW28729   2.072   0.219   6.001  0.5518  0.5466  0.5546
 5757SOL    HW128730   2.040   0.214   6.091  0.1216  2.0222  0.4916
 5757SOL    HW228731   2.106   0.130   5.993 -3.8033 -0.9055 -1.6020
 5758SOL     OW28732   1.047   1.969   9.192 -0.4774  0.2202 -0.3182
 5758SOL    HW128733   1.111   1.928   9.134 -0.3001  0.4264 -0.2651
 5758SOL    HW228734   0.969   1.914   9.178 -1.4678  1.2649  1.1316
 5759SOL     OW28735   3.072   4.284   2.121  0.5097  0.4594  0.2081
 5759SOL    HW128736   3.166   4.301   2.110  0.5656  0.0485  0.0136
 5759SOL    HW228737   3.073   4.188   2.122  1.2786  0.4494 -0.9836
 5760SOL     OW28738   4.427   2.100   2.496  0.7916 -0.3568  0.3884
 5760SOL    HW128739   4.454   2.023   2.546  1.5415 -0.8815 -0.8028
 5760SOL    HW228740   4.332   2.086   2.497  0.4772  1.9679  1.9842
 5761SOL     OW28741   3.703   1.548  14.346 -0.4068 -0.6935 -0.2862
 5761SOL    HW128742   3.623   1.494  14.345 -0.7001 -0.2779  0.6203
 5761SOL    HW228743   3.755   1.478  14.384  0.3474  0.1772  0.2771
 5762SOL     OW28744   2.039   4.258   5.475 -0.1842 -0.2465 -0.1050
 5762SOL    HW128745   1.966   4.278   5.534 -0.9154 -2.0813 -0.4018
 5762SOL    HW228746   2.093   4.232   5.550 -1.9930  0.3987  1.4386
 5763SOL     OW28747   1.495   3.141  16.688 -0.1468  0.2525  0.2354
 5763SOL    HW128748   1.556   3.193  16.635 -1.6123  2.3007  0.5826
 5763SOL    HW228749   1.539   3.153  16.772  0.8161  1.8803 -0.4979
 5764SOL     OW28750   4.686   4.274  10.993 -0.5754  0.0849  0.3055
 5764SOL    HW128751   0.030   4.242  10.931 -0.7113 -1.2134  0.8329
 5764SOL    HW228752   4.614   4.298  10.934  0.9378 -2.1513 -2.4193
 5765SOL     OW28753   1.927   0.746  10.037  0.0648 -0.1558 -0.2564
 5765SOL    HW128754   1.999   0.684  10.035  0.4814  0.3273 -0.2036
 5765SOL    HW228755   1.901   0.728   9.947 -0.1464  3.0378 -0.8257
 5766SOL     OW28756   3.827   4.393   3.202  0.2515  0.5893  0.0762
 5766SOL    HW128757   3.821   4.487   3.217 -1.5429  0.3843  0.7143
 5766SOL    HW228758   3.848   4.368   3.292  2.7964 -1.2233 -1.0155
 5767SOL     OW28759   1.409   3.236  10.025 -0.4436 -0.1764  0.2838
 5767SOL    HW128760   1.462   3.245  10.104  1.3078 -0.5372 -0.8360
 5767SOL    HW228761   1.439   3.317   9.983  0.4673 -0.0067  1.2630
 5768SOL     OW28762   1.404   3.457   6.922 -0.1645 -0.8385 -0.5166
 5768SOL    HW128763   1.357   3.455   6.839 -2.4555 -3.2853  0.8712
 5768SOL    HW228764   1.464   3.382   6.923  0.8938  0.0017 -0.2203
 5769SOL     OW28765   3.410   4.476   3.684 -0.5756 -0.5631 -0.0962
 5769SOL    HW128766   3.350   4.504   3.753 -0.3942 -0.8670  0.1873
 5769SOL    HW228767   3.373   4.522   3.609  0.0716  2.0941  1.2144
 5770SOL     OW28768   3.355   2.643  13.824 -0.4177  0.4129  0.0069
 5770SOL    HW128769   3.342   2.549  13.809  0.6108  0.1568  0.6900
 5770SOL    HW228770   3.446   2.658  13.798  0.1037 -1.3621  0.7775
 5771SOL     OW28771   1.858   4.375   7.910 -0.2169 -0.5838  0.1928
 5771SOL    HW128772   1.893   4.458   7.878 -1.0615 -0.0990  0.5459
 5771SOL    HW228773   1.765   4.397   7.916 -0.2259 -0.2075 -1.2644
 5772SOL     OW28774   1.343   0.440  10.642  0.5746 -0.0264  0.2519
 5772SOL    HW128775   1.415   0.492  10.606  1.2443 -1.6934 -0.8384
 5772SOL    HW228776   1.353   0.350  10.612 -1.4906 -0.7283  1.6167
 5773SOL     OW28777   1.012   2.791   6.709  0.1320  0.1089 -0.1875
 5773SOL    HW128778   0.942   2.768   6.771  0.4796  0.2249  0.2444
 5773SOL    HW228779   0.983   2.881   6.696 -0.1894 -0.2128 -1.7256
 5774SOL     OW28780   1.326   3.663   2.561  0.1636  0.6269 -0.0319
 5774SOL    HW128781   1.261   3.605   2.522 -0.6952  0.6872  1.3147
 5774SOL    HW228782   1.383   3.650   2.485 -0.3490  2.3399 -0.7107
 5775SOL     OW28783   0.540   1.828   9.863 -0.4579 -0.8818 -0.6636
 5775SOL    HW128784   0.482   1.816   9.938  0.1198 -0.1192 -0.0937
 5775SOL    HW228785   0.564   1.737   9.844  0.0556 -0.5909 -1.3750
 5776SOL     OW28786   0.547   0.681   0.144  0.2507 -0.1259  0.0240
 5776SOL    HW128787   0.531   0.671   0.050  0.5764 -0.0759 -0.0342
 5776SOL    HW228788   0.614   0.615   0.165 -0.6995 -1.5350 -1.3779
 5777SOL     OW28789   4.368   3.645   7.599  0.4001  0.5406  0.2847
 5777SOL    HW128790   4.349   3.589   7.674 -0.5920  0.0018 -0.3757
 5777SOL    HW228791   4.452   3.687   7.619  0.8524  0.7189 -2.0028
 5778SOL     OW28792   4.379   2.513   7.360  0.0098  0.5018  0.6745
 5778SOL    HW128793   4.448   2.489   7.421 -1.6884 -1.0985  1.9680
 5778SOL    HW228794   4.430   2.550   7.288 -1.1585  2.7231  0.9587
 5779SOL     OW28795   0.149   3.501   1.576 -0.7729 -0.3010  0.1352
 5779SOL    HW128796   0.087   3.468   1.511 -0.5573 -1.0680  0.3097
 5779SOL    HW228797   0.192   3.565   1.520  0.6983 -1.0240  0.4401
 5780SOL     OW28798   1.665   0.942  15.025 -0.0393 -0.0587 -0.1455
 5780SOL    HW128799   1.592   0.983  14.979 -0.0436 -0.2441 -0.3027
 5780SOL    HW228800   1.615   0.876  15.073 -0.9769 -0.1242 -1.2158
 5781SOL     OW28801   3.443   4.450   5.752 -0.5683 -0.1017  0.0909
 5781SOL    HW128802   3.538   4.456   5.751 -0.6507  1.3280 -0.7009
 5781SOL    HW228803   3.420   4.498   5.831  0.2750  0.4646 -0.0015
 5782SOL     OW28804   3.040   4.136   8.816 -0.4859 -0.0762  0.4331
 5782SOL    HW128805   3.000   4.101   8.737  0.8155 -1.8404  0.5660
 5782SOL    HW228806   2.997   4.222   8.817  0.3232  0.3701 -1.4862
 5783SOL     OW28807   0.075   1.368   2.030  0.2211  0.1230  0.1076
 5783SOL    HW128808   0.114   1.410   2.107  2.1200  2.0791 -1.8901
 5783SOL    HW228809   0.042   1.284   2.060  1.4105  0.2956  1.8800
 5784SOL     OW28810   0.191   4.689   0.306 -0.2234 -0.3291  0.2829
 5784SOL    HW128811   0.122   4.682   0.240  0.7815 -0.4027 -0.7550
 5784SOL    HW228812   0.252   4.618   0.289  1.2849  0.6350  1.6468
 5785SOL     OW28813   1.548   3.168   4.134  0.2578  0.5109 -0.1163
 5785SOL    HW128814   1.563   3.110   4.060  0.7531  1.6433 -0.9011
 5785SOL    HW228815   1.608   3.240   4.113 -0.8262  1.7515  1.0116
 5786SOL     OW28816   0.089   1.519   7.567  0.0894  0.1329 -0.1068
 5786SOL    HW128817   0.097   1.472   7.650 -2.8478  0.4083  0.3359
 5786SOL    HW228818   4.717   1.539   7.571  0.0261  0.0397 -1.1931
 5787SOL     OW28819   3.663   1.341   6.312  0.2130 -0.1500  0.3403
 5787SOL    HW128820   3.714   1.315   6.235 -1.3730 -0.3325 -0.6297
 5787SOL    HW228821   3.662   1.437   6.302 -0.5640 -0.0894  0.9877
 5788SOL     OW28822   0.624   0.899  17.318 -0.1172  0.3254 -0.3838
 5788SOL    HW128823   0.572   0.979  17.308 -0.8045  0.0583  0.9485
 5788SOL    HW228824   0.687   0.923  17.386  1.1467 -0.7271 -1.1886
 5789SOL     OW28825   0.588   4.316  17.017  0.8055 -0.4794 -0.6210
 5789SOL    HW128826   0.519   4.249  17.023 -2.8752  3.3803 -0.3777
 5789SOL    HW228827   0.569   4.376  16.945 -0.0788  0.6934  0.6024
 5790SOL     OW28828   0.352   3.144   8.191 -0.3174 -0.0913  0.1837
 5790SOL    HW128829   0.433   3.096   8.211 -1.4314 -1.8041  0.5713
 5790SOL    HW228830   0.365   3.226   8.239  2.3129  1.0862 -2.5191
 5791SOL     OW28831   1.418   3.357   2.295  0.0035  0.0497  0.5842
 5791SOL    HW128832   1.504   3.319   2.279 -0.5385  0.1210 -2.4646
 5791SOL    HW228833   1.389   3.345   2.205 -0.2557  0.5134  0.6024
 5792SOL     OW28834   4.683   0.460   9.471 -0.1128 -0.1902  0.0171
 5792SOL    HW128835   0.011   0.517   9.530  1.2977 -0.4082 -0.9493
 5792SOL    HW228836   4.671   0.524   9.401  0.6379 -1.3681 -1.1792
 5793SOL     OW28837   1.230   1.276   2.214 -0.6598  0.3821  0.1493
 5793SOL    HW128838   1.136   1.291   2.203 -0.8940  0.0096  1.6668
 5793SOL    HW228839   1.225   1.182   2.197 -3.5318  0.1839  2.1142
 5794SOL     OW28840   3.260   0.164   3.607 -0.3560  0.1803  0.1184
 5794SOL    HW128841   3.280   0.088   3.553  1.1667  0.8818 -0.3234
 5794SOL    HW228842   3.329   0.156   3.673  0.9887  0.3529 -1.2381
 5795SOL     OW28843   2.508   4.154   2.751 -0.8297 -0.5034 -0.3609
 5795SOL    HW128844   2.485   4.113   2.667  1.0208  0.2788 -1.2558
 5795SOL    HW228845   2.520   4.073   2.801  1.1536  0.2925  0.4492
 5796SOL     OW28846   2.551   2.357  12.058 -0.3926 -0.5190  0.9689
 5796SOL    HW128847   2.565   2.448  12.084  0.8196 -0.0302 -1.3760
 5796SOL    HW228848   2.641   2.331  12.039 -0.1141 -0.0448  1.6266
 5797SOL     OW28849   4.710   3.918  15.539  0.1759  0.6084  0.1782
 5797SOL    HW128850   0.017   4.009  15.535  0.0589  0.6184 -0.4230
 5797SOL    HW228851   0.035   3.883  15.463 -2.2844 -0.7734 -0.6706
 5798SOL     OW28852   1.338   2.342   2.998  0.4122  0.0578 -0.3993
 5798SOL    HW128853   1.263   2.329   3.056  2.1624  0.9901  2.0830
 5798SOL    HW228854   1.338   2.264   2.943 -2.0706 -0.1284 -0.1487
 5799SOL     OW28855   1.508   3.959  15.052 -0.2307  0.3824  0.2478
 5799SOL    HW128856   1.603   3.961  15.055 -0.1585 -1.9865 -0.2680
 5799SOL    HW228857   1.479   4.044  15.085 -2.7638 -1.0012  1.5889
 5800SOL     OW28858   1.199   3.722   7.200  0.1678  0.6531  0.3747
 5800SOL    HW128859   1.105   3.708   7.185  0.5086 -0.0870 -1.0877
 5800SOL    HW228860   1.197   3.713   7.295 -0.0103 -2.5427  0.0468
 5801SOL     OW28861   0.170   4.563  17.543  0.1175  0.3875  0.2520
 5801SOL    HW128862   0.117   4.535  17.467 -0.4318 -0.0315  0.7892
 5801SOL    HW228863   0.175   4.653  17.512  0.6911  0.0837 -0.5464
 5802SOL     OW28864   3.081   2.854   3.271 -0.0513 -0.3120 -0.1755
 5802SOL    HW128865   3.030   2.928   3.237  1.0278 -0.4005 -1.9770
 5802SOL    HW228866   3.154   2.854   3.209 -0.1049  2.0732 -0.2655
 5803SOL     OW28867   0.920   2.998   6.962  0.0599 -0.0658  0.1358
 5803SOL    HW128868   0.997   2.941   6.965  0.1807  0.2066  2.6824
 5803SOL    HW228869   0.949   3.085   6.990 -1.1542  0.7601 -1.2515
 5804SOL     OW28870   4.645   4.428   2.967  0.1706 -0.1171  0.2792
 5804SOL    HW128871   4.698   4.497   3.006 -1.0954 -0.1619  2.1097
 5804SOL    HW228872   0.002   4.382   2.939  0.8498  1.1125  0.1391
 5805SOL     OW28873   1.735   1.764   5.826 -0.2704  0.4204 -0.6207
 5805SOL    HW128874   1.779   1.831   5.878  0.0585  0.0741 -0.4511
 5805SOL    HW228875   1.810   1.705   5.813 -0.3388 -0.1249  1.5523
 5806SOL     OW28876   4.117   4.623   2.946  0.7604 -0.6235  0.2314
 5806SOL    HW128877   4.056   4.601   2.875  1.2858 -1.2819 -0.0126
 5806SOL    HW228878   4.117   4.548   3.005  3.9264 -1.1499 -0.4495
 5807SOL     OW28879   0.512   4.058   2.749  0.3794  0.3377  0.4067
 5807SOL    HW128880   0.605   4.050   2.771  0.2759 -0.2307  0.6388
 5807SOL    HW228881   0.492   3.965   2.761 -0.5749  0.5695  0.6787
 5808SOL     OW28882   1.773   1.839   6.224 -0.3965 -0.3733 -0.4543
 5808SOL    HW128883   1.842   1.775   6.240 -1.1645 -0.8014  1.1566
 5808SOL    HW228884   1.719   1.829   6.302  0.6080  1.4125  0.4728
 5809SOL     OW28885   2.509   4.205   5.453 -0.4031 -0.0484  0.3360
 5809SOL    HW128886   2.559   4.274   5.496  2.5155 -0.5458 -2.2352
 5809SOL    HW228887   2.439   4.255   5.410  1.6126  1.6780 -0.8722
 5810SOL     OW28888   0.801   0.363   4.454  0.4410  0.2896 -0.3012
 5810SOL    HW128889   0.891   0.332   4.451  0.2033 -0.7280  3.4665
 5810SOL    HW228890   0.820   0.451   4.421  0.2931  0.0936 -0.9175
 5811SOL     OW28891   4.390   0.770  10.102  0.3396 -0.2226 -0.2553
 5811SOL    HW128892   4.421   0.857  10.078  0.7360 -0.1684  0.4395
 5811SOL    HW228893   4.475   0.727  10.110  0.9595  0.6442 -2.2802
 5812SOL     OW28894   4.687   3.130   7.152 -0.0331  0.5363  0.0567
 5812SOL    HW128895   4.706   3.056   7.210 -1.7161 -0.3000 -0.4561
 5812SOL    HW228896   4.592   3.142   7.159  0.0445  1.3257 -0.2648
 5813SOL     OW28897   0.412   3.926   8.757 -0.1673 -0.0125  0.4657
 5813SOL    HW128898   0.461   3.917   8.839  0.3598  0.1835  0.1761
 5813SOL    HW228899   0.386   4.016   8.735  0.8428  0.3488  0.7338
 5814SOL     OW28900   1.837   3.225   5.613 -0.0016 -0.0963 -0.3055
 5814SOL    HW128901   1.753   3.208   5.655 -0.1984 -0.0186 -0.6595
 5814SOL    HW228902   1.830   3.319   5.598 -0.1138 -0.1828 -0.8127
 5815SOL     OW28903   3.972   0.094   4.645 -0.4811  0.2117 -0.1994
 5815SOL    HW128904   3.908   0.134   4.587  1.5951  1.3113 -1.7363
 5815SOL    HW228905   4.017   0.048   4.574  0.7079  0.4530  0.3969
 5816SOL     OW28906   2.555   0.287  17.580 -0.4697 -0.2261 -0.2491
 5816SOL    HW128907   2.533   0.286  17.673  0.3855  3.5395 -0.0187
 5816SOL    HW228908   2.597   0.373  17.580 -1.0285  0.0450  0.7554
 5817SOL     OW28909   1.757   3.033  11.218  0.3496 -0.3688 -0.1500
 5817SOL    HW128910   1.800   3.016  11.302  2.2253 -2.2557 -1.4742
 5817SOL    HW228911   1.666   3.011  11.236 -0.5508  1.7981 -2.1283
 5818SOL     OW28912   2.850   0.239   2.829 -0.1900  0.1641 -0.4752
 5818SOL    HW128913   2.941   0.266   2.814  0.3224 -1.5735 -0.4469
 5818SOL    HW228914   2.852   0.150   2.793  1.2057  0.4404 -1.0788
 5819SOL     OW28915   3.237   0.358  15.024  0.5326  0.0934  0.1428
 5819SOL    HW128916   3.230   0.262  15.022 -0.5879  0.1390  3.1131
 5819SOL    HW228917   3.211   0.384  15.112  0.7546  0.3884  0.1210
 5820SOL     OW28918   0.045   0.779   6.444  0.1345 -0.1948  0.4747
 5820SOL    HW128919   4.712   0.736   6.511  2.7158  0.1279  2.7496
 5820SOL    HW228920   0.089   0.709   6.396  2.8583  2.8671 -1.4593
 5821SOL     OW28921   1.212   3.644   4.770  0.3496 -0.5608  0.5132
 5821SOL    HW128922   1.163   3.639   4.851 -1.5602 -0.5422 -0.6460
 5821SOL    HW228923   1.162   3.581   4.718  0.8743 -0.6690  0.1329
 5822SOL     OW28924   4.546   3.202   8.435 -0.0650 -0.0059 -0.0670
 5822SOL    HW128925   4.629   3.227   8.396  0.2761 -2.1510 -0.7096
 5822SOL    HW228926   4.555   3.237   8.524 -0.3864  0.1261 -0.0860
 5823SOL     OW28927   1.695   3.169  10.941  0.5014 -0.3693 -0.2358
 5823SOL    HW128928   1.638   3.210  10.876 -0.3215  1.9304  1.9078
 5823SOL    HW228929   1.758   3.134  10.878 -1.6823 -1.7100 -1.6686
 5824SOL     OW28930   3.042   0.605   0.982  0.3653  0.2134  0.3262
 5824SOL    HW128931   3.043   0.509   0.981  1.3395  0.2333 -0.8582
 5824SOL    HW228932   2.956   0.609   0.941 -1.2866  1.1016  3.8697
 5825SOL     OW28933   3.193   1.494  14.599 -0.0111  0.8305  0.2497
 5825SOL    HW128934   3.213   1.498  14.505  0.2673 -0.6371  0.2542
 5825SOL    HW228935   3.270   1.443  14.621 -0.6733  0.3455  1.4141
 5826SOL     OW28936   3.186   4.680   2.059  0.1114 -0.5781  0.6043
 5826SOL    HW128937   3.219   4.654   2.146 -1.6952 -1.1819  1.1149
 5826SOL    HW228938   3.091   4.671   2.069  0.4391 -4.2716  0.4607
 5827SOL     OW28939   3.633   2.148   3.478 -0.2349 -0.2658  0.4960
 5827SOL    HW128940   3.665   2.097   3.552  0.7694  2.9861  2.3465
 5827SOL    HW228941   3.664   2.227   3.524 -1.0112  0.4251 -0.1595
 5828SOL     OW28942   1.561   2.852  13.878  0.1982  0.0558 -0.5924
 5828SOL    HW128943   1.621   2.926  13.888  0.9415 -0.8216  1.6683
 5828SOL    HW228944   1.499   2.884  13.813  1.3786  1.5108 -1.0016
 5829SOL     OW28945   1.713   3.769  16.118  0.2862 -0.4518  0.3122
 5829SOL    HW128946   1.734   3.677  16.132 -1.2647 -0.9566 -0.7088
 5829SOL    HW228947   1.698   3.797  16.208  1.3233 -1.1258  0.6887
 5830SOL     OW28948   0.951   1.680   2.684 -0.4597 -0.3062 -0.0063
 5830SOL    HW128949   0.989   1.594   2.698 -1.8634 -1.2137 -1.7494
 5830SOL    HW228950   0.866   1.663   2.644 -1.4662 -0.6101  2.2911
 5831SOL     OW28951   0.121   0.643   6.779  0.0178 -0.2361  0.0111
 5831SOL    HW128952   0.163   0.676   6.858  1.6713  0.4100 -1.1571
 5831SOL    HW228953   0.094   0.554   6.803  1.1091 -0.8368 -0.9510
 5832SOL     OW28954   4.526   1.516   7.589 -0.1566  0.1396  0.3037
 5832SOL    HW128955   4.483   1.447   7.538 -0.9291  0.6867  0.2162
 5832SOL    HW228956   4.473   1.583   7.546  0.8654  1.3618  0.9620
 5833SOL     OW28957   3.296   0.249   2.226 -0.3597 -0.1439 -0.5310
 5833SOL    HW128958   3.240   0.236   2.303 -1.1590 -0.9575 -1.2508
 5833SOL    HW228959   3.380   0.207   2.247  0.3594  1.7887  0.4526
 5834SOL     OW28960   4.232   4.454  15.048  0.1610 -0.8378 -0.6555
 5834SOL    HW128961   4.184   4.533  15.073 -0.8441 -2.6214  3.1758
 5834SOL    HW228962   4.285   4.495  14.980  0.1155 -0.1546 -0.2750
 5835SOL     OW28963   2.518   2.711  12.165  0.0448  0.3500  0.2093
 5835SOL    HW128964   2.603   2.671  12.182  0.8611  2.0653  0.2072
 5835SOL    HW228965   2.515   2.784  12.227 -0.5204  0.7583 -0.3010
 5836SOL     OW28966   1.667   1.423   4.227 -0.3487 -0.1499 -0.0686
 5836SOL    HW128967   1.759   1.395   4.219  0.1201  1.4805 -0.4278
 5836SOL    HW228968   1.688   1.516   4.238 -1.6004 -0.0978  1.8813
 5837SOL     OW28969   0.752   3.395   0.615 -0.4839  1.1253  0.4333
 5837SOL    HW128970   0.815   3.467   0.610 -2.2371  2.4876 -2.2071
 5837SOL    HW228971   0.671   3.431   0.578 -0.7348  0.1003 -0.0035
 5838SOL     OW28972   3.633   4.184   0.719  0.0197  0.0546  0.1014
 5838SOL    HW128973   3.721   4.205   0.750 -0.1122  1.1488 -0.2465
 5838SOL    HW228974   3.630   4.089   0.725 -0.7651  0.0710 -0.0178
 5839SOL     OW28975   2.104   4.049  15.262 -0.0781  0.1652 -0.2686
 5839SOL    HW128976   2.175   4.057  15.327 -0.6890  0.6542  0.3457
 5839SOL    HW228977   2.144   4.079  15.181  0.9550 -0.0691  0.1476
 5840SOL     OW28978   4.585   2.491   7.782 -0.2043 -0.6164  0.4310
 5840SOL    HW128979   4.673   2.483   7.745 -0.0474  0.1451  0.6345
 5840SOL    HW228980   4.570   2.398   7.795  1.1996 -0.5992  2.2532
 5841SOL     OW28981   1.767   4.266   7.241  0.0714  0.1364  0.3679
 5841SOL    HW128982   1.750   4.339   7.301 -0.2206 -0.8130  1.4216
 5841SOL    HW228983   1.746   4.310   7.159  1.7757 -0.1743 -0.2396
 5842SOL     OW28984   2.270   2.477  15.147  0.0750  0.3710 -0.1124
 5842SOL    HW128985   2.239   2.565  15.127  1.5651  0.7560 -0.6704
 5842SOL    HW228986   2.337   2.489  15.213 -0.9421 -0.0820  1.0158
 5843SOL     OW28987   2.371   4.552  13.212  0.0560 -0.9016 -0.4178
 5843SOL    HW128988   2.298   4.491  13.199  0.3436 -0.5709 -3.5251
 5843SOL    HW228989   2.401   4.581  13.126  0.0578 -0.0289 -0.1254
 5844SOL     OW28990   2.917   2.331   4.807  0.8649  0.3696 -0.6702
 5844SOL    HW128991   2.860   2.329   4.884 -0.8782  1.1074 -1.9696
 5844SOL    HW228992   2.857   2.332   4.733  0.2759  1.8305 -0.1639
 5845SOL     OW28993   4.388   2.590   9.417  0.3065 -0.5261  0.5324
 5845SOL    HW128994   4.373   2.546   9.500  1.4803  0.3788  1.2285
 5845SOL    HW228995   4.447   2.660   9.446 -2.2749  2.6087 -1.7087
 5846SOL     OW28996   4.119   4.126   7.284  0.3269 -0.4286 -0.1461
 5846SOL    HW128997   4.144   4.215   7.307 -1.8814  0.3745 -0.9285
 5846SOL    HW228998   4.120   4.076   7.366  1.3647 -1.2639 -0.6647
 5847SOL     OW28999   0.779   0.814   0.169 -0.0817 -0.7089 -0.6095
 5847SOL    HW129000   0.702   0.865   0.144  1.2484  1.1347 -0.9047
 5847SOL    HW229001   0.736   0.730   0.183 -1.8594  0.8221  3.0350
 5848SOL     OW29002   4.424   3.074   6.858  0.3801 -0.2536  0.2052
 5848SOL    HW129003   4.513   3.098   6.830  0.6096 -0.7660  0.4795
 5848SOL    HW229004   4.386   3.160   6.845 -0.4630 -0.5383  0.7985
 5849SOL     OW29005   3.401   1.354  13.382  0.7012  0.0614 -0.0052
 5849SOL    HW129006   3.364   1.270  13.354  1.0906 -0.7387  1.9199
 5849SOL    HW229007   3.451   1.370  13.301 -0.7847  1.4336 -0.6519
 5850SOL     OW29008   3.101   3.302   5.120  1.1226  0.0143 -0.0872
 5850SOL    HW129009   3.015   3.342   5.134  1.2319  0.3038 -0.2575
 5850SOL    HW229010   3.106   3.302   5.024 -2.0302 -2.2645 -0.2584
 5851SOL     OW29011   1.338   3.540   3.099  0.1241  0.0095  0.3655
 5851SOL    HW129012   1.309   3.587   3.021  2.9135  1.0240 -0.0480
 5851SOL    HW229013   1.367   3.456   3.064  1.4271  0.6887 -0.1842
 5852SOL     OW29014   4.259   2.795   8.215  0.4210  0.2896  0.5515
 5852SOL    HW129015   4.219   2.840   8.290  0.7171  1.3475  0.0800
 5852SOL    HW229016   4.332   2.749   8.257  0.4659  0.2278  0.4072
 5853SOL     OW29017   0.931   3.121  13.973  0.5324  0.3971 -0.0154
 5853SOL    HW129018   0.914   3.180  14.046 -3.3339  0.6103 -1.0822
 5853SOL    HW229019   0.887   3.045  14.010 -0.0707 -0.5551 -2.6529
 5854SOL     OW29020   1.190   3.231  10.296 -0.4173  0.5621 -0.3139
 5854SOL    HW129021   1.225   3.175  10.227 -1.5784 -1.3316  0.6214
 5854SOL    HW229022   1.097   3.209  10.304  0.1733 -0.9495  2.5978
 5855SOL     OW29023   4.475   1.563   3.588  0.0916 -0.3459  0.6961
 5855SOL    HW129024   4.469   1.633   3.653  1.4455 -0.7488  1.2719
 5855SOL    HW229025   4.404   1.510   3.623  0.2647 -2.0234 -1.5201
 5856SOL     OW29026   3.917   4.556   9.210  0.3170  0.2328 -0.2461
 5856SOL    HW129027   3.845   4.578   9.152 -0.0035  1.4596  0.6128
 5856SOL    HW229028   3.929   4.648   9.237 -1.2164  0.4475 -0.3143
 5857SOL     OW29029   0.136   4.205  17.441  0.3603 -0.6500  0.1853
 5857SOL    HW129030   0.095   4.291  17.440 -0.4468 -1.0555 -1.3566
 5857SOL    HW229031   0.225   4.238  17.430  0.2671  0.4529  2.5986
 5858SOL     OW29032   1.645   4.149  10.787  0.7893  0.0402  0.7160
 5858SOL    HW129033   1.709   4.220  10.781 -0.3832  1.1686  1.3420
 5858SOL    HW229034   1.567   4.189  10.748 -0.7665 -0.4796  3.2488
 5859SOL     OW29035   2.714   4.271   7.581 -0.2003  0.7425 -0.3633
 5859SOL    HW129036   2.764   4.190   7.580 -0.9838  0.2437  0.6157
 5859SOL    HW229037   2.633   4.258   7.631  0.4463 -1.2744  0.1441
 5860SOL     OW29038   2.066   0.714  12.807  0.6281 -0.2925 -0.1882
 5860SOL    HW129039   2.069   0.782  12.740  0.8400 -0.8971 -0.7816
 5860SOL    HW229040   2.043   0.640  12.750 -1.1761 -0.5749  0.9014
 5861SOL     OW29041   0.277   1.652   8.213  0.4733  0.5492 -0.2170
 5861SOL    HW129042   0.255   1.744   8.196  0.6396  0.5932 -0.2008
 5861SOL    HW229043   0.198   1.599   8.217  0.7765  0.1042 -0.1097
 5862SOL     OW29044   2.590   1.102   6.312  0.6743 -0.6059 -0.1333
 5862SOL    HW129045   2.665   1.094   6.372  2.0956  2.5587 -1.4971
 5862SOL    HW229046   2.533   1.162   6.360  2.8301  1.0221  0.4551
 5863SOL     OW29047   0.426   3.312  10.702 -1.0330  0.1607  0.1617
 5863SOL    HW129048   0.407   3.347  10.789  0.4225  1.2203  0.0715
 5863SOL    HW229049   0.344   3.266  10.688 -1.2161  0.5348  0.0071
 5864SOL     OW29050   4.690   3.642   2.080  0.8307  0.0101  0.1422
 5864SOL    HW129051   0.060   3.669   2.072  0.8336  0.0996  0.4577
 5864SOL    HW229052   4.676   3.606   1.993  0.7827 -0.5906  0.4007
 5865SOL     OW29053   0.283   3.942   4.962 -0.0323 -0.1160 -0.3446
 5865SOL    HW129054   0.328   4.016   5.002  0.2826 -2.2442  3.2658
 5865SOL    HW229055   0.252   3.983   4.881 -0.1437 -0.5253 -0.5084
 5866SOL     OW29056   0.418   3.934   0.880 -0.0844 -0.0058  0.5427
 5866SOL    HW129057   0.347   3.909   0.939 -0.7914  0.3351 -0.1650
 5866SOL    HW229058   0.392   4.024   0.860  0.6525  0.4002  1.3659
 5867SOL     OW29059   1.929   4.000   8.961  0.4808 -0.4995 -0.1820
 5867SOL    HW129060   1.943   4.094   8.953  1.9643 -0.9310 -2.5315
 5867SOL    HW229061   2.017   3.975   8.936 -0.7920 -4.7121 -0.4175
 5868SOL     OW29062   0.907   3.061   4.420 -0.6950 -0.1138  0.2526
 5868SOL    HW129063   0.873   3.144   4.456 -1.1740 -0.5633  0.8422
 5868SOL    HW229064   0.912   3.075   4.326  1.3235 -0.2209  0.3524
 5869SOL     OW29065   4.372   3.735  10.247  0.2572  0.4201 -0.1779
 5869SOL    HW129066   4.284   3.726  10.210  1.9701 -0.8356 -3.9726
 5869SOL    HW229067   4.408   3.646  10.249 -0.1065  0.2552 -0.6874
 5870SOL     OW29068   3.649   2.860   9.984  0.4601  0.1453  0.1998
 5870SOL    HW129069   3.682   2.862  10.074  2.6849  0.4509 -0.6182
 5870SOL    HW229070   3.721   2.826   9.931  0.0892 -1.3219  0.6391
 5871SOL     OW29071   3.968   3.941   4.580 -0.3397 -0.9116  0.8203
 5871SOL    HW129072   3.968   3.846   4.571  0.1622 -0.7746 -0.6114
 5871SOL    HW229073   3.898   3.960   4.519 -0.5183  0.5757  1.4886
 5872SOL     OW29074   0.280   4.539   2.334  0.1830 -0.1211  0.1374
 5872SOL    HW129075   0.265   4.599   2.407 -0.7969  0.2896 -0.4032
 5872SOL    HW229076   0.206   4.548   2.274  1.9482  0.4274 -1.9560
 5873SOL     OW29077   3.944   1.204  13.261 -0.5780  0.0039  0.5299
 5873SOL    HW129078   4.013   1.187  13.197 -0.4013 -0.3710  0.8202
 5873SOL    HW229079   3.956   1.121  13.307  2.7599  1.0181  1.4565
 5874SOL     OW29080   0.376   3.385   3.868 -0.0251 -0.8879 -0.2203
 5874SOL    HW129081   0.403   3.327   3.796  0.0842 -1.1183  0.0074
 5874SOL    HW229082   0.300   3.344   3.909 -1.6860 -1.8446 -4.2733
 5875SOL     OW29083   3.109   0.645   5.260  0.0515 -0.2755  0.1503
 5875SOL    HW129084   3.168   0.719   5.275  0.1475  0.1663 -2.3707
 5875SOL    HW229085   3.107   0.594   5.341  0.3567 -0.8826 -0.2222
 5876SOL     OW29086   2.134   1.768   6.979 -0.3329  0.2830  0.0504
 5876SOL    HW129087   2.202   1.827   7.013  1.4033 -1.1635 -0.8912
 5876SOL    HW229088   2.117   1.723   7.062  1.2161 -0.2652  0.0627
 5877SOL     OW29089   1.875   0.455   2.827 -0.2714 -0.2478 -0.3500
 5877SOL    HW129090   1.820   0.517   2.874 -0.2971 -2.3413  2.3434
 5877SOL    HW229091   1.847   0.469   2.736 -2.2276 -0.3982  0.2347
 5878SOL     OW29092   3.902   2.694   3.193  0.1399 -0.3165  0.1975
 5878SOL    HW129093   3.919   2.786   3.213  0.9346 -0.2410 -0.8312
 5878SOL    HW229094   3.969   2.673   3.128  2.0240 -0.7948  2.2963
 5879SOL     OW29095   0.311   4.371   3.292 -0.2513 -0.5234 -0.6891
 5879SOL    HW129096   0.299   4.290   3.241  0.7026 -1.3519  0.3949
 5879SOL    HW229097   0.306   4.429   3.217 -0.4114  0.2977 -0.0354
 5880SOL     OW29098   4.130   2.551  12.204 -0.1700  0.2956 -0.0973
 5880SOL    HW129099   4.105   2.462  12.182 -0.2849  0.8161 -2.0884
 5880SOL    HW229100   4.063   2.603  12.160  0.2216  1.0752  0.2171
 5881SOL     OW29101   1.930   0.137  13.525  0.2436  0.4838 -0.0857
 5881SOL    HW129102   1.913   0.224  13.560 -0.3122  0.1350  0.5098
 5881SOL    HW229103   1.874   0.138  13.447  1.5601 -0.0056 -1.0357
 5882SOL     OW29104   2.415   1.809   8.865  0.0417 -0.1455  0.2696
 5882SOL    HW129105   2.414   1.718   8.894  0.3208 -0.2761 -0.1435
 5882SOL    HW229106   2.327   1.821   8.830 -0.3209 -1.0738  0.8742
 5883SOL     OW29107   1.961   3.352  13.979 -0.3097  0.0996 -0.0748
 5883SOL    HW129108   1.962   3.259  13.957 -1.8483  0.0110  0.2238
 5883SOL    HW229109   1.987   3.339  14.071 -0.3338  2.4527  0.2634
 5884SOL     OW29110   3.168   3.633   9.240 -0.2140  0.0814  0.3709
 5884SOL    HW129111   3.172   3.576   9.317 -2.2257  1.9234  1.8331
 5884SOL    HW229112   3.073   3.638   9.229 -0.0633 -0.8849 -1.3950
 5885SOL     OW29113   1.720   1.800   0.486  0.3038  0.3253  0.0502
 5885SOL    HW129114   1.699   1.881   0.440  2.1388  1.7259  1.6608
 5885SOL    HW229115   1.648   1.741   0.465  0.7638  0.0852 -0.8208
 5886SOL     OW29116   4.436   3.902   9.684 -0.1119  0.2720 -0.2378
 5886SOL    HW129117   4.524   3.902   9.722 -0.9386  1.5869  1.6620
 5886SOL    HW229118   4.399   3.818   9.712  0.8634 -0.6719 -1.7470
 5887SOL     OW29119   2.279   0.507   3.886 -0.2336 -0.0795  0.0573
 5887SOL    HW129120   2.300   0.420   3.921  0.8253  1.0618  2.3245
 5887SOL    HW229121   2.191   0.512   3.924  0.1200  2.6279  0.5834
 5888SOL     OW29122   1.797   4.450   3.430  0.7762  0.1095 -0.5037
 5888SOL    HW129123   1.796   4.361   3.395 -1.9752  0.8865 -2.3825
 5888SOL    HW229124   1.803   4.427   3.523  1.5292  0.8986 -0.3568
 5889SOL     OW29125   0.995   1.162   2.539  0.3048  0.3865 -0.2724
 5889SOL    HW129126   0.939   1.217   2.594  1.2187  0.6824  0.3695
 5889SOL    HW229127   0.951   1.154   2.454  1.6951 -0.6342 -0.8960
 5890SOL     OW29128   0.752   4.146   2.036  0.0582  0.5100 -0.3308
 5890SOL    HW129129   0.714   4.141   2.124  4.1259 -0.5724  1.4033
 5890SOL    HW229130   0.741   4.053   2.020 -0.3354  0.7289 -1.2750
 5891SOL     OW29131   1.653   0.271   6.610  0.0304 -0.2137 -0.0476
 5891SOL    HW129132   1.630   0.358   6.578 -2.0206 -0.7940 -0.1183
 5891SOL    HW229133   1.705   0.237   6.538 -0.7634  1.1737 -1.2677
 5892SOL     OW29134   1.966   1.016  11.321 -0.7516  0.3224 -0.4773
 5892SOL    HW129135   2.035   1.081  11.313 -1.2001  0.9061  0.4467
 5892SOL    HW229136   2.018   0.935  11.316 -0.6768  0.4936 -2.7202
 5893SOL     OW29137   4.098   1.304   3.906 -0.0078 -0.3591  0.3475
 5893SOL    HW129138   4.080   1.230   3.848  1.5959 -0.0707 -0.5175
 5893SOL    HW229139   4.173   1.354   3.873 -1.7276  0.8942 -1.6421
 5894SOL     OW29140   2.424   0.569   6.377  0.5763  0.6783  0.0186
 5894SOL    HW129141   2.478   0.589   6.300  2.0331  1.4232  1.2288
 5894SOL    HW229142   2.411   0.653   6.421  0.4039  0.9818 -0.6156
 5895SOL     OW29143   1.888   1.625  13.624  0.1050 -0.1177 -0.2623
 5895SOL    HW129144   1.963   1.586  13.667 -0.7457  1.8495  3.0387
 5895SOL    HW229145   1.862   1.690  13.690 -1.2512 -1.2193  0.2867
 5896SOL     OW29146   3.065   1.258   5.578 -0.2668  0.4527 -0.3813
 5896SOL    HW129147   3.057   1.184   5.518 -1.3785  0.5258 -0.3104
 5896SOL    HW229148   3.152   1.244   5.615 -0.8892 -0.0570  0.8855
 5897SOL     OW29149   3.947   2.518   6.643 -0.2106 -0.0503 -0.0466
 5897SOL    HW129150   3.951   2.587   6.577 -1.1455 -0.0449 -0.0938
 5897SOL    HW229151   3.925   2.569   6.721  1.4107  0.0539  0.3554
 5898SOL     OW29152   4.542   2.382  14.252 -0.1158 -0.3210  0.1017
 5898SOL    HW129153   4.633   2.353  14.240  0.5054  1.9122 -0.8017
 5898SOL    HW229154   4.560   2.463  14.301 -3.4372  1.1815 -1.1880
 5899SOL     OW29155   2.702   0.420   2.141 -0.3834  0.0626 -0.2149
 5899SOL    HW129156   2.759   0.343   2.139  0.6724  0.9306 -4.2730
 5899SOL    HW229157   2.660   0.419   2.055  2.5655 -0.7991 -1.6693
 5900SOL     OW29158   4.063   0.769   1.797  0.5829  0.6487  0.1605
 5900SOL    HW129159   4.113   0.821   1.734  1.5134  0.6288  0.8846
 5900SOL    HW229160   4.134   0.745   1.857  0.3354  2.7541  1.3124
 5901SOL     OW29161   1.499   3.055  11.676  0.0592 -0.1008 -0.2845
 5901SOL    HW129162   1.422   3.008  11.645  1.3714 -1.1733 -1.9119
 5901SOL    HW229163   1.482   3.053  11.770  2.1196  2.1047  0.1448
 5902SOL     OW29164   4.575   1.218   8.588 -0.0647  0.3685 -0.0515
 5902SOL    HW129165   4.526   1.289   8.630 -0.4582 -0.8076  1.4961
 5902SOL    HW229166   4.563   1.227   8.494  0.5683 -0.5234 -0.2176
 5903SOL     OW29167   0.632   3.306   5.571 -0.5574 -0.2146  0.0554
 5903SOL    HW129168   0.562   3.314   5.506 -1.5881 -0.6134  1.1016
 5903SOL    HW229169   0.639   3.399   5.589  1.3524 -0.1446 -1.1090
 5904SOL     OW29170   3.313   1.267  15.264  0.1765  0.3223  0.6788
 5904SOL    HW129171   3.330   1.360  15.283  0.0949  0.3246  0.7427
 5904SOL    HW229172   3.403   1.235  15.271  0.2966  0.6040  0.4443
 5905SOL     OW29173   4.085   0.934   9.795  0.2506 -0.0783 -0.0688
 5905SOL    HW129174   4.072   0.839   9.785 -2.6592  0.6182 -2.9422
 5905SOL    HW229175   4.016   0.960   9.733  0.2230  0.3912  0.1618
 5906SOL     OW29176   2.988   0.480   4.607  0.6397 -0.6666  0.3941
 5906SOL    HW129177   2.920   0.438   4.659  0.1720 -0.9538 -0.4443
 5906SOL    HW229178   3.021   0.408   4.553  2.1570  3.1299 -3.7416
 5907SOL     OW29179   1.885   0.972   4.269  0.2457  0.2224  0.0297
 5907SOL    HW129180   1.902   1.060   4.301  2.3581 -0.7510  1.5680
 5907SOL    HW229181   1.879   0.979   4.174  0.3252 -0.7290 -0.0496
 5908SOL     OW29182   2.168   0.765   4.267 -0.1425  0.4463  0.0844
 5908SOL    HW129183   2.145   0.706   4.196 -0.6434  3.5321 -2.3232
 5908SOL    HW229184   2.167   0.846   4.216  1.4054 -0.1010 -0.8247
 5909SOL     OW29185   4.666   1.271  16.068 -0.1761  0.1857  0.0292
 5909SOL    HW129186   4.675   1.176  16.067 -1.3842  0.0726 -0.0013
 5909SOL    HW229187   0.035   1.290  16.092  0.4685 -1.2619 -1.2050
 5910SOL     OW29188   2.444   0.563  16.269 -0.2232 -0.1454 -0.4647
 5910SOL    HW129189   2.406   0.524  16.347  0.0315 -1.6432 -1.0976
 5910SOL    HW229190   2.434   0.654  16.298 -2.1274 -0.0614 -1.3453
 5911SOL     OW29191   0.536   0.221   7.790  0.0843  0.1236 -0.6251
 5911SOL    HW129192   0.559   0.209   7.882 -0.0826  0.4726 -0.5348
 5911SOL    HW229193   0.617   0.254   7.751 -1.1696  1.2950 -2.2721
 5912SOL     OW29194   3.340   2.710   7.219 -0.0412 -0.2984  0.1749
 5912SOL    HW129195   3.389   2.645   7.168 -1.7641 -1.1006 -0.4477
 5912SOL    HW229196   3.405   2.780   7.228  1.5006 -1.9024  1.5695
 5913SOL     OW29197   0.166   0.386   6.549  0.4451  0.1704  0.1679
 5913SOL    HW129198   0.246   0.430   6.579  1.4845 -2.1294  0.7807
 5913SOL    HW229199   0.207   0.328   6.485 -0.5233 -1.5767  1.1196
 5914SOL     OW29200   3.855   1.243  15.058 -0.1482 -0.5719 -0.6623
 5914SOL    HW129201   3.770   1.253  15.014 -0.1334  1.1820 -0.3227
 5914SOL    HW229202   3.842   1.291  15.140  2.4359 -1.4457  0.2544
 5915SOL     OW29203   3.538   3.333   0.544 -0.1540  0.1813  0.2074
 5915SOL    HW129204   3.550   3.302   0.633  1.7867  0.1571 -0.0664
 5915SOL    HW229205   3.486   3.263   0.504 -0.8897 -0.7404  2.8160
 5916SOL     OW29206   3.003   2.448   8.499  0.1514  0.0635  0.2451
 5916SOL    HW129207   3.086   2.482   8.465  0.3091  1.2247  1.8066
 5916SOL    HW229208   3.010   2.354   8.482 -0.9402 -0.2488  1.5135
 5917SOL     OW29209   1.108   0.898   7.535 -0.1650 -0.5292  0.4061
 5917SOL    HW129210   1.138   0.987   7.555 -0.8173  0.0475 -1.2308
 5917SOL    HW229211   1.043   0.909   7.467 -0.1683  0.6590  0.6080
 5918SOL     OW29212   3.302   2.261  15.571 -0.2739 -0.1984 -0.3183
 5918SOL    HW129213   3.259   2.177  15.583 -1.4475  0.1575 -1.9906
 5918SOL    HW229214   3.367   2.245  15.501 -0.6579 -1.1589 -0.4568
 5919SOL     OW29215   1.816   0.088   8.451 -0.1311 -0.2217 -0.2393
 5919SOL    HW129216   1.852   0.034   8.380 -2.2367 -3.4370  1.1432
 5919SOL    HW229217   1.723   0.070   8.462  0.0670 -0.7338  0.5944
 5920SOL     OW29218   3.665   4.038   3.531  0.4803 -0.3953  0.1532
 5920SOL    HW129219   3.618   4.122   3.534  1.4574  0.1765 -0.5710
 5920SOL    HW229220   3.714   4.046   3.613 -0.2820 -1.5756  0.7355
 5921SOL     OW29221   3.619   3.687  15.951  0.5825  0.6486 -0.0875
 5921SOL    HW129222   3.614   3.760  16.014  0.1861  1.5718 -1.1750
 5921SOL    HW229223   3.606   3.612  16.009 -0.7592  0.3478 -0.7818
 5922SOL     OW29224   1.418   0.741  14.948 -0.4902 -0.3631 -0.8560
 5922SOL    HW129225   1.492   0.734  14.888  0.0296  1.8927 -0.5042
 5922SOL    HW229226   1.450   0.679  15.014  0.3686  0.1221 -0.8184
 5923SOL     OW29227   2.492   0.768   5.731  0.3247 -0.7343  0.0998
 5923SOL    HW129228   2.489   0.861   5.754  1.7289 -0.4257 -0.9259
 5923SOL    HW229229   2.575   0.770   5.683  0.4940 -2.4959  0.3223
 5924SOL     OW29230   2.514   4.665   4.558  0.5810  0.2517  0.5036
 5924SOL    HW129231   2.535   4.700   4.472  0.1258  1.4260  0.8611
 5924SOL    HW229232   2.480   0.020   4.607  1.2408  1.0848 -0.3538
 5925SOL     OW29233   0.235   3.014  14.029  0.0914 -1.0044  0.2140
 5925SOL    HW129234   0.235   3.079  14.100  0.8575  1.9150 -2.4583
 5925SOL    HW229235   0.298   3.056  13.971 -1.0042 -0.3768 -0.5275
 5926SOL     OW29236   0.698   3.936   8.001  0.1346  0.0960  0.1918
 5926SOL    HW129237   0.691   3.849   8.041  1.6487 -0.5612 -0.9497
 5926SOL    HW229238   0.706   3.912   7.908 -0.1830 -0.0563  0.2019
 5927SOL     OW29239   4.196   0.343  12.340 -0.0808  0.0304 -0.0676
 5927SOL    HW129240   4.156   0.409  12.396 -2.6418 -2.8590  1.5136
 5927SOL    HW229241   4.262   0.308  12.400 -0.7201 -0.4218  0.3680
 5928SOL     OW29242   1.917   1.191  14.239 -0.3227  0.2351  0.5571
 5928SOL    HW129243   1.874   1.141  14.170  1.3066 -0.4897  0.0633
 5928SOL    HW229244   1.975   1.248  14.187 -0.5980 -1.6154 -1.7914
 5929SOL     OW29245   1.426   3.797  11.024 -0.7355 -1.0017 -0.1718
 5929SOL    HW129246   1.425   3.744  11.104  0.8742 -2.6902 -1.2578
 5929SOL    HW229247   1.486   3.744  10.971  2.4759 -0.5956  3.0043
 5930SOL     OW29248   0.364   4.202  13.066  0.3121  0.0525  0.1858
 5930SOL    HW129249   0.454   4.172  13.055  0.6100  1.3315 -0.9329
 5930SOL    HW229250   0.325   4.119  13.092 -1.3769 -0.1368 -2.9230
 5931SOL     OW29251   3.836   3.547   0.340  0.1487 -0.2602 -0.1553
 5931SOL    HW129252   3.915   3.579   0.385 -0.6581  0.6676  0.5960
 5931SOL    HW229253   3.833   3.456   0.372 -0.7136 -0.7586 -1.6682
 5932SOL     OW29254   3.478   1.842   6.362  0.2486  0.1237  0.3759
 5932SOL    HW129255   3.450   1.834   6.270  0.6521 -0.7282  0.3341
 5932SOL    HW229256   3.396   1.855   6.411 -0.5571  0.1316 -0.9628
 5933SOL     OW29257   2.645   0.858  10.580 -0.1755  0.0215  0.1950
 5933SOL    HW129258   2.556   0.892  10.573 -0.3905 -0.3066  1.3736
 5933SOL    HW229259   2.626   0.768  10.604  1.3563  0.3762  2.7099
 5934SOL     OW29260   4.296   4.659  17.233 -0.6300  0.3204 -0.1074
 5934SOL    HW129261   4.230   0.002  17.207 -2.5662 -0.6955  2.2938
 5934SOL    HW229262   4.272   4.656  17.326 -2.0860 -0.0632 -0.5058
 5935SOL     OW29263   1.028   2.256   3.124 -0.6113  0.2323 -0.1868
 5935SOL    HW129264   1.011   2.292   3.037  0.4410 -1.7664 -1.2333
 5935SOL    HW229265   1.021   2.335   3.178 -2.9917 -0.6090  0.7399
 5936SOL     OW29266   0.049   2.427   0.141  0.0015 -0.2273  0.2051
 5936SOL    HW129267   0.124   2.477   0.110 -1.2444  0.8314 -1.1200
 5936SOL    HW229268   4.714   2.432   0.064  0.3916 -1.4265 -0.1541
 5937SOL     OW29269   1.005   2.480   9.294  0.1646  0.5171  0.4619
 5937SOL    HW129270   0.948   2.448   9.365 -1.6912  0.5106 -1.0309
 5937SOL    HW229271   1.053   2.400   9.272 -3.9952 -1.3241 -1.8335
 5938SOL     OW29272   2.475   3.771   5.587 -0.1081  0.2423  0.4662
 5938SOL    HW129273   2.556   3.812   5.556 -0.8701  0.2632 -1.4763
 5938SOL    HW229274   2.507   3.732   5.668  0.9610 -0.7968 -0.4553
 5939SOL     OW29275   4.125   0.384   0.786 -0.9973 -0.3494  0.0866
 5939SOL    HW129276   4.189   0.336   0.839 -1.3574  0.0106  0.8419
 5939SOL    HW229277   4.109   0.321   0.715 -0.4516 -0.0063 -0.3352
 5940SOL     OW29278   2.029   3.105  11.093 -0.1355  0.5082  0.2489
 5940SOL    HW129279   2.007   3.073  11.181 -1.9913 -0.0492 -0.4139
 5940SOL    HW229280   1.977   3.185  11.089 -1.6393 -0.4678  0.0960
 5941SOL     OW29281   3.444   4.545  14.393 -0.7032 -0.3294  0.1743
 5941SOL    HW129282   3.399   4.566  14.310 -0.3412  1.3759  0.4082
 5941SOL    HW229283   3.529   4.589  14.385 -0.6693 -0.4312 -0.0531
 5942SOL     OW29284   4.119   2.986   8.058  0.1806  0.7011  0.0152
 5942SOL    HW129285   4.185   2.921   8.083 -1.3253 -0.5205  0.8910
 5942SOL    HW229286   4.172   3.062   8.035 -1.9144  1.7169 -1.3966
 5943SOL     OW29287   2.846   0.086   8.509  0.0547 -0.1205  0.3348
 5943SOL    HW129288   2.784   0.125   8.448 -1.7002 -1.9537  0.9577
 5943SOL    HW229289   2.823   4.715   8.500 -3.4793  0.8646 -0.8051
 5944SOL     OW29290   0.846   3.060   2.362 -0.5063  0.0182  1.0177
 5944SOL    HW129291   0.800   3.143   2.350 -1.4993 -0.4624  1.4622
 5944SOL    HW229292   0.914   3.078   2.428 -1.5643  1.4725  1.7046
 5945SOL     OW29293   1.919   2.938   2.894  0.1232  0.3462 -0.1792
 5945SOL    HW129294   1.869   3.016   2.869  2.2701  1.5449 -0.6574
 5945SOL    HW229295   1.847   2.879   2.919  0.1856  0.0773 -0.6443
 5946SOL     OW29296   1.380   0.566   4.493  0.4092  0.0950  0.0802
 5946SOL    HW129297   1.356   0.643   4.441 -1.0655 -0.8332 -0.6152
 5946SOL    HW229298   1.313   0.573   4.560  0.9187 -2.6964  0.8839
 5947SOL     OW29299   1.884   3.339  11.133  0.2520 -0.0390  0.0051
 5947SOL    HW129300   1.944   3.370  11.201 -0.7657  0.2343  0.7713
 5947SOL    HW229301   1.892   3.404  11.063 -0.3199  0.3230  0.2773
 5948SOL     OW29302   2.807   2.935   3.236 -0.2042 -0.0339 -0.9626
 5948SOL    HW129303   2.840   2.996   3.302  1.7758 -0.5986 -1.4186
 5948SOL    HW229304   2.732   2.896   3.279 -0.7539 -0.1781 -2.0412
 5949SOL     OW29305   0.233   3.722   2.050 -0.0899  0.2910  0.3200
 5949SOL    HW129306   0.261   3.785   2.116 -1.1225  2.4366 -1.2689
 5949SOL    HW229307   0.296   3.736   1.979 -0.2802 -1.8511 -0.2858
 5950SOL     OW29308   1.943   3.573  12.600  0.0852 -0.0316  0.1551
 5950SOL    HW129309   2.032   3.578  12.635 -0.2649 -0.4821  1.1065
 5950SOL    HW229310   1.893   3.598  12.678  2.6626 -2.1698  2.5007
 5951SOL     OW29311   4.315   0.724   3.022 -0.1656 -0.1398  0.2547
 5951SOL    HW129312   4.252   0.697   2.955 -0.3569  1.4631 -0.2100
 5951SOL    HW229313   4.375   0.650   3.011 -0.9241 -0.6483 -0.4914
 5952SOL     OW29314   0.646   3.432   8.660  0.8341  0.6028 -0.3292
 5952SOL    HW129315   0.696   3.513   8.670  0.1387  0.9851 -0.0176
 5952SOL    HW229316   0.681   3.402   8.576  1.3553  1.5195 -0.4428
 5953SOL     OW29317   4.561   2.939   5.065  0.2513  0.2104  0.1149
 5953SOL    HW129318   4.483   2.936   5.010 -0.1406  0.2102  0.6696
 5953SOL    HW229319   4.636   2.919   5.008  0.4963 -0.0692  0.5327
 5954SOL     OW29320   3.221   3.558   8.495  0.2392 -0.2035 -0.1854
 5954SOL    HW129321   3.279   3.587   8.565 -1.6713  0.6192  1.0436
 5954SOL    HW229322   3.229   3.633   8.436 -3.7105  1.2846  1.1730
 5955SOL     OW29323   0.353   2.514   6.039 -0.1735 -0.0850 -0.0474
 5955SOL    HW129324   0.369   2.590   5.981  1.6149 -1.6708 -1.6466
 5955SOL    HW229325   0.336   2.566   6.117  0.5666  1.1770 -0.7132
 5956SOL     OW29326   2.465   1.692  10.446 -0.3080 -0.0416 -0.3197
 5956SOL    HW129327   2.464   1.621  10.381  1.6538  0.6312 -1.0756
 5956SOL    HW229328   2.459   1.767  10.387  2.2449 -1.1980 -2.0730
 5957SOL     OW29329   0.451   4.346   9.753  0.1374 -0.2413  0.3055
 5957SOL    HW129330   0.421   4.359   9.843  0.2823 -0.9603  0.4560
 5957SOL    HW229331   0.447   4.254   9.729 -0.4595 -0.1095 -0.0986
 5958SOL     OW29332   2.633   2.701   9.358  0.4658 -0.0628 -0.4049
 5958SOL    HW129333   2.728   2.692   9.360  0.6139  1.0844 -2.3907
 5958SOL    HW229334   2.609   2.661   9.275 -1.6631  0.0878  0.1117
 5959SOL     OW29335   1.077   4.031   0.313 -0.3848  0.1617 -0.3087
 5959SOL    HW129336   1.029   4.071   0.385  0.0294 -1.4907  0.8871
 5959SOL    HW229337   1.033   4.085   0.247 -0.5862  0.9922  0.5203
 5960SOL     OW29338   2.853   2.814  15.327 -0.4810  0.6339  0.3216
 5960SOL    HW129339   2.776   2.758  15.330 -0.8463  1.1419  0.4679
 5960SOL    HW229340   2.860   2.821  15.231  0.5268 -0.9261  0.2832
 5961SOL     OW29341   1.822   4.543   9.137  0.0964  0.1744 -0.5451
 5961SOL    HW129342   1.817   4.621   9.193  1.3555  1.9819 -2.9502
 5961SOL    HW229343   1.802   4.470   9.195  1.4254  1.3971  1.4726
 5962SOL     OW29344   2.027   2.742   3.641  0.1720  0.6246 -0.0269
 5962SOL    HW129345   2.050   2.714   3.729 -1.8234  1.6208  0.7908
 5962SOL    HW229346   2.066   2.670   3.592  0.1995  1.5933 -1.4405
 5963SOL     OW29347   0.073   0.850   0.584 -0.2291 -0.1067 -0.2618
 5963SOL    HW129348   0.016   0.774   0.577 -0.6492  0.2919 -1.1168
 5963SOL    HW229349   0.013   0.891   0.646 -0.6127 -0.1501 -0.6112
 5964SOL     OW29350   4.349   3.174  14.904  0.0860  0.3882 -0.0505
 5964SOL    HW129351   4.434   3.132  14.891  0.5692  0.6333  2.3678
 5964SOL    HW229352   4.290   3.105  14.872 -0.2880  0.0889  1.2847
 5965SOL     OW29353   0.165   4.523   5.378 -0.1116 -0.6892 -0.0566
 5965SOL    HW129354   0.163   4.431   5.404  1.3424 -0.8498 -0.5205
 5965SOL    HW229355   0.094   4.562   5.428  3.1635  1.6270  2.7997
 5966SOL     OW29356   4.345   0.978   5.863  0.6861 -0.1753 -0.6793
 5966SOL    HW129357   4.337   0.956   5.955  0.7525 -0.6566 -0.7901
 5966SOL    HW229358   4.403   1.052   5.879 -1.4942  2.1797 -3.5868
 5967SOL     OW29359   1.185   1.507   1.850 -0.0805 -0.9289 -0.0088
 5967SOL    HW129360   1.192   1.491   1.944  1.6608 -3.2601 -0.5512
 5967SOL    HW229361   1.175   1.417   1.820 -0.6325 -0.8977  0.0936
 5968SOL     OW29362   2.793   4.225   4.820  0.2136 -0.4764  0.1286
 5968SOL    HW129363   2.725   4.168   4.786  2.2524 -2.0907 -1.2084
 5968SOL    HW229364   2.744   4.305   4.843  0.2448 -0.1067 -1.0695
 5969SOL     OW29365   2.558   3.951   2.936 -0.1520 -0.0774  0.7840
 5969SOL    HW129366   2.538   3.860   2.962  0.1699  0.4104  2.7851
 5969SOL    HW229367   2.553   3.995   3.021 -0.0397 -2.2996  1.9741
 5970SOL     OW29368   4.577   1.792  16.382 -0.0825  0.5260 -0.0115
 5970SOL    HW129369   4.600   1.833  16.465  1.1170 -1.1511  0.4674
 5970SOL    HW229370   4.495   1.837  16.361 -1.8515 -1.0128  3.5862
 5971SOL     OW29371   1.857   1.623   8.494 -0.1264  0.2139 -0.0414
 5971SOL    HW129372   1.771   1.605   8.455  0.0806 -4.2824  1.5128
 5971SOL    HW229373   1.844   1.688   8.563  0.1296  0.7768 -0.5304
 5972SOL     OW29374   2.597   3.882   8.243 -0.0514  0.0422 -0.7296
 5972SOL    HW129375   2.551   3.813   8.289 -1.4746  0.1356 -2.0144
 5972SOL    HW229376   2.669   3.836   8.198 -1.0491 -0.5252 -1.7522
 5973SOL     OW29377   3.375   1.686   6.672 -0.8413 -0.2186  0.3840
 5973SOL    HW129378   3.336   1.634   6.601 -0.6317 -1.1026  0.9143
 5973SOL    HW229379   3.430   1.613   6.701  0.7542  1.0428  0.5481
 5974SOL     OW29380   2.599   4.489   3.244 -0.8440 -0.0642  0.0894
 5974SOL    HW129381   2.622   4.413   3.191  1.0813 -0.9677  2.1906
 5974SOL    HW229382   2.505   4.500   3.230 -0.5579  1.6868 -0.3983
 5975SOL     OW29383   4.346   3.378   0.518  0.0306 -0.0992 -0.0064
 5975SOL    HW129384   4.367   3.286   0.528 -0.0046  0.0165  1.1466
 5975SOL    HW229385   4.253   3.359   0.532 -0.5968  2.9738  0.0082
 5976SOL     OW29386   2.422   1.617   7.883  0.1488  0.4976  0.1988
 5976SOL    HW129387   2.374   1.624   7.965  0.7335 -0.0716  0.5870
 5976SOL    HW229388   2.429   1.709   7.857  0.0770 -0.3278 -2.8486
 5977SOL     OW29389   4.402   1.035   4.730  0.3878  0.0451  0.1017
 5977SOL    HW129390   4.366   1.115   4.767  1.7648 -0.7205  3.1466
 5977SOL    HW229391   4.445   1.074   4.654  0.6345 -0.8549 -0.2148
 5978SOL     OW29392   0.822   0.176   1.560 -0.0132 -0.1307  0.0529
 5978SOL    HW129393   0.736   0.213   1.578 -0.1700  0.8337 -2.6633
 5978SOL    HW229394   0.800   0.088   1.590  0.5034 -0.7387 -1.3050
 5979SOL     OW29395   3.197   2.954   8.150 -0.6035 -0.3894  0.0447
 5979SOL    HW129396   3.244   2.889   8.098  0.5789  0.4317  0.0852
 5979SOL    HW229397   3.218   3.038   8.108 -0.4782 -1.6212 -2.3308
 5980SOL     OW29398   1.890   1.598  13.001  0.3654  0.4325 -0.8033
 5980SOL    HW129399   1.942   1.664  13.047  1.2291 -0.0194 -1.1402
 5980SOL    HW229400   1.949   1.523  12.995 -1.3765 -0.9646 -0.2903
 5981SOL     OW29401   0.637   1.866   1.159  0.1157 -0.3037  0.0704
 5981SOL    HW129402   0.583   1.846   1.082  1.0622  0.0423 -0.6922
 5981SOL    HW229403   0.616   1.959   1.168 -0.9121 -0.6063  0.7870
 5982SOL     OW29404   0.017   0.245  15.663  0.3856  0.1643  0.4934
 5982SOL    HW129405   0.055   0.333  15.666 -0.2426  0.4097  1.2254
 5982SOL    HW229406   4.703   0.251  15.574  1.0121  1.2119  0.3192
 5983SOL     OW29407   0.330   2.005   8.530  0.2249 -0.4468  0.1470
 5983SOL    HW129408   0.384   2.081   8.555  0.2482 -0.1155 -0.9181
 5983SOL    HW229409   0.352   2.004   8.437 -0.0549 -0.9535  0.0882
 5984SOL     OW29410   3.021   1.766  15.334  0.4067  0.4867 -0.2529
 5984SOL    HW129411   3.094   1.739  15.278 -0.2905 -0.2619 -0.8049
 5984SOL    HW229412   3.058   1.763  15.422 -4.3432 -0.4927  1.7081
 5985SOL     OW29413   3.998   2.924   3.301  0.6131  0.7503  0.1713
 5985SOL    HW129414   3.931   2.950   3.364 -0.8979 -3.1559  0.1886
 5985SOL    HW229415   4.048   3.005   3.289  0.9376  0.8708  2.3242
 5986SOL     OW29416   1.114   0.125   3.468  0.3880 -0.3305  0.2050
 5986SOL    HW129417   1.203   0.160   3.467 -0.3657  1.5660  0.7433
 5986SOL    HW229418   1.120   0.055   3.533  1.9499  0.9187  1.3960
 5987SOL     OW29419   3.858   1.359   3.112  0.4266  0.4171 -0.6697
 5987SOL    HW129420   3.883   1.452   3.121  1.3428  0.3814 -2.6569
 5987SOL    HW229421   3.829   1.345   3.022 -1.8903 -0.8491  0.2832
 5988SOL     OW29422   3.157   2.113   9.065 -0.0202 -0.1875  0.0248
 5988SOL    HW129423   3.141   2.046   9.131 -0.6791 -1.9060 -1.8985
 5988SOL    HW229424   3.160   2.189   9.124  1.0433 -0.3054  0.1246
 5989SOL     OW29425   1.398   4.457   7.662 -0.2976 -0.0621 -0.1046
 5989SOL    HW129426   1.449   4.502   7.729 -0.4480 -1.5705  1.0344
 5989SOL    HW229427   1.456   4.381   7.653  1.1879  1.0575  0.0687
 5990SOL     OW29428   3.588   3.782   4.918  0.4522  0.0203 -0.2123
 5990SOL    HW129429   3.496   3.764   4.938  0.5798 -1.6963 -1.2035
 5990SOL    HW229430   3.587   3.877   4.925  0.2321 -0.0896  1.3235
 5991SOL     OW29431   1.888   2.345  11.778 -0.0703 -0.1981  0.3737
 5991SOL    HW129432   1.871   2.302  11.694 -1.5479 -0.3059  0.7227
 5991SOL    HW229433   1.981   2.324  11.774 -0.1208 -0.2117 -0.7392
 5992SOL     OW29434   4.191   0.381  17.248  0.2629 -0.1229  0.3798
 5992SOL    HW129435   4.285   0.366  17.254 -0.0852 -0.9508  3.9111
 5992SOL    HW229436   4.183   0.350  17.158  0.6699 -0.7109  0.5443
 5993SOL     OW29437   4.360   0.220  12.490 -0.5597 -0.6544  0.5447
 5993SOL    HW129438   4.394   0.131  12.493  1.4537  0.1383  1.2842
 5993SOL    HW229439   4.413   0.256  12.561  0.3313 -1.4105  0.2672
 5994SOL     OW29440   1.025   3.576   6.623  0.0321  0.5721  0.5132
 5994SOL    HW129441   1.117   3.549   6.622  0.0128  0.5624 -1.1019
 5994SOL    HW229442   0.997   3.568   6.531  1.0846 -0.5582  0.2839
 5995SOL     OW29443   4.124   2.823   6.762 -0.0030 -0.3263  0.4580
 5995SOL    HW129444   4.203   2.793   6.807  0.9124  0.0608 -0.8924
 5995SOL    HW229445   4.146   2.795   6.673 -1.0998  1.4899 -0.3702
 5996SOL     OW29446   2.764   0.913  14.910 -0.0587  0.0180  0.5423
 5996SOL    HW129447   2.833   0.954  14.859 -0.1467  0.6735  0.9500
 5996SOL    HW229448   2.803   0.946  14.990 -1.9576  1.8512  0.7014
 5997SOL     OW29449   4.331   3.237  12.812 -0.4316  0.2525  0.9511
 5997SOL    HW129450   4.275   3.174  12.859 -1.7913 -2.0746 -3.7580
 5997SOL    HW229451   4.369   3.286  12.884  0.0943 -0.5125  1.1892
 5998SOL     OW29452   4.048   2.301  15.732  0.2782 -0.0925 -0.5424
 5998SOL    HW129453   3.993   2.378  15.745 -0.3995 -0.8853  1.1339
 5998SOL    HW229454   4.039   2.279  15.639 -0.1292  0.5038 -0.6442
 5999SOL     OW29455   1.683   1.536   2.866  0.3602 -0.3650  0.0733
 5999SOL    HW129456   1.777   1.547   2.852  0.4494 -0.3941  0.6534
 5999SOL    HW229457   1.659   1.476   2.795  0.2373 -0.0826 -0.1207
 6000SOL     OW29458   3.029   3.896  12.052  0.7666 -0.3886  0.7328
 6000SOL    HW129459   3.065   3.978  12.020  0.7849 -0.6641  0.0475
 6000SOL    HW229460   3.073   3.883  12.136 -0.6577  2.1320  1.8770
 6001SOL     OW29461   3.136   1.426   0.425 -0.6423 -0.5267 -0.0135
 6001SOL    HW129462   3.145   1.488   0.497 -1.4841 -0.1801 -0.2100
 6001SOL    HW229463   3.208   1.457   0.370 -2.7274  2.7410 -0.8805
 6002SOL     OW29464   2.998   3.803  15.254 -0.8665  0.7142 -0.1156
 6002SOL    HW129465   2.955   3.783  15.171  0.3685 -0.0359 -0.5759
 6002SOL    HW229466   2.934   3.872  15.272 -1.8965  0.2211 -1.9386
 6003SOL     OW29467   2.578   3.338   5.741  0.5366  0.2256 -0.4213
 6003SOL    HW129468   2.664   3.381   5.737  1.7351 -2.2873 -1.2393
 6003SOL    HW229469   2.531   3.384   5.811  1.5006 -0.2581  0.5298
 6004SOL     OW29470   0.188   4.659   7.015  0.0971  0.4471 -0.7487
 6004SOL    HW129471   0.125   4.699   7.075 -0.9498 -2.9619  0.4356
 6004SOL    HW229472   0.159   4.568   7.014  1.0679  0.1103  1.4743
 6005SOL     OW29473   0.009   0.096  12.931  0.3170  0.6151  0.1208
 6005SOL    HW129474   4.676   0.123  12.857 -0.3323  1.3863  0.8825
 6005SOL    HW229475   0.088   0.071  12.882 -0.9627  0.5393 -1.9115
 6006SOL     OW29476   4.311   1.615  16.232 -0.5138  0.0094  0.4968
 6006SOL    HW129477   4.296   1.700  16.191 -4.3563  0.0112  1.9196
 6006SOL    HW229478   4.401   1.598  16.204 -0.1505  1.3168  0.8746
 6007SOL     OW29479   1.372   4.577   6.987 -0.2791  0.1813 -0.5795
 6007SOL    HW129480   1.295   4.621   7.025  0.4930  0.4867  0.6366
 6007SOL    HW229481   1.350   4.487   7.011  0.7083 -0.2047 -1.1536
 6008SOL     OW29482   4.676   3.217   0.459 -0.1541  0.1181 -0.5486
 6008SOL    HW129483   4.665   3.218   0.363 -0.5387  0.6657 -0.5027
 6008SOL    HW229484   4.613   3.149   0.483 -0.2649  0.8230  1.1720
 6009SOL     OW29485   2.741   2.021   5.474 -0.0264 -0.2200  0.0908
 6009SOL    HW129486   2.789   1.939   5.482 -0.0088 -0.3771 -1.5317
 6009SOL    HW229487   2.782   2.072   5.544  2.8016  0.5373 -2.1038
 6010SOL     OW29488   1.083   0.999   2.717  0.1657 -0.2220 -0.2402
 6010SOL    HW129489   1.053   1.052   2.643  1.3264  1.9943  0.8529
 6010SOL    HW229490   1.139   1.065   2.758  1.4492 -1.6038  0.2120
 6011SOL     OW29491   3.571   2.602   7.369 -0.1159  0.4390  0.6354
 6011SOL    HW129492   3.551   2.696   7.378 -4.5802 -0.5420  1.2557
 6011SOL    HW229493   3.554   2.573   7.459  1.2302 -1.2734  0.3456
 6012SOL     OW29494   2.665   2.380   7.024  0.2690  0.1287  0.1294
 6012SOL    HW129495   2.715   2.336   7.093 -2.0766 -1.0152  1.0966
 6012SOL    HW229496   2.712   2.462   7.040  0.6978  0.1637 -1.3037
 6013SOL     OW29497   2.161   3.910   8.894  0.5110 -0.1314 -0.2773
 6013SOL    HW129498   2.197   3.924   8.807  0.1601 -0.0245 -0.4053
 6013SOL    HW229499   2.240   3.904   8.948  1.5211  1.2379 -1.6149
 6014SOL     OW29500   4.565   3.580   4.017 -0.2881 -0.0229  0.5711
 6014SOL    HW129501   4.565   3.652   3.954  0.4972 -0.9699 -0.5232
 6014SOL    HW229502   4.517   3.617   4.091 -1.4730 -1.6896  0.6387
 6015SOL     OW29503   0.474   0.775   8.109 -0.0246 -0.0545 -0.8568
 6015SOL    HW129504   0.394   0.726   8.092  0.4382 -0.1306 -2.8633
 6015SOL    HW229505   0.441   0.860   8.139 -0.9366 -1.4402  2.0747
 6016SOL     OW29506   0.801   2.666   4.605  1.0645  0.1764  0.1907
 6016SOL    HW129507   0.857   2.640   4.532 -1.1280 -0.9717 -1.0580
 6016SOL    HW229508   0.806   2.589   4.662 -0.5242  0.1959  0.3398
 6017SOL     OW29509   4.320   2.177   2.910 -0.3463 -0.5875  0.1597
 6017SOL    HW129510   4.332   2.257   2.860  0.4535 -0.5628  0.3960
 6017SOL    HW229511   4.397   2.123   2.890  1.1972  0.9580  1.9863
 6018SOL     OW29512   4.158   2.564   3.524  0.1246 -0.2468 -0.0230
 6018SOL    HW129513   4.113   2.482   3.541  1.0171 -0.1308  3.0011
 6018SOL    HW229514   4.095   2.629   3.555 -1.5321 -2.0925  0.4136
 6019SOL     OW29515   4.648   2.314   5.695  0.0926  0.2533  0.1038
 6019SOL    HW129516   4.605   2.319   5.609  0.2902 -0.8631 -0.0592
 6019SOL    HW229517   4.647   2.404   5.729  2.1231  0.6244 -0.8009
 6020SOL     OW29518   0.690   0.226   4.107  0.0363  0.1280 -0.0507
 6020SOL    HW129519   0.627   0.154   4.112 -0.4591  0.5797  0.1374
 6020SOL    HW229520   0.773   0.187   4.136 -0.7914 -1.0860  0.6733
 6021SOL     OW29521   3.212   3.606   2.442 -0.3286 -0.9799 -0.1769
 6021SOL    HW129522   3.268   3.550   2.389 -1.0827 -0.4078 -1.5968
 6021SOL    HW229523   3.216   3.566   2.528 -1.0301 -0.3659  0.1427
 6022SOL     OW29524   0.861   3.879   8.793 -0.0593  0.2185  0.3622
 6022SOL    HW129525   0.864   3.933   8.872  0.2959  0.7243  0.0050
 6022SOL    HW229526   0.856   3.946   8.725 -0.2432  1.0763  1.2246
 6023SOL     OW29527   0.602   2.519  13.379  0.2298  1.2012  0.5428
 6023SOL    HW129528   0.536   2.514  13.448  2.7899 -2.2742  2.6991
 6023SOL    HW229529   0.542   2.510  13.305  0.9377  2.0423 -0.1492
 6024SOL     OW29530   0.481   1.854   3.393  0.0763 -0.2868 -0.1662
 6024SOL    HW129531   0.535   1.779   3.366  0.3586  0.6207 -2.1140
 6024SOL    HW229532   0.548   1.914   3.425 -2.9731  2.9949 -0.0218
 6025SOL     OW29533   4.001   4.147  10.966 -0.1899  0.1114 -0.3229
 6025SOL    HW129534   4.085   4.142  10.920  0.4115 -2.0985  0.9961
 6025SOL    HW229535   3.938   4.171  10.897 -1.2467 -0.3243  0.4805
 6026SOL     OW29536   0.205   0.304   9.646 -0.2372 -0.1660  0.0064
 6026SOL    HW129537   0.270   0.243   9.613  0.4912  0.9221 -0.5733
 6026SOL    HW229538   0.196   0.337   9.556  0.7779 -1.0611 -0.4180
 6027SOL     OW29539   1.588   1.754   9.458 -0.4400  0.8341  0.0333
 6027SOL    HW129540   1.611   1.712   9.541  0.7017  1.2804 -0.0557
 6027SOL    HW229541   1.551   1.679   9.412 -0.7940  0.1989  1.3770
 6028SOL     OW29542   1.603   3.735   7.349 -0.1858 -0.6949 -0.2071
 6028SOL    HW129543   1.609   3.816   7.400  0.3642  0.3337 -1.8894
 6028SOL    HW229544   1.566   3.767   7.267 -0.0090 -0.6493 -0.2696
 6029SOL     OW29545   4.387   2.832   0.660 -0.1111  0.2448  0.7485
 6029SOL    HW129546   4.456   2.766   0.653 -1.0227 -0.6275  0.0830
 6029SOL    HW229547   4.326   2.770   0.701 -1.1234  1.0573  0.4650
 6030SOL     OW29548   0.725   3.609  12.458 -0.4784 -0.0272 -0.3693
 6030SOL    HW129549   0.813   3.616  12.497 -1.0897  0.3295  0.9479
 6030SOL    HW229550   0.722   3.683  12.397  0.5272  0.4886  0.1890
 6031SOL     OW29551   4.481   2.887  13.261  0.0253  0.3190 -0.1547
 6031SOL    HW129552   4.492   2.881  13.356  0.5193  0.1809 -0.2156
 6031SOL    HW229553   4.562   2.841  13.236  0.1904  0.7026 -0.3163
 6032SOL     OW29554   0.511   2.605   3.834  0.3131  0.4562 -0.4185
 6032SOL    HW129555   0.509   2.519   3.793  1.1104  0.3697 -0.2798
 6032SOL    HW229556   0.462   2.654   3.767 -1.6979  0.1741  0.8712
 6033SOL     OW29557   4.127   4.461  16.549 -0.0680 -0.1171  0.1818
 6033SOL    HW129558   4.093   4.490  16.634  1.3463 -0.3452  0.8268
 6033SOL    HW229559   4.040   4.453  16.509 -0.2682 -0.7048  0.7285
 6034SOL     OW29560   1.773   1.958   9.515 -0.0331 -1.0050  0.0800
 6034SOL    HW129561   1.713   1.893   9.478 -0.0371 -1.1507  0.3458
 6034SOL    HW229562   1.714   2.016   9.563 -1.5444 -2.2419 -0.2732
 6035SOL     OW29563   2.240   0.977  10.247  0.5955  0.9411 -0.3285
 6035SOL    HW129564   2.291   0.924  10.308 -1.2600 -1.5325 -0.9107
 6035SOL    HW229565   2.307   1.027  10.200  0.5173 -0.2979 -1.7763
 6036SOL     OW29566   0.277   2.274   6.278 -0.2594  0.5821 -0.0775
 6036SOL    HW129567   0.278   2.262   6.183  1.9350  2.2387 -0.2486
 6036SOL    HW229568   0.367   2.304   6.290  0.2677 -0.7317 -0.6980
 6037SOL     OW29569   2.214   4.497  11.630  0.7740 -0.3361 -0.6504
 6037SOL    HW129570   2.223   4.590  11.652 -0.9490  0.0366 -1.5477
 6037SOL    HW229571   2.163   4.505  11.549  0.5735 -2.4906 -0.7476
 6038SOL     OW29572   3.557   4.065   8.689  0.0122 -0.1870 -0.2730
 6038SOL    HW129573   3.468   4.041   8.715  1.1826 -1.0275  2.9184
 6038SOL    HW229574   3.593   3.978   8.706  0.5347  0.2741  1.0063
 6039SOL     OW29575   1.092   1.568   3.345  0.3533  0.7853 -0.4089
 6039SOL    HW129576   1.022   1.583   3.408  1.4732  0.6933  0.8681
 6039SOL    HW229577   1.154   1.639   3.365  1.3615 -0.1258 -0.2804
 6040SOL     OW29578   2.260   0.623   3.437 -0.2293  0.3280 -0.7680
 6040SOL    HW129579   2.264   0.558   3.508 -2.1886  0.2377 -0.7531
 6040SOL    HW229580   2.216   0.575   3.367 -1.6420  0.4036  0.0638
 6041SOL     OW29581   0.711   3.378   4.952 -0.4778  0.1862 -0.4105
 6041SOL    HW129582   0.641   3.382   5.016 -0.7554 -1.9525 -0.6131
 6041SOL    HW229583   0.704   3.293   4.909 -1.5585  0.1641 -0.1721
 6042SOL     OW29584   4.678   2.671   2.489  0.3727 -0.3442  0.0214
 6042SOL    HW129585   4.667   2.752   2.538 -2.6871 -0.4434 -0.4735
 6042SOL    HW229586   0.038   2.690   2.441 -1.0318  1.7654 -1.5072
 6043SOL     OW29587   1.315   3.125  12.925  0.4804 -0.2612 -0.1409
 6043SOL    HW129588   1.327   3.108  12.831 -1.4134 -1.3893 -0.2010
 6043SOL    HW229589   1.236   3.180  12.924 -0.2180 -1.2749 -2.1252
 6044SOL     OW29590   1.461   2.326   3.503  0.1129 -0.0786 -0.1152
 6044SOL    HW129591   1.535   2.280   3.464 -0.4713 -0.1861 -1.0886
 6044SOL    HW229592   1.435   2.258   3.565 -0.2822 -1.4275 -1.7736
 6045SOL     OW29593   0.118   4.715   7.799  0.0108  0.1170  0.2700
 6045SOL    HW129594   0.041   4.663   7.822  0.9006 -0.2862  2.3536
 6045SOL    HW229595   0.121   0.062   7.866 -0.0769  2.9152 -2.5923
 6046SOL     OW29596   0.118   3.393   3.030 -0.3214  0.0265  0.4200
 6046SOL    HW129597   0.144   3.473   2.984 -1.8935  0.8244  0.8984
 6046SOL    HW229598   0.023   3.406   3.027 -0.2592  0.1983 -0.5357
 6047SOL     OW29599   3.344   2.048  15.338  0.8135  0.9208  0.1355
 6047SOL    HW129600   3.278   2.106  15.301  0.4356 -0.6000 -1.5812
 6047SOL    HW229601   3.423   2.102  15.332  1.8979 -0.3835  2.7408
 6048SOL     OW29602   3.365   2.981   4.555  0.4203  0.2295 -0.5647
 6048SOL    HW129603   3.416   3.004   4.633  0.9035  0.9776 -1.0857
 6048SOL    HW229604   3.408   2.905   4.517  1.0146  0.1218  0.3383
 6049SOL     OW29605   0.550   2.184   6.828  0.6701 -0.1209  0.1922
 6049SOL    HW129606   0.636   2.142   6.835 -0.4296 -2.4826 -0.4865
 6049SOL    HW229607   0.517   2.139   6.750  0.1286  2.1438 -0.8910
 6050SOL     OW29608   1.548   0.068   8.060 -0.4130 -0.3161  0.2727
 6050SOL    HW129609   1.616   0.131   8.080 -1.7167  1.5683 -1.2581
 6050SOL    HW229610   1.520   0.051   8.150  1.7954 -0.2068  0.9696
 6051SOL     OW29611   2.560   1.073   2.869 -0.3453  0.6135  0.4140
 6051SOL    HW129612   2.637   1.071   2.812 -2.1008 -0.8722 -1.9199
 6051SOL    HW229613   2.580   1.150   2.922 -0.9195  0.5427  0.7360
 6052SOL     OW29614   0.027   0.292   4.990  0.0227 -0.1279 -0.8196
 6052SOL    HW129615   4.714   0.342   4.916  1.6994 -1.0033 -2.1902
 6052SOL    HW229616   4.711   0.206   4.971  0.4439 -0.2104 -1.2720
 6053SOL     OW29617   4.095   1.478   5.855  0.0687 -0.2308 -0.0519
 6053SOL    HW129618   4.059   1.480   5.944 -0.9441  0.7214 -0.4852
 6053SOL    HW229619   4.178   1.519   5.880  0.4656 -1.7005  1.0493
 6054SOL     OW29620   2.645   1.622   8.497 -0.0392 -0.0378 -0.2260
 6054SOL    HW129621   2.607   1.538   8.521  0.2068 -0.0587  0.0928
 6054SOL    HW229622   2.589   1.673   8.554  1.0551 -0.3810  1.1542
 6055SOL     OW29623   1.284   4.165  16.894 -0.5799  0.1706  0.1383
 6055SOL    HW129624   1.342   4.091  16.911 -1.6267 -0.3997  1.1924
 6055SOL    HW229625   1.351   4.224  16.859  0.3008 -1.1010 -0.2912
 6056SOL     OW29626   3.934   1.992   7.141 -0.1288  0.2435 -0.4662
 6056SOL    HW129627   3.839   1.986   7.154 -0.2297  1.3026 -0.7170
 6056SOL    HW229628   3.914   2.024   7.053  2.3125  2.0939 -0.3472
 6057SOL     OW29629   4.185   0.591   3.303  0.7382 -0.1054  0.1772
 6057SOL    HW129630   4.237   0.522   3.263 -0.2714  0.4589 -2.0838
 6057SOL    HW229631   4.165   0.648   3.229 -1.8896 -0.0808  0.9038
 6058SOL     OW29632   0.075   1.225   6.330 -0.1404  0.4748  0.4080
 6058SOL    HW129633   0.094   1.216   6.236 -0.8125 -4.3294  0.7353
 6058SOL    HW229634   0.162   1.253   6.357  0.2060 -0.5405  0.3448
 6059SOL     OW29635   2.962   0.133   5.789 -0.2226 -0.5782  0.0653
 6059SOL    HW129636   2.944   0.177   5.706  2.7101  1.6316  0.5816
 6059SOL    HW229637   2.995   0.049   5.757 -0.1986 -0.4360 -0.2841
 6060SOL     OW29638   2.707   0.076   7.904 -0.0426  0.4387 -0.5789
 6060SOL    HW129639   2.652   0.152   7.885 -0.5828 -0.0451 -0.9683
 6060SOL    HW229640   2.652   0.010   7.860  0.7993 -0.3484 -0.4708
 6061SOL     OW29641   3.713   0.512   6.466  0.6231 -0.4186 -0.5186
 6061SOL    HW129642   3.745   0.568   6.536 -1.7816 -0.0101  0.2453
 6061SOL    HW229643   3.777   0.440   6.467 -1.3446 -2.1571  1.1709
 6062SOL     OW29644   0.170   1.825   3.002 -0.4487 -0.0184 -0.4693
 6062SOL    HW129645   0.226   1.900   3.023 -2.9294  1.4554  0.8433
 6062SOL    HW229646   0.170   1.838   2.908 -0.8403  0.4850 -0.3956
 6063SOL     OW29647   3.847   0.844   9.649  0.4933 -0.8184 -0.6424
 6063SOL    HW129648   3.813   0.758   9.674  1.9661 -1.2850 -0.2751
 6063SOL    HW229649   3.812   0.847   9.560  1.0182  1.5528 -0.7854
 6064SOL     OW29650   4.078   3.898   2.485  0.3860  0.3651 -0.3727
 6064SOL    HW129651   3.986   3.869   2.482  1.6790 -3.7986  0.0445
 6064SOL    HW229652   4.110   3.871   2.399  2.3391 -0.6605  0.6774
 6065SOL     OW29653   0.636   1.148   8.470 -0.3112  0.5158 -0.2426
 6065SOL    HW129654   0.675   1.061   8.466 -0.7342  0.3957 -1.9559
 6065SOL    HW229655   0.551   1.127   8.509 -0.4636  2.4156  0.4306
 6066SOL     OW29656   2.797   4.625   1.721  0.2730  0.2456  0.2646
 6066SOL    HW129657   2.761   4.538   1.739 -1.1609  0.6440 -0.6886
 6066SOL    HW229658   2.716   4.662   1.686 -0.0598 -2.0096 -1.3493
 6067SOL     OW29659   3.104   3.154   6.330  0.0001 -0.1421  0.1750
 6067SOL    HW129660   3.174   3.219   6.338  0.5574 -0.4122 -2.5124
 6067SOL    HW229661   3.034   3.208   6.368  1.5544  3.2525 -1.8313
 6068SOL     OW29662   1.245   3.240  16.662 -0.0716  0.3348  0.5848
 6068SOL    HW129663   1.255   3.296  16.739 -0.1153 -1.4625  1.8843
 6068SOL    HW229664   1.320   3.182  16.670 -1.0470 -0.8196  1.2444
 6069SOL     OW29665   0.888   0.211  11.441  0.3422 -0.1986  0.5638
 6069SOL    HW129666   0.857   0.128  11.479 -0.0727  0.1977  1.0990
 6069SOL    HW229667   0.808   0.222  11.391  0.1035 -2.3089  0.4803
 6070SOL     OW29668   1.883   3.109  10.790  0.4826  0.0292  0.2791
 6070SOL    HW129669   1.947   3.100  10.720  2.2008 -0.7581  1.9588
 6070SOL    HW229670   1.919   3.194  10.814  1.8931 -0.4131 -0.3107
 6071SOL     OW29671   2.433   1.858  13.270  0.5321 -0.4050 -0.3271
 6071SOL    HW129672   2.459   1.789  13.332  3.1686  1.8406  1.0603
 6071SOL    HW229673   2.497   1.926  13.292 -0.3765 -0.1617  1.4806
 6072SOL     OW29674   1.241   3.997   8.070  0.0637  0.8126  0.1418
 6072SOL    HW129675   1.297   4.015   8.146 -1.1661  2.5297  0.6449
 6072SOL    HW229676   1.171   3.942   8.105 -1.5554  2.8282  0.0405
 6073SOL     OW29677   1.526   4.419  15.939  0.2061 -1.0126  0.1296
 6073SOL    HW129678   1.519   4.351  15.872 -1.7829  0.6240 -1.3365
 6073SOL    HW229679   1.566   4.484  15.882  1.1975 -1.2488  0.5600
 6074SOL     OW29680   1.596   4.225   4.399 -0.7568  0.4805 -0.5953
 6074SOL    HW129681   1.575   4.174   4.322 -0.2175  1.3562 -1.3303
 6074SOL    HW229682   1.558   4.163   4.461 -0.3784 -2.3722 -3.2811
 6075SOL     OW29683   3.100   2.980  10.343  0.5058 -0.4511 -0.3478
 6075SOL    HW129684   3.093   2.891  10.375  3.2775 -0.1049  1.1622
 6075SOL    HW229685   3.147   3.019  10.416  0.3629 -0.3067 -0.3321
 6076SOL     OW29686   2.611   0.923  15.813  0.2113 -0.1518  0.3780
 6076SOL    HW129687   2.534   0.869  15.792  1.1974 -0.4970 -2.3471
 6076SOL    HW229688   2.613   0.995  15.749 -0.2056 -1.0456 -0.6408
 6077SOL     OW29689   4.554   0.737  13.168  0.0429  0.2237 -0.3763
 6077SOL    HW129690   4.518   0.661  13.213 -1.9788  2.2852  1.5459
 6077SOL    HW229691   4.640   0.706  13.142 -0.0897 -0.9587  0.5930
 6078SOL     OW29692   2.165   1.106  16.444  0.1418  0.3429  0.5298
 6078SOL    HW129693   2.242   1.068  16.402  0.1185  0.6799  0.1824
 6078SOL    HW229694   2.157   1.038  16.512  0.1761  0.7006  0.8904
 6079SOL     OW29695   2.407   2.596  12.584 -0.3773 -0.0829 -0.4966
 6079SOL    HW129696   2.459   2.515  12.579 -1.1864 -0.5315 -1.6950
 6079SOL    HW229697   2.368   2.592  12.671  0.4250 -0.5567 -0.1593
 6080SOL     OW29698   0.300   0.830   4.609  0.0358  0.0074  0.0093
 6080SOL    HW129699   0.340   0.810   4.694 -0.3093  4.5388  1.2846
 6080SOL    HW229700   0.212   0.851   4.643  0.4039  1.4964  0.0621
 6081SOL     OW29701   4.629   2.383   0.374  0.0086 -0.0123  0.4933
 6081SOL    HW129702   4.694   2.405   0.307 -0.3525 -1.7469 -0.4189
 6081SOL    HW229703   4.672   2.326   0.438 -0.8553  0.8561  1.8534
 6082SOL     OW29704   2.598   1.734   1.810 -0.5901 -0.1248 -0.1087
 6082SOL    HW129705   2.645   1.719   1.892 -2.6910 -1.1107  0.9264
 6082SOL    HW229706   2.632   1.822   1.795 -2.5688  0.7723  0.6801
 6083SOL     OW29707   4.564   3.498   6.237  0.2536 -0.1442  0.3042
 6083SOL    HW129708   4.645   3.539   6.209  1.0334 -1.9479 -0.1020
 6083SOL    HW229709   4.513   3.487   6.156 -0.8294 -0.6539  1.0491
 6084SOL     OW29710   0.843   0.743   3.411 -0.1147 -0.1655 -0.0543
 6084SOL    HW129711   0.929   0.776   3.385  1.2728 -2.1558  2.0186
 6084SOL    HW229712   0.868   0.707   3.496  0.6323 -1.0571 -0.6554
 6085SOL     OW29713   3.316   3.952   8.845  0.1328  0.1063 -0.5928
 6085SOL    HW129714   3.234   4.001   8.840 -0.0905 -0.1042  0.9536
 6085SOL    HW229715   3.298   3.884   8.910 -1.2860  2.0034  0.9888
 6086SOL     OW29716   4.001   2.128   4.171 -0.4982 -0.0903 -0.6709
 6086SOL    HW129717   4.010   2.047   4.221  1.3089 -0.0060 -0.8728
 6086SOL    HW229718   3.933   2.171   4.223  0.3849  0.5015 -0.0147
 6087SOL     OW29719   2.071   3.331   3.241 -0.4959  0.0774 -0.0785
 6087SOL    HW129720   1.984   3.351   3.208 -0.5452  0.3765  0.2301
 6087SOL    HW229721   2.066   3.243   3.279  1.0565  0.4154  0.9178
 6088SOL     OW29722   0.765   3.042   2.794 -0.3915 -0.9573 -0.1765
 6088SOL    HW129723   0.813   2.991   2.858 -0.2964 -1.2594 -0.4911
 6088SOL    HW229724   0.763   2.987   2.716 -1.4685 -0.6381 -0.3877
 6089SOL     OW29725   0.949   3.061   6.635  0.0549  0.2492 -0.2781
 6089SOL    HW129726   0.971   3.147   6.671 -1.7360  1.0603 -1.1929
 6089SOL    HW229727   0.860   3.081   6.609 -0.3306 -0.2705  0.6309
 6090SOL     OW29728   1.950   3.353   3.584 -0.0173  0.0846  0.1305
 6090SOL    HW129729   1.942   3.316   3.672  1.1873 -0.3757  0.0404
 6090SOL    HW229730   2.032   3.401   3.597  1.3252 -1.3084 -3.1554
 6091SOL     OW29731   3.794   2.349   6.985 -0.2465 -0.2162  0.3799
 6091SOL    HW129732   3.781   2.372   7.077 -0.8555 -0.8591  0.4570
 6091SOL    HW229733   3.888   2.334   6.977 -0.3927 -0.4524 -0.9123
 6092SOL     OW29734   2.650   0.745   4.129  0.0776  0.5341  0.4538
 6092SOL    HW129735   2.625   0.691   4.204 -1.5640  0.3765 -0.2174
 6092SOL    HW229736   2.735   0.713   4.098 -0.5593 -1.2678  0.6035
 6093SOL     OW29737   0.342   2.894   5.501 -0.2529  0.0458 -0.1306
 6093SOL    HW129738   0.344   2.802   5.528 -2.3559 -0.0428 -0.2798
 6093SOL    HW229739   0.384   2.932   5.579 -0.5951  2.0651 -0.9221
 6094SOL     OW29740   4.669   2.797   5.461  0.5881 -0.8081  0.2486
 6094SOL    HW129741   4.670   2.720   5.404 -1.3048 -0.6988  0.0593
 6094SOL    HW229742   4.716   2.850   5.398 -0.1890 -0.9798 -0.4814
 6095SOL     OW29743   0.181   4.698  12.738 -0.0277 -0.5088  0.2199
 6095SOL    HW129744   0.252   4.719  12.677  1.6806 -0.7827  2.1122
 6095SOL    HW229745   0.208   4.608  12.758  1.5413 -0.5730 -2.1943
 6096SOL     OW29746   4.115   2.274  13.148  0.1586 -0.9275  0.3684
 6096SOL    HW129747   4.186   2.309  13.095 -0.0330 -0.1086  0.6564
 6096SOL    HW229748   4.133   2.181  13.159 -0.3602 -0.9199  1.3022
 6097SOL     OW29749   0.242   3.329   5.668 -0.2212  0.5644  0.3312
 6097SOL    HW129750   0.160   3.298   5.631  1.1121 -2.1659 -0.3377
 6097SOL    HW229751   0.290   3.350   5.588 -1.2262 -0.8092 -0.6165
 6098SOL     OW29752   2.949   2.945   1.794  0.3463  0.0580 -0.2233
 6098SOL    HW129753   2.864   2.901   1.788  1.3952 -2.2410  1.6944
 6098SOL    HW229754   2.987   2.901   1.717 -1.4305 -1.5798 -0.1681
 6099SOL     OW29755   0.075   2.983  11.402  0.1245 -0.5482 -0.2520
 6099SOL    HW129756   0.091   3.020  11.316  0.6396 -0.4226 -0.1039
 6099SOL    HW229757   0.146   3.022  11.453 -0.3237  0.4979 -0.4311
 6100SOL     OW29758   1.700   2.441   4.789  0.3217  0.3325  0.2866
 6100SOL    HW129759   1.735   2.357   4.758  0.9236  0.3120  1.0180
 6100SOL    HW229760   1.637   2.462   4.721  1.3080 -2.0590 -1.3735
 6101SOL     OW29761   2.469   2.918   2.320  0.0172  0.4386  0.1446
 6101SOL    HW129762   2.503   2.954   2.238 -0.5678  1.2122  0.2553
 6101SOL    HW229763   2.418   2.991   2.354 -0.1681  0.9711 -1.2986
 6102SOL     OW29764   2.698   3.695   0.794  0.1007 -0.3856  0.1418
 6102SOL    HW129765   2.679   3.615   0.746 -0.3683  0.5731 -1.2982
 6102SOL    HW229766   2.782   3.665   0.829 -0.6657 -2.4160  0.1832
 6103SOL     OW29767   1.764   3.046   2.433  0.2209 -0.2518  0.1173
 6103SOL    HW129768   1.734   3.079   2.518 -5.0125 -1.2581 -1.3204
 6103SOL    HW229769   1.831   3.108   2.404 -0.5242 -0.4710 -2.0113
 6104SOL     OW29770   2.272   1.495  11.455  0.2263  1.0067 -0.1231
 6104SOL    HW129771   2.350   1.547  11.475  0.3952  0.6178  0.2325
 6104SOL    HW229772   2.200   1.557  11.453  1.2367  2.2480  1.9831
 6105SOL     OW29773   1.997   0.909   7.560  0.3549  0.2693 -0.0280
 6105SOL    HW129774   2.089   0.917   7.533  0.3373 -0.8460 -0.4341
 6105SOL    HW229775   2.004   0.878   7.651 -0.4120 -0.5246 -0.2394
 6106SOL     OW29776   3.452   1.663   2.124  0.5800 -0.3393  0.0767
 6106SOL    HW129777   3.419   1.725   2.059  3.0874  0.8926 -0.0041
 6106SOL    HW229778   3.457   1.586   2.068  0.5264 -2.4912  3.0012
 6107SOL     OW29779   4.661   0.268   6.138  0.3952 -0.0162 -0.3827
 6107SOL    HW129780   4.645   0.178   6.111  1.6212 -0.6603  1.0522
 6107SOL    HW229781   0.030   0.274   6.105  0.7773  0.5650  0.7719
 6108SOL     OW29782   4.140   4.674   2.352 -0.2569 -0.2029 -0.1413
 6108SOL    HW129783   4.201   4.628   2.295  0.4110  0.8684 -0.2800
 6108SOL    HW229784   4.073   4.701   2.289  0.4038 -1.6797 -1.4853
 6109SOL     OW29785   1.012   1.351   5.234  0.5812 -0.5712 -0.0832
 6109SOL    HW129786   1.074   1.295   5.186 -0.5738 -0.3931 -1.7777
 6109SOL    HW229787   0.944   1.371   5.171 -0.4826 -1.4119  0.7981
 6110SOL     OW29788   3.506   2.571   2.957  0.6563 -1.2130  0.3785
 6110SOL    HW129789   3.543   2.547   2.872 -1.4008  0.2004 -0.9304
 6110SOL    HW229790   3.555   2.652   2.973 -0.3629 -1.0386  2.5393
 6111SOL     OW29791   1.480   2.197   6.249 -0.2435 -0.0113  0.3018
 6111SOL    HW129792   1.449   2.170   6.335  1.5741  0.8127  1.2257
 6111SOL    HW229793   1.506   2.110   6.219  0.0105 -0.0087  0.5159
 6112SOL     OW29794   0.287   2.024   1.867 -0.1232  0.6960 -0.0431
 6112SOL    HW129795   0.275   2.076   1.788  0.2842  1.9705  0.7262
 6112SOL    HW229796   0.251   2.092   1.924 -1.2180 -0.9882  1.2690
 6113SOL     OW29797   0.060   3.696   1.790  0.2843 -0.0607  0.1361
 6113SOL    HW129798   0.090   3.617   1.746 -0.7448  0.0153 -0.6984
 6113SOL    HW229799   0.113   3.762   1.745  1.6567 -1.7935 -0.7820
 6114SOL     OW29800   2.088   1.207   4.101 -0.2740  1.0460  0.1247
 6114SOL    HW129801   2.030   1.239   4.170 -2.4771 -1.3277 -0.6190
 6114SOL    HW229802   2.050   1.248   4.023 -0.7745  0.8485  0.2690
 6115SOL     OW29803   3.137   3.358  15.083 -1.0402  0.0852 -0.1068
 6115SOL    HW129804   3.081   3.384  15.156 -1.1982  1.1110 -0.5936
 6115SOL    HW229805   3.072   3.298  15.046  0.2759  1.4802 -4.7202
 6116SOL     OW29806   3.395   2.583  15.493  1.0467  0.0332 -0.4271
 6116SOL    HW129807   3.334   2.516  15.465  4.2750 -2.3401 -1.8221
 6116SOL    HW229808   3.332   2.655  15.496  2.8621  1.6931 -2.0624
 6117SOL     OW29809   1.919   4.089   4.627  0.0309 -0.1101 -0.3389
 6117SOL    HW129810   1.983   4.130   4.686 -1.3152  1.6145 -0.0861
 6117SOL    HW229811   1.854   4.159   4.626  0.2197 -0.0095 -4.4299
 6118SOL     OW29812   2.132   3.262   5.975  0.3230  0.2474 -0.1886
 6118SOL    HW129813   2.212   3.211   5.963  1.0406  1.0548  1.2010
 6118SOL    HW229814   2.124   3.295   5.885 -0.3981  0.7646  0.0629
 6119SOL     OW29815   0.502   1.880   2.768  0.0350  0.1218 -0.1471
 6119SOL    HW129816   0.547   1.864   2.685  0.7508 -0.7481  0.4150
 6119SOL    HW229817   0.422   1.926   2.744 -0.4657 -0.6551  0.0523
 6120SOL     OW29818   2.403   0.200   2.618  0.2878  0.2659 -0.0944
 6120SOL    HW129819   2.393   0.264   2.688 -0.8736 -1.7367  1.5872
 6120SOL    HW229820   2.496   0.201   2.598  0.3836  1.2536  0.4275
 6121SOL     OW29821   2.449   3.698   6.191 -0.2382  0.5188 -0.3243
 6121SOL    HW129822   2.415   3.613   6.162 -0.3554  0.6158 -0.4739
 6121SOL    HW229823   2.465   3.688   6.284  2.8555  2.8294 -0.6071
 6122SOL     OW29824   2.918   3.733   2.109  0.0888  0.5357 -0.9077
 6122SOL    HW129825   2.877   3.793   2.046 -1.7805  1.4998  1.2153
 6122SOL    HW229826   2.966   3.685   2.041  2.7860  0.0868  1.3125
 6123SOL     OW29827   2.241   3.534   4.580  0.5075  0.0660 -0.6023
 6123SOL    HW129828   2.336   3.548   4.578  0.1674  2.4689 -0.0953
 6123SOL    HW229829   2.241   3.440   4.601 -0.8882  0.0729 -0.5702
 6124SOL     OW29830   0.108   3.871  15.288 -0.0156 -0.0628  0.3590
 6124SOL    HW129831   0.182   3.922  15.256  0.4866 -0.2993  1.1625
 6124SOL    HW229832   0.056   3.850  15.210  0.4424  1.2231 -0.2861
 6125SOL     OW29833   0.598   2.741   6.181 -0.2283 -0.0719  0.2512
 6125SOL    HW129834   0.590   2.655   6.222  2.0311 -0.4318 -0.0708
 6125SOL    HW229835   0.535   2.735   6.109 -0.5139 -1.5184  0.6144
 6126SOL     OW29836   0.476   4.496  17.605 -0.3169 -0.1419 -0.1103
 6126SOL    HW129837   0.460   4.455   0.004 -0.8708  0.5078  0.0935
 6126SOL    HW229838   0.390   4.526  17.575 -0.8498 -1.5815 -0.0086
 6127SOL     OW29839   2.328   1.053   8.612 -0.3561 -0.2113  0.0044
 6127SOL    HW129840   2.422   1.039   8.597  0.5686  3.0069  2.8408
 6127SOL    HW229841   2.318   1.145   8.590  1.8613  0.2993  1.1686
 6128SOL     OW29842   2.871   4.061   3.042  0.1120 -0.0360 -0.0061
 6128SOL    HW129843   2.831   3.974   3.033  1.5903 -0.5818 -1.3084
 6128SOL    HW229844   2.917   4.052   3.126  1.2809 -1.1747 -0.7622
 6129SOL     OW29845   1.770   3.280   5.053 -0.7838  0.2659  0.1499
 6129SOL    HW129846   1.865   3.284   5.062 -0.6429 -0.1783 -1.1163
 6129SOL    HW229847   1.747   3.312   5.140 -0.1200 -0.8338  0.7306
 6130SOL     OW29848   3.754   3.622   0.611 -0.8317 -0.2983 -0.1618
 6130SOL    HW129849   3.725   3.539   0.650  0.9090 -1.5775 -1.5746
 6130SOL    HW229850   3.812   3.663   0.674 -0.4329 -2.5121  0.9020
 6131SOL     OW29851   0.341   4.403   7.970  0.4925  0.8966  0.4252
 6131SOL    HW129852   0.373   4.481   7.925 -0.1987  1.2375  0.5297
 6131SOL    HW229853   0.252   4.398   7.935  0.3812  2.6307  0.4907
 6132SOL     OW29854   2.303   1.077   2.709 -0.8681  0.2427  0.8011
 6132SOL    HW129855   2.342   1.080   2.797 -2.5607 -3.6944  1.6676
 6132SOL    HW229856   2.261   0.992   2.714 -0.8231  0.1882  0.2065
 6133SOL     OW29857   2.086   3.061  10.609  0.3561  0.1854 -0.3880
 6133SOL    HW129858   2.118   2.988  10.555  0.1716  0.0181 -0.2699
 6133SOL    HW229859   2.111   3.137  10.556 -0.6041 -0.0426 -1.1745
 6134SOL     OW29860   0.129   3.264   3.960  0.3563  0.3702 -0.6426
 6134SOL    HW129861   0.175   3.184   3.985  1.4151  1.9301  2.4140
 6134SOL    HW229862   0.071   3.269   4.036 -0.7404  2.3373 -1.6142
 6135SOL     OW29863   1.317   1.559   1.540  0.1623  0.3516 -0.3503
 6135SOL    HW129864   1.330   1.651   1.520 -2.9673  1.2548  1.8310
 6135SOL    HW229865   1.320   1.560   1.636  1.8784  0.0511 -0.3848
 6136SOL     OW29866   0.065   3.746  16.014 -0.1557 -0.6916  0.1003
 6136SOL    HW129867   0.012   3.689  15.958  0.5506 -0.3816 -0.8830
 6136SOL    HW229868   4.716   3.808  16.036  2.2135  2.0137  0.0128
 6137SOL     OW29869   2.530   2.646  10.236 -0.0723 -0.1430 -0.1158
 6137SOL    HW129870   2.473   2.704  10.185 -0.1657 -0.7350 -0.7030
 6137SOL    HW229871   2.470   2.572  10.249  0.8790 -0.3958  2.7525
 6138SOL     OW29872   0.432   3.171   8.992  0.0966 -0.6226 -0.5401
 6138SOL    HW129873   0.527   3.160   8.997  0.1938  1.2837  2.3551
 6138SOL    HW229874   0.424   3.235   8.921 -1.1440  2.0421  1.9749
 6139SOL     OW29875   4.139   2.102  17.268  0.7391  0.0874 -0.0045
 6139SOL    HW129876   4.080   2.029  17.283  2.5793 -1.1185  1.2878
 6139SOL    HW229877   4.226   2.066  17.252  1.0781  1.5510 -1.5243
 6140SOL     OW29878   1.000   0.898  10.422  0.0515  0.2233  0.0601
 6140SOL    HW129879   0.998   0.835  10.494 -2.2362  1.9774  1.5194
 6140SOL    HW229880   1.092   0.921  10.414  0.3293 -1.1308 -0.6761
 6141SOL     OW29881   2.734   0.886  15.507  0.2263  0.0655  0.2493
 6141SOL    HW129882   2.792   0.868  15.581 -0.2427  0.5660  0.7357
 6141SOL    HW229883   2.669   0.817  15.525  0.4111 -0.1708  0.0096
 6142SOL     OW29884   0.380   0.701  11.531  0.0545 -0.3021  0.1737
 6142SOL    HW129885   0.294   0.674  11.499 -0.7120 -0.3226  2.2723
 6142SOL    HW229886   0.361   0.767  11.597  0.3129  0.9234 -0.9864
 6143SOL     OW29887   3.911   3.671   6.571 -0.5874  0.4988 -0.4633
 6143SOL    HW129888   3.896   3.674   6.666 -1.1595  1.3456 -0.5750
 6143SOL    HW229889   3.827   3.697   6.532 -0.6599 -0.3393 -0.8601
 6144SOL     OW29890   2.834   0.481  16.443  0.2013  0.2051 -0.4087
 6144SOL    HW129891   2.849   0.574  16.462  0.0327  0.1800 -0.1597
 6144SOL    HW229892   2.921   0.463  16.408  0.3004  2.1652 -1.1780
 6145SOL     OW29893   3.752   1.707   5.592  0.6373  0.2180  0.2198
 6145SOL    HW129894   3.814   1.761   5.641  1.1957 -0.3257  0.1082
 6145SOL    HW229895   3.727   1.788   5.547 -1.5653 -0.9211 -0.6346
 6146SOL     OW29896   0.951   4.474   6.076  0.1531  0.1039  0.3420
 6146SOL    HW129897   1.030   4.505   6.120  0.1081  1.0599 -0.2690
 6146SOL    HW229898   0.906   4.449   6.157  0.0870 -0.0869  0.2481
 6147SOL     OW29899   1.428   0.054   2.070  0.0996  0.1101  0.2425
 6147SOL    HW129900   1.510   0.085   2.108 -0.7391 -0.4362  2.4656
 6147SOL    HW229901   1.454   4.685   2.091  2.4018  0.2314 -2.0325
 6148SOL     OW29902   0.937   4.310   5.842  0.2120  0.5288 -0.4321
 6148SOL    HW129903   0.960   4.385   5.897  0.4383 -0.1566  0.3942
 6148SOL    HW229904   0.868   4.269   5.893 -0.0458 -0.6184 -1.6972
 6149SOL     OW29905   0.296   4.612   5.647 -0.1552  0.1887 -0.2177
 6149SOL    HW129906   0.289   4.698   5.606  1.9575  0.4218 -0.1077
 6149SOL    HW229907   0.216   4.600   5.698  0.5438 -0.0121  0.8292
 6150SOL     OW29908   1.281   1.564  13.971  0.1293 -0.5981  0.3590
 6150SOL    HW129909   1.279   1.579  13.877  0.4293 -0.5963  0.3547
 6150SOL    HW229910   1.268   1.655  13.998 -1.7785 -0.5992 -0.5437
 6151SOL     OW29911   1.089   2.999  12.367  0.4906  0.3117 -0.0011
 6151SOL    HW129912   1.063   2.927  12.423  2.0904  0.2707  0.6927
 6151SOL    HW229913   1.021   2.988  12.301  1.2234  2.7742 -1.1981
 6152SOL     OW29914   0.222   2.436   4.233  0.2617  0.0130  0.5027
 6152SOL    HW129915   0.286   2.439   4.162  1.2470  0.2741  1.4020
 6152SOL    HW229916   0.166   2.363   4.206  1.7407 -1.9284  2.6196
 6153SOL     OW29917   1.598   2.175   2.303 -0.2369  0.2428  0.0341
 6153SOL    HW129918   1.530   2.241   2.287  0.1259  0.1290 -1.9727
 6153SOL    HW229919   1.584   2.155   2.396 -1.2133 -2.0500 -0.6149
 6154SOL     OW29920   1.601   0.981   2.024 -0.0299  0.0763  0.0373
 6154SOL    HW129921   1.624   0.935   1.944 -0.2107  0.2646 -0.1213
 6154SOL    HW229922   1.613   1.075   2.009  3.4454  0.2770  4.0800
 6155SOL     OW29923   0.655   3.851   0.966 -0.0234  0.4931  0.4375
 6155SOL    HW129924   0.680   3.805   0.886  1.6762  1.6473  0.2930
 6155SOL    HW229925   0.584   3.902   0.928  1.0327  0.6120 -1.3918
 6156SOL     OW29926   1.864   1.574   7.045 -0.0794 -0.2784  0.4943
 6156SOL    HW129927   1.814   1.636   7.098  0.7935  1.5020 -0.7715
 6156SOL    HW229928   1.844   1.490   7.087  0.8749 -0.8145 -0.1241
 6157SOL     OW29929   3.368   1.790   2.591  0.3499  0.0636 -0.3724
 6157SOL    HW129930   3.289   1.835   2.560 -0.7637  0.0662  2.4919
 6157SOL    HW229931   3.403   1.754   2.509 -2.0054  0.0679 -1.3781
 6158SOL     OW29932   3.233   0.924   6.541  0.4237 -0.7180  0.3268
 6158SOL    HW129933   3.212   1.016   6.560  0.0967 -0.3872 -1.6195
 6158SOL    HW229934   3.254   0.896   6.630  0.0613 -1.4118  0.1979
 6159SOL     OW29935   2.760   3.172  11.388  0.0085  0.3555 -0.1366
 6159SOL    HW129936   2.810   3.125  11.321  0.4305 -1.7855  1.6755
 6159SOL    HW229937   2.768   3.261  11.355 -2.4952 -0.3113 -2.5735
 6160SOL     OW29938   2.899   0.525  15.544 -0.1254 -0.2211  0.2620
 6160SOL    HW129939   2.944   0.441  15.544 -1.7453 -1.0835 -1.9606
 6160SOL    HW229940   2.941   0.572  15.471 -2.2721  1.4955  0.1346
 6161SOL     OW29941   0.035   2.866   6.681  0.1001  0.0804 -0.0823
 6161SOL    HW129942   0.036   2.893   6.773  1.4120  2.8503 -0.9311
 6161SOL    HW229943   0.115   2.813   6.679 -0.3581 -0.6650  1.0810
 6162SOL     OW29944   0.256   3.298   2.456  0.5227  0.3239  0.0885
 6162SOL    HW129945   0.342   3.296   2.498  1.2013  0.3848 -1.3211
 6162SOL    HW229946   0.251   3.390   2.433 -0.7290  0.0635 -0.6867
 6163SOL     OW29947   2.888   0.693   1.852  0.1845 -0.0493 -0.2176
 6163SOL    HW129948   2.797   0.689   1.881  0.3524 -1.1387  0.1412
 6163SOL    HW229949   2.871   0.672   1.760  1.1946  0.8482 -0.6104
 6164SOL     OW29950   1.961   2.958   4.457 -0.3435 -0.5849  0.2614
 6164SOL    HW129951   1.897   2.886   4.451 -0.4207 -0.3827 -1.2591
 6164SOL    HW229952   1.904   3.026   4.494 -0.8673 -2.7454  3.4686
 6165SOL     OW29953   0.076   3.250   2.672 -0.0036  0.2020  0.3129
 6165SOL    HW129954   0.117   3.266   2.587  0.5726 -0.6565  0.4337
 6165SOL    HW229955   0.101   3.330   2.717  1.3212  0.2026 -0.4458
 6166SOL     OW29956   0.981   1.663   1.701  0.5485  0.2702 -0.0076
 6166SOL    HW129957   1.046   1.627   1.762 -0.9377  0.2736  1.5793
 6166SOL    HW229958   0.984   1.601   1.627  0.1602 -0.3712  0.5079
 6167SOL     OW29959   4.212   2.339   4.651 -0.6937  0.2155  0.0938
 6167SOL    HW129960   4.251   2.289   4.579  0.0043 -0.7799  1.1743
 6167SOL    HW229961   4.195   2.423   4.608 -1.5727  0.3362  0.6859
 6168SOL     OW29962   3.844   2.668   2.052 -0.3360 -0.4951 -0.2815
 6168SOL    HW129963   3.826   2.588   2.100  0.2674 -0.4444  0.0306
 6168SOL    HW229964   3.924   2.702   2.093 -0.5471  0.9704 -1.0667
 6169SOL     OW29965   3.184   3.133  10.596  0.2165 -0.6073 -0.1436
 6169SOL    HW129966   3.264   3.099  10.636 -1.5474 -2.1221  2.0666
 6169SOL    HW229967   3.117   3.129  10.664  0.3168  0.6152  0.0124
 6170SOL     OW29968   3.896   1.402  11.382  0.1539 -0.0115 -0.2845
 6170SOL    HW129969   3.913   1.457  11.458 -0.9640 -0.7202  0.4857
 6170SOL    HW229970   3.800   1.400  11.381  0.0841  1.7969  1.7794
 6171SOL     OW29971   0.853   1.836   2.186 -0.1109  0.3336  0.2177
 6171SOL    HW129972   0.833   1.891   2.110 -0.4731 -0.8507 -0.5419
 6171SOL    HW229973   0.876   1.751   2.148 -0.5898  0.8079 -1.1220
 6172SOL     OW29974   2.787   2.707   2.661 -0.3019 -0.4852  0.3619
 6172SOL    HW129975   2.862   2.760   2.631 -1.4058  0.8588 -0.0367
 6172SOL    HW229976   2.772   2.654   2.583 -1.7128 -1.7628  1.5136
 6173SOL     OW29977   4.431   3.824   3.386  0.0619  1.1997 -0.0828
 6173SOL    HW129978   4.401   3.796   3.472  2.5176 -1.1103  0.0171
 6173SOL    HW229979   4.414   3.918   3.386 -2.7052  0.7072 -1.2445
 6174SOL     OW29980   0.336   0.796  12.312 -0.5536 -0.1051 -0.4364
 6174SOL    HW129981   0.359   0.771  12.402 -0.1935  0.7925 -0.2769
 6174SOL    HW229982   0.412   0.764  12.264 -0.0752 -0.2901  0.4334
 6175SOL     OW29983   0.815   2.018   6.850  0.0938  0.0770 -0.6117
 6175SOL    HW129984   0.883   2.035   6.916  0.0278  0.3535 -0.6150
 6175SOL    HW229985   0.867   2.018   6.769  1.8697  1.1648  0.5295
 6176SOL     OW29986   4.097   3.299   0.551 -0.3652  0.2430  0.0377
 6176SOL    HW129987   4.098   3.204   0.562  1.4644  0.5317  2.3183
 6176SOL    HW229988   4.017   3.315   0.501 -1.5126 -0.3434  1.7100
 6177SOL     OW29989   0.631   1.099   6.279 -0.0699  0.5311  0.4748
 6177SOL    HW129990   0.669   1.020   6.317  2.4285  0.3871 -2.3544
 6177SOL    HW229991   0.540   1.076   6.296  0.1032  0.4093  1.2568
 6178SOL     OW29992   3.750   2.338   3.620  0.0583  0.1413  0.0772
 6178SOL    HW129993   3.755   2.411   3.558 -0.5552  0.2641  0.1707
 6178SOL    HW229994   3.682   2.380   3.673 -0.5315  0.9310 -1.3047
 6179SOL     OW29995   3.495   0.078   4.561  0.3014 -0.0993  0.1115
 6179SOL    HW129996   3.472   0.012   4.626  1.5715 -1.9339 -1.3148
 6179SOL    HW229997   3.589   0.093   4.571  0.1737 -0.7357  2.2471
 6180SOL     OW29998   2.084   4.700   8.033  0.4275 -0.0747  0.0671
 6180SOL    HW129999   2.167   0.001   7.991 -1.0417  1.5944 -1.9322
 6180SOL    HW230000   2.046   4.649   7.962 -0.0689  0.2191  0.1234
 6181SOL     OW30001   3.723   2.809   8.770  0.6374 -0.2471  0.2605
 6181SOL    HW130002   3.671   2.729   8.785 -0.6377  0.1968 -1.8471
 6181SOL    HW230003   3.807   2.786   8.810  1.0727  1.4229  0.2770
 6182SOL     OW30004   2.689   1.630   5.779 -0.2823  0.8859  0.1801
 6182SOL    HW130005   2.622   1.597   5.839  0.3946 -3.1860 -1.2998
 6182SOL    HW230006   2.770   1.586   5.804 -1.0267 -0.0570  0.9068
 6183SOL     OW30007   0.148   3.533   5.834 -0.3012 -0.6920  0.3132
 6183SOL    HW130008   0.162   3.448   5.793  2.4929 -0.3359  0.5190
 6183SOL    HW230009   0.064   3.560   5.796  0.6512  3.0147  0.7878
 6184SOL     OW30010   4.503   3.360   2.585  0.1957  0.0797 -0.6402
 6184SOL    HW130011   4.510   3.372   2.490 -1.5777  0.5025 -0.7270
 6184SOL    HW230012   4.590   3.366   2.624 -0.4801 -0.0494  0.8711
 6185SOL     OW30013   2.124   2.346   8.418  0.2897  0.0357  0.3532
 6185SOL    HW130014   2.130   2.387   8.332  1.1296  0.1879  0.4773
 6185SOL    HW230015   2.202   2.291   8.415 -1.6378 -2.7572  2.1265
 6186SOL     OW30016   2.890   4.537   8.272 -0.1802 -0.0574  0.0956
 6186SOL    HW130017   2.852   4.535   8.360  2.2258 -2.5740  1.1106
 6186SOL    HW230018   2.970   4.487   8.292 -0.2684 -1.1695 -2.3768
 6187SOL     OW30019   3.154   3.120   6.718 -0.1104  0.3365  0.7353
 6187SOL    HW130020   3.064   3.126   6.686  0.3041  0.5199 -0.3843
 6187SOL    HW230021   3.161   3.175   6.796 -2.7689  1.1153  0.4354
 6188SOL     OW30022   1.461   2.557  13.904  0.6401 -0.3116 -0.0118
 6188SOL    HW130023   1.368   2.538  13.902  0.5612 -0.1263  1.6325
 6188SOL    HW230024   1.456   2.645  13.941 -0.6669 -0.4742  0.1781
 6189SOL     OW30025   1.322   4.220   8.562  0.0785 -0.3753 -0.2875
 6189SOL    HW130026   1.235   4.246   8.593  0.3247 -1.2208  1.1049
 6189SOL    HW230027   1.357   4.166   8.633 -0.1193 -0.5697 -0.3388
 6190SOL     OW30028   1.585   2.875  10.974  0.3339  0.8806 -0.0319
 6190SOL    HW130029   1.680   2.887  10.972  0.4327  0.0694 -0.1217
 6190SOL    HW230030   1.579   2.791  11.018  2.3893  1.3523  1.1500
 6191SOL     OW30031   3.815   0.896  17.405  0.2465 -0.0012 -0.2127
 6191SOL    HW130032   3.823   0.972  17.348 -0.8946  0.4787  0.2775
 6191SOL    HW230033   3.824   0.827  17.339 -0.4265  1.4147 -1.7972
 6192SOL     OW30034   3.306   4.403   4.369  0.2502 -0.3749  0.5009
 6192SOL    HW130035   3.325   4.335   4.304  1.2577 -0.9032  1.3452
 6192SOL    HW230036   3.210   4.406   4.362  0.3726  1.7392 -0.2246
 6193SOL     OW30037   3.527   0.674  15.960  0.1556  0.0168 -0.2893
 6193SOL    HW130038   3.463   0.726  16.010 -0.9866  0.1174 -1.8670
 6193SOL    HW230039   3.572   0.638  16.037 -0.4460  2.1068  1.0566
 6194SOL     OW30040   4.114   0.938   5.748  0.1649  0.2029  0.1780
 6194SOL    HW130041   4.203   0.935   5.780 -0.2666 -0.4040  1.3060
 6194SOL    HW230042   4.068   0.927   5.831  0.3901  0.1473  0.2940
 6195SOL     OW30043   1.265   2.652   5.848 -0.1521  0.4154 -0.0335
 6195SOL    HW130044   1.285   2.633   5.940 -3.2532  0.8814  0.7195
 6195SOL    HW230045   1.338   2.609   5.804 -0.2785  1.8941 -1.6662
 6196SOL     OW30046   1.017   1.161   6.250  0.3029  0.3281 -0.6481
 6196SOL    HW130047   1.056   1.207   6.175 -0.6020  1.2300 -0.5749
 6196SOL    HW230048   0.951   1.109   6.204 -0.4730 -0.3990  1.3283
 6197SOL     OW30049   0.292   2.426   6.507  0.1163  0.6675  0.5285
 6197SOL    HW130050   0.272   2.402   6.416  0.3644  2.4869  0.0049
 6197SOL    HW230051   0.254   2.353   6.556  1.6066  0.2096  0.9794
 6198SOL     OW30052   3.022   0.877   7.732 -0.3205  0.4060  0.2791
 6198SOL    HW130053   2.998   0.790   7.763  0.3630 -0.2465 -1.0366
 6198SOL    HW230054   3.041   0.923   7.814 -1.3886  1.0109  0.1734
 6199SOL     OW30055   0.845   0.391  11.075  0.2508 -0.1754 -0.2604
 6199SOL    HW130056   0.797   0.367  10.995 -1.6532  3.9066 -0.3364
 6199SOL    HW230057   0.777   0.442  11.120 -0.1262 -1.1762  0.3072
 6200SOL     OW30058   1.239   4.027   5.709 -0.1056  0.1380 -0.6356
 6200SOL    HW130059   1.177   4.083   5.663  2.4029  3.1479 -0.3900
 6200SOL    HW230060   1.319   4.080   5.705 -0.7764  1.1876 -0.0098
 6201SOL     OW30061   0.819   0.606  12.734  0.0008  0.4253 -0.4913
 6201SOL    HW130062   0.750   0.657  12.692 -0.6930 -0.1328 -0.0178
 6201SOL    HW230063   0.789   0.520  12.704  0.8361 -0.9653  2.6906
 6202SOL     OW30064   3.280   1.695   2.821  0.4926 -0.1854  0.0113
 6202SOL    HW130065   3.333   1.616   2.834  0.4240 -0.4134 -1.0714
 6202SOL    HW230066   3.328   1.727   2.745 -1.0665 -0.3628 -1.0651
 6203SOL     OW30067   2.116   1.732  12.798  0.1763 -0.4726 -0.0197
 6203SOL    HW130068   2.162   1.805  12.756  2.5902 -0.5239  2.5548
 6203SOL    HW230069   2.163   1.713  12.879 -0.4040 -1.6375  0.0480
 6204SOL     OW30070   2.530   3.663  10.088  0.3854 -0.1254 -0.7128
 6204SOL    HW130071   2.510   3.588  10.033 -2.7119 -1.3148  2.0405
 6204SOL    HW230072   2.621   3.657  10.114 -0.0296  0.7357  0.9202
 6205SOL     OW30073   0.707   1.748  10.745 -0.2959 -0.0622 -1.0550
 6205SOL    HW130074   0.635   1.812  10.748  0.4067  0.9012 -4.4899
 6205SOL    HW230075   0.732   1.754  10.653  0.4280 -0.1183 -0.8610
 6206SOL     OW30076   1.682   1.630  12.828  0.0831  0.6221  0.2065
 6206SOL    HW130077   1.665   1.724  12.837  0.7030  0.6988  0.5362
 6206SOL    HW230078   1.745   1.629  12.901 -0.3868  1.8290  0.6290
 6207SOL     OW30079   2.010   0.295   5.008 -0.1562 -1.1965 -0.0301
 6207SOL    HW130080   2.014   0.253   4.922  1.7739  0.0884 -0.5697
 6207SOL    HW230081   1.916   0.276   5.016  0.0301 -0.6919  3.3926
 6208SOL     OW30082   1.605   1.844  13.565 -0.0329 -0.1360  1.3717
 6208SOL    HW130083   1.670   1.852  13.496 -1.2552 -0.5608  0.1768
 6208SOL    HW230084   1.601   1.940  13.572 -1.5428 -0.2944  2.9849
 6209SOL     OW30085   1.235   2.317   7.585 -0.1957  0.1508 -0.3936
 6209SOL    HW130086   1.303   2.380   7.609  0.1879 -0.6682  0.7251
 6209SOL    HW230087   1.258   2.250   7.650 -1.3594 -1.1285 -1.3160
 6210SOL     OW30088   1.330   3.530   9.189 -0.2957 -0.0989  0.9344
 6210SOL    HW130089   1.397   3.597   9.199  0.7461 -1.0696  0.4290
 6210SOL    HW230090   1.370   3.458   9.237  0.2024 -0.0280  0.6130
 6211SOL     OW30091   1.165   3.977   1.832 -0.0564 -0.3633  0.4427
 6211SOL    HW130092   1.138   3.967   1.924  1.2354  0.4493  0.9139
 6211SOL    HW230093   1.180   4.071   1.823 -1.0234 -0.1226  1.3728
 6212SOL     OW30094   0.342   4.311   4.796 -0.0346  0.3167 -0.7779
 6212SOL    HW130095   0.414   4.349   4.847  0.8624 -2.4447  0.0093
 6212SOL    HW230096   0.279   4.302   4.868  0.0231  0.2381 -0.7378
 6213SOL     OW30097   0.365   2.327   4.947 -0.1965 -0.2690  0.4409
 6213SOL    HW130098   0.442   2.377   4.973  0.8391 -3.2236  2.9811
 6213SOL    HW230099   0.354   2.361   4.858 -0.5984  0.1242  0.6379
 6214SOL     OW30100   4.574   1.987  12.926 -0.4740 -0.1637 -0.0772
 6214SOL    HW130101   4.564   2.070  12.879 -1.8748 -0.5581 -0.4791
 6214SOL    HW230102   4.566   2.029  13.012 -1.0922 -0.7296  0.1421
 6215SOL     OW30103   0.472   0.329   3.641  0.7695  0.1548  0.2661
 6215SOL    HW130104   0.554   0.369   3.670  1.1637 -0.2569 -0.3051
 6215SOL    HW230105   0.469   0.253   3.698  1.7329 -0.2144 -0.1750
 6216SOL     OW30106   0.883   2.331   2.612 -0.1110 -0.3664  0.1559
 6216SOL    HW130107   0.833   2.249   2.620 -0.8931 -0.1738 -2.8645
 6216SOL    HW230108   0.860   2.368   2.527 -0.2836 -0.2713  0.2444
 6217SOL     OW30109   1.775   0.301   6.862  0.5446 -0.0552  0.8443
 6217SOL    HW130110   1.707   0.296   6.795  1.5040  2.3499 -0.3113
 6217SOL    HW230111   1.786   0.396   6.865 -0.3460  0.1042 -1.0795
 6218SOL     OW30112   2.773   3.546  15.452  0.5038  0.4291 -0.0367
 6218SOL    HW130113   2.702   3.591  15.406 -1.7889 -2.8467  0.3163
 6218SOL    HW230114   2.755   3.574  15.542 -0.0651 -1.8249  0.5441
 6219SOL     OW30115   1.067   2.067   2.805 -0.6581 -0.0172  0.1501
 6219SOL    HW130116   1.056   2.087   2.712  1.8672 -0.0107 -0.1591
 6219SOL    HW230117   1.015   1.988   2.815  1.5692 -1.4072  0.7344
 6220SOL     OW30118   4.300   4.420   0.643  0.4235  0.5789 -0.0078
 6220SOL    HW130119   4.222   4.368   0.663  0.7307 -0.0328 -0.4036
 6220SOL    HW230120   4.353   4.345   0.617 -0.9303 -0.1232 -0.7528
 6221SOL     OW30121   4.170   4.680   7.859  0.0777 -0.5520  0.0771
 6221SOL    HW130122   4.190   0.046   7.824 -2.2414  0.1298  0.4387
 6221SOL    HW230123   4.081   4.663   7.828  0.7576 -0.7641 -1.7294
 6222SOL     OW30124   0.944   2.145   8.669  0.0504 -0.1127  0.4523
 6222SOL    HW130125   0.944   2.070   8.729  2.7011 -0.5778 -0.0982
 6222SOL    HW230126   0.897   2.210   8.721 -1.2468 -1.4455  0.9248
 6223SOL     OW30127   4.444   0.297  17.342  0.3889  0.0276  0.5664
 6223SOL    HW130128   4.529   0.340  17.354  1.3077 -1.5357 -0.3644
 6223SOL    HW230129   4.469   0.207  17.364 -1.3335 -0.8390 -1.0244
 6224SOL     OW30130   0.398   3.378   1.164 -0.0971  0.6996 -0.3138
 6224SOL    HW130131   0.309   3.347   1.177 -0.1274  1.0867  0.4077
 6224SOL    HW230132   0.397   3.451   1.225  1.8653  0.9430 -0.5573
 6225SOL     OW30133   0.799   3.332   8.060  0.3110  0.3291  0.0902
 6225SOL    HW130134   0.713   3.375   8.050 -0.4540 -1.0299  0.8271
 6225SOL    HW230135   0.781   3.238   8.064 -0.1299  0.3174 -2.1345
 6226SOL     OW30136   3.395   2.364   5.790 -0.3976  0.4976  0.3854
 6226SOL    HW130137   3.316   2.405   5.825 -0.6583  0.9046 -0.6601
 6226SOL    HW230138   3.422   2.419   5.716 -0.6941  0.8514  0.5377
 6227SOL     OW30139   1.982   2.802  16.250  0.6598  0.4707  0.4989
 6227SOL    HW130140   2.006   2.815  16.158 -1.5244  0.1040 -0.1106
 6227SOL    HW230141   1.914   2.868  16.262  0.5141  0.3478  0.3494
 6228SOL     OW30142   4.248   1.181  10.622 -0.2913 -0.0250  0.3194
 6228SOL    HW130143   4.158   1.194  10.652 -0.3422 -0.0803  0.1936
 6228SOL    HW230144   4.236   1.176  10.527  2.3086 -2.2458  0.0756
 6229SOL     OW30145   1.579   2.448   5.953  0.3827 -0.2911  0.5680
 6229SOL    HW130146   1.522   2.494   6.014  0.7067  1.1310 -0.2100
 6229SOL    HW230147   1.592   2.518   5.890 -0.0079  0.7904  1.7008
 6230SOL     OW30148   1.703   1.329   4.893 -0.1750 -0.3101 -0.1006
 6230SOL    HW130149   1.616   1.313   4.856  0.1570 -1.9211 -0.1864
 6230SOL    HW230150   1.734   1.247   4.931 -0.3300  0.4935  1.7843
 6231SOL     OW30151   2.146   0.829   3.943 -0.2692 -0.2791 -0.0806
 6231SOL    HW130152   2.161   0.739   3.917 -0.6505 -0.2234 -0.4773
 6231SOL    HW230153   2.051   0.826   3.956 -0.4628  0.3311 -1.3522
 6232SOL     OW30154   3.518   0.306   5.933  0.5026 -0.1615 -0.2720
 6232SOL    HW130155   3.574   0.293   6.010 -0.1627 -2.9383 -0.2669
 6232SOL    HW230156   3.530   0.221   5.891 -0.6041  0.0498 -1.0141
 6233SOL     OW30157   4.238   0.144   2.988  0.3339  0.1511 -0.0806
 6233SOL    HW130158   4.178   0.071   2.999  0.1062  0.1798 -1.0939
 6233SOL    HW230159   4.314   0.109   3.034 -0.2750 -1.7104 -0.5211
 6234SOL     OW30160   1.506   0.335   4.798  0.1350  0.3017  0.2131
 6234SOL    HW130161   1.451   0.256   4.800  1.2090 -0.3810  2.2670
 6234SOL    HW230162   1.494   0.364   4.708  0.7834  0.6023  0.2308
 6235SOL     OW30163   3.748   2.140   6.578 -0.0578 -0.5091  0.2269
 6235SOL    HW130164   3.704   2.225   6.590  1.0999  0.0551  0.4644
 6235SOL    HW230165   3.835   2.175   6.559  0.4951 -2.2472 -0.4230
 6236SOL     OW30166   2.895   1.294   4.457 -0.0143  0.2644  0.4863
 6236SOL    HW130167   2.953   1.218   4.456  0.4654  0.6291 -1.2461
 6236SOL    HW230168   2.827   1.254   4.403 -0.2221  0.7619  0.3753
 6237SOL     OW30169   1.038   2.724   1.167  0.7374 -0.3352  0.0396
 6237SOL    HW130170   1.066   2.801   1.119 -0.3029  0.7020  1.0700
 6237SOL    HW230171   1.121   2.696   1.207  0.1609  1.3756  2.4394
 6238SOL     OW30172   0.436   2.906   6.725  0.2107  0.2098  0.6710
 6238SOL    HW130173   0.377   2.944   6.660  1.7423 -0.4233 -1.0814
 6238SOL    HW230174   0.474   2.980   6.772 -0.6725  0.2066  1.3907
 6239SOL     OW30175   4.265   4.416   3.617 -0.0320  0.2162  0.3561
 6239SOL    HW130176   4.322   4.390   3.545 -0.2972  1.0534 -0.1560
 6239SOL    HW230177   4.292   4.507   3.629  0.1255 -0.0086  1.6779
 6240SOL     OW30178   4.216   1.866  16.070 -0.3118  0.4611 -0.1069
 6240SOL    HW130179   4.128   1.855  16.106 -0.7649  1.6703 -0.8673
 6240SOL    HW230180   4.189   1.900  15.985  1.1447  1.2525 -0.2478
 6241SOL     OW30181   1.682   0.838   5.893  0.3155 -0.0366  0.2417
 6241SOL    HW130182   1.689   0.864   5.985  0.3636 -1.4147  0.6408
 6241SOL    HW230183   1.762   0.785   5.887  0.7618  0.9538 -2.5603
 6242SOL     OW30184   3.372   0.337  15.678 -0.6526  0.1284  0.3006
 6242SOL    HW130185   3.450   0.302  15.720 -0.9920 -2.7048 -1.4551
 6242SOL    HW230186   3.404   0.416  15.635  1.3107 -0.8023  0.0474
 6243SOL     OW30187   2.315   1.671   8.143  0.0929  0.1685  0.4363
 6243SOL    HW130188   2.255   1.676   8.217 -1.6758  0.5215 -1.0390
 6243SOL    HW230189   2.404   1.684   8.177  0.7122  0.1961 -1.1535
 6244SOL     OW30190   3.652   3.351   1.505 -0.4614  0.4101 -0.0180
 6244SOL    HW130191   3.719   3.284   1.522  0.0966  0.7124 -1.0513
 6244SOL    HW230192   3.576   3.299   1.476 -0.1400 -0.0213 -0.0874
 6245SOL     OW30193   2.183   1.988   3.420 -0.5584 -0.3765 -0.2904
 6245SOL    HW130194   2.237   1.910   3.425  0.2551  0.2606  1.0038
 6245SOL    HW230195   2.129   1.971   3.343 -0.8814 -0.7593  0.0179
 6246SOL     OW30196   3.086   4.057   6.182  0.3832 -0.1577 -0.0024
 6246SOL    HW130197   3.136   4.125   6.226  1.5301 -0.4952 -0.7862
 6246SOL    HW230198   3.059   4.009   6.260 -0.0173  1.1505  0.6602
 6247SOL     OW30199   3.593   1.187  11.784  0.1012  0.2021 -0.3013
 6247SOL    HW130200   3.549   1.165  11.867  1.9577  0.8551  0.8652
 6247SOL    HW230201   3.575   1.108  11.733 -1.7670  0.1842  0.3546
 6248SOL     OW30202   1.521   4.220   7.660 -1.2770 -0.4522  0.3975
 6248SOL    HW130203   1.550   4.146   7.606 -1.6592  0.5514 -1.1896
 6248SOL    HW230204   1.559   4.194   7.744  0.0923  1.4645  0.3517
 6249SOL     OW30205   0.374   3.267   6.110 -0.1449 -0.3003 -0.2931
 6249SOL    HW130206   0.410   3.261   6.199  0.4554 -0.3414 -0.5402
 6249SOL    HW230207   0.422   3.342   6.076  1.4067 -0.6449  1.1406
 6250SOL     OW30208   0.462   0.931   4.389  0.0817  0.0131 -0.0758
 6250SOL    HW130209   0.413   0.904   4.466  1.4701  1.4550  1.3099
 6250SOL    HW230210   0.414   1.010   4.364  2.4182  1.7981  1.0938
 6251SOL     OW30211   4.541   4.395   4.972 -0.5492 -0.1534 -0.3028
 6251SOL    HW130212   4.483   4.432   5.039 -1.6794  0.8309 -1.8257
 6251SOL    HW230213   4.594   4.473   4.956  0.5338 -0.5013  1.6252
 6252SOL     OW30214   1.007   4.265  16.976 -0.6267  0.3481  0.0255
 6252SOL    HW130215   1.086   4.236  16.931  0.0399 -0.5553  1.8215
 6252SOL    HW230216   1.045   4.330  17.035  0.1882  1.8661 -2.1487
 6253SOL     OW30217   1.899   1.980  13.955 -0.2733 -0.2370  0.0057
 6253SOL    HW130218   1.841   1.919  13.910 -1.7684  0.8010  0.5047
 6253SOL    HW230219   1.830   2.013  14.013  0.5490 -0.5784  1.1781
 6254SOL     OW30220   3.930   3.330   3.627  0.3146  0.0892  0.0971
 6254SOL    HW130221   3.941   3.248   3.580 -3.9258  0.6787 -1.9836
 6254SOL    HW230222   3.886   3.395   3.572 -1.8841 -0.3849  1.3119
 6255SOL     OW30223   0.709   2.084   2.627 -0.4364 -0.1799  0.1346
 6255SOL    HW130224   0.752   2.060   2.546  1.4261 -1.3800  1.4753
 6255SOL    HW230225   0.621   2.090   2.590 -0.2181 -1.9789 -0.6461
 6256SOL     OW30226   1.895   3.480   8.402 -0.4220  0.1600  0.7750
 6256SOL    HW130227   1.885   3.408   8.464  1.5302  0.9434  2.0062
 6256SOL    HW230228   1.916   3.558   8.454 -0.1819 -1.7454  3.5219
 6257SOL     OW30229   0.089   3.300   5.265 -0.2576  0.0099  0.2155
 6257SOL    HW130230   0.061   3.360   5.195  0.7101  0.0972 -0.0973
 6257SOL    HW230231   0.109   3.220   5.217  2.2056  0.8963 -0.2249
 6258SOL     OW30232   2.211   1.226   6.652 -0.2932  0.0715  0.3848
 6258SOL    HW130233   2.171   1.140   6.636  0.2802 -0.5795  2.3875
 6258SOL    HW230234   2.131   1.279   6.657  0.9616  1.9272  0.8011
 6259SOL     OW30235   1.639   0.969   2.754 -0.4259  0.5751  0.1642
 6259SOL    HW130236   1.677   1.039   2.701  3.7107 -1.4829  0.4498
 6259SOL    HW230237   1.576   1.029   2.794  0.8925  1.8697  0.3003
 6260SOL     OW30238   1.917   3.022   7.996 -0.1888 -0.0453  0.0478
 6260SOL    HW130239   1.856   3.012   7.922  1.7990 -1.8859 -1.3463
 6260SOL    HW230240   1.994   2.976   7.962 -0.4769 -0.0525 -0.6027
 6261SOL     OW30241   4.533   1.461   2.060  0.4231 -0.2193  0.4466
 6261SOL    HW130242   4.585   1.531   2.099 -0.5030 -0.0086  1.3208
 6261SOL    HW230243   4.601   1.398   2.037 -0.5272 -0.3493 -1.9794
 6262SOL     OW30244   0.737   0.407   9.902 -0.2072  0.5042 -0.2989
 6262SOL    HW130245   0.649   0.418   9.865 -0.6631 -0.6551  0.4487
 6262SOL    HW230246   0.725   0.470   9.972  0.0516 -1.6608  1.6911
 6263SOL     OW30247   3.401   0.828   3.075 -0.3904  0.1730  0.3113
 6263SOL    HW130248   3.347   0.865   3.144 -0.3657 -0.2976  0.5838
 6263SOL    HW230249   3.422   0.905   3.023  0.9079 -1.1008 -1.0594
 6264SOL     OW30250   2.387   2.434  15.819 -0.2998  0.1585  0.4210
 6264SOL    HW130251   2.350   2.519  15.796 -1.2622 -0.5680 -0.7182
 6264SOL    HW230252   2.464   2.452  15.873 -1.0903 -0.4870  1.7460
 6265SOL     OW30253   3.931   0.459   8.174  0.0510 -0.4060  0.3835
 6265SOL    HW130254   3.949   0.367   8.155  1.9208 -0.5330  2.7668
 6265SOL    HW230255   3.843   0.454   8.211  0.4346 -1.0780  1.2312
 6266SOL     OW30256   0.214   2.136  14.047  0.2887 -0.2091  0.1210
 6266SOL    HW130257   0.210   2.040  14.047 -1.4782 -0.1315 -0.8910
 6266SOL    HW230258   0.278   2.153  13.977  0.4768 -1.1108  0.0688
 6267SOL     OW30259   3.334   2.886   6.899  0.4485 -0.1784 -0.2271
 6267SOL    HW130260   3.347   2.801   6.942  0.5956 -0.3084 -0.5304
 6267SOL    HW230261   3.288   2.863   6.819 -1.9803  0.3972  1.0087
 6268SOL     OW30262   2.469   1.381   8.223  0.4072 -0.0028  0.4683
 6268SOL    HW130263   2.382   1.350   8.199  0.2066 -0.4872  1.8407
 6268SOL    HW230264   2.465   1.477   8.227 -0.8393 -0.0134 -0.5583
 6269SOL     OW30265   3.812   3.266  12.766 -0.1787 -0.0152  0.0768
 6269SOL    HW130266   3.870   3.292  12.838  1.1065 -1.6298 -0.3657
 6269SOL    HW230267   3.752   3.339  12.773 -0.6639 -0.4488  0.4073
 6270SOL     OW30268   3.676   2.741  15.716  0.2555  0.8139 -0.0063
 6270SOL    HW130269   3.655   2.748  15.623 -0.1901  1.9010  0.1705
 6270SOL    HW230270   3.729   2.819  15.733  1.0354  0.2787 -0.0116
 6271SOL     OW30271   1.071   0.617   5.799 -0.4911  0.9769  0.5007
 6271SOL    HW130272   1.055   0.652   5.887  0.6156  0.3430  0.9660
 6271SOL    HW230273   0.997   0.557   5.802 -1.0575  1.7275  1.4224
 6272SOL     OW30274   4.242   1.684   2.617 -0.2777 -0.0759  0.0153
 6272SOL    HW130275   4.310   1.655   2.555  2.1336  2.0135  1.6779
 6272SOL    HW230276   4.287   1.735   2.684  1.6992  0.5715 -1.8003
 6273SOL     OW30277   4.609   1.249   4.622 -0.1170  0.3568 -0.5794
 6273SOL    HW130278   4.680   1.230   4.560  0.4995 -0.4803  0.3693
 6273SOL    HW230279   4.637   1.208   4.704 -0.3802 -0.1553 -0.7432
 6274SOL     OW30280   1.437   2.085   1.533 -0.5281 -0.0020 -0.1330
 6274SOL    HW130281   1.378   2.103   1.459  0.1354 -2.7573 -1.3282
 6274SOL    HW230282   1.405   2.147   1.598 -0.9621  1.5359 -1.8031
 6275SOL     OW30283   4.651   2.434   6.492  0.5831  0.8924  0.3332
 6275SOL    HW130284   4.630   2.369   6.559  0.0410 -0.1120 -0.8212
 6275SOL    HW230285   4.649   2.507   6.554 -2.2127  1.0023  0.0933
 6276SOL     OW30286   3.877   0.524   0.717  0.5012 -0.2487  0.2466
 6276SOL    HW130287   3.902   0.577   0.642  1.6504 -0.4654  0.4758
 6276SOL    HW230288   3.955   0.470   0.726  0.7249  0.1510  0.7433
 6277SOL     OW30289   1.202   1.857   9.433 -0.4064  0.0733  0.4880
 6277SOL    HW130290   1.152   1.892   9.360  1.3217 -0.7818 -1.0874
 6277SOL    HW230291   1.273   1.915   9.460  0.0270 -0.2824  0.1072
 6278SOL     OW30292   2.851   2.033   6.000 -0.6483 -0.3948 -0.1320
 6278SOL    HW130293   2.792   1.963   6.027  0.1298 -0.4169  1.4950
 6278SOL    HW230294   2.808   2.109   6.039  0.3766  0.4845 -0.7157
 6279SOL     OW30295   1.628   4.012   7.504  0.0471 -0.2226  0.1592
 6279SOL    HW130296   1.704   3.975   7.549 -0.0868 -1.1101 -0.3538
 6279SOL    HW230297   1.667   4.018   7.417 -1.2038  1.0611 -0.3169
 6280SOL     OW30298   0.664   3.524   4.582  0.4135 -0.3566 -0.3024
 6280SOL    HW130299   0.713   3.553   4.659  2.4872  1.2632 -2.2366
 6280SOL    HW230300   0.601   3.595   4.571  1.8632  1.2142  1.6364
 6281SOL     OW30301   2.180   0.196   7.635  0.3580 -0.5295 -0.4959
 6281SOL    HW130302   2.088   0.194   7.659  0.5623  3.5220  0.7085
 6281SOL    HW230303   2.182   0.197   7.539 -1.9616  0.6801 -0.5187
 6282SOL     OW30304   0.019   1.515   8.924 -0.5443  0.0159  0.3297
 6282SOL    HW130305   4.683   1.552   8.991 -1.8512 -2.6300  0.6564
 6282SOL    HW230306   4.695   1.553   8.848 -0.9634  2.0769  1.6148
 6283SOL     OW30307   1.489   4.546  16.802 -0.0646 -0.4733 -0.5574
 6283SOL    HW130308   1.491   4.630  16.755 -0.6189  0.4861  1.1445
 6283SOL    HW230309   1.449   4.567  16.886 -1.3317 -2.0210 -0.7892
 6284SOL     OW30310   1.358   2.929   3.480 -0.0128 -0.1578  0.6806
 6284SOL    HW130311   1.348   3.024   3.483  0.2053 -0.1518  1.1780
 6284SOL    HW230312   1.403   2.906   3.561  0.9129 -0.6165  0.0388
 6285SOL     OW30313   1.572   4.231   2.017  0.3628  0.1024 -0.2951
 6285SOL    HW130314   1.514   4.263   1.948  0.1868  1.2348  0.3896
 6285SOL    HW230315   1.543   4.284   2.091  0.2081  0.4885 -0.6349
 6286SOL     OW30316   3.877   2.043   6.850 -0.2372 -0.8520 -0.4387
 6286SOL    HW130317   3.856   1.952   6.827 -1.8830 -1.0247  1.7173
 6286SOL    HW230318   3.800   2.084   6.811  0.8538  1.8849  0.2979
 6287SOL     OW30319   0.709   0.023   1.745 -0.1761  0.2028 -0.5880
 6287SOL    HW130320   0.756   4.666   1.774 -0.8066 -0.3296 -0.9760
 6287SOL    HW230321   0.618   4.717   1.757  0.6346 -1.8703  0.9459
 6288SOL     OW30322   4.120   4.201  15.107  0.6320 -0.5908 -0.0032
 6288SOL    HW130323   4.203   4.152  15.112  0.6375 -0.6783 -0.9585
 6288SOL    HW230324   4.160   4.287  15.093  0.4622 -0.7698 -1.4966
 6289SOL     OW30325   0.517   0.632   2.545 -0.6331  0.7214  0.2791
 6289SOL    HW130326   0.466   0.551   2.552  0.0036  0.1319 -1.6187
 6289SOL    HW230327   0.558   0.629   2.631 -0.4648  0.0701  0.1837
 6290SOL     OW30328   2.662   1.420   0.828 -0.0740 -0.3363  0.2174
 6290SOL    HW130329   2.744   1.468   0.822 -1.1430  1.5257  0.4782
 6290SOL    HW230330   2.653   1.408   0.923 -0.1376  1.2474  0.4151
 6291SOL     OW30331   3.585   1.351   4.151  0.1929 -0.1016 -0.0527
 6291SOL    HW130332   3.592   1.414   4.079  0.3253 -1.7864 -1.5141
 6291SOL    HW230333   3.605   1.269   4.106 -0.6892 -0.7447  0.7209
 6292SOL     OW30334   3.990   2.426   4.156 -0.3128 -0.2672 -0.2560
 6292SOL    HW130335   4.005   2.345   4.108  2.0697 -2.0116  3.3647
 6292SOL    HW230336   4.064   2.474   4.118 -1.3945  1.8916  0.3332
 6293SOL     OW30337   0.421   3.712  16.255  0.3807  0.0096 -0.2027
 6293SOL    HW130338   0.422   3.619  16.278  0.9958  0.1215  0.2109
 6293SOL    HW230339   0.513   3.732  16.271  0.9856 -2.8243 -0.1742
 6294SOL     OW30340   0.528   4.714   4.272 -0.5010  0.5035  0.1635
 6294SOL    HW130341   0.524   4.625   4.240 -1.9312  0.6933 -0.1742
 6294SOL    HW230342   0.587   4.713   4.348  0.1782 -1.4617 -0.4031
 6295SOL     OW30343   0.762   3.796   6.158 -0.3596 -0.3509  0.3295
 6295SOL    HW130344   0.817   3.803   6.236  0.0716 -0.9407  0.0808
 6295SOL    HW230345   0.739   3.704   6.170 -0.9718 -0.0955  1.1339
 6296SOL     OW30346   3.604   2.086  16.026  0.0646  0.0588  0.0535
 6296SOL    HW130347   3.699   2.080  16.039  0.2437  1.9263 -0.3159
 6296SOL    HW230348   3.589   2.134  15.944 -2.3631  0.2652  0.6356
 6297SOL     OW30349   1.256   1.328   6.669 -0.5872  0.1465 -0.1481
 6297SOL    HW130350   1.267   1.413   6.712 -1.6204  0.6117 -0.7915
 6297SOL    HW230351   1.178   1.303   6.719 -2.1788  0.0409 -2.6557
 6298SOL     OW30352   1.237   2.658   4.678  0.4808 -0.3478 -0.3155
 6298SOL    HW130353   1.174   2.728   4.697  1.4698  0.7230 -0.9844
 6298SOL    HW230354   1.264   2.679   4.588  3.2314 -0.5768  0.4689
 6299SOL     OW30355   4.187   1.366  16.068 -0.8221  0.5119 -0.3851
 6299SOL    HW130356   4.247   1.301  16.034  0.1879  0.0300  2.2732
 6299SOL    HW230357   4.249   1.410  16.126 -1.3564  0.4807  0.2193
 6300SOL     OW30358   0.540   3.534  10.589  0.1258 -0.2593  0.2021
 6300SOL    HW130359   0.565   3.484  10.511  0.8705 -0.0229  0.2886
 6300SOL    HW230360   0.500   3.466  10.642  0.9427 -0.4660  0.5521
 6301SOL     OW30361   1.936   3.491   2.295  0.6585 -0.2619 -0.0410
 6301SOL    HW130362   2.022   3.519   2.266  0.7608 -0.2189  0.3068
 6301SOL    HW230363   1.956   3.454   2.381 -0.5299 -1.6078 -0.3301
 6302SOL     OW30364   0.564   1.899  12.541 -0.1540 -0.5057 -0.1062
 6302SOL    HW130365   0.613   1.962  12.595 -1.6160  0.1736  0.4237
 6302SOL    HW230366   0.482   1.911  12.589 -1.8408 -3.4140 -2.2796
 6303SOL     OW30367   1.037   3.383  16.515 -0.2110  0.3148  0.1043
 6303SOL    HW130368   1.001   3.440  16.583 -0.1999  0.9180 -0.3999
 6303SOL    HW230369   1.099   3.329  16.564  0.7120  1.3962  0.1154
 6304SOL     OW30370   3.206   1.991   2.498 -0.2118 -0.6869  0.6585
 6304SOL    HW130371   3.197   1.976   2.404 -0.5480  3.4759  0.0519
 6304SOL    HW230372   3.179   2.082   2.507  0.2837 -0.0056 -4.8357
 6305SOL     OW30373   4.292   1.957  15.065  0.5063  0.1710 -0.2623
 6305SOL    HW130374   4.386   1.978  15.066  0.0078  2.2687  3.1886
 6305SOL    HW230375   4.296   1.879  15.122  0.1018  0.8862  0.7500
 6306SOL     OW30376   4.186   2.457  15.322  0.3601 -0.5644  0.1474
 6306SOL    HW130377   4.186   2.522  15.392 -1.6044  0.9048 -1.1878
 6306SOL    HW230378   4.092   2.458  15.303  0.2457 -1.6081  0.6900
 6307SOL     OW30379   1.483   1.570   3.319 -0.3301 -0.0483 -0.1714
 6307SOL    HW130380   1.475   1.528   3.234 -1.2028  0.3375 -0.2820
 6307SOL    HW230381   1.571   1.606   3.311  0.1877 -1.4675 -0.7896
 6308SOL     OW30382   0.091   0.650  13.110 -0.2817  0.5211  0.4134
 6308SOL    HW130383   0.157   0.622  13.174  0.9239 -0.3633 -1.2165
 6308SOL    HW230384   0.143   0.668  13.032 -0.5198 -1.4753 -0.2302
 6309SOL     OW30385   1.068   0.235   4.473 -0.3045  0.3045 -0.4751
 6309SOL    HW130386   1.068   0.242   4.568 -2.9915 -3.8359 -0.1810
 6309SOL    HW230387   1.160   0.224   4.447 -1.2312 -1.5617 -2.9651
 6310SOL     OW30388   3.076   2.238   4.591 -0.8725 -0.3517 -0.5141
 6310SOL    HW130389   3.115   2.293   4.659  1.4558 -1.9334 -0.5821
 6310SOL    HW230390   3.026   2.171   4.637  2.5408 -1.7805  1.0833
 6311SOL     OW30391   0.574   3.322   1.545  0.9484  0.5161  0.3357
 6311SOL    HW130392   0.545   3.383   1.478 -1.0769 -0.8329 -0.0008
 6311SOL    HW230393   0.541   3.239   1.510  1.0941  0.0142  1.4098
 6312SOL     OW30394   2.895   1.920   2.093 -0.0881 -0.8014 -0.1620
 6312SOL    HW130395   2.843   1.859   2.145 -1.9141  1.2271  0.4320
 6312SOL    HW230396   2.826   1.956   2.036 -0.7052 -1.4062  0.2110
 6313SOL     OW30397   0.764   0.428   8.029 -0.7019 -0.1231  0.0332
 6313SOL    HW130398   0.807   0.345   8.010  1.1611  1.4553 -2.7433
 6313SOL    HW230399   0.746   0.459   7.940 -0.3583 -0.8657 -0.2948
 6314SOL     OW30400   1.610   0.506   8.697 -0.1937  0.3456 -0.5710
 6314SOL    HW130401   1.705   0.490   8.699 -0.6221 -2.2422 -0.9308
 6314SOL    HW230402   1.607   0.583   8.640  2.9991  1.4977  0.7972
 6315SOL     OW30403   4.551   1.217  11.382 -0.4583  0.1848  0.3981
 6315SOL    HW130404   4.479   1.221  11.445 -0.3012 -2.2345  0.7243
 6315SOL    HW230405   4.619   1.171  11.432 -0.3444  0.0267  0.0992
 6316SOL     OW30406   2.661   2.545   7.616  0.0650  0.1723 -0.1179
 6316SOL    HW130407   2.680   2.560   7.708 -0.2352 -0.0609 -0.0156
 6316SOL    HW230408   2.574   2.506   7.628  0.3244  0.1979  1.8211
 6317SOL     OW30409   1.676   0.239   8.243 -0.1353  0.5379 -0.0449
 6317SOL    HW130410   1.736   0.238   8.317 -0.8073 -2.2075  0.4890
 6317SOL    HW230411   1.615   0.302   8.282  1.5819  0.4810  2.7280
 6318SOL     OW30412   4.452   1.095  12.012 -0.2207  0.4850 -0.4035
 6318SOL    HW130413   4.417   1.184  12.019 -3.7540 -0.7815 -1.9802
 6318SOL    HW230414   4.417   1.063  12.095 -0.0277  0.0972 -0.4725
 6319SOL     OW30415   4.100   0.143  11.889 -0.3047 -0.6542  0.4424
 6319SOL    HW130416   4.072   0.217  11.943  1.1069 -0.7766  1.3412
 6319SOL    HW230417   4.178   0.109  11.933  1.5459  2.1311 -0.6882
 6320SOL     OW30418   2.468   1.466  13.837 -0.2456  0.3268 -0.2604
 6320SOL    HW130419   2.445   1.419  13.757 -3.2992 -0.8577  1.3262
 6320SOL    HW230420   2.478   1.556  13.803 -1.3496 -0.1383 -1.8207
 6321SOL     OW30421   2.725   0.807   7.260 -0.1889  0.2584 -0.2808
 6321SOL    HW130422   2.754   0.865   7.330 -1.8972 -0.3334  0.9282
 6321SOL    HW230423   2.731   0.726   7.311 -1.8443  1.5091  1.9368
 6322SOL     OW30424   3.901   0.469   1.704 -0.4059  0.0049 -0.1428
 6322SOL    HW130425   3.917   0.423   1.786 -0.4906 -0.1567 -0.2164
 6322SOL    HW230426   3.831   0.410   1.677 -1.4342  0.2770  1.8933
 6323SOL     OW30427   0.908   3.082   8.990 -0.1559 -0.5592  0.1859
 6323SOL    HW130428   0.973   3.041   8.932  0.1374 -0.7594  0.6493
 6323SOL    HW230429   0.927   3.174   8.974 -2.6491 -0.0399  0.3533
 6324SOL     OW30430   0.772   3.900  12.941 -0.4832 -0.1323 -0.2499
 6324SOL    HW130431   0.770   3.924  12.849  0.8545  1.2206  0.0751
 6324SOL    HW230432   0.865   3.882  12.950 -0.5888  0.0427  1.2093
 6325SOL     OW30433   2.511   2.609   2.144  0.5167 -0.0553  0.3619
 6325SOL    HW130434   2.499   2.603   2.049 -0.4392  1.6925  0.3565
 6325SOL    HW230435   2.540   2.700   2.154 -0.6565  0.5060 -1.4493
 6326SOL     OW30436   2.389   2.664   1.017  0.6386  0.2246  0.3525
 6326SOL    HW130437   2.296   2.640   1.017  1.1606 -1.8785  2.3920
 6326SOL    HW230438   2.387   2.756   1.043  0.4573  0.6263 -1.0977
 6327SOL     OW30439   4.486   1.948   1.061  0.1164 -0.5497  0.4455
 6327SOL    HW130440   4.512   1.932   0.970  0.5874 -1.0920  0.6784
 6327SOL    HW230441   4.425   1.876   1.071 -0.8899  0.5619  2.2430
 6328SOL     OW30442   0.789   0.596   9.498  0.0667  0.3844  0.0500
 6328SOL    HW130443   0.717   0.532   9.501  0.4944 -0.0986 -0.0452
 6328SOL    HW230444   0.739   0.655   9.554 -0.2692  0.0179  0.1420
 6329SOL     OW30445   0.903   3.551   3.062 -0.0648 -0.2260  0.5600
 6329SOL    HW130446   0.967   3.577   3.128 -0.4444 -2.5519  1.8500
 6329SOL    HW230447   0.963   3.536   2.989 -0.4969 -1.6417  0.4975
 6330SOL     OW30448   4.240   1.773   1.082 -0.9781 -0.0694  0.2312
 6330SOL    HW130449   4.219   1.720   1.005 -0.3300  1.3917 -0.9461
 6330SOL    HW230450   4.233   1.703   1.147  0.1572 -0.8101 -0.4366
 6331SOL     OW30451   0.305   3.729   7.914  0.3912  0.0923 -0.1033
 6331SOL    HW130452   0.273   3.670   7.845 -1.1239  1.4172 -0.5302
 6331SOL    HW230453   0.369   3.782   7.866  0.9612  1.0654  1.7566
 6332SOL     OW30454   0.806   2.707   5.942 -0.1992 -0.5976  0.2247
 6332SOL    HW130455   0.879   2.647   5.924  0.5627  0.4924 -0.3590
 6332SOL    HW230456   0.827   2.746   6.028 -2.9975  1.4335 -0.0224
 6333SOL     OW30457   1.138   0.227   2.644  0.3622 -0.7054  0.3628
 6333SOL    HW130458   1.133   0.131   2.643 -0.6420 -0.6078 -2.9736
 6333SOL    HW230459   1.123   0.243   2.551  2.4520  2.0543  0.4729
 6334SOL     OW30460   3.600   2.757  17.265 -0.1324  0.2213  0.0711
 6334SOL    HW130461   3.650   2.686  17.224 -1.7007 -1.0496  0.3841
 6334SOL    HW230462   3.638   2.750  17.353  2.0227  1.0562 -0.7920
 6335SOL     OW30463   0.708   2.071  16.112 -0.4516  0.4225 -0.4134
 6335SOL    HW130464   0.669   2.073  16.199 -0.7502  0.2982 -0.5427
 6335SOL    HW230465   0.663   2.137  16.060 -0.1536  1.6783  0.9339
 6336SOL     OW30466   0.593   2.416   6.563  0.0200  0.2455 -0.4219
 6336SOL    HW130467   0.614   2.488   6.621 -3.1290 -0.1021  1.1372
 6336SOL    HW230468   0.511   2.381   6.597  0.4441 -0.0106  0.3239
 6337SOL     OW30469   3.063   1.682  12.786  0.5047 -0.3128 -0.4704
 6337SOL    HW130470   3.060   1.664  12.692  0.9254 -2.5165 -0.0592
 6337SOL    HW230471   2.977   1.721  12.805  0.7683 -0.3840  0.9067
 6338SOL     OW30472   0.525   1.825   2.472 -0.4600  0.6236  0.4431
 6338SOL    HW130473   0.456   1.789   2.417  1.0609  0.0329 -1.0925
 6338SOL    HW230474   0.520   1.914   2.435 -0.7452  0.9358  1.2277
 6339SOL     OW30475   3.921   4.659   7.761  0.5422  0.5540 -0.2385
 6339SOL    HW130476   3.902   0.031   7.753 -1.4937  0.5175  3.8930
 6339SOL    HW230477   3.830   4.632   7.776  0.5940  0.1022 -0.7471
 6340SOL     OW30478   3.977   0.731   3.175  1.0313 -0.0723 -0.4820
 6340SOL    HW130479   3.935   0.773   3.100  1.2793 -0.3124 -0.7562
 6340SOL    HW230480   3.911   0.735   3.244  1.6398 -2.0179  0.2226
 6341SOL     OW30481   2.715   2.465   5.289  0.1693  0.3025 -0.0533
 6341SOL    HW130482   2.685   2.377   5.265 -0.3906  0.7137 -0.8581
 6341SOL    HW230483   2.801   2.442   5.325  0.7729 -0.3979 -1.9311
 6342SOL     OW30484   2.908   0.247   2.090 -0.2008  0.6274 -0.4129
 6342SOL    HW130485   2.967   0.285   2.025  0.1882 -0.9490 -0.9782
 6342SOL    HW230486   2.958   0.198   2.155  0.2090 -1.2023 -2.1054
 6343SOL     OW30487   3.320   3.186   5.261 -0.3402 -0.1564 -0.0117
 6343SOL    HW130488   3.299   3.149   5.347 -0.4961 -1.1081 -0.4562
 6343SOL    HW230489   3.237   3.207   5.219 -1.4074  0.0743  2.2171
 6344SOL     OW30490   2.941   1.978  12.698 -0.1504  0.2113 -0.2737
 6344SOL    HW130491   2.898   1.906  12.744 -3.1781  2.2096  0.0505
 6344SOL    HW230492   2.872   1.985  12.631 -1.8771 -2.3260  1.2505
 6345SOL     OW30493   1.085   4.137   3.384  0.1508 -0.6919  0.5480
 6345SOL    HW130494   1.006   4.191   3.390  0.0631 -0.4873 -2.8661
 6345SOL    HW230495   1.070   4.093   3.301  1.2594 -0.6028  0.3017
 6346SOL     OW30496   0.922   0.651   7.706 -0.7463  0.3176  0.4057
 6346SOL    HW130497   0.864   0.576   7.699  0.8899 -0.5877 -2.9370
 6346SOL    HW230498   1.003   0.608   7.682  0.0326  1.8176  0.3311
 6347SOL     OW30499   0.183   1.229   5.708  0.0591 -0.0233 -0.1950
 6347SOL    HW130500   0.173   1.269   5.621  1.5783  1.2011  0.1792
 6347SOL    HW230501   0.278   1.214   5.716 -0.5983 -2.5104  2.6471
 6348SOL     OW30502   0.998   1.422  10.871 -0.1861 -0.5162  0.2193
 6348SOL    HW130503   1.028   1.510  10.893 -0.6809 -0.5251  0.9266
 6348SOL    HW230504   1.021   1.427  10.779 -0.0432 -0.9519  0.2324
 6349SOL     OW30505   1.378   4.611   2.783 -0.1201 -0.2995  0.8664
 6349SOL    HW130506   1.291   4.601   2.743  0.0664 -0.0080  0.3839
 6349SOL    HW230507   1.390   4.702   2.809 -0.7949 -0.5283  1.9456
 6350SOL     OW30508   4.118   1.760   6.070 -0.4196  0.1829  0.2265
 6350SOL    HW130509   4.101   1.854   6.072  0.5028  0.3507  0.2849
 6350SOL    HW230510   4.204   1.745   6.031 -1.1449 -2.5557 -0.3545
 6351SOL     OW30511   3.727   2.897   4.302  0.1079 -0.0549 -0.5125
 6351SOL    HW130512   3.684   2.974   4.266 -2.5723 -1.2945  0.0150
 6351SOL    HW230513   3.797   2.872   4.241  0.7523  1.0940 -0.2413
 6352SOL     OW30514   4.192   2.555   7.685 -0.4475  0.2046  1.0516
 6352SOL    HW130515   4.131   2.622   7.715 -0.9273 -0.4348  1.5027
 6352SOL    HW230516   4.182   2.482   7.747 -1.3998 -1.1514 -0.7288
 6353SOL     OW30517   1.472   0.756   6.419 -0.3849 -0.2611 -0.5154
 6353SOL    HW130518   1.515   0.837   6.446 -2.2718  0.6814 -0.3174
 6353SOL    HW230519   1.405   0.804   6.371 -0.6798  0.9644  1.0981
 6354SOL     OW30520   4.601   1.145   2.248 -0.1561 -0.4179 -0.4934
 6354SOL    HW130521   4.586   1.120   2.157  0.6966 -2.3859 -0.0902
 6354SOL    HW230522   4.682   1.095   2.259  0.3040  0.2947 -0.6633
 6355SOL     OW30523   4.454   3.177  17.489 -0.1188  0.4524 -0.0086
 6355SOL    HW130524   4.492   3.255  17.449  1.1493 -1.1127 -1.8585
 6355SOL    HW230525   4.536   3.129  17.504 -0.9412 -0.9137  0.1226
 6356SOL     OW30526   3.164   3.475   5.793  0.1294 -0.0967 -0.0300
 6356SOL    HW130527   3.089   3.520   5.753  0.0186 -0.0313  0.2539
 6356SOL    HW230528   3.235   3.482   5.729  0.8415  1.9614  1.0046
 6357SOL     OW30529   1.803   4.222   3.965 -0.5666  0.1835  0.3449
 6357SOL    HW130530   1.835   4.180   4.045  0.8679  0.6184 -0.0032
 6357SOL    HW230531   1.711   4.215   3.990 -0.8129 -1.4946 -1.0151
 6358SOL     OW30532   4.114   1.712   6.744 -0.2550 -0.3642  0.4140
 6358SOL    HW130533   4.149   1.780   6.686 -0.5079  0.3896  1.1485
 6358SOL    HW230534   4.023   1.739   6.756 -0.4266 -1.5567  1.7198
 6359SOL     OW30535   1.992   1.686   0.966 -0.0305  0.4922 -0.5846
 6359SOL    HW130536   2.064   1.628   0.992 -0.4141 -1.2299 -3.3333
 6359SOL    HW230537   2.040   1.767   0.985  0.0695  0.6780 -1.5912
 6360SOL     OW30538   2.928   0.487   7.043  0.0195 -0.0742 -0.3008
 6360SOL    HW130539   2.907   0.475   6.950 -1.8046 -0.8814  0.2121
 6360SOL    HW230540   2.926   0.395   7.068 -1.4801 -0.2846 -1.1636
 6361SOL     OW30541   3.818   0.721   1.703  0.3263  0.0060  0.7041
 6361SOL    HW130542   3.836   0.627   1.703  0.4441  0.0223  1.7492
 6361SOL    HW230543   3.901   0.752   1.740 -0.0643 -0.4654  1.9812
 6362SOL     OW30544   0.894   1.662  15.891 -0.6332 -0.5104  0.3120
 6362SOL    HW130545   0.822   1.608  15.923 -1.1189 -0.4717 -0.7459
 6362SOL    HW230546   0.932   1.605  15.824 -0.1663 -1.9536  1.7891
 6363SOL     OW30547   0.086   2.923   7.312  0.6742  0.2296  0.0531
 6363SOL    HW130548   0.046   2.885   7.390  1.1294  0.8304  0.5905
 6363SOL    HW230549   0.181   2.922   7.327  0.8163 -0.0131 -0.8475
 6364SOL     OW30550   1.533   0.405   8.422  0.2037 -0.4810  0.7572
 6364SOL    HW130551   1.576   0.408   8.507 -0.5357  1.0141  1.0779
 6364SOL    HW230552   1.450   0.370   8.456 -0.2967  0.8970  0.9351
 6365SOL     OW30553   1.022   4.257   8.614 -0.8283 -0.3717 -0.5769
 6365SOL    HW130554   1.016   4.206   8.533 -0.1550 -0.3318 -0.6529
 6365SOL    HW230555   0.947   4.208   8.647  0.1619 -1.5969 -0.1491
 6366SOL     OW30556   1.763   3.620   6.753  0.6451 -0.1041  0.5620
 6366SOL    HW130557   1.808   3.544   6.787  1.9444  0.4540  0.0914
 6366SOL    HW230558   1.812   3.625   6.671 -0.3451 -0.7041 -0.0614
 6367SOL     OW30559   1.739   0.228   4.956 -0.0777 -0.3491  0.2553
 6367SOL    HW130560   1.693   0.144   4.956 -4.0214  1.7752 -0.7383
 6367SOL    HW230561   1.677   0.278   4.902 -0.4174 -0.9610  0.0791
 6368SOL     OW30562   1.413   2.532   7.696  0.0658 -0.4666  0.2658
 6368SOL    HW130563   1.356   2.603   7.667  0.7715  0.8885  2.1649
 6368SOL    HW230564   1.485   2.586   7.729  0.2841 -1.2020  0.9961
 6369SOL     OW30565   1.432   2.605   4.869 -0.5026  0.1282  0.2769
 6369SOL    HW130566   1.483   2.686   4.871  0.3392 -0.3769 -0.6370
 6369SOL    HW230567   1.367   2.630   4.804 -0.7395 -0.7462  0.1821
 6370SOL     OW30568   1.811   0.351   8.568 -0.5663 -0.5332 -0.3041
 6370SOL    HW130569   1.890   0.339   8.622  0.2065 -0.8726 -1.5064
 6370SOL    HW230570   1.793   0.260   8.544  0.8106 -0.6480 -0.9511
 6371SOL     OW30571   2.655   1.272   8.442 -0.5605  0.3138  0.0238
 6371SOL    HW130572   2.609   1.327   8.378 -2.3833  0.3508  1.3574
 6371SOL    HW230573   2.595   1.272   8.516  1.4879 -2.3427  1.6952
 6372SOL     OW30574   4.658   3.342   4.165 -0.5503 -0.1950 -0.2349
 6372SOL    HW130575   4.615   3.402   4.104 -0.1260 -0.8733 -1.2095
 6372SOL    HW230576   4.688   3.403   4.233 -1.4487 -1.7581  1.5589
 6373SOL     OW30577   3.410   4.637   4.751  0.2440  0.4004 -0.2001
 6373SOL    HW130578   3.379   4.717   4.792 -1.2244 -1.7144  2.7641
 6373SOL    HW230579   3.390   4.569   4.815 -0.1727  2.1131  1.4702
 6374SOL     OW30580   0.901   0.182  10.865  0.0131 -0.5390 -0.1035
 6374SOL    HW130581   0.951   0.101  10.880 -0.0860 -0.5549  0.1358
 6374SOL    HW230582   0.846   0.142  10.797 -0.5553  0.1606 -0.0606
 6375SOL     OW30583   2.323   1.648   3.348 -0.1497  0.4990  0.0042
 6375SOL    HW130584   2.352   1.569   3.303  1.7874  0.4610  1.3218
 6375SOL    HW230585   2.236   1.623   3.380  0.9666 -0.5795  2.1629
 6376SOL     OW30586   2.095   1.556  16.396 -0.0371 -0.1824  0.4110
 6376SOL    HW130587   2.008   1.527  16.368  0.4781 -0.1159 -1.2605
 6376SOL    HW230588   2.067   1.646  16.411 -0.8704 -0.4609  0.5643
 6377SOL     OW30589   0.258   1.785   7.265  0.1388 -0.4279  0.4781
 6377SOL    HW130590   0.295   1.832   7.190 -0.8669  0.6536  0.6514
 6377SOL    HW230591   0.319   1.810   7.334 -0.7626 -1.6519  1.7357
 6378SOL     OW30592   3.440   1.008   3.744 -0.6818  0.4554  0.5929
 6378SOL    HW130593   3.416   1.052   3.825  3.1072  2.2422  0.7432
 6378SOL    HW230594   3.394   0.926   3.759  0.7394 -0.4191  0.1701
 6379SOL     OW30595   0.355   4.004   7.688 -1.2059  0.5736 -0.1705
 6379SOL    HW130596   0.385   4.076   7.743 -0.9699  0.1085  0.2950
 6379SOL    HW230597   0.268   4.033   7.660 -0.3725  2.3638 -0.9173
 6380SOL     OW30598   4.109   4.300   3.806 -0.1888 -0.5352 -0.3743
 6380SOL    HW130599   4.123   4.206   3.804  0.8293 -0.3460 -2.3876
 6380SOL    HW230600   4.185   4.329   3.756 -0.3447  1.1515  0.3435
 6381SOL     OW30601   3.895   1.125   6.626  0.6235 -0.3650  0.3983
 6381SOL    HW130602   3.911   1.031   6.624  0.2227 -0.4294  0.2685
 6381SOL    HW230603   3.804   1.123   6.655  1.1437  2.1762  2.2452
 6382SOL     OW30604   3.311   1.186  12.922 -0.3163  0.4030 -0.1234
 6382SOL    HW130605   3.350   1.101  12.941  1.0747  0.9391 -0.5020
 6382SOL    HW230606   3.341   1.194  12.831  1.3421 -0.6355  0.3229
 6383SOL     OW30607   4.353   4.576  16.526  0.4848  0.2836  0.1555
 6383SOL    HW130608   4.313   4.617  16.449  0.4463 -0.8611 -0.4260
 6383SOL    HW230609   4.271   4.540  16.559 -0.5157  4.0219  1.7247
 6384SOL     OW30610   2.862   4.065   3.957 -0.4031 -0.0704 -0.0211
 6384SOL    HW130611   2.853   4.122   3.880 -0.2985 -2.6714 -1.9689
 6384SOL    HW230612   2.810   3.989   3.931 -0.7936  0.5266 -0.9620
 6385SOL     OW30613   3.990   1.683  15.708 -0.1640  0.0595  0.6266
 6385SOL    HW130614   3.947   1.639  15.781 -1.4008 -1.2429 -0.8709
 6385SOL    HW230615   4.039   1.605  15.681  0.7145  0.3728  1.3278
 6386SOL     OW30616   4.054   3.347  11.766  0.3796  0.2364 -0.4273
 6386SOL    HW130617   4.067   3.263  11.810 -2.4253  0.3182  0.5802
 6386SOL    HW230618   4.047   3.410  11.839  1.9554 -0.4256  0.3046
 6387SOL     OW30619   3.086   3.262   3.059  0.5225 -0.0090  0.2860
 6387SOL    HW130620   3.041   3.206   2.997 -1.6961  2.7944 -0.6478
 6387SOL    HW230621   3.175   3.246   3.031  0.5213 -0.6968  0.6793
 6388SOL     OW30622   4.537   3.815   3.802  0.5703 -0.0355  0.0524
 6388SOL    HW130623   4.486   3.796   3.724  1.3546 -2.2829  0.1083
 6388SOL    HW230624   4.513   3.906   3.820 -0.9341 -0.4757  0.2776
 6389SOL     OW30625   2.988   3.398   2.712  0.2857  0.1975  0.7486
 6389SOL    HW130626   3.003   3.316   2.665 -0.9835  1.1570 -1.3468
 6389SOL    HW230627   3.075   3.436   2.701  0.8021 -2.0197 -2.9286
 6390SOL     OW30628   0.298   1.558   6.220 -0.7886  0.1605 -0.3773
 6390SOL    HW130629   0.241   1.625   6.260 -0.3331  1.4131 -1.8337
 6390SOL    HW230630   0.376   1.600   6.184  0.5504 -0.7442  1.4587
 6391SOL     OW30631   1.561   3.974   2.066  0.6543 -0.2584  0.5023
 6391SOL    HW130632   1.558   4.065   2.037 -0.8290 -0.3295  0.4608
 6391SOL    HW230633   1.652   3.962   2.094  0.6346  1.0934  1.1404
 6392SOL     OW30634   0.321   1.382  15.859  0.4411  0.4728  0.7217
 6392SOL    HW130635   0.278   1.458  15.897  1.4985  1.5685 -0.2614
 6392SOL    HW230636   0.415   1.397  15.846  1.0230 -1.9913  2.0308
 6393SOL     OW30637   1.694   1.708  12.041  0.2515 -0.9752 -0.1598
 6393SOL    HW130638   1.716   1.674  12.128  2.3193  0.4818 -0.1002
 6393SOL    HW230639   1.729   1.639  11.985  1.9616  0.4238 -0.8225
 6394SOL     OW30640   3.560   3.063   3.670 -0.3449  0.4670  0.2596
 6394SOL    HW130641   3.576   3.145   3.716 -1.7590  0.4888  0.7305
 6394SOL    HW230642   3.498   3.091   3.602  1.2264 -0.3191 -1.4763
 6395SOL     OW30643   0.315   4.071   1.276  0.3451  0.1817  0.2586
 6395SOL    HW130644   0.361   4.141   1.230  0.6729 -0.3579 -0.2394
 6395SOL    HW230645   0.352   4.077   1.364  0.7379  0.9235  0.0383
 6396SOL     OW30646   2.953   1.161   3.198 -0.0772  0.2238  0.6595
 6396SOL    HW130647   3.043   1.186   3.222  0.2353  0.1925 -0.4812
 6396SOL    HW230648   2.954   1.108   3.118 -1.0397 -1.1430  1.5539
 6397SOL     OW30649   1.546   0.974  15.803  0.1218  0.1702  0.0442
 6397SOL    HW130650   1.601   1.049  15.826 -0.7135  0.2461  1.7785
 6397SOL    HW230651   1.490   1.015  15.736 -0.9863 -1.0790  0.2135
 6398SOL     OW30652   2.415   4.182   7.187 -0.3969 -0.0389  0.0785
 6398SOL    HW130653   2.401   4.130   7.108 -1.4004 -0.8473  0.7883
 6398SOL    HW230654   2.457   4.256   7.143  1.9829 -1.7623 -0.5236
 6399SOL     OW30655   2.812   0.800  12.639 -0.4457  0.1299  0.0744
 6399SOL    HW130656   2.870   0.873  12.660  1.3508 -0.8632 -1.4859
 6399SOL    HW230657   2.804   0.769  12.729 -0.8784  1.3190  0.4518
 6400SOL     OW30658   2.492   1.826   3.454 -0.2435 -0.1189  0.3965
 6400SOL    HW130659   2.570   1.778   3.424 -0.2896  0.4684 -0.6648
 6400SOL    HW230660   2.427   1.764   3.421 -0.7325  0.0118  1.1103
 6401SOL     OW30661   0.067   1.868   3.690 -0.0558  0.3056  0.4872
 6401SOL    HW130662   0.012   1.894   3.617  0.0955 -1.4463 -0.2716
 6401SOL    HW230663   0.156   1.870   3.653 -1.3649 -0.0394 -2.6342
 6402SOL     OW30664   4.270   2.063   2.154 -0.1365 -0.0085 -0.2106
 6402SOL    HW130665   4.345   2.114   2.122 -1.0323  0.2006 -1.9291
 6402SOL    HW230666   4.194   2.119   2.140  1.6057  1.9276 -2.0463
 6403SOL     OW30667   4.713   0.344   9.789 -0.2299 -0.3084 -0.4133
 6403SOL    HW130668   0.020   0.318   9.877 -1.6535  0.7763  0.3597
 6403SOL    HW230669   0.072   0.358   9.739  0.6641  0.5165  1.2262
 6404SOL     OW30670   0.898   3.400  11.948 -0.2993  0.0828 -0.2189
 6404SOL    HW130671   0.845   3.479  11.951  1.0314  1.0146 -1.1437
 6404SOL    HW230672   0.930   3.399  12.038 -0.7052  1.4775 -0.0597
 6405SOL     OW30673   3.882   4.665   0.298  0.4820  0.1446  0.8745
 6405SOL    HW130674   3.886   4.702   0.210 -0.1385 -2.4233 -0.2389
 6405SOL    HW230675   3.975   4.642   0.306  0.3948 -0.2704  0.7095
 6406SOL     OW30676   3.121   2.424  15.916  0.6331  0.2714 -0.4889
 6406SOL    HW130677   3.143   2.488  15.984  0.3310 -1.0855  0.8999
 6406SOL    HW230678   3.171   2.343  15.927 -1.6251 -0.6827  2.8880
 6407SOL     OW30679   3.428   4.097   6.739 -0.4738 -0.1070 -0.1707
 6407SOL    HW130680   3.492   4.038   6.698 -1.8298  0.2179 -2.7533
 6407SOL    HW230681   3.398   4.148   6.664 -0.8228 -0.6540 -0.3974
 6408SOL     OW30682   0.121   4.333   4.976 -0.2893  0.6701  0.1620
 6408SOL    HW130683   0.105   4.425   4.952  0.7441  0.3553 -1.7917
 6408SOL    HW230684   0.036   4.320   5.018 -0.4954 -2.1648 -1.1733
 6409SOL     OW30685   4.519   2.272  17.399  0.0215 -0.1873 -0.0229
 6409SOL    HW130686   4.449   2.305  17.343  1.1807  1.9661 -0.1806
 6409SOL    HW230687   4.501   2.178  17.396 -0.8079  0.0868 -3.3373
 6410SOL     OW30688   3.350   3.203  16.916  0.2091 -0.0921 -0.3294
 6410SOL    HW130689   3.424   3.222  16.859 -0.0310 -0.0301 -0.6199
 6410SOL    HW230690   3.309   3.140  16.856  0.9415  0.3664 -1.3142
 6411SOL     OW30691   0.347   0.933  11.684 -0.5729  0.1672  0.1259
 6411SOL    HW130692   0.390   0.981  11.614  0.0846 -0.6700 -0.0411
 6411SOL    HW230693   0.259   0.926  11.647  0.1456 -3.7905 -0.7457
 6412SOL     OW30694   1.725   0.155  10.382 -0.1799  0.1773 -0.1849
 6412SOL    HW130695   1.663   0.096  10.339  0.1077 -0.5934  0.4640
 6412SOL    HW230696   1.797   0.094  10.396  0.6485  1.5401  1.4723
 6413SOL     OW30697   1.148   3.116  16.929  0.2214 -0.1133  0.2708
 6413SOL    HW130698   1.055   3.119  16.903 -0.2202  1.5659  2.0233
 6413SOL    HW230699   1.164   3.210  16.942 -0.8411  0.5266 -2.9340
 6414SOL     OW30700   0.541   0.013   4.590  0.4715  0.1173 -0.3086
 6414SOL    HW130701   0.600   4.714   4.664  2.0184 -1.0696 -1.8572
 6414SOL    HW230702   0.480   4.661   4.585  0.8860 -0.0997 -2.1030
 6415SOL     OW30703   1.074   0.831   4.824  0.4807 -0.3697  0.3709
 6415SOL    HW130704   0.984   0.830   4.856 -0.4459  1.2625 -2.1034
 6415SOL    HW230705   1.099   0.919   4.851  0.9881  0.0884 -1.5689
 6416SOL     OW30706   3.201   3.967  16.057 -0.2622  0.1741  0.2655
 6416SOL    HW130707   3.129   4.029  16.045  0.3725  0.6578 -1.1295
 6416SOL    HW230708   3.244   3.996  16.138 -2.2663 -0.4585  1.5495
 6417SOL     OW30709   3.498   3.724   3.972  0.4290 -0.3462  0.4387
 6417SOL    HW130710   3.440   3.661   4.015 -1.4001 -0.2510 -1.8464
 6417SOL    HW230711   3.463   3.719   3.883  1.9917  0.7846 -0.2290
 6418SOL     OW30712   0.685   0.262  10.211  0.0571  0.4003  0.8305
 6418SOL    HW130713   0.738   0.211  10.272 -0.5948 -1.0918  0.1583
 6418SOL    HW230714   0.739   0.266  10.132  0.8303 -0.0108  1.3387
 6419SOL     OW30715   0.906   2.966  10.061 -0.5321  0.5899 -0.2154
 6419SOL    HW130716   0.995   2.975  10.028 -0.4904 -0.4181 -0.3692
 6419SOL    HW230717   0.924   2.926  10.146  0.3137  1.1097 -0.1477
 6420SOL     OW30718   2.911   3.958  17.684 -0.2334 -0.2041 -0.4314
 6420SOL    HW130719   2.883   3.870   0.018  3.5584 -1.1419  0.7085
 6420SOL    HW230720   2.980   3.973   0.062  0.4337  0.1071 -1.2110
 6421SOL     OW30721   2.058   3.010   6.288 -0.5412  0.3560 -0.3995
 6421SOL    HW130722   2.063   2.916   6.300  0.7005  0.7404  2.1005
 6421SOL    HW230723   2.023   3.033   6.374  1.8815 -0.5906  0.8287
 6422SOL     OW30724   0.579   1.774   5.461  0.6820  0.9553  0.2564
 6422SOL    HW130725   0.644   1.821   5.409  0.6692 -1.2055 -1.7149
 6422SOL    HW230726   0.509   1.837   5.476  0.0443  0.6411 -1.3991
 6423SOL     OW30727   2.597   1.439  11.860  0.6703 -0.4517 -0.5501
 6423SOL    HW130728   2.602   1.515  11.917  1.4200 -0.6021 -0.4167
 6423SOL    HW230729   2.640   1.472  11.781  0.7661 -0.4368 -0.4909
 6424SOL     OW30730   1.933   2.355   7.844 -0.1191  0.0085 -0.5936
 6424SOL    HW130731   1.874   2.299   7.793 -3.6269  1.7292  1.5607
 6424SOL    HW230732   2.015   2.308   7.831 -0.5350 -0.8314 -0.1714
 6425SOL     OW30733   0.529   4.290   6.780  0.7112 -0.5285 -0.5852
 6425SOL    HW130734   0.541   4.353   6.851 -1.4965  0.6322 -1.2349
 6425SOL    HW230735   0.567   4.211   6.819  0.5683  0.5196  1.7075
 6426SOL     OW30736   1.212   3.316  14.630 -0.3168 -0.4528  0.2647
 6426SOL    HW130737   1.154   3.291  14.557 -0.2990 -1.0470  0.4563
 6426SOL    HW230738   1.248   3.231  14.656 -0.3326 -0.4660  0.2442
 6427SOL     OW30739   0.493   0.057   5.029 -0.5114 -0.2992  0.0888
 6427SOL    HW130740   0.436   0.108   4.972  0.0947 -1.2291 -1.3285
 6427SOL    HW230741   0.568   0.033   4.975 -2.0248 -0.4753 -1.9315
 6428SOL     OW30742   1.180   0.622   2.084 -0.0481 -0.0573  0.1007
 6428SOL    HW130743   1.200   0.620   2.178  0.0550  0.5951  0.0888
 6428SOL    HW230744   1.199   0.536   2.047 -2.1636 -0.4650 -0.0685
 6429SOL     OW30745   0.562   0.738  15.007 -0.0293 -0.2147 -0.0508
 6429SOL    HW130746   0.593   0.827  14.993 -0.5139  0.2501  1.9518
 6429SOL    HW230747   0.474   0.746  14.969 -0.4463 -0.1332  0.9410
 6430SOL     OW30748   4.413   2.358   3.306 -0.1106  0.2314 -0.4960
 6430SOL    HW130749   4.340   2.297   3.316 -2.0412  2.6171  0.0084
 6430SOL    HW230750   4.363   2.437   3.281  0.5238  0.4976 -0.9261
 6431SOL     OW30751   4.644   1.632  17.601  0.4764 -0.3847  0.2036
 6431SOL    HW130752   4.661   1.622   0.008 -1.4454 -4.6815  0.0871
 6431SOL    HW230753   0.006   1.623  17.553  0.6228 -0.6612  0.5036
 6432SOL     OW30754   0.097   0.173   8.037 -0.2914 -0.7767  0.0855
 6432SOL    HW130755   0.091   0.101   8.099 -2.3738 -0.4949  0.2077
 6432SOL    HW230756   0.191   0.184   8.052 -0.1878 -2.3622  0.5576
 6433SOL     OW30757   1.624   2.909   8.563 -0.5908  0.0169 -0.2031
 6433SOL    HW130758   1.587   2.822   8.577 -1.2159  0.1925 -0.7958
 6433SOL    HW230759   1.584   2.962   8.632  0.3325  0.8589 -0.3159
 6434SOL     OW30760   3.879   1.542   7.053  0.0248 -0.8791  0.1285
 6434SOL    HW130761   3.895   1.451   7.031  1.2701 -0.4069 -0.9135
 6434SOL    HW230762   3.967   1.578   7.045 -0.3052  0.3180  1.8168
 6435SOL     OW30763   0.718   1.515   9.894  0.5044 -0.2873  0.3726
 6435SOL    HW130764   0.760   1.599   9.877  0.1177 -0.2235 -0.2801
 6435SOL    HW230765   0.758   1.491   9.978  3.4122 -3.0928 -1.8577
 6436SOL     OW30766   2.536   3.759   8.608 -0.0362 -0.1880 -0.2352
 6436SOL    HW130767   2.462   3.781   8.664 -1.3663  0.7702 -2.3633
 6436SOL    HW230768   2.493   3.736   8.526 -1.7146  0.3317  0.4849
 6437SOL     OW30769   2.041   0.052   4.863 -0.0646 -0.1619  0.1612
 6437SOL    HW130770   1.987   4.712   4.914  1.1923  0.6141  2.4367
 6437SOL    HW230771   2.051   4.720   4.784  2.0259 -1.5931  1.3523
 6438SOL     OW30772   0.498   3.724   4.545 -0.0554 -0.2825 -0.5656
 6438SOL    HW130773   0.505   3.819   4.552 -2.0846 -0.0356 -1.8003
 6438SOL    HW230774   0.438   3.710   4.472 -1.0808  1.2081 -0.0089
 6439SOL     OW30775   1.145   0.877   3.877  0.2411  0.6688 -0.1499
 6439SOL    HW130776   1.080   0.878   3.947  1.1739 -0.4389  0.7250
 6439SOL    HW230777   1.136   0.969   3.850 -0.4890  0.3617 -0.9678
 6440SOL     OW30778   0.591   3.464   4.050  0.6962  0.0635  0.6718
 6440SOL    HW130779   0.504   3.442   4.015  0.9141 -0.1329  0.2560
 6440SOL    HW230780   0.611   3.383   4.097  1.9433 -1.2571 -2.1466
 6441SOL     OW30781   3.135   0.160   7.988  0.7578  0.5258  0.2899
 6441SOL    HW130782   3.076   0.169   8.063 -1.2249 -2.5500 -0.8827
 6441SOL    HW230783   3.106   0.072   7.962  2.1496  0.3704 -0.7124
 6442SOL     OW30784   3.076   4.305   7.359  0.2947  0.3757 -0.4140
 6442SOL    HW130785   3.166   4.282   7.336  1.1992  0.7508  2.6909
 6442SOL    HW230786   3.058   4.369   7.290 -2.6604  0.0533  0.0540
 6443SOL     OW30787   0.265   2.682  17.546  0.3616 -0.0362 -0.1736
 6443SOL    HW130788   0.334   2.744  17.523  0.6768 -0.6011 -0.7278
 6443SOL    HW230789   0.281   2.644  17.633 -1.6802  0.8413  0.5946
 6444SOL     OW30790   3.132   0.234   7.382 -0.3719 -0.6146 -0.5512
 6444SOL    HW130791   3.140   0.141   7.361  3.7852 -0.3345 -0.2080
 6444SOL    HW230792   3.221   0.270   7.373 -0.2691 -0.1591  2.3451
 6445SOL     OW30793   1.646   1.371   0.123  0.5008 -0.0805 -0.1340
 6445SOL    HW130794   1.727   1.365   0.172  0.0264 -0.5766  0.5997
 6445SOL    HW230795   1.625   1.464   0.116 -0.6326 -0.4872 -2.3388
 6446SOL     OW30796   0.554   2.441  15.165  0.3155 -0.2572  0.4373
 6446SOL    HW130797   0.561   2.525  15.210 -2.3778  0.1484  0.0841
 6446SOL    HW230798   0.620   2.380  15.198  1.8758 -0.0994 -2.4121
 6447SOL     OW30799   2.093   1.866   3.203 -0.2383 -0.0191 -0.1308
 6447SOL    HW130800   2.063   1.780   3.175 -1.6220 -0.2405  2.0775
 6447SOL    HW230801   2.159   1.889   3.137 -0.4390 -1.2180 -0.7481
 6448SOL     OW30802   3.363   2.555   6.951 -0.0376 -0.5645 -0.1231
 6448SOL    HW130803   3.456   2.541   6.931  0.1265 -1.5568  1.3361
 6448SOL    HW230804   3.337   2.558   6.859  0.1372  1.6123 -0.1100
 6449SOL     OW30805   2.001   1.196   5.806 -1.1930 -0.0335  0.6569
 6449SOL    HW130806   2.088   1.187   5.767 -1.0634 -0.9599  1.1583
 6449SOL    HW230807   2.040   1.238   5.882 -0.6157 -1.1106  0.9567
 6450SOL     OW30808   4.464   2.868   7.322 -0.2816 -0.4344 -0.4408
 6450SOL    HW130809   4.509   2.860   7.238 -2.6908 -2.4110 -1.5383
 6450SOL    HW230810   4.536   2.854   7.384 -0.2838 -0.2998 -0.4084
 6451SOL     OW30811   0.846   1.811   8.256  0.0444 -0.6365  0.6162
 6451SOL    HW130812   0.932   1.795   8.217 -0.6363 -0.0788 -1.0982
 6451SOL    HW230813   0.837   1.726   8.299  0.3674 -1.6843 -1.3659
 6452SOL     OW30814   4.015   4.605   4.156 -0.1087 -0.3305  0.1160
 6452SOL    HW130815   4.038   4.588   4.064  1.0337  0.9930  0.1562
 6452SOL    HW230816   3.930   4.561   4.166 -2.3015  4.2533  1.5682
 6453SOL     OW30817   0.373   0.546   9.042 -0.4025 -0.3893 -0.2678
 6453SOL    HW130818   0.422   0.505   9.113  0.1491 -2.1374 -1.6540
 6453SOL    HW230819   0.352   0.469   8.989  1.2810 -0.4245 -0.8827
 6454SOL     OW30820   3.448   2.701   3.924 -0.4308  0.2826 -0.0984
 6454SOL    HW130821   3.359   2.666   3.925 -1.1807  2.2825  1.4560
 6454SOL    HW230822   3.442   2.733   3.834 -1.5885  0.7349  0.1350
 6455SOL     OW30823   1.108   3.574   0.376  0.2791 -0.3019  0.1858
 6455SOL    HW130824   1.110   3.669   0.367  1.3775 -0.0784  2.6482
 6455SOL    HW230825   1.179   3.544   0.319  0.2322  0.2962 -0.1819
 6456SOL     OW30826   2.518   3.606   4.597 -0.1766  0.0664  0.0632
 6456SOL    HW130827   2.551   3.679   4.650  0.7237 -1.1639  1.1851
 6456SOL    HW230828   2.562   3.620   4.514  0.1908 -1.5336 -0.0092
 6457SOL     OW30829   2.322   4.605   8.975 -0.0199  0.6486  0.4997
 6457SOL    HW130830   2.260   4.560   8.918  2.3622 -3.9330  1.5452
 6457SOL    HW230831   2.284   4.693   8.974  1.5230  1.2913 -1.4551
 6458SOL     OW30832   2.920   1.386   0.671  0.4695  0.0055  0.6870
 6458SOL    HW130833   2.941   1.474   0.637 -0.9878  0.5895  1.3168
 6458SOL    HW230834   2.974   1.381   0.750 -1.2028 -0.9512  1.7616
 6459SOL     OW30835   3.017   1.745   6.643 -0.6663  0.3966  0.2327
 6459SOL    HW130836   2.930   1.766   6.676 -1.4674  0.4553 -1.9461
 6459SOL    HW230837   3.020   1.649   6.640 -0.5906  0.4385 -0.8421
 6460SOL     OW30838   4.135   1.933  15.811  0.1075 -0.2483  0.4137
 6460SOL    HW130839   4.216   1.937  15.759 -1.6896  2.7568 -2.0971
 6460SOL    HW230840   4.086   1.864  15.766  1.5204 -1.8092  1.2303
 6461SOL     OW30841   1.268   2.896   4.432 -0.2607 -0.3377 -0.1609
 6461SOL    HW130842   1.198   2.865   4.374  1.0998 -0.5637 -1.6683
 6461SOL    HW230843   1.345   2.848   4.404  1.2454  2.3996 -0.6791
 6462SOL     OW30844   0.702   3.774   7.762  0.0755  0.6105 -0.1339
 6462SOL    HW130845   0.707   3.682   7.733  1.5542 -0.3230  3.0954
 6462SOL    HW230846   0.741   3.806   7.680  1.1799 -0.2082  0.0757
 6463SOL     OW30847   2.150   2.499   2.914 -0.3197  0.0471 -0.1908
 6463SOL    HW130848   2.174   2.536   2.999 -0.5087  0.6304 -0.3961
 6463SOL    HW230849   2.125   2.577   2.865  1.9709 -0.4165 -2.1239
 6464SOL     OW30850   3.657   0.376   3.326  0.1357 -0.2058  0.5983
 6464SOL    HW130851   3.587   0.311   3.314  0.1171 -0.1702  0.5150
 6464SOL    HW230852   3.689   0.399   3.239  0.9712  0.0618  0.9755
 6465SOL     OW30853   2.587   0.985   8.541 -0.1278 -0.5185  0.1059
 6465SOL    HW130854   2.658   1.044   8.515  0.6048 -0.9979  1.0248
 6465SOL    HW230855   2.536   0.996   8.461 -0.4170  0.6791  0.4537
 6466SOL     OW30856   1.176   0.501   9.869  0.4100 -0.3132 -0.2419
 6466SOL    HW130857   1.167   0.443   9.944 -0.8939  0.5248  0.2378
 6466SOL    HW230858   1.240   0.453   9.815 -0.2153  0.1142 -1.3629
 6467SOL     OW30859   1.087   2.161   5.437  0.1180 -0.3313  0.2369
 6467SOL    HW130860   1.062   2.239   5.387  1.1916  0.7424  1.3681
 6467SOL    HW230861   1.147   2.203   5.498  1.8211  1.5914 -2.7813
 6468SOL     OW30862   0.042   4.047   4.354  0.4170  0.6471 -0.3836
 6468SOL    HW130863   0.131   4.079   4.339 -0.1410  1.6496 -1.5724
 6468SOL    HW230864   0.032   3.980   4.286 -0.3056 -1.0404  1.4042
 6469SOL     OW30865   2.249   3.145   5.387  0.0324 -0.3695  0.1403
 6469SOL    HW130866   2.340   3.135   5.416  0.9457  1.4625 -2.0473
 6469SOL    HW230867   2.201   3.103   5.458  1.4652  0.4609  1.5961
 6470SOL     OW30868   1.469   4.001   2.718 -0.0392  0.1238  0.0541
 6470SOL    HW130869   1.479   4.088   2.756  0.9162 -1.3167  3.0549
 6470SOL    HW230870   1.480   3.956   2.801 -0.9424  1.0754  0.6920
 6471SOL     OW30871   1.527   3.164  13.092  0.0569  0.5574  0.0637
 6471SOL    HW130872   1.443   3.139  13.055  0.4382 -1.8588  0.7968
 6471SOL    HW230873   1.540   3.248  13.048  0.8514  0.1265 -0.5342
 6472SOL     OW30874   4.078   1.884   0.025  0.6610  0.8067  0.4248
 6472SOL    HW130875   4.014   1.843   0.082  0.5962  0.6018  0.2046
 6472SOL    HW230876   4.158   1.864   0.074  1.1180 -1.7392 -1.3518
 6473SOL     OW30877   2.639   4.392  15.868  0.4976 -0.4884 -0.0801
 6473SOL    HW130878   2.546   4.415  15.863  0.7322  0.5936  0.4349
 6473SOL    HW230879   2.645   4.329  15.797  0.0310 -1.3379  0.6371
 6474SOL     OW30880   2.742   0.528  11.029  0.0041 -0.3558  0.1631
 6474SOL    HW130881   2.777   0.517  10.941 -0.9296  1.2770 -0.3979
 6474SOL    HW230882   2.693   0.448  11.050  1.2782 -0.6850  1.8614
 6475SOL     OW30883   0.992   0.335  14.092  0.3070 -0.3215 -0.1991
 6475SOL    HW130884   1.039   0.396  14.147 -0.6831 -0.7558  1.1369
 6475SOL    HW230885   0.947   0.401  14.039 -1.6332 -0.0485  1.8022
 6476SOL     OW30886   0.600   3.028   8.196  0.8293 -0.1818  0.3496
 6476SOL    HW130887   0.694   3.028   8.216  0.5607 -3.9405  1.5901
 6476SOL    HW230888   0.586   2.955   8.257 -0.3907  0.8185  1.2670
 6477SOL     OW30889   1.292   2.562   6.099  0.3366 -0.9537 -0.2922
 6477SOL    HW130890   1.358   2.566   6.168  0.3952  0.2313 -0.4168
 6477SOL    HW230891   1.238   2.490   6.133  1.8958 -0.6348  2.7626
 6478SOL     OW30892   0.985   2.932   3.971  0.1983 -0.6091 -0.1401
 6478SOL    HW130893   0.933   2.886   4.038  0.9266  0.0042  0.8542
 6478SOL    HW230894   1.006   2.849   3.929 -0.8399 -1.0841  0.2788
 6479SOL     OW30895   2.503   2.124   4.194  0.3569  0.3024  0.0514
 6479SOL    HW130896   2.590   2.155   4.169  1.1066 -1.6521  0.2340
 6479SOL    HW230897   2.491   2.081   4.110  1.0209 -0.9908  0.6198
 6480SOL     OW30898   3.908   2.628   8.871  0.3330 -0.3174  0.0672
 6480SOL    HW130899   3.942   2.539   8.864  0.2629 -0.3180 -0.2894
 6480SOL    HW230900   3.976   2.676   8.918 -0.4541  1.9751 -1.1252
 6481SOL     OW30901   2.244   0.395   3.608  0.2074 -0.0082 -0.0417
 6481SOL    HW130902   2.189   0.317   3.622 -1.7152  1.2572 -0.5858
 6481SOL    HW230903   2.269   0.419   3.697 -0.6298  1.9684 -0.3386
 6482SOL     OW30904   2.393   2.250   2.083  0.6897 -0.2059 -0.0057
 6482SOL    HW130905   2.365   2.230   2.172 -1.9870  0.8049 -0.6167
 6482SOL    HW230906   2.484   2.263   2.110  0.5889  0.5274 -0.0216
 6483SOL     OW30907   2.005   3.208  17.285  0.1886 -0.4171  0.0211
 6483SOL    HW130908   1.995   3.303  17.287  0.9916 -0.3937  2.3932
 6483SOL    HW230909   1.926   3.181  17.332 -0.9212  0.2382 -1.4289
 6484SOL     OW30910   1.753   1.622  12.295 -0.5346 -0.0884 -0.4668
 6484SOL    HW130911   1.820   1.690  12.290  1.7722 -2.2365  1.6490
 6484SOL    HW230912   1.745   1.591  12.386 -2.0055  0.8015 -0.2962
 6485SOL     OW30913   4.175   2.530   0.549 -0.2354  0.0756 -0.9582
 6485SOL    HW130914   4.269   2.517   0.561  0.0528  0.6397 -2.6151
 6485SOL    HW230915   4.152   2.458   0.491  1.5507  0.3059 -1.9521
 6486SOL     OW30916   0.269   2.121  16.056 -0.2586 -0.0735 -0.2405
 6486SOL    HW130917   0.209   2.075  15.997  0.8075  0.9278 -2.1083
 6486SOL    HW230918   0.328   2.169  15.998  1.9125 -2.6800 -0.2357
 6487SOL     OW30919   2.373   3.779  10.735 -0.1873  0.1446  0.0990
 6487SOL    HW130920   2.350   3.746  10.822  0.9479  2.6665  1.3524
 6487SOL    HW230921   2.368   3.696  10.688 -0.3617  1.7545 -2.7314
 6488SOL     OW30922   1.355   0.129   0.511 -0.2210  0.5704  0.9989
 6488SOL    HW130923   1.275   0.082   0.491  0.5734 -0.4371  0.1812
 6488SOL    HW230924   1.392   0.115   0.424 -1.0861 -2.5870  1.1476
 6489SOL     OW30925   2.251   0.276  13.672  0.0711 -0.0727 -0.4435
 6489SOL    HW130926   2.201   0.194  13.670  0.2208 -0.1486 -1.0451
 6489SOL    HW230927   2.197   0.345  13.632 -0.8511  0.9292  2.5256
 6490SOL     OW30928   2.575   1.131  11.124  0.2354 -0.2685  0.0211
 6490SOL    HW130929   2.559   1.045  11.164 -0.5578 -1.4197 -2.8163
 6490SOL    HW230930   2.575   1.113  11.030  0.1533  0.9222 -0.2156
 6491SOL     OW30931   4.284   0.212  10.789  0.5866 -0.5514  0.4928
 6491SOL    HW130932   4.197   0.225  10.825 -0.1476  1.4768 -1.9937
 6491SOL    HW230933   4.280   0.118  10.774  0.8915 -0.2955 -1.1954
 6492SOL     OW30934   1.991   0.398   1.835  0.4838 -0.5083 -0.2460
 6492SOL    HW130935   2.063   0.356   1.788  0.7383 -0.6935  0.3198
 6492SOL    HW230936   2.042   0.473   1.867 -0.5021  0.0342  0.0607
 6493SOL     OW30937   3.120   3.703  16.294 -0.2185 -0.3401  0.7593
 6493SOL    HW130938   3.069   3.757  16.355  0.5777  0.8151  0.4038
 6493SOL    HW230939   3.127   3.615  16.330 -0.0050 -0.1345  1.2178
 6494SOL     OW30940   2.904   3.184   7.935 -0.4566  0.3808 -0.1672
 6494SOL    HW130941   2.890   3.104   7.985  1.2498  0.7412  0.8956
 6494SOL    HW230942   2.836   3.249   7.954 -0.0542  0.3096  1.5676
 6495SOL     OW30943   4.250   2.980   2.791  0.0884 -0.0266  0.3025
 6495SOL    HW130944   4.243   2.989   2.696  2.2395  0.4138  0.1817
 6495SOL    HW230945   4.321   2.918   2.806  0.9045  0.9415  0.3787
 6496SOL     OW30946   1.510   4.619   1.802 -0.8112 -0.0206  0.4387
 6496SOL    HW130947   1.420   4.633   1.771 -1.2651 -1.7277  1.0157
 6496SOL    HW230948   1.546   4.708   1.797  0.5304 -0.6240 -0.6210
 6497SOL     OW30949   3.124   0.553   9.720 -0.2000  0.0487  0.4736
 6497SOL    HW130950   3.047   0.579   9.772  1.3148  3.7606  0.8419
 6497SOL    HW230951   3.099   0.612   9.650  1.0811 -1.6736 -1.4137
 6498SOL     OW30952   0.567   2.177   5.856 -0.3328 -0.2543  0.2888
 6498SOL    HW130953   0.640   2.115   5.853  1.3844  1.7033  1.2208
 6498SOL    HW230954   0.526   2.159   5.772 -0.0560  2.2802 -0.3818
 6499SOL     OW30955   2.223   2.110   3.997 -0.2333 -0.0269 -0.0300
 6499SOL    HW130956   2.313   2.128   3.971 -0.1536  0.8592  0.8441
 6499SOL    HW230957   2.236   2.072   4.083  0.2711  2.5079  1.0235
 6500SOL     OW30958   2.670   0.194   2.538 -0.0840 -0.2041 -0.8795
 6500SOL    HW130959   2.741   0.250   2.504  0.2695 -0.1596 -0.0826
 6500SOL    HW230960   2.711   0.132   2.598 -0.4513  0.6429  0.2452
 6501SOL     OW30961   4.015   4.689  13.157  0.0850 -0.2961  0.5261
 6501SOL    HW130962   3.935   4.703  13.106  0.4361  0.4685  0.1907
 6501SOL    HW230963   4.004   0.044  13.214 -1.6887 -0.2627  0.1359
 6502SOL     OW30964   0.220   1.599  17.341 -0.5017  0.2721 -0.4314
 6502SOL    HW130965   0.261   1.685  17.351 -0.7682  0.4588 -0.9287
 6502SOL    HW230966   0.289   1.556  17.290  0.6169  1.9501 -0.3596
 6503SOL     OW30967   0.700   3.964   8.469 -0.0258  0.2386  0.0504
 6503SOL    HW130968   0.698   4.041   8.412 -0.8307  0.6860  0.6834
 6503SOL    HW230969   0.630   3.912   8.431  1.1076  1.1605 -3.2969
 6504SOL     OW30970   1.851   1.961  13.105  0.2068 -0.2820 -0.2087
 6504SOL    HW130971   1.805   1.956  13.021 -1.2110  1.3638  0.4833
 6504SOL    HW230972   1.868   2.056  13.108  0.2061 -0.2006 -3.0237
 6505SOL     OW30973   1.047   1.331   5.950 -0.1409 -0.1983  0.3282
 6505SOL    HW130974   1.076   1.246   5.918  0.9474  0.9878 -1.8400
 6505SOL    HW230975   0.960   1.328   5.912 -0.5613  1.6983  1.1482
 6506SOL     OW30976   3.647   4.606   3.479  0.8393  0.2036 -0.1082
 6506SOL    HW130977   3.686   4.628   3.394  1.1965  0.3934  0.1067
 6506SOL    HW230978   3.617   4.694   3.501 -2.3467 -0.5531 -1.3930
 6507SOL     OW30979   2.128   0.969   6.909 -0.2855 -0.5259 -0.1238
 6507SOL    HW130980   2.058   0.955   6.973 -0.8539 -1.0542 -0.8662
 6507SOL    HW230981   2.180   1.024   6.967 -1.7025 -2.1596  2.6631
 6508SOL     OW30982   0.283   2.679   4.359 -0.1616 -0.6919  0.0126
 6508SOL    HW130983   0.269   2.625   4.280 -0.9250 -0.4364 -0.0254
 6508SOL    HW230984   0.286   2.765   4.318  0.9213  0.3759  2.3340
 6509SOL     OW30985   3.727   0.583   3.802 -0.1026 -0.4745  0.1441
 6509SOL    HW130986   3.822   0.597   3.808 -0.0486 -1.0834  0.6970
 6509SOL    HW230987   3.688   0.659   3.845  0.6561 -0.8981  1.5848
 6510SOL     OW30988   4.072   1.995  14.181 -0.3110  0.9472  0.1286
 6510SOL    HW130989   4.049   1.932  14.114  0.5971  1.3605 -0.5727
 6510SOL    HW230990   4.028   1.958  14.258  2.0267  0.8107  1.4159
 6511SOL     OW30991   2.459   3.431  14.932 -0.6754 -0.0280 -0.6549
 6511SOL    HW130992   2.451   3.354  14.989 -3.5967  1.6324  1.1363
 6511SOL    HW230993   2.472   3.390  14.846 -1.3150  0.6703 -1.0801
 6512SOL     OW30994   0.852   3.433   1.216 -0.2968  0.4229 -0.3856
 6512SOL    HW130995   0.847   3.523   1.186  2.2196  0.9008  0.6036
 6512SOL    HW230996   0.883   3.441   1.306  3.6435 -1.7675 -1.5129
 6513SOL     OW30997   0.465   3.248   2.176  0.2309  0.2049  0.1668
 6513SOL    HW130998   0.478   3.244   2.271 -1.2219 -0.3824  0.3413
 6513SOL    HW230999   0.432   3.337   2.162 -0.3102 -0.0223  0.0073
 6514SOL     OW31000   1.464   3.983   6.263  0.1048  0.3527 -0.0330
 6514SOL    HW131001   1.378   4.023   6.278 -0.8548 -2.2961  1.6869
 6514SOL    HW231002   1.444   3.889   6.266 -0.9796  0.5519 -1.0306
 6515SOL     OW31003   3.786   3.656   4.427  1.0006 -0.6064  0.1822
 6515SOL    HW131004   3.852   3.599   4.386  1.5844 -0.2406  0.6205
 6515SOL    HW231005   3.826   3.663   4.514 -1.3971  2.3913  1.0379
 6516SOL     OW31006   1.127   4.644   6.670 -0.4002  0.3226 -0.0693
 6516SOL    HW131007   1.217   4.612   6.659 -0.6196 -0.6971  1.0244
 6516SOL    HW231008   1.147   0.015   6.686 -0.3576  0.7602 -2.6650
 6517SOL     OW31009   1.144   1.975  12.482 -0.2637 -0.3144  0.1952
 6517SOL    HW131010   1.112   1.971  12.392 -1.5622 -0.6966  0.6754
 6517SOL    HW231011   1.165   2.068  12.481  0.1757 -0.3946  1.3512
 6518SOL     OW31012   4.487   0.017   9.016  0.0977 -0.4697 -0.3254
 6518SOL    HW131013   4.502   0.079   9.087 -1.0436  0.1861 -0.6638
 6518SOL    HW231014   4.397   4.709   9.030 -1.1192  2.9440 -1.1308
 6519SOL     OW31015   1.757   4.141  15.823  0.1745 -0.0195  0.0762
 6519SOL    HW131016   1.790   4.085  15.752 -0.1013  0.3317 -0.3297
 6519SOL    HW231017   1.679   4.088  15.842  0.5771 -0.7267 -0.2328
 6520SOL     OW31018   1.312   1.052   1.906 -0.3793 -0.3617  0.3181
 6520SOL    HW131019   1.317   0.957   1.896  2.7177 -0.3813  1.8320
 6520SOL    HW231020   1.247   1.070   1.974 -1.5525 -0.6590 -0.7284
 6521SOL     OW31021   1.485   2.997  13.648 -0.1587  0.6905 -0.6394
 6521SOL    HW131022   1.510   2.926  13.589 -1.0036 -0.5410  0.4695
 6521SOL    HW231023   1.549   3.057  13.609 -0.8180  1.7838 -0.0555
 6522SOL     OW31024   1.558   3.777   6.676 -0.3583  0.1664  0.3824
 6522SOL    HW131025   1.483   3.762   6.734 -1.6919 -0.9810 -1.6622
 6522SOL    HW231026   1.614   3.700   6.691  0.7297  1.1099  1.1908
 6523SOL     OW31027   2.822   0.948   4.071 -0.3650  0.8444 -0.6427
 6523SOL    HW131028   2.747   0.906   4.113  0.5343 -2.1018 -2.0286
 6523SOL    HW231029   2.805   0.922   3.981 -1.4460  3.0979 -1.0842
 6524SOL     OW31030   3.099   1.420   1.762  0.1951 -0.0244  0.3381
 6524SOL    HW131031   3.104   1.513   1.739 -0.0344 -0.0035  0.3722
 6524SOL    HW231032   3.185   1.394   1.727  1.0066  0.6670  1.8420
 6525SOL     OW31033   1.787   2.214  11.556 -0.4639  0.2275 -0.1570
 6525SOL    HW131034   1.762   2.154  11.486 -2.8471  1.0275  0.0427
 6525SOL    HW231035   1.713   2.195  11.612  0.3423  3.0648  1.8962
 6526SOL     OW31036   3.224   2.374   4.827  0.2520  0.5248 -0.0056
 6526SOL    HW131037   3.138   2.342   4.855 -0.4305  1.6688 -0.7933
 6526SOL    HW231038   3.207   2.468   4.821  0.3743  0.5348 -0.1870
 6527SOL     OW31039   4.379   3.684   2.032  0.3593  0.1654 -0.4991
 6527SOL    HW131040   4.335   3.607   2.067 -0.9034 -0.1390 -2.8218
 6527SOL    HW231041   4.458   3.642   1.997  1.2474  1.3488  0.0873
 6528SOL     OW31042   0.046   3.980   6.686  0.5142 -0.1975 -0.4242
 6528SOL    HW131043   4.711   4.048   6.724  1.1607 -1.8183  3.4114
 6528SOL    HW231044   0.133   4.011   6.710  0.8037 -1.1352 -0.2679
 6529SOL     OW31045   2.341   3.041   7.326  0.6085 -0.3634  0.4790
 6529SOL    HW131046   2.248   3.060   7.316  0.2739 -2.9681 -1.3134
 6529SOL    HW231047   2.344   2.946   7.319  0.1735 -0.3201 -0.2863
 6530SOL     OW31048   1.484   3.616   2.351 -0.2508  0.0876  0.0505
 6530SOL    HW131049   1.470   3.524   2.330  0.2603 -0.2390  1.1513
 6530SOL    HW231050   1.539   3.655   2.283  1.4514 -0.3795  1.1821
 6531SOL     OW31051   3.219   1.417  11.250 -0.1992  0.1344  0.8352
 6531SOL    HW131052   3.277   1.493  11.244  1.7562 -1.3802  0.8800
 6531SOL    HW231053   3.280   1.352  11.283  0.6677  0.4812 -0.0687
 6532SOL     OW31054   3.143   4.391   5.048 -0.1111 -0.1242 -0.2486
 6532SOL    HW131055   3.099   4.423   4.969  1.2543  0.0018 -0.9492
 6532SOL    HW231056   3.222   4.372   4.998  1.7064  0.5614  2.3804
 6533SOL     OW31057   1.445   4.267  15.501  0.0820 -0.0630 -0.0755
 6533SOL    HW131058   1.485   4.353  15.509  0.7086 -0.3624 -0.0463
 6533SOL    HW231059   1.370   4.288  15.445  0.0363  0.9193  0.3477
 6534SOL     OW31060   3.254   2.503   6.689  0.2857  0.3902 -0.4581
 6534SOL    HW131061   3.183   2.466   6.637  2.0934 -2.1687 -1.0762
 6534SOL    HW231062   3.300   2.567   6.634  2.8587 -1.1951 -0.1316
 6535SOL     OW31063   3.345   4.533   5.988 -0.3397 -0.4927  0.0397
 6535SOL    HW131064   3.372   4.508   6.076  1.2129  0.8157 -0.0476
 6535SOL    HW231065   3.324   4.623   6.013 -0.5131 -1.1675  2.2655
 6536SOL     OW31066   1.160   4.269  11.399  0.2245  0.1346 -0.6616
 6536SOL    HW131067   1.120   4.356  11.400  0.0441  0.0471  0.1334
 6536SOL    HW231068   1.122   4.250  11.485 -0.1656  2.7197 -0.2675
 6537SOL     OW31069   0.419   1.860  16.338  0.7072 -0.1536  0.6932
 6537SOL    HW131070   0.432   1.820  16.424  1.4245  1.4082  1.3226
 6537SOL    HW231071   0.473   1.939  16.350  0.2276  0.4810 -1.2439
 6538SOL     OW31072   0.542   3.449  15.375 -0.1883  0.0058 -0.2461
 6538SOL    HW131073   0.604   3.376  15.371 -0.2862 -0.2218  3.1742
 6538SOL    HW231074   0.512   3.432  15.464  0.1659 -2.1323 -0.5424
 6539SOL     OW31075   1.934   4.032   6.972  0.3835  0.3635 -0.3524
 6539SOL    HW131076   1.883   3.968   7.022  1.3792  0.8779  1.3182
 6539SOL    HW231077   1.913   3.998   6.885 -1.0966 -0.9968  0.5552
 6540SOL     OW31078   3.605   2.112   2.231 -0.3817  0.0725 -0.2157
 6540SOL    HW131079   3.612   2.181   2.298  0.6959  0.9803 -1.2809
 6540SOL    HW231080   3.515   2.084   2.249 -0.8933  1.7092 -0.2482
 6541SOL     OW31081   3.870   2.521  15.778  0.4927 -0.3271  0.5179
 6541SOL    HW131082   3.922   2.545  15.702  0.1203  0.9553  0.6695
 6541SOL    HW231083   3.798   2.583  15.784  0.9114  0.1534  0.5841
 6542SOL     OW31084   4.539   4.326   8.633  0.5767 -0.3166  0.5522
 6542SOL    HW131085   4.536   4.268   8.557 -0.3071 -0.3018  0.5809
 6542SOL    HW231086   4.474   4.394   8.615  1.6856  1.4175  3.0842
 6543SOL     OW31087   0.066   4.287   6.056 -0.3487  0.1757  0.0003
 6543SOL    HW131088   0.130   4.355   6.080  0.1454 -0.2078 -0.2305
 6543SOL    HW231089   0.025   4.324   5.978 -0.2322  1.8270  0.7099
 6544SOL     OW31090   0.755   2.862  14.382  0.3793 -0.6823  0.4392
 6544SOL    HW131091   0.750   2.881  14.288  0.4721  1.7288  0.9262
 6544SOL    HW231092   0.773   2.950  14.415 -0.9230 -0.4178  0.4531
 6545SOL     OW31093   0.997   3.400  12.477  0.2296  0.4509  0.4179
 6545SOL    HW131094   1.091   3.415  12.491  0.7202 -2.0542 -0.1383
 6545SOL    HW231095   0.977   3.326  12.534 -1.1457  0.8471  0.4360
 6546SOL     OW31096   2.033   1.896  17.319  0.1018  0.6008  1.0911
 6546SOL    HW131097   2.082   1.975  17.298  1.4907 -0.7724 -0.8708
 6546SOL    HW231098   2.063   1.841  17.247  0.4506 -0.8235  2.3189
 6547SOL     OW31099   3.112   2.976   4.665  0.1596 -1.3854  0.0948
 6547SOL    HW131100   3.200   2.965   4.630 -0.0027  0.4427 -0.8839
 6547SOL    HW231101   3.088   3.051   4.611  2.6557 -0.9419 -0.3853
 6548SOL     OW31102   3.096   4.158   7.609 -0.0683 -0.4735 -0.2040
 6548SOL    HW131103   3.007   4.133   7.587  0.1396 -1.7717  0.4285
 6548SOL    HW231104   3.134   4.115   7.533 -0.8860 -0.3476 -0.6695
 6549SOL     OW31105   2.958   0.230  16.515 -0.2634  0.1607  0.0893
 6549SOL    HW131106   2.931   0.320  16.529  1.1851  0.0657  3.4936
 6549SOL    HW231107   2.929   0.180  16.591  1.4036  1.3186  1.4987
 6550SOL     OW31108   3.362   0.788   0.224 -0.1391  0.0600  0.0667
 6550SOL    HW131109   3.350   0.828   0.311  1.6511 -0.8834  0.7586
 6550SOL    HW231110   3.382   0.697   0.246 -1.2331 -0.4762 -1.1490
 6551SOL     OW31111   1.947   4.245   8.424  0.4603 -0.0428  0.4722
 6551SOL    HW131112   1.980   4.281   8.342  0.3015 -0.3473  0.2705
 6551SOL    HW231113   1.852   4.251   8.413  0.3318  0.8716  2.1253
 6552SOL     OW31114   4.461   1.799   3.772  0.7796  0.1436  0.5859
 6552SOL    HW131115   4.463   1.894   3.775 -2.1393  0.1777  1.7888
 6552SOL    HW231116   4.368   1.785   3.789  0.6075  1.9559  1.1216
 6553SOL     OW31117   0.512   4.461   0.970 -0.5456  0.1439 -0.1419
 6553SOL    HW131118   0.605   4.442   0.963 -0.4723  0.2506  0.5329
 6553SOL    HW231119   0.506   4.535   0.908  4.6857 -0.2778 -1.1214
 6554SOL     OW31120   0.371   3.901   9.152 -0.1974 -0.1357  0.3727
 6554SOL    HW131121   0.313   3.825   9.147  0.3202 -0.3938 -1.6462
 6554SOL    HW231122   0.312   3.969   9.117 -1.5132 -1.8967 -0.8581
 6555SOL     OW31123   3.254   1.527   3.209 -0.4231 -0.2064  0.4039
 6555SOL    HW131124   3.336   1.490   3.174 -1.0714 -2.6938  1.5417
 6555SOL    HW231125   3.237   1.605   3.156  0.0982 -0.9706 -0.8864
 6556SOL     OW31126   0.843   1.565   8.382  0.0333  0.3431 -0.3691
 6556SOL    HW131127   0.792   1.484   8.377  1.5357 -0.6977  1.2616
 6556SOL    HW231128   0.803   1.617   8.452 -0.2886 -3.1388  2.0226
 6557SOL     OW31129   0.393   0.969   5.476  0.6632  0.0917  0.4617
 6557SOL    HW131130   0.329   0.913   5.431  0.7717 -0.5689  1.1399
 6557SOL    HW231131   0.467   0.966   5.415 -1.4839 -0.5375 -2.1258
 6558SOL     OW31132   2.549   3.097   1.236 -0.2292 -0.1033  0.2403
 6558SOL    HW131133   2.517   3.129   1.321 -0.0587  1.7397 -0.4002
 6558SOL    HW231134   2.476   3.048   1.198 -0.1780 -0.0126  0.0297
 6559SOL     OW31135   1.007   1.647   3.106  0.2611  0.2603  0.6234
 6559SOL    HW131136   1.051   1.609   3.182  0.1899  1.7808  1.4082
 6559SOL    HW231137   0.923   1.679   3.138 -1.0611 -0.7948 -1.7441
 6560SOL     OW31138   0.774   1.050   1.869  0.3296 -0.2755  0.0129
 6560SOL    HW131139   0.766   1.022   1.778 -0.7406 -1.4228  0.4653
 6560SOL    HW231140   0.783   1.145   1.863 -2.2040 -0.1686 -1.9388
 6561SOL     OW31141   1.792   3.203  17.485  0.9542 -0.3967 -0.8067
 6561SOL    HW131142   1.768   3.181  17.575  0.6259  0.2842 -0.7338
 6561SOL    HW231143   1.749   3.124  17.450  1.3798 -1.8722  1.9550
 6562SOL     OW31144   3.518   1.509  14.897  0.5843  0.1051  0.1172
 6562SOL    HW131145   3.518   1.558  14.815 -0.6104  0.6458  0.4459
 6562SOL    HW231146   3.427   1.502  14.925  0.3857 -1.5403 -0.9533
 6563SOL     OW31147   0.570   0.219   1.263 -0.4006 -0.0366  0.0549
 6563SOL    HW131148   0.578   0.123   1.260  0.8748  0.0202  2.4440
 6563SOL    HW231149   0.563   0.242   1.355 -1.4476 -1.2550  0.2909
 6564SOL     OW31150   0.338   2.263   4.475  0.2183  0.0706 -0.1483
 6564SOL    HW131151   0.384   2.230   4.398 -0.1081 -0.1725 -0.2336
 6564SOL    HW231152   0.302   2.343   4.438  0.3034  0.9905  1.7314
 6565SOL     OW31153   0.357   0.937  10.614  0.4341 -0.6217 -0.0188
 6565SOL    HW131154   0.400   0.962  10.532  0.4302  1.8531  0.7124
 6565SOL    HW231155   0.420   0.975  10.676 -0.2626 -2.0661  1.5518
 6566SOL     OW31156   1.164   4.270   1.808  0.0812 -0.5176 -0.2640
 6566SOL    HW131157   1.222   4.345   1.815  0.5131 -0.7010 -1.7343
 6566SOL    HW231158   1.095   4.292   1.871 -0.0673 -0.2503 -0.5150
 6567SOL     OW31159   4.114   4.172   4.568  0.0798  0.1161 -0.1237
 6567SOL    HW131160   4.063   4.093   4.589 -0.4949  0.6626  0.5183
 6567SOL    HW231161   4.042   4.232   4.585 -1.1489 -1.3609 -0.1083
 6568SOL     OW31162   0.173   4.691   4.663 -0.3495 -0.0802  0.5188
 6568SOL    HW131163   0.113   4.620   4.686  0.0808 -0.4603  0.4741
 6568SOL    HW231164   0.122   0.046   4.691 -3.8109 -1.2113 -2.7260
 6569SOL     OW31165   1.373   1.893   0.748 -0.1893  0.5585 -0.8286
 6569SOL    HW131166   1.412   1.980   0.757  2.8313 -0.9238  0.1611
 6569SOL    HW231167   1.360   1.893   0.653 -2.0605 -0.4235 -0.5877
 6570SOL     OW31168   2.244   2.074   5.227 -0.3276 -0.0863  0.1119
 6570SOL    HW131169   2.263   2.150   5.283  3.2743 -0.2969 -0.8349
 6570SOL    HW231170   2.176   2.023   5.271 -0.4482 -0.8740 -0.9884
 6571SOL     OW31171   1.230   4.369   5.893 -0.1015 -0.0993  0.5809
 6571SOL    HW131172   1.294   4.432   5.862  1.1530 -1.0947  1.1519
 6571SOL    HW231173   1.169   4.357   5.820 -1.0653  1.1654  1.1719
 6572SOL     OW31174   3.108   2.782   2.813  0.2223  0.0525  0.1288
 6572SOL    HW131175   3.176   2.841   2.845 -0.8953  1.1346  0.4984
 6572SOL    HW231176   3.117   2.809   2.722  0.1610  0.7394  0.3289
 6573SOL     OW31177   1.590   2.141   2.581 -0.5474  0.4319  0.2770
 6573SOL    HW131178   1.609   2.050   2.604 -3.5641 -0.6695 -1.6897
 6573SOL    HW231179   1.669   2.180   2.618  0.4250 -1.0661 -0.2227
 6574SOL     OW31180   1.200   3.729   0.029  0.5480 -0.5768 -0.4928
 6574SOL    HW131181   1.207   3.751  17.622 -0.8465 -0.1114 -0.4942
 6574SOL    HW231182   1.285   3.762   0.059  1.3798 -0.1056 -3.3023
 6575SOL     OW31183   2.018   3.087   4.177 -0.2747  0.1118  0.2613
 6575SOL    HW131184   1.945   3.108   4.236 -1.6663  0.8851 -1.7478
 6575SOL    HW231185   2.076   3.031   4.230  0.5713 -0.2313 -1.0438
 6576SOL     OW31186   0.599   0.306   2.621 -0.2268 -0.4764 -0.0655
 6576SOL    HW131187   0.668   0.241   2.613  0.7432  0.2808  2.3232
 6576SOL    HW231188   0.615   0.351   2.538 -3.3858  0.6972 -0.0605
 6577SOL     OW31189   1.721   1.362   8.409  0.1415  0.5128  0.5407
 6577SOL    HW131190   1.808   1.339   8.377 -0.0272  3.2018 -1.8508
 6577SOL    HW231191   1.697   1.425   8.341 -1.4068 -1.8933 -1.1379
 6578SOL     OW31192   1.759   0.060   9.303  0.0986  0.4834 -0.3350
 6578SOL    HW131193   1.790   4.721   9.371  0.2200  0.4826 -0.3907
 6578SOL    HW231194   1.710   0.118   9.361  1.5764 -0.5062  1.8874
 6579SOL     OW31195   1.869   3.446  16.550 -0.0296  0.1719  0.2328
 6579SOL    HW131196   1.820   3.528  16.558  0.9197  0.7449  0.2309
 6579SOL    HW231197   1.958   3.482  16.541 -0.9545  2.1280 -1.1275
 6580SOL     OW31198   3.679   0.058   7.211  0.4206 -0.2158 -0.2364
 6580SOL    HW131199   3.725   0.107   7.279  0.0556  0.7795 -0.6983
 6580SOL    HW231200   3.624   4.719   7.262 -1.4944 -0.1586 -2.2321
 6581SOL     OW31201   2.203   1.577   2.719  0.2270  0.2786  0.1584
 6581SOL    HW131202   2.227   1.567   2.627 -2.5332  0.1208 -0.5567
 6581SOL    HW231203   2.264   1.514   2.757 -0.7589 -0.7072  0.1036
 6582SOL     OW31204   0.945   3.112   7.430 -0.5206 -0.2929 -0.5590
 6582SOL    HW131205   0.880   3.048   7.403 -2.3306  0.4954  1.9657
 6582SOL    HW231206   1.026   3.069   7.401 -1.4636 -1.7893 -0.9693
 6583SOL     OW31207   1.744   1.491   5.503  0.4607 -0.0472 -0.1480
 6583SOL    HW131208   1.839   1.493   5.514  0.2481  1.2784  1.3400
 6583SOL    HW231209   1.730   1.410   5.553 -0.9781 -0.4396 -1.1609
 6584SOL     OW31210   1.551   0.615   6.112 -0.2806 -0.2802 -0.4648
 6584SOL    HW131211   1.522   0.616   6.020  1.0195 -0.9845 -0.8809
 6584SOL    HW231212   1.577   0.702   6.140 -0.8252 -0.8367  1.7329
 6585SOL     OW31213   2.845   2.777   7.851  0.1256  0.4345 -0.3000
 6585SOL    HW131214   2.901   2.805   7.779  1.9318  1.2200  1.3932
 6585SOL    HW231215   2.918   2.752   7.908  0.8584 -1.5435 -2.0880
 6586SOL     OW31216   3.449   2.714  13.045 -0.1118 -0.2928 -0.0143
 6586SOL    HW131217   3.541   2.719  13.020 -0.2011 -1.4900 -0.6005
 6586SOL    HW231218   3.415   2.797  13.012 -1.0060 -1.3535 -1.7387
 6587SOL     OW31219   1.508   2.381  16.934 -0.2506 -0.2963  0.4332
 6587SOL    HW131220   1.571   2.387  17.006  2.7443 -2.6366 -1.9693
 6587SOL    HW231221   1.583   2.353  16.880  0.0447  1.2265  0.0436
 6588SOL     OW31222   3.390   1.231   1.958 -0.0121 -0.8281  0.3601
 6588SOL    HW131223   3.342   1.191   2.031  1.9247 -1.0118  1.5494
 6588SOL    HW231224   3.388   1.154   1.902 -2.2123 -1.2942  1.1024
 6589SOL     OW31225   0.323   1.813  15.918 -0.1589 -0.2252  0.2040
 6589SOL    HW131226   0.388   1.803  15.848  1.0848  1.3227  1.1500
 6589SOL    HW231227   0.257   1.749  15.892 -0.0646 -0.2366 -0.0110
 6590SOL     OW31228   4.379   2.252   4.460  0.0470  0.3840  0.4031
 6590SOL    HW131229   4.358   2.182   4.397 -0.9175 -0.5662  1.7805
 6590SOL    HW231230   4.473   2.243   4.475  0.4020 -0.4172 -2.2670
 6591SOL     OW31231   4.629   1.446   6.200  0.0352 -0.1165 -0.4104
 6591SOL    HW131232   4.704   1.421   6.254  1.7976  0.0648 -2.7640
 6591SOL    HW231233   4.605   1.525   6.247  0.2193  0.1058 -0.6911
 6592SOL     OW31234   0.724   3.168  10.103 -0.4495 -0.0044  0.1335
 6592SOL    HW131235   0.772   3.092  10.070 -1.0626  0.4488 -1.8356
 6592SOL    HW231236   0.784   3.207  10.166  0.2787 -2.2461  0.8452
 6593SOL     OW31237   4.667   4.567  13.099 -0.0140 -0.1366 -0.2167
 6593SOL    HW131238   4.683   4.634  13.033  1.8374 -1.2708 -0.9115
 6593SOL    HW231239   0.025   4.513  13.091  1.6800  1.7625  3.0476
 6594SOL     OW31240   4.218   1.808  12.047 -0.6701 -0.6166  0.9083
 6594SOL    HW131241   4.285   1.873  12.066 -0.5422 -0.6763  0.6748
 6594SOL    HW231242   4.146   1.847  12.096 -2.5360 -1.1961 -1.3180
 6595SOL     OW31243   0.417   2.988   2.647 -0.1291  0.6594 -0.2010
 6595SOL    HW131244   0.382   2.996   2.558 -0.3157  0.6465 -0.1279
 6595SOL    HW231245   0.510   2.995   2.627 -0.2319 -0.6910 -1.1656
 6596SOL     OW31246   0.707   0.863   5.590  0.2373 -0.2097 -0.0429
 6596SOL    HW131247   0.743   0.926   5.653 -0.1031  1.2280 -1.2826
 6596SOL    HW231248   0.650   0.809   5.644 -0.1310 -0.9791 -1.1986
 6597SOL     OW31249   2.501   1.059   7.061 -0.4708 -0.9684 -0.2922
 6597SOL    HW131250   2.512   0.968   7.033 -1.2131 -0.8597 -0.9262
 6597SOL    HW231251   2.473   1.101   6.980  1.1615  2.2101  0.7917
 6598SOL     OW31252   4.107   1.292   8.914 -0.3131 -0.4681  0.1358
 6598SOL    HW131253   4.049   1.249   8.852  0.3770 -0.0983 -0.7736
 6598SOL    HW231254   4.038   1.322   8.973 -1.8255 -1.2810 -1.2188
 6599SOL     OW31255   1.749   2.328   6.185 -0.2801  0.5141  0.3344
 6599SOL    HW131256   1.669   2.276   6.192 -0.2180  0.4045  0.2455
 6599SOL    HW231257   1.712   2.414   6.167 -1.6616 -0.8119 -3.1749
 6600SOL     OW31258   3.317   3.859  15.603 -0.0680 -0.1178 -0.1290
 6600SOL    HW131259   3.406   3.873  15.572  0.5705 -2.1027  0.8343
 6600SOL    HW231260   3.340   3.828  15.690 -0.9683 -1.8879 -0.5227
 6601SOL     OW31261   1.922   0.487  10.219  0.3155  0.1238  0.0899
 6601SOL    HW131262   1.973   0.463  10.141  0.9752 -1.3058  0.9552
 6601SOL    HW231263   1.986   0.543  10.262  1.7856 -2.4265  1.1956
 6602SOL     OW31264   3.164   1.499   4.151 -0.4306 -0.3100 -0.2416
 6602SOL    HW131265   3.184   1.532   4.238  0.3984 -2.6922  0.4846
 6602SOL    HW231266   3.137   1.578   4.104 -0.3992 -0.1399  0.0239
 6603SOL     OW31267   0.457   1.020  15.124  0.1961 -0.2429 -0.2820
 6603SOL    HW131268   0.486   0.984  15.208  0.3721 -1.4172 -0.8626
 6603SOL    HW231269   0.541   1.040  15.084  0.8591  0.8096  1.6153
 6604SOL     OW31270   4.298   0.595   5.517 -0.1959 -0.1454 -0.0245
 6604SOL    HW131271   4.236   0.639   5.459 -0.5010 -2.1266 -1.2246
 6604SOL    HW231272   4.358   0.663   5.546  0.9353 -1.4499  0.6955
 6605SOL     OW31273   1.767   4.604   6.348 -0.0105  0.3929  0.5032
 6605SOL    HW131274   1.749   4.643   6.434  0.3018 -1.8496  1.5769
 6605SOL    HW231275   1.831   4.540   6.381  1.4372  1.4602 -0.2479
 6606SOL     OW31276   4.289   1.113  13.429  0.3794  0.0711  0.0145
 6606SOL    HW131277   4.324   1.202  13.434  1.4024 -0.4171  1.9295
 6606SOL    HW231278   4.357   1.069  13.377 -1.9253  1.9833 -4.5812
 6607SOL     OW31279   0.706   1.627   6.555 -0.9846 -0.1429 -0.3077
 6607SOL    HW131280   0.723   1.710   6.510  0.7825 -0.8733 -0.9602
 6607SOL    HW231281   0.616   1.610   6.527 -1.1357 -2.7334  1.7720
 6608SOL     OW31282   0.412   2.982   5.056 -0.1108  0.4582  0.0082
 6608SOL    HW131283   0.396   3.075   5.039 -1.2046  0.4720  1.0708
 6608SOL    HW231284   0.332   2.938   5.028  1.0870 -0.1319 -2.4978
 6609SOL     OW31285   3.713   0.854  11.925 -0.2444  0.2607  0.0872
 6609SOL    HW131286   3.658   0.874  12.001  1.3414  0.3642  1.2174
 6609SOL    HW231287   3.717   0.759  11.926 -0.0441  0.2705  0.2504
 6610SOL     OW31288   2.081   0.828   4.540  0.3189 -0.5560 -0.1426
 6610SOL    HW131289   2.146   0.898   4.531  3.3200 -3.3508  0.0629
 6610SOL    HW231290   2.079   0.806   4.446  1.3685  0.0380 -0.3036
 6611SOL     OW31291   0.453   4.604   6.593 -0.7397  0.1514 -0.6965
 6611SOL    HW131292   0.444   4.511   6.573  2.1859 -0.0704 -0.8877
 6611SOL    HW231293   0.530   4.598   6.648 -1.0987 -0.7770 -0.3027
 6612SOL     OW31294   0.092   3.987   5.721  0.0826 -0.3382  0.1896
 6612SOL    HW131295   0.002   4.004   5.749  0.1665 -0.6264  0.6298
 6612SOL    HW231296   0.140   4.065   5.747  0.6680  0.6684 -3.8513
 6613SOL     OW31297   1.569   0.823   3.579  0.4334  0.0909  0.1473
 6613SOL    HW131298   1.572   0.761   3.507 -0.9751  0.0392  0.1166
 6613SOL    HW231299   1.570   0.903   3.526 -0.9661 -0.8598 -1.3191
 6614SOL     OW31300   1.392   3.470   5.771 -0.2527 -0.2087 -0.3041
 6614SOL    HW131301   1.438   3.484   5.688  0.6535 -0.9830  0.0684
 6614SOL    HW231302   1.393   3.564   5.786  0.2594  0.4019 -4.0587
 6615SOL     OW31303   2.374   2.108  13.650  0.0451 -0.3560  0.3268
 6615SOL    HW131304   2.291   2.070  13.620 -0.2134 -0.7715  1.5758
 6615SOL    HW231305   2.421   2.027  13.669  0.9079  0.4316  1.4861
 6616SOL     OW31306   4.516   4.353   7.390 -0.7484  0.0423 -0.0458
 6616SOL    HW131307   4.437   4.316   7.430  0.3390 -1.0220  1.1181
 6616SOL    HW231308   4.536   4.428   7.446  1.3879 -0.0501 -0.6925
 6617SOL     OW31309   3.232   0.641   4.690  0.4988  0.0278  0.5439
 6617SOL    HW131310   3.235   0.632   4.785 -0.2049 -0.6655  0.4947
 6617SOL    HW231311   3.157   0.589   4.662  0.7787 -1.2762  2.2259
 6618SOL     OW31312   3.889   2.230  16.990  0.0785 -0.3756 -0.0417
 6618SOL    HW131313   3.934   2.260  17.069 -2.9926 -0.3085  1.6799
 6618SOL    HW231314   3.821   2.296  16.978  1.2323  0.7341 -0.4926
 6619SOL     OW31315   1.769   2.570  11.208 -0.1330  0.6280 -0.1242
 6619SOL    HW131316   1.790   2.627  11.282  1.2838  1.3776 -1.1100
 6619SOL    HW231317   1.835   2.592  11.142  1.3868  1.7085  1.7614
 6620SOL     OW31318   1.389   3.248   2.040  0.0555  0.0479 -0.2881
 6620SOL    HW131319   1.301   3.214   2.052 -0.2795  0.3982 -1.8075
 6620SOL    HW231320   1.366   3.308   1.969 -0.6232 -1.3440 -1.2376
 6621SOL     OW31321   0.454   0.639   4.408  0.8288  0.2034 -0.1870
 6621SOL    HW131322   0.359   0.639   4.414  0.8201  1.7788 -0.3333
 6621SOL    HW231323   0.463   0.731   4.386 -2.2347  0.6182  0.3352
 6622SOL     OW31324   2.206   4.138   4.060  0.0893  0.0092 -0.2623
 6622SOL    HW131325   2.262   4.214   4.043 -0.4145  0.6039  0.7590
 6622SOL    HW231326   2.168   4.120   3.974  0.5804  0.4179 -0.5661
 6623SOL     OW31327   3.417   2.152  10.924 -0.1621 -0.6213 -0.0322
 6623SOL    HW131328   3.455   2.112  10.846 -1.1962 -1.4637 -0.0966
 6623SOL    HW231329   3.340   2.186  10.879 -1.4627 -0.3822  2.3980
 6624SOL     OW31330   0.110   3.789   4.203 -0.3812  0.0798 -0.0848
 6624SOL    HW131331   0.078   3.699   4.208  2.9249 -1.1292 -0.5509
 6624SOL    HW231332   0.102   3.805   4.109  1.1410  1.6204  0.0443
 6625SOL     OW31333   2.747   3.485   6.232  0.3126 -0.0333 -0.2810
 6625SOL    HW131334   2.753   3.580   6.231  0.3701 -0.0199  1.7176
 6625SOL    HW231335   2.839   3.462   6.245 -0.2899 -1.1987  1.9173
 6626SOL     OW31336   3.582   3.888  16.123 -0.3679 -0.1523 -0.0739
 6626SOL    HW131337   3.550   3.974  16.147  0.8665 -0.1799  1.6655
 6626SOL    HW231338   3.529   3.830  16.178  0.2209  0.0767  0.7375
 6627SOL     OW31339   1.308   3.071   5.499 -0.4163  0.1566  0.1887
 6627SOL    HW131340   1.301   3.012   5.574  0.4895 -0.6833 -0.3763
 6627SOL    HW231341   1.256   3.024   5.433 -0.3319  0.7876 -0.3274
 6628SOL     OW31342   3.228   1.874   6.208  0.4492  0.3629 -0.3612
 6628SOL    HW131343   3.156   1.873   6.271  1.6951  0.7153  1.0457
 6628SOL    HW231344   3.184   1.860   6.124 -0.9516 -0.8247  0.5805
 6629SOL     OW31345   1.470   0.180   3.813  0.1651  0.3991  0.0967
 6629SOL    HW131346   1.463   0.273   3.792  0.1857 -0.2286 -2.6031
 6629SOL    HW231347   1.417   0.177   3.893 -0.3264  0.0485 -0.2504
 6630SOL     OW31348   0.972   1.051   1.646 -0.1117 -0.2085  0.2041
 6630SOL    HW131349   1.010   0.972   1.682  1.0275  1.0250  1.6962
 6630SOL    HW231350   0.897   1.016   1.597 -1.4097  1.4081  1.0051
 6631SOL     OW31351   2.144   1.164   5.340 -0.2974 -0.3853  0.4355
 6631SOL    HW131352   2.188   1.084   5.309 -0.7167 -0.9667  1.3213
 6631SOL    HW231353   2.057   1.130   5.359  0.0852 -0.6167  1.7372
 6632SOL     OW31354   0.595   2.631   0.919  0.1039 -0.3783 -0.1446
 6632SOL    HW131355   0.672   2.624   0.974 -0.4527  1.8463  0.8865
 6632SOL    HW231356   0.573   2.724   0.928 -1.6251 -0.8632  0.6090
 6633SOL     OW31357   2.273   2.278   7.985  0.7283  0.2661 -0.7260
 6633SOL    HW131358   2.345   2.250   7.929  0.2497 -0.8560 -0.7673
 6633SOL    HW231359   2.197   2.252   7.932  0.6974  0.0959 -0.5979
 6634SOL     OW31360   3.701   0.845   5.552 -0.6312 -0.7793 -0.3859
 6634SOL    HW131361   3.796   0.846   5.542 -0.8551 -0.6030 -2.5221
 6634SOL    HW231362   3.686   0.765   5.603  1.0572  0.3526  1.9023
 6635SOL     OW31363   3.115   1.645  12.104  0.3035 -0.5863  0.5833
 6635SOL    HW131364   3.029   1.681  12.126 -0.3304  0.0521 -2.9324
 6635SOL    HW231365   3.086   1.557  12.080 -2.1841  0.3021  0.4204
 6636SOL     OW31366   2.344   3.761  12.756 -0.0371  0.4221  0.1029
 6636SOL    HW131367   2.289   3.685  12.739  1.9760 -1.6348  2.7466
 6636SOL    HW231368   2.389   3.744  12.838  1.6718  3.0341 -0.2610
 6637SOL     OW31369   3.631   4.206  10.010  0.4854 -0.4682 -0.4181
 6637SOL    HW131370   3.711   4.242   9.972 -0.1825  1.1099 -0.3138
 6637SOL    HW231371   3.601   4.140   9.947 -0.8878 -0.1714 -0.0745
 6638SOL     OW31372   2.604   3.107   6.088  0.1435 -0.2681  0.0559
 6638SOL    HW131373   2.662   3.036   6.061  1.6318  0.3031  1.7593
 6638SOL    HW231374   2.654   3.173   6.040 -1.0534  0.7923  0.2562
 6639SOL     OW31375   1.096   2.851   5.066 -0.3332 -0.1272 -0.2381
 6639SOL    HW131376   1.093   2.936   5.111  1.0912  0.3536 -1.0552
 6639SOL    HW231377   1.040   2.868   4.990 -1.7750 -0.2580  0.8069
 6640SOL     OW31378   2.366   2.431  10.265 -0.0527  0.2055 -0.6774
 6640SOL    HW131379   2.326   2.372  10.200 -1.5612 -1.9177  2.1607
 6640SOL    HW231380   2.296   2.495  10.276 -2.2419 -2.0123 -1.6274
 6641SOL     OW31381   4.604   1.224  15.290 -0.1789 -0.1095 -0.6793
 6641SOL    HW131382   4.612   1.141  15.242 -0.4884  0.3950 -1.5851
 6641SOL    HW231383   4.568   1.287  15.228 -1.1571 -0.9475 -0.9546
 6642SOL     OW31384   1.357   3.738   6.258 -0.2863  0.4668 -0.1649
 6642SOL    HW131385   1.351   3.643   6.270 -0.0660  0.5107  0.3051
 6642SOL    HW231386   1.265   3.754   6.276  0.1546 -0.4029  2.9372
 6643SOL     OW31387   0.389   4.247   4.218 -0.6967  0.4621  0.3643
 6643SOL    HW131388   0.460   4.311   4.210 -0.1890 -0.5071 -2.6609
 6643SOL    HW231389   0.417   4.166   4.176  0.4929  0.5487  0.9966
 6644SOL     OW31390   1.410   3.291   6.641 -0.9772 -0.9785 -0.4693
 6644SOL    HW131391   1.336   3.230   6.634 -0.4834 -1.4129 -1.9409
 6644SOL    HW231392   1.481   3.234   6.612 -1.8947 -0.8108 -2.9906
 6645SOL     OW31393   1.674   2.404   1.902  0.4018 -0.3125 -0.4429
 6645SOL    HW131394   1.655   2.422   1.995  0.3446 -0.2887 -0.4593
 6645SOL    HW231395   1.662   2.309   1.902  0.4471 -0.3185  1.2359
 6646SOL     OW31396   3.380   2.187   7.199  0.3469 -0.3938  0.5593
 6646SOL    HW131397   3.362   2.266   7.249 -0.0113 -0.8757  1.1894
 6646SOL    HW231398   3.393   2.225   7.112  0.7481 -0.1045  0.7444
 6647SOL     OW31399   1.304   3.541   6.569 -0.5350  0.6004 -0.3375
 6647SOL    HW131400   1.358   3.614   6.601  1.1145 -0.8067  0.1414
 6647SOL    HW231401   1.360   3.465   6.587 -1.5000 -0.3064 -1.1222
 6648SOL     OW31402   4.348   2.066  16.636 -0.0521  0.1499 -0.3936
 6648SOL    HW131403   4.313   2.076  16.547 -0.5348 -2.8269 -0.5351
 6648SOL    HW231404   4.271   2.042  16.687 -0.8554 -0.0483 -1.7086
 6649SOL     OW31405   2.164   4.348   3.269  0.0216 -0.3154  0.2072
 6649SOL    HW131406   2.245   4.299   3.272 -0.7678 -1.6883 -1.1232
 6649SOL    HW231407   2.134   4.327   3.181 -1.6907  2.6858  0.0672
 6650SOL     OW31408   1.254   0.061  14.293 -0.1100  0.1320  0.0189
 6650SOL    HW131409   1.163   0.085  14.276 -0.7035 -2.4341 -0.3930
 6650SOL    HW231410   1.279   0.001  14.223  0.8866  0.0193  0.4633
 6651SOL     OW31411   2.212   3.073   2.865  0.2091 -0.4445 -0.0075
 6651SOL    HW131412   2.300   3.107   2.880  0.3900 -1.4104  1.1897
 6651SOL    HW231413   2.189   3.062   2.958 -0.3649 -0.7309 -0.1815
 6652SOL     OW31414   4.088   1.396   8.134  0.6655 -0.4272  0.1192
 6652SOL    HW131415   4.009   1.362   8.091  0.7021 -1.5660  0.9404
 6652SOL    HW231416   4.100   1.330   8.202  2.0998  0.4754  0.7297
 6653SOL     OW31417   1.284   2.357   9.465 -0.4598 -0.1521  0.0797
 6653SOL    HW131418   1.258   2.299   9.393 -0.4516  2.1195 -1.7647
 6653SOL    HW231419   1.243   2.319   9.542 -2.5920  2.3128  0.1429
 6654SOL     OW31420   0.922   2.186   7.906 -0.6120 -0.1234  0.4586
 6654SOL    HW131421   0.875   2.204   7.987 -1.0654  1.2860 -0.1296
 6654SOL    HW231422   1.004   2.150   7.941 -1.1276  0.0852  1.8857
 6655SOL     OW31423   0.545   2.144   6.363  0.4988  0.3228  0.2535
 6655SOL    HW131424   0.620   2.173   6.311  1.2777  0.1702  1.2992
 6655SOL    HW231425   0.499   2.103   6.290 -1.6618  0.7921  1.3508
 6656SOL     OW31426   3.083   2.235   2.492 -0.2873  0.1122 -0.1441
 6656SOL    HW131427   3.036   2.196   2.566 -0.6155 -0.8525 -0.8557
 6656SOL    HW231428   3.067   2.327   2.513 -3.2328 -0.8874  1.9345
 6657SOL     OW31429   2.727   4.586   4.938  0.3453 -0.0998  0.2705
 6657SOL    HW131430   2.697   4.507   4.984 -0.8363  0.7822  0.9990
 6657SOL    HW231431   2.644   4.620   4.905 -0.1974 -0.7491  0.9600
 6658SOL     OW31432   1.640   1.869   3.678  0.8706  0.1372 -0.4760
 6658SOL    HW131433   1.701   1.908   3.615  1.5605 -0.0306  0.0765
 6658SOL    HW231434   1.557   1.900   3.642  0.4844 -0.4038 -0.0391
 6659SOL     OW31435   1.705   0.450   1.758  0.4102 -0.4854 -0.2544
 6659SOL    HW131436   1.698   0.488   1.671  1.2920 -0.4850 -0.3269
 6659SOL    HW231437   1.799   0.451   1.776  0.6671  2.1305 -1.7157
 6660SOL     OW31438   3.664   1.149  14.289 -0.3511  0.5590  0.3610
 6660SOL    HW131439   3.596   1.165  14.355  0.6352  4.1129  0.5097
 6660SOL    HW231440   3.622   1.185  14.210 -0.0108  0.1929  0.0151
 6661SOL     OW31441   3.516   3.584   6.330 -0.8980  0.0508  0.4448
 6661SOL    HW131442   3.444   3.557   6.386 -0.3067  0.1008  1.2317
 6661SOL    HW231443   3.472   3.580   6.245 -0.2430  1.4530  0.0359
 6662SOL     OW31444   3.821   3.922   3.348 -0.4747 -0.0551  0.2267
 6662SOL    HW131445   3.897   3.979   3.358  0.7718 -1.7387  0.1842
 6662SOL    HW231446   3.762   3.965   3.411 -0.6132  2.2282 -1.4442
 6663SOL     OW31447   4.691   0.709  16.150  0.2052  0.3468  0.2009
 6663SOL    HW131448   0.018   0.736  16.228 -0.7082 -1.3902  1.3677
 6663SOL    HW231449   0.037   0.688  16.084  0.5594  1.2913  0.2638
 6664SOL     OW31450   4.325   1.062   1.543  0.2125  0.4237  0.3735
 6664SOL    HW131451   4.386   0.992   1.521 -1.4187 -0.9107  0.1035
 6664SOL    HW231452   4.244   1.019   1.569 -0.6883  2.0148  0.1894
 6665SOL     OW31453   2.433   0.657   7.335  0.3332 -0.2650 -0.0320
 6665SOL    HW131454   2.423   0.630   7.244  1.1869 -0.6281 -0.0119
 6665SOL    HW231455   2.508   0.717   7.333  0.1286 -0.0022  0.2517
 6666SOL     OW31456   1.981   4.402   8.171 -0.8220 -0.1259  0.6585
 6666SOL    HW131457   1.940   4.375   8.089 -2.0558  3.0050  0.2869
 6666SOL    HW231458   2.065   4.356   8.158 -0.3323  0.6641  1.0561
 6667SOL     OW31459   0.737   1.106  16.524  0.1090  0.4469 -0.1698
 6667SOL    HW131460   0.826   1.141  16.531  1.0865 -1.6156 -1.9908
 6667SOL    HW231461   0.743   1.011  16.533 -1.0690  0.3946  0.0244
 6668SOL     OW31462   1.549   3.354  12.144  0.2848  0.4346 -0.5059
 6668SOL    HW131463   1.467   3.395  12.171  0.4823 -1.3971  2.7587
 6668SOL    HW231464   1.559   3.278  12.200 -0.8626  1.2760  0.8352
 6669SOL     OW31465   3.510   3.847   7.207 -0.3929 -0.3654  0.1684
 6669SOL    HW131466   3.587   3.874   7.158  0.6488 -0.0456  1.9722
 6669SOL    HW231467   3.519   3.885   7.294  0.3328  0.8563 -0.4495
 6670SOL     OW31468   3.164   2.925   6.152  0.0940 -0.4306  0.3240
 6670SOL    HW131469   3.211   2.855   6.196  0.9129  1.3003  2.1792
 6670SOL    HW231470   3.163   2.990   6.222 -0.4039 -1.3622  1.1819
 6671SOL     OW31471   2.532   2.172   5.716  0.0612 -0.2530  0.3255
 6671SOL    HW131472   2.548   2.266   5.704 -2.1409 -0.1177 -1.7785
 6671SOL    HW231473   2.610   2.142   5.670 -0.9332 -0.3124 -1.3176
 6672SOL     OW31474   1.937   3.983   8.577 -0.1368 -0.4731  0.1553
 6672SOL    HW131475   1.876   4.009   8.645  1.1386 -0.0697  1.1574
 6672SOL    HW231476   1.928   4.062   8.523  1.3674  0.3094  1.0352
 6673SOL     OW31477   2.886   2.375   8.083 -0.0736  0.1315 -0.1787
 6673SOL    HW131478   2.796   2.349   8.065 -0.2271 -0.2677  1.2043
 6673SOL    HW231479   2.873   2.421   8.166  1.9266  0.5532 -0.0986
 6674SOL     OW31480   0.715   1.725   1.606 -0.6558  0.3424  0.3036
 6674SOL    HW131481   0.749   1.751   1.521 -1.7788 -2.0983 -0.8741
 6674SOL    HW231482   0.801   1.731   1.648  1.6238 -1.4649 -4.1120
 6675SOL     OW31483   1.172   0.886   9.554 -0.7421 -0.5386 -0.1512
 6675SOL    HW131484   1.148   0.799   9.586  0.0957 -0.4981  0.6110
 6675SOL    HW231485   1.186   0.853   9.465  1.8286 -0.7344  0.3118
 6676SOL     OW31486   3.177   3.711  13.354 -0.4590  0.1328 -0.2080
 6676SOL    HW131487   3.143   3.692  13.442  0.7334  0.7077  0.3711
 6676SOL    HW231488   3.244   3.643  13.358  1.9609  2.6072  1.6763
 6677SOL     OW31489   4.220   3.745   4.775 -0.3854  0.2353  0.2403
 6677SOL    HW131490   4.303   3.719   4.815 -1.2133 -1.1261  1.1032
 6677SOL    HW231491   4.239   3.706   4.690  1.8168 -1.8173  1.6747
 6678SOL     OW31492   0.919   2.984   7.850  0.2557  0.4007  0.1972
 6678SOL    HW131493   1.011   2.955   7.849 -0.3280 -1.4052 -0.3681
 6678SOL    HW231494   0.880   2.901   7.876 -1.5784  1.2860  0.2578
 6679SOL     OW31495   2.389   3.858   7.328 -0.4280  0.6589  0.2838
 6679SOL    HW131496   2.448   3.911   7.381  2.3008 -0.8818 -1.2469
 6679SOL    HW231497   2.379   3.771   7.367  0.1692 -0.2209 -1.5299
 6680SOL     OW31498   0.926   2.283  12.501 -0.2568 -0.0943  0.4310
 6680SOL    HW131499   0.972   2.327  12.572 -0.9007  1.9859 -0.4250
 6680SOL    HW231500   0.997   2.243  12.451 -1.7334  0.4563 -2.1258
 6681SOL     OW31501   0.496   4.226   5.906  0.7964 -0.2318 -0.2130
 6681SOL    HW131502   0.547   4.185   5.836 -1.3922 -1.4279 -1.1097
 6681SOL    HW231503   0.464   4.152   5.956 -0.2587  1.2762  1.3096
 6682SOL     OW31504   0.058   1.781   4.905 -0.0535  0.1090 -0.2591
 6682SOL    HW131505   0.065   1.809   4.814  0.5378 -2.5420 -1.0339
 6682SOL    HW231506   0.070   1.862   4.955  1.2347 -0.7196  0.7827
 6683SOL     OW31507   4.598   0.661   1.122 -0.4371 -0.1718 -0.0703
 6683SOL    HW131508   4.545   0.627   1.050 -2.4472  0.1700  1.2725
 6683SOL    HW231509   4.599   0.584   1.179  1.2156 -0.4490 -0.4549
 6684SOL     OW31510   2.165   1.501   1.098  0.3466  0.0503 -0.1805
 6684SOL    HW131511   2.220   1.532   1.170 -0.3984  0.7785  0.0813
 6684SOL    HW231512   2.237   1.491   1.035 -0.8392 -1.2373 -1.3369
 6685SOL     OW31513   2.466   2.949   5.200 -0.1191  0.0397 -0.1461
 6685SOL    HW131514   2.477   2.881   5.267 -2.1396 -2.2572 -2.1495
 6685SOL    HW231515   2.511   2.907   5.126 -1.0354 -1.2212 -0.0006
 6686SOL     OW31516   2.397   2.241   2.681  0.3986  0.5051 -0.2419
 6686SOL    HW131517   2.305   2.218   2.667  0.0468  0.2917  2.5882
 6686SOL    HW231518   2.402   2.323   2.632  1.7771  0.8763  0.5183
 6687SOL     OW31519   1.646   2.072   0.398 -0.3199  0.4709  0.3072
 6687SOL    HW131520   1.598   2.020   0.333 -0.6441  0.8382  0.2556
 6687SOL    HW231521   1.588   2.145   0.416  1.2931  1.0901  3.0147
 6688SOL     OW31522   4.228   0.019   6.883  0.0268  0.1815 -0.9203
 6688SOL    HW131523   4.309   0.058   6.851  1.3381 -0.9067  1.0789
 6688SOL    HW231524   4.205   4.684   6.808  1.2514 -1.9062  0.2616
 6689SOL     OW31525   0.315   4.037  15.233  0.6368 -0.3511  0.0161
 6689SOL    HW131526   0.392   4.049  15.288 -0.3854 -1.0181  1.5712
 6689SOL    HW231527   0.275   4.123  15.236  0.8592 -0.2834  0.9912
 6690SOL     OW31528   0.060   1.452   4.005  0.3458  0.1607  0.6964
 6690SOL    HW131529   0.005   1.521   3.968  0.8533  1.4578  2.3978
 6690SOL    HW231530   0.120   1.435   3.932  1.7621  1.6422  1.5419
 6691SOL     OW31531   3.091   1.052  11.180  0.7204 -0.2937  0.7853
 6691SOL    HW131532   3.062   1.122  11.239  1.5164 -0.4324  1.3240
 6691SOL    HW231533   3.067   0.976  11.232 -0.3577 -0.7130 -0.3283
 6692SOL     OW31534   2.494   1.655   6.707 -0.6961 -0.1325  0.0393
 6692SOL    HW131535   2.440   1.608   6.771 -0.6944 -0.0345  0.1124
 6692SOL    HW231536   2.424   1.710   6.671 -0.5207 -1.3103 -2.0594
 6693SOL     OW31537   0.563   3.272   7.567 -0.6625  0.2529  0.0655
 6693SOL    HW131538   0.481   3.224   7.577  0.3359 -1.5690 -0.4704
 6693SOL    HW231539   0.628   3.211   7.603 -0.9493 -0.0530  0.0565
 6694SOL     OW31540   4.317   3.869  13.668  0.1494  0.0321  0.3276
 6694SOL    HW131541   4.278   3.955  13.684 -1.5667 -0.6341 -0.2871
 6694SOL    HW231542   4.247   3.808  13.691  1.7033 -1.5192  0.9386
 6695SOL     OW31543   1.976   0.098   4.305 -1.0009 -0.0694 -1.0158
 6695SOL    HW131544   1.945   0.174   4.354  0.4522 -1.9747  2.8691
 6695SOL    HW231545   1.897   0.078   4.255 -2.4853  1.8484  0.5620
 6696SOL     OW31546   1.010   1.365   3.842 -0.1101 -0.1771  0.2674
 6696SOL    HW131547   1.036   1.426   3.774 -0.2228  0.9601  1.2483
 6696SOL    HW231548   1.015   1.419   3.921 -2.3201  1.0325 -0.4454
 6697SOL     OW31549   1.309   1.364   8.383  0.1197 -0.3494  0.1985
 6697SOL    HW131550   1.236   1.304   8.400 -0.5573  0.6834  0.8839
 6697SOL    HW231551   1.269   1.450   8.387  2.5740  0.8506 -1.0414
 6698SOL     OW31552   0.702   0.213   0.844 -0.2543  0.9731  0.1633
 6698SOL    HW131553   0.613   0.232   0.813 -0.2709 -1.4581 -1.3206
 6698SOL    HW231554   0.702   0.122   0.875  0.1458  0.9581  0.1245
 6699SOL     OW31555   3.557   0.936   5.278  0.2007  0.3454  0.7844
 6699SOL    HW131556   3.622   0.889   5.330  0.9668  1.1717  0.5782
 6699SOL    HW231557   3.537   1.010   5.335 -0.8617 -0.0976  0.9827
 6700SOL     OW31558   0.479   1.518   5.928 -0.3430 -0.1648 -0.2929
 6700SOL    HW131559   0.390   1.485   5.940 -0.5716  0.9186  0.8998
 6700SOL    HW231560   0.460   1.555   5.842  1.2924 -1.4147 -1.1993
 6701SOL     OW31561   3.848   2.865   0.437  0.2025 -0.0151 -0.0740
 6701SOL    HW131562   3.768   2.891   0.482 -0.4368 -2.1779  0.0370
 6701SOL    HW231563   3.861   2.774   0.465  2.9595  0.7431  1.0319
 6702SOL     OW31564   3.702   3.043   3.286 -0.1986  0.4059 -0.2470
 6702SOL    HW131565   3.747   3.057   3.369  0.5951  1.6126 -0.8659
 6702SOL    HW231566   3.648   3.122   3.282  0.5078  0.7772 -2.5748
 6703SOL     OW31567   3.099   3.371   0.075  0.2770 -0.0047 -0.1025
 6703SOL    HW131568   3.122   3.444   0.017  0.5049  0.8895  1.1104
 6703SOL    HW231569   3.049   3.414   0.144  0.2665 -0.0641 -0.0732
 6704SOL     OW31570   0.730   1.939   9.485 -0.3167 -0.4900  0.1496
 6704SOL    HW131571   0.690   1.858   9.453 -0.6165 -0.0331 -0.6287
 6704SOL    HW231572   0.656   1.999   9.477  1.8643  2.1409 -0.3268
 6705SOL     OW31573   0.383   1.957   7.079  0.1034 -0.4852 -0.1629
 6705SOL    HW131574   0.477   1.973   7.082  0.1748 -1.3861  1.9105
 6705SOL    HW231575   0.377   1.927   6.988 -0.5555  1.9109 -0.9284
 6706SOL     OW31576   2.780   3.094   6.439  0.0935  0.5207 -0.2095
 6706SOL    HW131577   2.713   3.140   6.387 -1.7104 -0.0677  1.5915
 6706SOL    HW231578   2.814   3.165   6.493 -0.1898  1.7620 -1.6601
 6707SOL     OW31579   2.995   4.533   2.445 -0.0579 -0.3024  0.1774
 6707SOL    HW131580   2.975   4.546   2.353  0.1096  1.1159  0.3467
 6707SOL    HW231581   2.904   4.516   2.470 -0.5400 -1.0499 -2.1605
 6708SOL     OW31582   2.530   2.015   4.781 -0.1990 -0.1052  0.5749
 6708SOL    HW131583   2.569   2.037   4.866  0.8773  0.2686 -0.0182
 6708SOL    HW231584   2.617   2.025   4.742 -0.5584  1.0807  0.0937
 6709SOL     OW31585   4.224   4.467   4.488  0.5390  0.4938 -0.0744
 6709SOL    HW131586   4.291   4.445   4.553  0.1607  1.2309  0.5591
 6709SOL    HW231587   4.186   4.381   4.470  0.1378  0.3372  1.5336
 6710SOL     OW31588   3.984   0.789   4.738 -0.4149  0.0173  0.1488
 6710SOL    HW131589   3.961   0.702   4.770 -0.1460 -0.2939 -0.4888
 6710SOL    HW231590   4.017   0.820   4.822 -2.5348 -0.9381  1.3193
 6711SOL     OW31591   3.257   3.962   5.670  0.2889  0.2053 -0.0969
 6711SOL    HW131592   3.238   3.988   5.760  1.7348  0.9873 -0.0190
 6711SOL    HW231593   3.310   4.036   5.639  0.6191 -0.3967 -0.9782
 6712SOL     OW31594   1.836   2.073  10.555  0.0245  0.0577  0.4142
 6712SOL    HW131595   1.885   2.054  10.635 -0.0582 -0.0139  0.4481
 6712SOL    HW231596   1.905   2.104  10.496 -1.5723 -0.0095 -1.5134
 6713SOL     OW31597   0.656   1.200   4.436 -0.4046  0.0070 -0.0847
 6713SOL    HW131598   0.693   1.287   4.450 -0.9669  0.2567 -0.1196
 6713SOL    HW231599   0.574   1.199   4.485  0.4396  1.7081  1.3489
 6714SOL     OW31600   3.496   1.573  14.628  0.3310 -0.0453  0.0145
 6714SOL    HW131601   3.477   1.524  14.548  0.6335 -2.2348  1.2677
 6714SOL    HW231602   3.568   1.633  14.611  0.1008  0.1880 -0.1379
 6715SOL     OW31603   4.086   3.179  15.875  0.4058  0.1141 -0.5980
 6715SOL    HW131604   4.023   3.211  15.810 -0.4169 -0.5006 -0.1146
 6715SOL    HW231605   4.167   3.201  15.831  2.1805 -2.0375  1.6294
 6716SOL     OW31606   4.030   2.232   2.066 -0.1017  0.3357  0.1241
 6716SOL    HW131607   3.963   2.260   2.128 -0.4378 -0.1301 -0.0268
 6716SOL    HW231608   4.076   2.314   2.049  1.7267 -0.5526  0.8634
 6717SOL     OW31609   0.251   3.873   1.104 -0.1432  0.0618  0.2777
 6717SOL    HW131610   0.222   3.813   1.172 -0.5747  0.6165  0.5840
 6717SOL    HW231611   0.263   3.950   1.160  4.3854 -0.8455  0.5413
 6718SOL     OW31612   1.876   2.467  10.371  0.4221  0.0070 -0.7340
 6718SOL    HW131613   1.898   2.487  10.279 -1.3235  1.5824 -0.8059
 6718SOL    HW231614   1.934   2.393  10.391 -0.3525 -0.2865  0.3526
 6719SOL     OW31615   1.025   4.144   5.609  0.6636  0.5232 -0.3753
 6719SOL    HW131616   0.980   4.181   5.684  1.8431 -1.1376  1.1471
 6719SOL    HW231617   1.022   4.048   5.611  0.5994  0.5875  2.0838
 6720SOL     OW31618   1.666   2.339   7.485  0.0334  0.6455  0.8078
 6720SOL    HW131619   1.630   2.254   7.463  0.5553 -0.3303  3.8262
 6720SOL    HW231620   1.610   2.366   7.557 -1.4468 -1.3361  0.3776
 6721SOL     OW31621   0.258   1.008   8.882 -0.4327 -0.7893  0.1683
 6721SOL    HW131622   0.214   0.984   8.964 -0.7907  2.0540  0.8182
 6721SOL    HW231623   0.180   1.043   8.839  0.4896 -0.0270 -0.9034
 6722SOL     OW31624   1.938   1.445  10.062 -0.1545 -0.2343  0.0084
 6722SOL    HW131625   1.984   1.469   9.982 -1.1896 -2.0634 -1.1382
 6722SOL    HW231626   1.880   1.376  10.032  0.9480 -1.0896 -0.1679
 6723SOL     OW31627   1.825   3.826   6.204 -0.9534 -0.0503  0.6066
 6723SOL    HW131628   1.783   3.910   6.183 -0.5563 -0.5091 -2.0602
 6723SOL    HW231629   1.751   3.782   6.247  1.1168 -0.8936  3.3042
 6724SOL     OW31630   0.328   1.934   7.666  0.1429 -0.1619 -0.2033
 6724SOL    HW131631   0.351   1.902   7.579 -0.1601  0.1206 -0.3856
 6724SOL    HW231632   0.359   1.853   7.707  1.5755 -0.8474 -2.6180
 6725SOL     OW31633   2.421   2.294   0.520  0.2288 -0.5318 -0.6083
 6725SOL    HW131634   2.344   2.344   0.493  0.8009  0.5082 -0.3094
 6725SOL    HW231635   2.464   2.263   0.440  2.0053  1.4418 -0.4129
 6726SOL     OW31636   3.123   1.430   3.794 -0.0381 -0.7411  0.2384
 6726SOL    HW131637   3.097   1.352   3.844  3.4820 -1.2944  1.1690
 6726SOL    HW231638   3.122   1.389   3.707  1.9226 -0.6524  0.1866
 6727SOL     OW31639   3.890   0.423  17.258  0.1060  0.1068  0.5106
 6727SOL    HW131640   3.895   0.438  17.163 -1.3939 -1.1914  0.2212
 6727SOL    HW231641   3.955   0.485  17.292 -2.2927  3.0473 -0.2712
 6728SOL     OW31642   2.191   0.882   5.305 -0.2076  0.3393 -0.0210
 6728SOL    HW131643   2.243   0.841   5.374  1.5986 -0.5267 -1.8786
 6728SOL    HW231644   2.117   0.822   5.298 -0.7901  0.9687  0.8206
 6729SOL     OW31645   1.453   0.313   2.296 -0.1100 -0.1169  0.7289
 6729SOL    HW131646   1.473   0.232   2.249  1.6225  0.5752  0.2835
 6729SOL    HW231647   1.457   0.283   2.387  0.8300 -0.5010  0.5626
 6730SOL     OW31648   2.707   4.547   7.562  0.3865  0.1207  0.4777
 6730SOL    HW131649   2.738   4.485   7.497  1.4166  0.7965  0.3289
 6730SOL    HW231650   2.705   4.631   7.516  0.1790 -1.0402 -1.6261
 6731SOL     OW31651   0.311   0.876   6.506  0.4448  0.3215 -0.0012
 6731SOL    HW131652   0.332   0.897   6.597  1.6175 -2.5602  0.3834
 6731SOL    HW231653   0.220   0.847   6.499  0.8726 -1.0956  0.3024
 6732SOL     OW31654   2.189   4.696  14.800  0.6299  0.0111 -0.3323
 6732SOL    HW131655   2.228   0.017  14.723  2.0096  2.7103  1.8197
 6732SOL    HW231656   2.265   4.642  14.823  0.3689  0.2349  1.0899
 6733SOL     OW31657   4.136   2.996  12.230  0.6733 -0.1584 -0.7378
 6733SOL    HW131658   4.203   2.962  12.170  1.1448 -2.2163  0.9913
 6733SOL    HW231659   4.178   3.063  12.284  0.5897 -0.0022 -0.8657
 6734SOL     OW31660   1.495   0.015   3.165 -0.3992  0.4082  0.7674
 6734SOL    HW131661   1.433   4.665   3.148 -0.9903  1.3592 -1.0684
 6734SOL    HW231662   1.577   4.688   3.180 -0.4020 -0.9373 -3.6298
 6735SOL     OW31663   3.784   0.100   6.319 -0.2240 -0.0392  0.7960
 6735SOL    HW131664   3.707   0.081   6.373 -0.4623 -2.5865 -0.4520
 6735SOL    HW231665   3.848   0.040   6.357  1.2431  0.7550 -0.4322
 6736SOL     OW31666   4.354   3.257   4.594 -0.0189  0.0426  0.4392
 6736SOL    HW131667   4.366   3.210   4.511 -0.1217  1.3079 -0.2978
 6736SOL    HW231668   4.344   3.177   4.645 -0.5109 -0.8180 -1.0055
 6737SOL     OW31669   3.573   0.029   6.459 -0.1199  0.1458  1.1702
 6737SOL    HW131670   3.544   0.059   6.545 -3.4091  0.7380 -0.1606
 6737SOL    HW231671   3.603   4.660   6.470  2.3471  0.6151 -1.4567
 6738SOL     OW31672   3.597   2.489   8.149  0.5667  0.5972 -0.5190
 6738SOL    HW131673   3.608   2.562   8.210  0.9971  0.0012  0.1105
 6738SOL    HW231674   3.521   2.527   8.105  1.2270  2.8471  0.2714
 6739SOL     OW31675   0.942   2.614   3.616  0.1795 -0.2666 -0.4882
 6739SOL    HW131676   0.858   2.654   3.595  0.3639 -0.2055 -1.1058
 6739SOL    HW231677   0.948   2.531   3.568 -0.6708 -0.2081 -0.6920
 6740SOL     OW31678   0.732   0.512   0.206  0.0129  0.4420 -0.5540
 6740SOL    HW131679   0.751   0.429   0.163 -0.9476  0.2817 -0.6792
 6740SOL    HW231680   0.763   0.498   0.296  1.0173  0.5584 -0.8897
 6741SOL     OW31681   1.076   3.342   7.565 -0.0371  0.4807 -0.2961
 6741SOL    HW131682   1.015   3.370   7.633 -0.8454 -1.5036 -0.2032
 6741SOL    HW231683   1.053   3.255   7.533 -0.2035  0.0093  1.1379
 6742SOL     OW31684   1.348   2.442   8.329  0.3327 -0.2460  0.1115
 6742SOL    HW131685   1.339   2.372   8.394 -0.0884  0.2849  0.6317
 6742SOL    HW231686   1.400   2.508   8.374 -2.0970  1.8770 -0.2041
 6743SOL     OW31687   1.647   2.084  13.322  0.4565 -0.0658  0.0595
 6743SOL    HW131688   1.717   2.035  13.280  0.6728  1.8567 -1.8325
 6743SOL    HW231689   1.701   2.148  13.368 -0.8584 -0.1371  1.6980
 6744SOL     OW31690   0.781   0.622   7.441 -0.2972  0.3313  0.2419
 6744SOL    HW131691   0.687   0.607   7.455 -0.0924  0.4215  1.6738
 6744SOL    HW231692   0.805   0.688   7.506  2.6886 -0.5301 -0.0016
 6745SOL     OW31693   2.026   3.462   8.179  0.9673  0.8124  0.6692
 6745SOL    HW131694   2.060   3.374   8.166 -0.4963 -0.0516  2.7379
 6745SOL    HW231695   1.972   3.452   8.257 -0.4293  1.7222 -0.1716
 6746SOL     OW31696   1.822   2.245   8.080 -0.1897  0.3616  0.5688
 6746SOL    HW131697   1.880   2.305   8.033 -0.3656  0.1647  0.1035
 6746SOL    HW231698   1.741   2.280   8.043 -0.2659 -0.1955  0.2131
 6747SOL     OW31699   0.214   1.558   2.954  0.2816  0.5810 -0.3921
 6747SOL    HW131700   0.184   1.642   2.989 -0.4602  1.9088 -4.2055
 6747SOL    HW231701   0.309   1.559   2.965  0.1738 -1.3117  0.5777
 6748SOL     OW31702   2.150   3.220   8.142 -0.5186 -0.0443 -0.1849
 6748SOL    HW131703   2.223   3.192   8.197 -0.1980  3.5121  1.1717
 6748SOL    HW231704   2.131   3.137   8.097  1.3477 -0.4608 -0.1913
 6749SOL     OW31705   1.076   1.125   3.362  0.0162  0.0032 -0.3533
 6749SOL    HW131706   1.102   1.197   3.421  1.2504 -1.1946  0.5562
 6749SOL    HW231707   1.023   1.168   3.295  0.0525 -0.3615 -0.6120
 6750SOL     OW31708   1.612   2.321   6.974  0.1266 -0.0142 -0.2462
 6750SOL    HW131709   1.577   2.264   7.042  0.1086  0.0200 -0.2272
 6750SOL    HW231710   1.702   2.291   6.959  0.0709 -0.8338  1.1002
 6751SOL     OW31711   2.367   1.098  15.510 -0.1829  0.4317 -0.1620
 6751SOL    HW131712   2.461   1.083  15.520 -0.1566  0.7647  0.0875
 6751SOL    HW231713   2.344   1.114  15.601 -0.9929 -1.9994  0.0520
 6752SOL     OW31714   2.407   4.458   3.462 -0.3364 -0.3110  0.8905
 6752SOL    HW131715   2.405   4.363   3.463  2.9242 -0.3717 -1.7269
 6752SOL    HW231716   2.320   4.477   3.499 -0.7580 -0.4954 -0.0212
 6753SOL     OW31717   0.393   1.575  11.176  0.9145 -0.4353 -0.5723
 6753SOL    HW131718   0.389   1.503  11.113  1.2457 -0.7907 -0.1834
 6753SOL    HW231719   0.484   1.597  11.157  0.8374 -0.8865 -1.5112
 6754SOL     OW31720   0.189   2.432  17.040 -0.2638  0.2925  0.4176
 6754SOL    HW131721   0.132   2.414  17.115  0.5605 -1.0607  0.7258
 6754SOL    HW231722   0.176   2.359  16.980 -1.5738  2.3231 -1.7441
 6755SOL     OW31723   0.137   3.318   1.190  0.3735 -0.2350 -0.1454
 6755SOL    HW131724   0.115   3.402   1.151 -1.1184 -0.2480  0.6605
 6755SOL    HW231725   0.128   3.257   1.117 -2.4974  1.7510 -1.4684
 6756SOL     OW31726   2.462   3.404  10.359 -0.2290 -0.1832  0.4703
 6756SOL    HW131727   2.420   3.397  10.445 -0.1347  0.0460  0.5341
 6756SOL    HW231728   2.465   3.313  10.329  0.9353  0.1809 -0.4978
 6757SOL     OW31729   2.105   2.050   2.817 -0.5046  0.1178  0.1191
 6757SOL    HW131730   2.055   2.041   2.736 -1.5158 -0.5942  0.8185
 6757SOL    HW231731   2.181   1.994   2.804 -0.3625 -0.2008  2.2790
 6758SOL     OW31732   3.986   3.819   5.125 -0.4415 -0.3941 -0.2779
 6758SOL    HW131733   3.997   3.742   5.070  1.1541 -0.0206 -0.4661
 6758SOL    HW231734   4.072   3.858   5.136 -0.0503 -1.3338  0.0462
 6759SOL     OW31735   3.029   2.590  12.462  0.0506  0.2994 -0.1979
 6759SOL    HW131736   3.110   2.578  12.413  0.0889 -1.1223  0.2235
 6759SOL    HW231737   3.060   2.629  12.543  2.1267  0.8417 -1.2532
 6760SOL     OW31738   3.764   3.626   4.027 -0.4522  0.3860  0.4291
 6760SOL    HW131739   3.814   3.685   3.971 -1.8595  0.8863 -0.2871
 6760SOL    HW231740   3.684   3.677   4.022 -1.1079 -0.8145 -1.2370
 6761SOL     OW31741   3.102   0.981   9.629 -0.5030  0.2381 -0.2533
 6761SOL    HW131742   3.033   0.926   9.590 -0.1016  0.7560 -1.7083
 6761SOL    HW231743   3.167   0.913   9.648 -0.1246 -0.0488 -2.5420
 6762SOL     OW31744   4.321   4.192   9.191 -0.3885  0.2841 -0.2469
 6762SOL    HW131745   4.373   4.257   9.238  2.1083 -0.2084 -2.3299
 6762SOL    HW231746   4.235   4.233   9.193 -0.7594 -0.5802  1.3950
 6763SOL     OW31747   0.491   4.218   9.239 -0.2106 -0.1281  0.0118
 6763SOL    HW131748   0.539   4.135   9.244 -0.6787 -0.4310 -0.5987
 6763SOL    HW231749   0.424   4.204   9.172  0.3688 -1.4962 -0.2866
 6764SOL     OW31750   2.501   3.977   4.733  0.3390  0.5675  0.5608
 6764SOL    HW131751   2.537   3.889   4.724 -3.6218 -0.8377 -1.7981
 6764SOL    HW231752   2.450   3.960   4.812 -0.7156  2.4696  0.2879
 6765SOL     OW31753   1.359   4.459  14.397  0.4694  0.0176 -0.3231
 6765SOL    HW131754   1.454   4.445  14.392  0.3194 -0.7013 -1.2453
 6765SOL    HW231755   1.357   4.507  14.479  0.5731 -0.3875 -0.0856
 6766SOL     OW31756   4.322   2.852  12.066 -0.1194  0.1156 -0.0952
 6766SOL    HW131757   4.416   2.831  12.065  0.1699  1.5123 -2.0583
 6766SOL    HW231758   4.302   2.798  11.989  0.3685 -3.3447  2.2050
 6767SOL     OW31759   1.032   3.454   8.031  0.2648  0.3878 -0.0395
 6767SOL    HW131760   1.019   3.517   8.101 -0.4499  1.6766 -1.3376
 6767SOL    HW231761   0.955   3.398   8.039 -0.1265  1.4045  3.2435
 6768SOL     OW31762   2.108   0.973   6.637  0.5861 -0.3059 -0.3754
 6768SOL    HW131763   2.155   0.958   6.719 -1.8804 -0.2724  1.0459
 6768SOL    HW231764   2.165   0.929   6.574 -0.6469 -0.5143 -1.3479
 6769SOL     OW31765   1.450   0.223   2.562 -0.6695 -0.0803 -0.1931
 6769SOL    HW131766   1.517   0.159   2.584 -0.5447  0.0108 -0.3034
 6769SOL    HW231767   1.397   0.250   2.637 -0.8040 -2.3768  0.5288
 6770SOL     OW31768   4.481   0.135  13.875 -0.0318  0.2494  0.2998
 6770SOL    HW131769   4.442   0.078  13.941  2.4561 -0.4760  1.1580
 6770SOL    HW231770   4.447   0.221  13.897 -0.8322 -0.2189  0.8776
 6771SOL     OW31771   0.170   0.201   5.210  0.3851  0.0688  0.0983
 6771SOL    HW131772   0.168   0.118   5.163 -0.2666 -0.2503  0.6909
 6771SOL    HW231773   0.115   0.257   5.155 -2.1514 -1.1206  1.4428
 6772SOL     OW31774   1.011   1.026   6.764  0.0941 -0.0358 -0.3542
 6772SOL    HW131775   1.105   1.018   6.748  0.4304 -0.0342  1.6358
 6772SOL    HW231776   1.004   1.121   6.775 -1.1292 -0.3033  1.1291
 6773SOL     OW31777   3.144   1.774  11.566  0.1183 -0.0669  0.2523
 6773SOL    HW131778   3.222   1.828  11.562  1.3024 -1.7449  0.6721
 6773SOL    HW231779   3.084   1.839  11.530 -0.5148 -0.1107  1.2378
 6774SOL     OW31780   1.838   2.816  11.394  0.0256 -0.0768  0.5519
 6774SOL    HW131781   1.745   2.809  11.373 -0.3442 -1.9381  2.7618
 6774SOL    HW231782   1.844   2.836  11.487  0.1306 -1.2679  0.8117
 6775SOL     OW31783   3.615   3.395   4.740 -0.3612  0.2593 -0.1962
 6775SOL    HW131784   3.664   3.466   4.782 -4.4072  2.4249  0.8616
 6775SOL    HW231785   3.683   3.362   4.681 -0.6950  1.4559 -1.2420
 6776SOL     OW31786   0.688   0.502  11.294  0.3641 -0.2941  0.0965
 6776SOL    HW131787   0.749   0.478  11.364  1.3575  3.6735  0.5548
 6776SOL    HW231788   0.655   0.588  11.320 -0.7022 -1.0921  1.3912
 6777SOL     OW31789   2.897   3.604  17.548 -0.1773 -0.0166 -0.6382
 6777SOL    HW131790   2.832   3.537  17.569  0.1544 -0.4287 -0.9498
 6777SOL    HW231791   2.908   3.646  17.633  1.3482 -1.2260 -0.2382
 6778SOL     OW31792   4.658   0.006  15.491 -0.4991 -0.4180 -0.1485
 6778SOL    HW131793   4.603   4.661  15.449 -0.1891 -0.2973 -0.7499
 6778SOL    HW231794   0.028   4.700  15.479 -0.9742 -1.8334 -0.4658
 6779SOL     OW31795   2.438   4.383   6.979 -0.4961  0.4333 -0.0199
 6779SOL    HW131796   2.359   4.395   6.926 -1.7806  0.6797  1.9626
 6779SOL    HW231797   2.494   4.444   6.931 -1.1345  0.7251 -0.3906
 6780SOL     OW31798   3.025   0.896   4.282  0.9179 -0.2543  0.1141
 6780SOL    HW131799   2.972   0.850   4.347  0.9793  1.8556  1.6551
 6780SOL    HW231800   2.973   0.907   4.202  1.7987 -0.6418 -0.5135
 6781SOL     OW31801   0.267   2.247   6.853  0.8828  0.3397  0.5597
 6781SOL    HW131802   0.341   2.227   6.796  0.2753  1.7083 -0.7267
 6781SOL    HW231803   0.297   2.267   6.941 -0.4713  0.2228  1.0507
 6782SOL     OW31804   4.093   2.594  17.426 -0.0671  0.3896 -0.0778
 6782SOL    HW131805   4.155   2.542  17.375  0.1571  1.4220 -0.8436
 6782SOL    HW231806   4.089   2.543  17.507  0.6350 -0.1212 -0.3676
 6783SOL     OW31807   3.589   2.509   3.759  0.3138 -0.2483  0.7128
 6783SOL    HW131808   3.548   2.590   3.729 -0.1604 -0.8597 -0.2874
 6783SOL    HW231809   3.509   2.470   3.794  0.0351 -1.2109 -0.9946
 6784SOL     OW31810   0.401   4.135   2.477 -0.3189 -0.1637 -0.6789
 6784SOL    HW131811   0.312   4.116   2.508  0.5512 -1.3038  1.1133
 6784SOL    HW231812   0.449   4.077   2.535 -1.3255 -1.3921 -1.0639
 6785SOL     OW31813   2.422   3.254   3.015  0.0325  0.2652  0.3047
 6785SOL    HW131814   2.497   3.312   3.014 -0.0125  0.2415 -3.8608
 6785SOL    HW231815   2.436   3.183   3.078  1.5283 -0.6757 -1.0823
 6786SOL     OW31816   1.962   2.832  13.548 -0.2296 -0.2412 -0.4251
 6786SOL    HW131817   1.894   2.775  13.583  0.1611  0.5157  1.5904
 6786SOL    HW231818   1.964   2.818  13.454  1.9203 -0.0723 -0.4124
 6787SOL     OW31819   3.898   1.613   9.773 -0.3835 -0.2131  0.1931
 6787SOL    HW131820   3.809   1.610   9.808 -1.4126 -0.4770 -2.4264
 6787SOL    HW231821   3.912   1.519   9.759  0.2277  0.0577 -0.9924
 6788SOL     OW31822   3.209   1.428  13.583 -0.1421 -0.1082  0.4466
 6788SOL    HW131823   3.143   1.433  13.513  0.0336 -1.7368  0.1482
 6788SOL    HW231824   3.288   1.427  13.528  2.1332  0.9432  3.7174
 6789SOL     OW31825   2.530   1.052   5.486 -0.5307  0.2214 -0.3536
 6789SOL    HW131826   2.534   1.105   5.406 -1.5162 -0.7604 -1.0598
 6789SOL    HW231827   2.584   1.088   5.556 -0.4866 -1.6225  0.5601
 6790SOL     OW31828   1.290   0.502   3.224  0.7173  0.1014  0.3519
 6790SOL    HW131829   1.284   0.556   3.302 -0.1344  0.1249  0.2743
 6790SOL    HW231830   1.199   0.506   3.193  0.5038 -0.2078  0.9380
 6791SOL     OW31831   4.035   2.343  17.242  0.4879  0.3460 -0.4386
 6791SOL    HW131832   4.077   2.257  17.246  0.9240  0.5851  0.1099
 6791SOL    HW231833   4.111   2.395  17.213 -0.8805  2.8779  0.5612
 6792SOL     OW31834   3.480   0.160   3.310 -0.2291 -0.1840 -0.4758
 6792SOL    HW131835   3.412   0.164   3.377 -0.7962  0.2451 -1.0772
 6792SOL    HW231836   3.463   0.074   3.273  0.0699 -0.7128  0.6157
 6793SOL     OW31837   2.767   4.259   2.019 -0.1531  0.5176  0.2390
 6793SOL    HW131838   2.819   4.312   1.958 -1.2834  3.0598  1.4711
 6793SOL    HW231839   2.843   4.223   2.066  0.1424 -1.2317 -1.5829
 6794SOL     OW31840   0.880   0.139   3.725 -0.3193 -0.6358 -0.5580
 6794SOL    HW131841   0.811   0.092   3.678 -1.1471  0.6222 -0.6210
 6794SOL    HW231842   0.831   0.195   3.786  1.7291  0.3790  0.1342
 6795SOL     OW31843   3.136   1.442  10.908 -0.1278  0.3851  0.6272
 6795SOL    HW131844   3.179   1.507  10.852 -0.3128  1.5907  1.8820
 6795SOL    HW231845   3.161   1.467  10.997 -1.8776  0.6393  1.0456
 6796SOL     OW31846   4.612   0.915  12.345  0.3943 -0.2125 -0.5418
 6796SOL    HW131847   4.656   0.830  12.348 -0.7476 -0.7744  0.2595
 6796SOL    HW231848   4.577   0.920  12.434  0.1583 -1.3259 -0.5773
 6797SOL     OW31849   3.003   4.608  12.998 -0.3068  0.2959  0.1467
 6797SOL    HW131850   3.056   4.590  12.921  0.0796  0.4664  0.3739
 6797SOL    HW231851   2.965   4.523  13.019 -0.5346  0.0723 -1.1780
 6798SOL     OW31852   1.409   2.058   5.911  0.2651  0.5507 -0.7580
 6798SOL    HW131853   1.476   2.123   5.894 -0.0840  1.0311 -0.2905
 6798SOL    HW231854   1.447   2.015   5.988 -1.2836  0.8820  0.1970
 6799SOL     OW31855   2.865   0.802   5.374 -0.1571 -0.4352  0.2953
 6799SOL    HW131856   2.862   0.784   5.280  0.2129  0.2174  0.1594
 6799SOL    HW231857   2.908   0.726   5.413 -0.5814 -0.7031  0.2415
 6800SOL     OW31858   2.099   3.755   7.957 -0.2083  0.4751  0.3254
 6800SOL    HW131859   2.011   3.789   7.976  0.5702  2.3288  0.6325
 6800SOL    HW231860   2.115   3.806   7.877 -2.1879  0.1012 -0.3171
 6801SOL     OW31861   2.532   3.101  12.056  0.5630 -0.4035  0.1962
 6801SOL    HW131862   2.572   3.170  12.004 -2.9985  0.9427 -0.7322
 6801SOL    HW231863   2.604   3.039  12.072  0.3258 -0.2437  1.8848
 6802SOL     OW31864   0.670   1.858   3.675  0.0789  0.2718  0.4798
 6802SOL    HW131865   0.728   1.814   3.737 -2.1610  1.6480  3.5101
 6802SOL    HW231866   0.623   1.913   3.736  2.0188  1.1695  1.1604
 6803SOL     OW31867   2.013   1.267   1.071 -0.2295 -0.2999 -1.2035
 6803SOL    HW131868   1.995   1.267   0.977 -1.8806 -1.4067 -0.8727
 6803SOL    HW231869   2.041   1.358   1.079  0.9848 -0.4185 -3.9078
 6804SOL     OW31870   1.235   4.397   9.203  0.0852 -0.7045 -0.1754
 6804SOL    HW131871   1.169   4.374   9.269  1.3066  1.2830  1.7370
 6804SOL    HW231872   1.288   4.464   9.246 -0.8350  0.1486 -0.3762
 6805SOL     OW31873   1.933   3.692   8.940 -0.5182 -0.0961  0.4763
 6805SOL    HW131874   1.884   3.698   8.858  0.1253  2.2718  0.2783
 6805SOL    HW231875   1.972   3.779   8.932 -0.3208 -0.4278 -2.1589
 6806SOL     OW31876   2.577   3.262   2.435  0.2414  0.1467  0.4681
 6806SOL    HW131877   2.568   3.238   2.343 -0.1323  0.0190  0.5415
 6806SOL    HW231878   2.588   3.356   2.419 -3.1592  0.5252  0.5220
 6807SOL     OW31879   3.177   2.147  10.731 -0.0601  0.1602 -0.0626
 6807SOL    HW131880   3.090   2.113  10.751 -0.2064  0.6159  0.0903
 6807SOL    HW231881   3.180   2.124  10.638  2.4176 -2.1700  0.6194
 6808SOL     OW31882   4.378   3.714   3.626 -0.0122  0.2028  0.5464
 6808SOL    HW131883   4.385   3.621   3.607 -0.4149  0.1959  0.4401
 6808SOL    HW231884   4.283   3.726   3.633 -0.1244  0.4416 -1.5777
 6809SOL     OW31885   2.051   2.566  10.771  0.2595 -0.0612  0.2674
 6809SOL    HW131886   2.065   2.602  10.683 -0.4169 -2.0917 -0.6740
 6809SOL    HW231887   2.074   2.476  10.746  3.1461  0.2929  1.7855
 6810SOL     OW31888   2.294   3.044   2.561  0.5388  0.5617  0.3132
 6810SOL    HW131889   2.378   3.020   2.598 -0.3932 -2.8255  0.2126
 6810SOL    HW231890   2.252   3.080   2.640  0.5107  3.0220 -0.8192
 6811SOL     OW31891   0.597   4.442   4.167 -0.1870 -0.0110 -0.4120
 6811SOL    HW131892   0.662   4.494   4.120  1.2470 -1.5781 -0.1665
 6811SOL    HW231893   0.644   4.411   4.245 -0.4113  1.0034  0.1267
 6812SOL     OW31894   3.842   2.181   0.238 -0.0752 -0.4412  0.3897
 6812SOL    HW131895   3.934   2.205   0.246  0.1008 -0.7684 -0.6557
 6812SOL    HW231896   3.826   2.129   0.316 -0.2147  0.9468  1.2835
 6813SOL     OW31897   1.359   2.908  16.952  0.0565  0.0201  0.0962
 6813SOL    HW131898   1.275   2.954  16.956  0.2943  0.7213 -2.4085
 6813SOL    HW231899   1.423   2.979  16.952  1.1853 -1.0005 -1.8440
 6814SOL     OW31900   2.051   1.764  13.154  0.0885  0.1331 -0.0631
 6814SOL    HW131901   2.064   1.720  13.238  1.5002 -2.0901 -1.4416
 6814SOL    HW231902   1.984   1.830  13.170  2.0774  2.2273 -0.2821
 6815SOL     OW31903   1.931   0.763   6.656  0.3668 -0.2532  0.0996
 6815SOL    HW131904   1.965   0.847   6.625 -0.5940 -0.7045 -2.1583
 6815SOL    HW231905   1.921   0.716   6.574 -1.9854  1.1073 -0.3800
 6816SOL     OW31906   1.869   3.671  12.854  0.3636 -0.0629 -0.4297
 6816SOL    HW131907   1.830   3.636  12.934  3.7224  0.2171  1.3211
 6816SOL    HW231908   1.947   3.711  12.893 -0.5847  2.2140 -0.8548
 6817SOL     OW31909   0.058   0.968   9.080  0.3001 -0.0158 -0.3901
 6817SOL    HW131910   0.071   0.926   9.166 -0.9289 -0.4077 -0.4032
 6817SOL    HW231911   4.709   1.030   9.098  0.5074 -0.5003  2.1966
 6818SOL     OW31912   4.043   1.838  13.349  0.4206  0.3925  0.2362
 6818SOL    HW131913   3.965   1.811  13.398  0.4728  1.0633  0.6869
 6818SOL    HW231914   4.098   1.856  13.425  0.6014 -1.7954  0.6121
 6819SOL     OW31915   2.827   2.410   5.685  0.2595 -0.0108 -0.3403
 6819SOL    HW131916   2.802   2.417   5.778 -1.1573 -2.9726 -0.5079
 6819SOL    HW231917   2.739   2.383   5.658 -0.0362  0.7410 -0.1458
 6820SOL     OW31918   3.675   0.193   7.828 -0.1596 -0.3990 -0.2697
 6820SOL    HW131919   3.584   0.205   7.802 -0.0561  0.8227 -0.0441
 6820SOL    HW231920   3.702   0.282   7.849 -1.8972 -0.2855  1.4516
 6821SOL     OW31921   2.529   4.490  15.473 -0.6383  0.1764 -0.3107
 6821SOL    HW131922   2.563   4.433  15.541  1.8691  1.4050 -0.5282
 6821SOL    HW231923   2.612   4.521  15.436 -0.6797  0.5036 -0.1314
 6822SOL     OW31924   3.997   2.976  16.047 -0.1273 -1.0460 -0.0037
 6822SOL    HW131925   4.063   3.009  16.108 -2.2990  1.5928  0.9157
 6822SOL    HW231926   4.027   3.033  15.976  0.7941 -0.7417  0.6259
 6823SOL     OW31927   1.433   0.369   3.038  0.2843 -0.2227 -0.0854
 6823SOL    HW131928   1.378   0.423   3.094 -0.9107 -1.6525  0.1211
 6823SOL    HW231929   1.450   0.433   2.969  1.6971 -2.0560 -1.4587
 6824SOL     OW31930   2.480   4.599   5.944 -0.6828  0.4624  0.1298
 6824SOL    HW131931   2.496   4.554   6.026  0.5646 -0.9446 -0.8969
 6824SOL    HW231932   2.563   4.645   5.935 -1.0660  1.2760  0.6299
 6825SOL     OW31933   3.329   4.280   6.527  0.6957 -0.2632  0.0863
 6825SOL    HW131934   3.357   4.315   6.443  0.8035 -0.7106 -0.0668
 6825SOL    HW231935   3.246   4.239   6.500  0.3062  0.3101  0.4148
 6826SOL     OW31936   3.955   0.943   5.505 -0.0646 -0.5951 -0.1679
 6826SOL    HW131937   4.011   0.945   5.582 -0.5589  1.5414  0.1354
 6826SOL    HW231938   4.014   0.918   5.433  1.6206  1.1619  0.5800
 6827SOL     OW31939   3.928   2.330   7.388 -0.2467  0.3239 -0.4604
 6827SOL    HW131940   4.000   2.269   7.371 -0.4527  0.0586 -0.3776
 6827SOL    HW231941   3.979   2.411   7.390 -0.2590  0.2687  1.5406
 6828SOL     OW31942   2.351   4.279   2.927 -0.3985 -0.2626 -0.7885
 6828SOL    HW131943   2.413   4.244   2.863 -1.4222 -0.6233 -1.5850
 6828SOL    HW231944   2.274   4.260   2.873 -1.6789  3.1442 -0.1854
 6829SOL     OW31945   1.763   3.507   9.069  0.0529  0.3076  0.6795
 6829SOL    HW131946   1.841   3.529   9.019  0.2215  1.4783  1.4712
 6829SOL    HW231947   1.733   3.585   9.116  1.2567 -0.0429  2.0454
 6830SOL     OW31948   2.768   2.861   4.758 -0.0081 -0.2300  0.5843
 6830SOL    HW131949   2.718   2.822   4.686  1.3757  0.5264 -0.7965
 6830SOL    HW231950   2.737   2.951   4.761 -3.1876 -1.3337  0.7453
 6831SOL     OW31951   2.281   3.260   2.119 -0.6243  0.0268 -0.0211
 6831SOL    HW131952   2.200   3.225   2.082 -0.4904 -1.6055  1.2052
 6831SOL    HW231953   2.246   3.279   2.206  3.6892 -1.4140  2.0367
 6832SOL     OW31954   0.961   0.566   8.752 -0.2032 -0.6673  0.3898
 6832SOL    HW131955   0.952   0.593   8.844 -1.7142 -1.3610  0.4552
 6832SOL    HW231956   1.051   0.596   8.737 -0.8562  0.9750 -0.1746
 6833SOL     OW31957   1.670   1.634   5.272 -0.0287 -0.1104 -0.0426
 6833SOL    HW131958   1.603   1.700   5.285 -0.5196 -0.3099 -1.5432
 6833SOL    HW231959   1.647   1.580   5.347 -1.0402  1.1220  0.5194
 6834SOL     OW31960   2.640   0.077  14.565 -0.8315  0.2875  0.1457
 6834SOL    HW131961   2.579   0.101  14.496 -2.9635  0.0293  1.9682
 6834SOL    HW231962   2.611   4.708  14.578  1.3184 -0.4552 -0.1041
 6835SOL     OW31963   3.847   2.621   8.478  0.1799  0.1974  0.3851
 6835SOL    HW131964   3.822   2.692   8.537  0.3973  1.4595 -1.0358
 6835SOL    HW231965   3.941   2.629   8.494  0.4263 -1.3782 -0.3147
 6836SOL     OW31966   0.213   0.700   1.643  0.1955 -0.1214  0.1578
 6836SOL    HW131967   0.203   0.727   1.551  0.9377 -1.5283 -0.3394
 6836SOL    HW231968   0.190   0.608   1.631 -0.1291 -0.1119  0.7286
 6837SOL     OW31969   3.530   1.373  10.930 -0.5217 -0.2429  0.1247
 6837SOL    HW131970   3.532   1.435  10.857  1.1010  0.3803  0.6961
 6837SOL    HW231971   3.540   1.420  11.012  1.3134  0.7636 -0.6597
 6838SOL     OW31972   1.842   1.992   3.534 -0.1946  0.3358  0.0346
 6838SOL    HW131973   1.923   1.978   3.582 -0.0657  2.4377  0.4152
 6838SOL    HW231974   1.870   2.041   3.457  1.7110  1.1754  1.2956
 6839SOL     OW31975   4.242   0.390   7.096  0.5349  0.1399  0.2428
 6839SOL    HW131976   4.325   0.346   7.114  0.5722  0.3840  0.6542
 6839SOL    HW231977   4.249   0.418   7.005  1.5776 -0.3834  0.1565
 6840SOL     OW31978   1.970   2.506   6.044  0.1148  0.0479 -0.5607
 6840SOL    HW131979   2.050   2.485   5.996  1.0605  2.1900  0.1074
 6840SOL    HW231980   1.923   2.422   6.047 -0.7646  0.4393 -2.9061
 6841SOL     OW31981   4.695   3.296   4.514  0.2015  0.3715  0.1422
 6841SOL    HW131982   4.653   3.378   4.541  0.5128  0.0573  1.6142
 6841SOL    HW231983   0.066   3.314   4.535  0.4939  1.2275 -1.9471
 6842SOL     OW31984   0.455   2.412  17.226  0.1210  0.2971  0.3995
 6842SOL    HW131985   0.405   2.466  17.165  0.1515  0.4688  0.5255
 6842SOL    HW231986   0.494   2.479  17.282 -0.3716 -0.7896  2.0292
 6843SOL     OW31987   0.930   0.805   2.872 -0.6127  0.2893  0.0814
 6843SOL    HW131988   0.991   0.870   2.837  0.4521  0.5194  2.3460
 6843SOL    HW231989   0.901   0.759   2.793 -1.0859 -0.6354  0.7948
 6844SOL     OW31990   3.374   4.203   2.288 -0.0401 -0.2589 -0.5671
 6844SOL    HW131991   3.457   4.202   2.336  0.9032 -0.3496 -2.1876
 6844SOL    HW231992   3.328   4.273   2.334 -0.7730  0.0278 -1.7518
 6845SOL     OW31993   0.818   3.281   8.470 -0.4406 -0.5891  0.3687
 6845SOL    HW131994   0.861   3.367   8.458 -1.9721  0.1336  0.0816
 6845SOL    HW231995   0.850   3.230   8.396  1.4424  1.4890 -0.2638
 6846SOL     OW31996   0.867   1.994  15.292 -0.2085 -0.0249  0.7646
 6846SOL    HW131997   0.911   1.931  15.348 -0.8803 -0.4863  0.7786
 6846SOL    HW231998   0.924   1.997  15.215 -0.3863 -1.1809  0.5854
 6847SOL     OW31999   2.030   0.741   1.085 -0.2450 -0.3348  0.3295
 6847SOL    HW132000   1.940   0.732   1.118 -0.7033  1.0251 -0.5362
 6847SOL    HW232001   2.023   0.709   0.995  0.7596  2.7304 -0.8302
 6848SOL     OW32002   0.915   4.165   1.263 -0.2838 -0.0787  0.4559
 6848SOL    HW132003   0.926   4.258   1.242  2.0268 -0.9261 -2.1317
 6848SOL    HW232004   0.901   4.173   1.357 -0.0482 -1.7562  0.6268
 6849SOL     OW32005   3.667   1.613   6.294 -0.4771  0.2412  0.0035
 6849SOL    HW132006   3.667   1.701   6.330 -1.8746  0.0966  0.3570
 6849SOL    HW232007   3.717   1.627   6.213 -2.9361 -1.8023 -1.8731
 6850SOL     OW32008   0.561   2.149   9.647 -0.1548 -0.0978  0.1493
 6850SOL    HW132009   0.551   2.176   9.556 -0.6310 -0.6007  0.0503
 6850SOL    HW232010   0.469   2.131   9.669  0.1959  1.7153  3.1574
 6851SOL     OW32011   2.845   0.669  16.827  0.5845  0.2179  0.0924
 6851SOL    HW132012   2.808   0.713  16.904  0.2009 -3.1209  1.7846
 6851SOL    HW232013   2.771   0.614  16.803 -0.0874  2.7200 -3.6779
 6852SOL     OW32014   0.314   0.207   2.063  0.3290 -0.2174  0.4048
 6852SOL    HW132015   0.338   0.295   2.033  0.5113 -0.0687  0.9758
 6852SOL    HW232016   0.226   0.195   2.028  0.3061  4.0849 -1.0746
 6853SOL     OW32017   1.731   1.858   1.060 -0.0442 -0.0010  0.0549
 6853SOL    HW132018   1.761   1.855   0.970 -0.7792  0.0086 -0.1901
 6853SOL    HW232019   1.693   1.946   1.062 -2.1947 -0.9224 -0.6460
 6854SOL     OW32020   1.452   0.952  10.981  0.1140  0.3332  0.1028
 6854SOL    HW132021   1.443   0.999  10.898  2.0493  0.5102  0.0089
 6854SOL    HW232022   1.528   0.901  10.953  0.1072  0.0783  0.5654
 6855SOL     OW32023   0.908   0.055   5.344  0.1519  0.2826 -0.2348
 6855SOL    HW132024   0.815   0.050   5.324  0.4647 -0.1065 -1.5968
 6855SOL    HW232025   0.902   0.027   5.435  0.5272  0.3208 -0.1984
 6856SOL     OW32026   2.706   2.031   1.921 -0.2863 -0.1851 -0.1908
 6856SOL    HW132027   2.639   2.042   1.988  0.2699  1.1805  0.1537
 6856SOL    HW232028   2.700   2.119   1.883  2.2822  0.4764  0.9929
 6857SOL     OW32029   4.684   0.030   2.345 -0.5648 -0.2125 -0.0047
 6857SOL    HW132030   4.695   4.679   2.407  2.7938 -0.5410 -0.9618
 6857SOL    HW232031   4.659   0.101   2.404 -0.6983 -0.1079 -0.1884
 6858SOL     OW32032   1.586   4.603   2.400  0.5806 -1.0604 -0.1111
 6858SOL    HW132033   1.621   4.675   2.452 -0.6808 -1.2046  0.9474
 6858SOL    HW232034   1.497   4.601   2.436 -0.2846 -0.7546 -2.2594
 6859SOL     OW32035   0.855   0.153   8.313 -0.4152  0.0625  0.1887
 6859SOL    HW132036   0.791   0.095   8.354 -0.1382 -1.6660 -1.8266
 6859SOL    HW232037   0.808   0.186   8.236 -1.1734 -1.6962 -0.1098
 6860SOL     OW32038   3.056   1.320   5.157 -0.1992 -0.0121 -0.3305
 6860SOL    HW132039   2.983   1.301   5.098 -1.5244 -2.0973  1.9943
 6860SOL    HW232040   3.009   1.350   5.234 -1.6807 -0.8719 -0.9067
 6861SOL     OW32041   4.016   2.077   6.363 -0.2115 -0.0955 -0.1242
 6861SOL    HW132042   3.992   2.157   6.410 -0.5036 -0.2262 -0.0473
 6861SOL    HW232043   4.016   2.113   6.274 -2.3346  2.4332  0.8859
 6862SOL     OW32044   3.073   3.917   6.947 -0.6422  0.0378  0.3535
 6862SOL    HW132045   3.080   4.010   6.970  3.3972 -0.0965 -0.4341
 6862SOL    HW232046   3.105   3.893   7.034 -1.1502  0.8388  0.7608
 6863SOL     OW32047   2.813   4.337   6.082  0.2744  0.3881  0.1461
 6863SOL    HW132048   2.754   4.380   6.144 -1.0026 -0.6390 -0.3445
 6863SOL    HW232049   2.890   4.332   6.138  0.4344  0.7006 -0.0491
 6864SOL     OW32050   0.519   1.054   7.026 -0.1412 -0.0056  0.2900
 6864SOL    HW132051   0.542   1.010   7.107  3.3568  0.3728 -0.5309
 6864SOL    HW232052   0.438   1.011   6.999  0.7324 -1.1052 -0.5529
 6865SOL     OW32053   2.507   2.918  13.575  0.2585  0.4143  0.4592
 6865SOL    HW132054   2.419   2.882  13.561  0.2599  0.6492 -0.1590
 6865SOL    HW232055   2.553   2.912  13.492  0.6414 -0.7690  0.7470
 6866SOL     OW32056   0.373   4.252   6.334 -0.3300  0.4470  0.2120
 6866SOL    HW132057   0.277   4.253   6.326 -0.4040  0.9586  1.1533
 6866SOL    HW232058   0.380   4.261   6.429 -0.2564  0.4054  0.2104
 6867SOL     OW32059   3.525   0.022   5.308  0.4022 -1.0671 -0.0947
 6867SOL    HW132060   3.509   0.026   5.214 -0.5196 -1.2983  0.0476
 6867SOL    HW232061   3.452   4.698   5.351 -0.3257 -1.6846 -1.9901
 6868SOL     OW32062   2.932   0.643  12.468  0.3675  0.1898  0.5129
 6868SOL    HW132063   2.905   0.714  12.526  0.0567  1.1729 -0.8412
 6868SOL    HW232064   2.946   0.691  12.387 -1.4325  0.3432  0.2866
 6869SOL     OW32065   0.907   3.453   7.746  0.4724 -0.2547 -0.3528
 6869SOL    HW132066   0.918   3.424   7.836  0.4232 -1.7603 -0.8358
 6869SOL    HW232067   0.812   3.457   7.739  0.4014  2.4065  2.0902
 6870SOL     OW32068   3.156   3.205   4.231 -0.3347 -0.1971 -0.3139
 6870SOL    HW132069   3.248   3.189   4.251  0.1200  1.0771 -1.3575
 6870SOL    HW232070   3.139   3.294   4.261  0.6115 -0.6047  1.4627
 6871SOL     OW32071   3.887   2.571   4.378  0.5489  0.4369 -0.2004
 6871SOL    HW132072   3.862   2.663   4.367 -0.0259  0.4948  1.6223
 6871SOL    HW232073   3.925   2.534   4.298  0.9868  3.0055 -1.1769
 6872SOL     OW32074   4.606   4.148  13.717  0.0096 -0.4487 -0.1992
 6872SOL    HW132075   4.539   4.168  13.783  1.2408  2.6392  0.1499
 6872SOL    HW232076   4.604   4.230  13.667 -3.1686  0.5913  1.6028
 6873SOL     OW32077   3.635   0.077   4.232 -0.2956 -0.3668 -0.0989
 6873SOL    HW132078   3.552   0.121   4.218 -0.7071 -0.8498  0.8487
 6873SOL    HW232079   3.687   0.149   4.268  1.0316 -0.8075 -1.1197
 6874SOL     OW32080   4.424   3.106   2.263  0.0765 -0.3967 -0.3211
 6874SOL    HW132081   4.340   3.149   2.279 -0.9411 -2.3173 -0.5165
 6874SOL    HW232082   4.413   3.087   2.169  2.9010 -1.3514 -0.4637
 6875SOL     OW32083   1.527   4.001  16.850  0.9126  0.0932  0.0082
 6875SOL    HW132084   1.596   4.002  16.784  0.9792 -0.6707  0.0588
 6875SOL    HW232085   1.561   4.056  16.921  0.4082 -0.4001  0.6392
 6876SOL     OW32086   3.439   1.663  13.886 -0.3423  0.0906 -0.5835
 6876SOL    HW132087   3.404   1.751  13.902  0.5908  0.7087 -1.9565
 6876SOL    HW232088   3.374   1.606  13.927 -1.0172 -0.0743 -1.8964
 6877SOL     OW32089   0.006   0.792   3.085  0.1436  0.3841  0.4115
 6877SOL    HW132090   0.002   0.855   3.156  0.1621  2.4499 -1.4259
 6877SOL    HW232091   4.657   0.816   3.024  0.0726 -0.9715 -0.0327
 6878SOL     OW32092   2.628   1.135   0.356 -0.5903  0.1831  0.1690
 6878SOL    HW132093   2.641   1.191   0.433 -0.3393 -0.4939  0.6156
 6878SOL    HW232094   2.720   1.117   0.337 -0.8045 -0.2261 -0.4655
 6879SOL     OW32095   1.607   0.690  13.244  0.1991 -0.1758  0.7975
 6879SOL    HW132096   1.632   0.667  13.154  0.0145  0.0959  0.6746
 6879SOL    HW232097   1.577   0.779  13.228 -0.4777 -0.0589  2.8148
 6880SOL     OW32098   1.107   3.633   5.050 -0.3828 -0.2009  0.1060
 6880SOL    HW132099   1.014   3.632   5.072 -0.6611  0.0099 -1.0535
 6880SOL    HW232100   1.130   3.558   5.105 -0.6329  0.2787  0.8632
 6881SOL     OW32101   4.186   2.129  16.373  0.2240  0.2918 -0.3386
 6881SOL    HW132102   4.102   2.095  16.402  0.2331 -1.5977 -2.5018
 6881SOL    HW232103   4.160   2.201  16.316  0.1031  1.1626  0.8274
 6882SOL     OW32104   1.365   1.938   7.960  0.2151  0.0820 -0.6581
 6882SOL    HW132105   1.453   1.967   7.984  1.0348 -2.4468 -0.6663
 6882SOL    HW232106   1.329   1.882   8.028 -1.3661  0.7897 -0.9044
 6883SOL     OW32107   2.872   4.675   3.891 -0.1772  0.3870  0.5168
 6883SOL    HW132108   2.915   0.039   3.877  2.0377 -0.8445 -0.2075
 6883SOL    HW232109   2.781   4.700   3.879 -0.0695 -0.0593 -1.1575
 6884SOL     OW32110   1.328   2.753  14.060 -0.1930  0.1092  0.3641
 6884SOL    HW132111   1.239   2.784  14.082  0.3550  1.0260  1.3085
 6884SOL    HW232112   1.368   2.837  14.037 -0.3181  0.4118  1.2482
 6885SOL     OW32113   1.047   2.789   7.203  0.0817 -0.3501 -0.1335
 6885SOL    HW132114   1.084   2.844   7.273 -1.2607 -0.4553  0.6505
 6885SOL    HW232115   1.120   2.785   7.142 -0.7901  1.6132 -1.2945
 6886SOL     OW32116   0.227   1.955   9.608 -0.3615 -0.3731  0.4958
 6886SOL    HW132117   0.247   2.044   9.639  2.0587 -0.6296 -0.3685
 6886SOL    HW232118   0.252   1.907   9.687  1.7384 -0.4851 -0.2305
 6887SOL     OW32119   2.996   4.626   7.617 -0.2344 -0.1123  0.7497
 6887SOL    HW132120   2.909   4.592   7.637 -1.8180  1.5158 -3.4988
 6887SOL    HW232121   3.047   4.602   7.695  0.6623  0.9906  0.4964
 6888SOL     OW32122   3.281   4.612   2.843 -0.1396 -0.1314  0.1363
 6888SOL    HW132123   3.191   4.588   2.864  0.6740 -1.7821  1.6999
 6888SOL    HW232124   3.256   4.655   2.761  1.4960  1.9260  0.7211
 6889SOL     OW32125   4.105   2.596   4.541  0.1475 -0.2271 -0.4524
 6889SOL    HW132126   4.041   2.574   4.473 -0.2752  0.7979 -0.3882
 6889SOL    HW232127   4.048   2.652   4.594  0.2364 -2.3171  1.8088
 6890SOL     OW32128   4.625   1.924   4.569  0.3190 -0.8259 -0.6591
 6890SOL    HW132129   4.577   1.846   4.541 -1.5048 -0.5040  1.5792
 6890SOL    HW232130   4.557   1.950   4.631  0.0272  1.8238 -2.0770
 6891SOL     OW32131   1.314   3.120  15.591 -0.3182 -0.5937  0.1091
 6891SOL    HW132132   1.310   3.210  15.558  1.0301 -0.2746  0.8412
 6891SOL    HW232133   1.362   3.137  15.672  0.1191  0.2037 -0.3218
 6892SOL     OW32134   2.925   0.729   4.515  0.0799  0.1564 -0.0870
 6892SOL    HW132135   2.916   0.766   4.602 -1.7955 -1.0211  0.2167
 6892SOL    HW232136   2.952   0.640   4.539 -1.9127  0.2442  2.4035
 6893SOL     OW32137   1.995   1.737  15.232  0.5709 -0.4818 -0.0124
 6893SOL    HW132138   1.965   1.827  15.242 -0.2887 -0.8318  0.4973
 6893SOL    HW232139   2.077   1.756  15.187  0.7411 -2.2430 -0.4428
 6894SOL     OW32140   4.410   3.145   7.206 -0.6440 -0.5415  0.3887
 6894SOL    HW132141   4.359   3.112   7.280 -0.9670 -1.0102 -0.0403
 6894SOL    HW232142   4.346   3.134   7.135 -1.9483 -1.2501  1.6662
 6895SOL     OW32143   3.796   0.274   6.087  0.3892  0.1117  0.7125
 6895SOL    HW132144   3.826   0.232   6.168 -3.0153 -1.1465  1.2863
 6895SOL    HW232145   3.852   0.226   6.025 -1.4987 -2.7418  1.2408
 6896SOL     OW32146   3.749   1.221   3.959 -0.0388  0.1852  0.1327
 6896SOL    HW132147   3.808   1.197   3.887  0.4774  1.6907  0.0628
 6896SOL    HW232148   3.686   1.269   3.905 -0.5215 -0.8130 -0.2032
 6897SOL     OW32149   0.686   2.531   7.764  0.0221  0.2433 -0.9798
 6897SOL    HW132150   0.642   2.477   7.698 -1.1689 -1.4291  1.1823
 6897SOL    HW232151   0.766   2.477   7.771 -0.3579 -0.0222  1.2489
 6898SOL     OW32152   0.758   2.634  16.227  0.0569 -0.5325  0.8464
 6898SOL    HW132153   0.787   2.713  16.271  1.2053 -0.7663  0.5150
 6898SOL    HW232154   0.754   2.671  16.138 -0.2846 -1.5507  0.4334
 6899SOL     OW32155   0.587   0.982  11.046 -0.0085 -0.2448 -0.0558
 6899SOL    HW132156   0.591   0.886  11.038  0.8101 -0.2002 -0.1863
 6899SOL    HW232157   0.510   0.984  11.103  0.1405 -0.4653  0.1556
 6900SOL     OW32158   2.549   2.410  15.239 -0.6026 -0.1495  0.3384
 6900SOL    HW132159   2.573   2.321  15.214 -0.7773 -0.3163  0.7530
 6900SOL    HW232160   2.504   2.398  15.323  0.3581 -2.3999  0.5126
 6901SOL     OW32161   2.761   3.922  15.280  0.1861 -0.5321 -0.0944
 6901SOL    HW132162   2.776   4.009  15.318  1.7664 -1.8402  2.2695
 6901SOL    HW232163   2.711   3.932  15.199 -0.3224  0.9639  0.4115
 6902SOL     OW32164   1.496   3.418   7.452  0.7596  0.5002 -0.0820
 6902SOL    HW132165   1.457   3.405   7.538 -0.1947  1.8734 -0.2954
 6902SOL    HW232166   1.417   3.423   7.398  0.4378  2.3337  0.5457
 6903SOL     OW32167   1.215   1.157   3.863 -0.3546  0.4241  0.0029
 6903SOL    HW132168   1.223   1.177   3.956  0.2022 -2.2980  0.5468
 6903SOL    HW232169   1.153   1.222   3.831  0.9467  1.0015 -1.3628
 6904SOL     OW32170   1.953   2.617  11.008  0.2864  0.2807  0.3943
 6904SOL    HW132171   1.919   2.699  10.971 -0.9240 -1.3675 -2.1740
 6904SOL    HW232172   1.995   2.591  10.926  1.0751  1.0515  0.5464
 6905SOL     OW32173   1.127   4.130   4.403 -0.2665 -0.2867 -0.4117
 6905SOL    HW132174   1.125   4.034   4.404 -1.2762 -0.2503  2.9000
 6905SOL    HW232175   1.181   4.139   4.482 -0.3476 -0.8553 -0.2940
 6906SOL     OW32176   0.198   0.261   6.079  0.6442  0.3241  0.2614
 6906SOL    HW132177   0.230   0.351   6.095  0.3048  0.5646 -0.4430
 6906SOL    HW232178   0.237   0.242   5.994  2.8602  0.4566  1.2310
 6907SOL     OW32179   3.985   0.485   0.996  0.1270  0.2224 -0.0562
 6907SOL    HW132180   4.031   0.465   0.915 -3.2783  0.2971 -2.0062
 6907SOL    HW232181   3.895   0.501   0.970 -0.5768 -0.8571  1.6970
 6908SOL     OW32182   2.876   4.287  10.799  0.7914 -0.4756 -0.2369
 6908SOL    HW132183   2.844   4.312  10.886  0.8011  0.2314 -0.4392
 6908SOL    HW232184   2.891   4.193  10.810  0.8054 -0.6834 -2.1186
 6909SOL     OW32185   1.894   2.200   0.793  0.1962  0.2344  0.2524
 6909SOL    HW132186   1.879   2.220   0.885 -0.9690  2.5102 -0.4241
 6909SOL    HW232187   1.831   2.129   0.788  1.4979 -0.9062 -0.0686
 6910SOL     OW32188   4.601   1.340   8.008  0.5509  0.0648  0.3940
 6910SOL    HW132189   4.518   1.384   7.992 -0.2515 -1.4964  0.2463
 6910SOL    HW232190   4.585   1.251   8.040 -3.8499  0.7355  0.0940
 6911SOL     OW32191   4.643   2.706   3.342 -0.0169  0.1607 -0.4757
 6911SOL    HW132192   4.669   2.798   3.338 -2.4276  0.8469 -0.6664
 6911SOL    HW232193   4.593   2.699   3.260 -0.6098 -0.7097 -0.0429
 6912SOL     OW32194   0.355   4.263   2.011 -0.4459  0.5526  0.4452
 6912SOL    HW132195   0.433   4.300   1.968 -0.8625  2.5621  1.4161
 6912SOL    HW232196   0.358   4.295   2.101  0.3922 -0.5858  0.8336
 6913SOL     OW32197   0.345   2.595   7.169 -0.0412  0.2021 -0.2989
 6913SOL    HW132198   0.435   2.564   7.160  0.1212  0.1635  1.3377
 6913SOL    HW232199   0.334   2.665   7.105 -0.5990 -0.1747 -0.6165
 6914SOL     OW32200   1.399   1.936  13.787 -0.4671  0.4155  0.0515
 6914SOL    HW132201   1.382   1.851  13.748  0.2584  0.1026  0.4180
 6914SOL    HW232202   1.484   1.960  13.750  0.4499 -0.9416  1.3055
 6915SOL     OW32203   1.285   3.327  11.027  0.3912 -0.1834 -0.2019
 6915SOL    HW132204   1.193   3.307  11.046  0.4404  0.9050  1.1962
 6915SOL    HW232205   1.291   3.304  10.935  1.3105 -2.3871  0.4106
 6916SOL     OW32206   3.683   2.428   4.992  0.2285 -0.2310 -0.2699
 6916SOL    HW132207   3.767   2.448   4.952 -0.0299  1.8140  0.2223
 6916SOL    HW232208   3.681   2.332   4.987  1.4993 -0.2234 -0.7638
 6917SOL     OW32209   1.104   3.959   5.992  0.4987  0.0716  1.1001
 6917SOL    HW132210   1.106   3.968   5.896 -1.1027 -0.1501  1.0558
 6917SOL    HW232211   1.101   3.864   5.993  4.7320 -0.0807  0.9753
 6918SOL     OW32212   1.724   4.074   6.168  0.5200  0.3207  0.0071
 6918SOL    HW132213   1.757   4.164   6.160 -0.6748  0.7534 -0.0796
 6918SOL    HW232214   1.632   4.093   6.182  0.2443 -0.5389 -0.6331
 6919SOL     OW32215   0.466   3.048   4.770 -0.3594 -0.3917  0.0505
 6919SOL    HW132216   0.417   3.054   4.688 -0.4898 -0.1954  0.1435
 6919SOL    HW232217   0.398   3.009   4.826  0.7167 -2.7163 -0.2424
 6920SOL     OW32218   0.552   0.104   6.898  0.5363 -0.5026 -0.3310
 6920SOL    HW132219   0.549   0.199   6.912 -1.2289 -0.6543  0.2199
 6920SOL    HW232220   0.466   0.093   6.857 -0.3917  1.7481  1.0058
 6921SOL     OW32221   0.366   1.985   3.852  0.1977 -0.1003  0.7969
 6921SOL    HW132222   0.319   2.069   3.858  0.2249 -0.1715  1.8763
 6921SOL    HW232223   0.455   2.008   3.876  0.0830 -0.7857  1.8406
 6922SOL     OW32224   0.984   0.435   5.217  0.1891  0.0864 -0.0417
 6922SOL    HW132225   0.937   0.402   5.140 -1.5536  1.6140  0.3664
 6922SOL    HW232226   0.926   0.419   5.292 -2.2086  3.8194 -1.0746
 6923SOL     OW32227   4.575   1.864   2.612  0.0474 -0.6086  0.0852
 6923SOL    HW132228   4.574   1.780   2.657  0.5158  0.6213  2.4194
 6923SOL    HW232229   4.572   1.831   2.522  1.2153 -1.8071  0.4887
 6924SOL     OW32230   0.438   1.236   4.908 -0.1952  0.2846 -0.1478
 6924SOL    HW132231   0.454   1.269   4.996 -2.1209  3.3415 -0.9425
 6924SOL    HW232232   0.526   1.240   4.869  0.7695  1.8500  2.1970
 6925SOL     OW32233   2.692   4.362   2.834  0.1266 -0.3730 -0.5406
 6925SOL    HW132234   2.631   4.304   2.788 -0.7149 -1.5114  2.0325
 6925SOL    HW232235   2.768   4.336   2.782  0.9752  4.0865 -1.5216
 6926SOL     OW32236   4.090   0.335  12.936  0.8281 -0.7384  0.2569
 6926SOL    HW132237   4.071   0.284  12.857 -2.5345  1.9550 -0.7039
 6926SOL    HW232238   4.165   0.281  12.958  0.9311 -0.2123  1.2036
 6927SOL     OW32239   2.924   2.897  16.357  0.1468  0.6402 -0.1608
 6927SOL    HW132240   2.958   2.887  16.267  0.0081 -0.0344 -0.1407
 6927SOL    HW232241   2.905   2.804  16.365  0.3513  0.5588 -0.5589
 6928SOL     OW32242   0.136   4.602  15.049  0.2023  0.2565 -0.4252
 6928SOL    HW132243   0.150   4.536  15.117  0.1357  1.0839  0.3873
 6928SOL    HW232244   0.186   4.670  15.094 -1.0860  2.4949 -2.3308
 6929SOL     OW32245   1.868   2.070   2.371  0.0619  0.0693 -0.1162
 6929SOL    HW132246   1.792   2.114   2.332 -0.6131  0.5860  1.8076
 6929SOL    HW232247   1.937   2.132   2.348 -0.6140  0.5423 -0.8819
 6930SOL     OW32248   3.374   0.800   4.509 -0.2426  0.2545  0.4330
 6930SOL    HW132249   3.424   0.836   4.583  2.8490  0.1469 -1.6409
 6930SOL    HW232250   3.312   0.747   4.560 -1.2607  0.7507 -0.3049
 6931SOL     OW32251   0.041   4.432  17.320 -0.6674 -0.7555  0.3438
 6931SOL    HW132252   0.101   4.444  17.247 -0.1702  2.6454  1.3029
 6931SOL    HW232253   4.680   4.434  17.270 -0.3852  0.1612 -0.0717
 6932SOL     OW32254   0.462   4.135   7.897  0.3758 -0.2604  0.0819
 6932SOL    HW132255   0.452   4.218   7.944  1.7857 -0.0011 -0.0522
 6932SOL    HW232256   0.527   4.095   7.955 -1.6201 -0.3545  2.2211
 6933SOL     OW32257   2.850   1.860  17.239 -0.3017  0.6982  0.0638
 6933SOL    HW132258   2.780   1.869  17.174 -2.1755  0.2128  2.0110
 6933SOL    HW232259   2.852   1.768  17.265 -1.7061  0.1875 -1.6373
 6934SOL     OW32260   1.739   3.774   8.506  0.4298 -0.3548 -0.2218
 6934SOL    HW132261   1.810   3.833   8.530  0.2834 -1.0149  1.8664
 6934SOL    HW232262   1.679   3.830   8.457  1.2896  0.0884 -0.7486
 6935SOL     OW32263   2.648   0.329  11.503  0.4068  0.2107 -1.2047
 6935SOL    HW132264   2.713   0.358  11.567 -0.1106 -0.1881 -0.5056
 6935SOL    HW232265   2.691   0.286  11.429  0.5262 -1.0213 -0.4013
 6936SOL     OW32266   1.601   3.439  11.078 -0.7377 -0.3655 -0.1247
 6936SOL    HW132267   1.539   3.494  11.126 -0.2681 -0.0750  0.1487
 6936SOL    HW232268   1.665   3.508  11.060 -0.3031 -0.6137  0.4754
 6937SOL     OW32269   3.619   0.786   6.921 -0.0982  0.5521 -0.9230
 6937SOL    HW132270   3.618   0.804   7.015  1.7227  1.5293 -1.0883
 6937SOL    HW232271   3.544   0.727   6.915 -1.1617  1.5601  2.3859
 6938SOL     OW32272   0.965   0.771   8.518 -0.4100 -0.3912 -0.0268
 6938SOL    HW132273   0.970   0.857   8.559  0.6026  0.2739 -1.5253
 6938SOL    HW232274   0.971   0.718   8.597 -0.9321 -2.9524 -1.7104
 6939SOL     OW32275   2.399   3.717  12.292  0.0118 -0.1389 -0.4138
 6939SOL    HW132276   2.310   3.717  12.326 -0.9764 -0.6200 -3.0097
 6939SOL    HW232277   2.426   3.641  12.343 -0.0793  0.3385  0.3422
 6940SOL     OW32278   3.284   0.584   3.016  0.2577  0.2964  0.1275
 6940SOL    HW132279   3.313   0.671   3.044  1.8653 -0.3869  0.6325
 6940SOL    HW232280   3.324   0.538   3.090  0.3127 -1.0455 -0.7444
 6941SOL     OW32281   4.721   2.254  12.871 -0.0613  0.2370 -0.1399
 6941SOL    HW132282   4.630   2.236  12.848 -0.3151 -0.6413  1.6034
 6941SOL    HW232283   0.013   2.345  12.844 -1.1454  0.3066 -0.4184
 6942SOL     OW32284   0.209   4.599  14.083 -0.4949  0.1296  0.0023
 6942SOL    HW132285   0.176   4.617  13.994  0.3543 -1.0224 -0.5420
 6942SOL    HW232286   0.143   4.533  14.108  0.8223 -0.4554  1.9261
 6943SOL     OW32287   1.259   0.431  14.027  0.2298 -0.1252 -0.6992
 6943SOL    HW132288   1.189   0.458  13.968  0.1409 -0.1776 -0.6170
 6943SOL    HW232289   1.335   0.432  13.969  0.0142 -1.2315 -0.9942
 6944SOL     OW32290   0.640   3.720   6.464  0.1575 -0.2159 -0.0799
 6944SOL    HW132291   0.634   3.674   6.381  0.5112  1.0485 -0.7965
 6944SOL    HW232292   0.733   3.709   6.483  0.5680 -0.2241 -2.1166
 6945SOL     OW32293   2.116   0.775   0.501 -0.1366 -0.5983  0.2218
 6945SOL    HW132294   2.089   0.706   0.440 -0.2878 -1.6035  1.4300
 6945SOL    HW232295   2.199   0.808   0.466 -0.8228 -2.2461 -2.9982
 6946SOL     OW32296   0.871   4.013   6.461 -0.0523 -0.1512  0.9693
 6946SOL    HW132297   0.828   4.000   6.545 -0.1839  0.8015  1.0414
 6946SOL    HW232298   0.896   3.923   6.437  0.1961  0.2945 -0.4622
 6947SOL     OW32299   4.237   2.963   8.528  0.0603  0.1237 -0.4043
 6947SOL    HW132300   4.254   2.999   8.615 -1.0196 -0.8634  0.2274
 6947SOL    HW232301   4.290   2.884   8.526  0.6479  0.5078 -0.1314
 6948SOL     OW32302   3.462   3.655   2.823 -0.1521 -0.1949  0.5234
 6948SOL    HW132303   3.461   3.727   2.759  1.3867 -1.3852 -0.8410
 6948SOL    HW232304   3.505   3.690   2.900 -1.8921 -0.6894  1.7337
 6949SOL     OW32305   1.914   2.459   3.095  0.1958 -0.3608  0.3365
 6949SOL    HW132306   1.999   2.438   3.055 -0.5308 -2.4026 -0.1129
 6949SOL    HW232307   1.871   2.375   3.081  1.4746 -1.0307  0.4235
 6950SOL     OW32308   1.121   3.372   8.646  0.3245 -0.4443 -0.2553
 6950SOL    HW132309   1.196   3.430   8.661  1.4943 -2.4457  1.5951
 6950SOL    HW232310   1.082   3.407   8.566  0.3576 -1.5941 -0.7713
 6951SOL     OW32311   3.731   0.042  16.433 -0.0464 -0.1220 -0.6963
 6951SOL    HW132312   3.691   0.112  16.483  1.8582 -2.2690  3.8529
 6951SOL    HW232313   3.661   4.698  16.428 -1.3726  1.2813 -0.1270
 6952SOL     OW32314   0.325   3.967   7.072 -0.1788 -0.3295  0.6820
 6952SOL    HW132315   0.256   3.963   7.138 -1.5257  2.1687 -0.5511
 6952SOL    HW232316   0.388   3.899   7.095  0.8752  0.2394 -0.5054
 6953SOL     OW32317   3.995   2.917  16.493 -0.0136  0.4450 -0.1297
 6953SOL    HW132318   4.040   2.919  16.409 -0.9512  1.0977 -0.6087
 6953SOL    HW232319   3.991   2.822  16.504  0.1595  0.1259 -3.0441
 6954SOL     OW32320   0.950   1.016   0.159  0.9706 -0.1025  0.1544
 6954SOL    HW132321   1.004   1.021   0.238 -0.0206 -1.9559  0.9403
 6954SOL    HW232322   0.897   0.938   0.176 -0.1938  1.1896  2.3772
 6955SOL     OW32323   4.642   3.902  10.635  0.2912 -0.0723 -0.2498
 6955SOL    HW132324   4.631   3.904  10.730  0.3926 -0.4716 -0.2269
 6955SOL    HW232325   0.008   3.940  10.622 -0.0648  1.1859  1.1042
 6956SOL     OW32326   1.863   4.479   4.096  0.2027 -0.0709  0.7180
 6956SOL    HW132327   1.792   4.534   4.129 -1.1856 -1.0653 -0.6936
 6956SOL    HW232328   1.818   4.396   4.081  0.9843 -0.0894 -1.5156
 6957SOL     OW32329   1.412   4.321   3.745 -0.1027 -0.6142  0.4892
 6957SOL    HW132330   1.368   4.397   3.707 -0.3271 -0.5521  0.8704
 6957SOL    HW232331   1.337   4.262   3.739  1.9797 -3.5705  3.4103
 6958SOL     OW32332   2.663   3.420  10.657 -0.7670  0.1206 -0.1525
 6958SOL    HW132333   2.669   3.461  10.744  1.0664 -1.6220  0.5344
 6958SOL    HW232334   2.583   3.454  10.618 -0.1229  2.5736  0.6228
 6959SOL     OW32335   3.984   4.442   5.134 -0.1325  0.0345 -0.0917
 6959SOL    HW132336   3.902   4.405   5.166  0.5399 -2.3895 -1.1306
 6959SOL    HW232337   4.021   4.368   5.085 -0.3963 -1.3870  1.8818
 6960SOL     OW32338   2.289   0.987   5.650 -0.1973 -0.4622 -0.1669
 6960SOL    HW132339   2.366   1.007   5.596 -1.0549  0.6772 -0.9751
 6960SOL    HW232340   2.337   1.004   5.730  2.2926 -0.2447 -1.6889
 6961SOL     OW32341   3.709   2.280   1.217  0.7614  0.0203 -0.1225
 6961SOL    HW132342   3.769   2.222   1.171 -1.6230 -1.0026 -1.9362
 6961SOL    HW232343   3.665   2.213   1.269 -1.2630  1.0350 -0.5335
 6962SOL     OW32344   0.930   3.324   6.722  0.8962 -0.5175  0.2429
 6962SOL    HW132345   0.860   3.333   6.787 -0.2500  0.8395 -1.1764
 6962SOL    HW232346   0.963   3.414   6.719  1.2796 -0.6552  0.3403
 6963SOL     OW32347   4.262   3.493  12.047 -0.2067  0.4380 -0.0791
 6963SOL    HW132348   4.264   3.401  12.023 -0.7052  0.0245  1.4327
 6963SOL    HW232349   4.171   3.513  12.025 -0.5196 -0.5440  0.3327
 6964SOL     OW32350   3.705   0.092   1.197 -0.4075  0.5594 -0.1063
 6964SOL    HW132351   3.729   0.010   1.154 -1.4417 -1.2504  2.7224
 6964SOL    HW232352   3.783   0.145   1.188 -0.6105  1.2364  1.9990
 6965SOL     OW32353   3.624   0.229  17.649 -0.3513 -0.7156  0.4743
 6965SOL    HW132354   3.686   0.241  17.577 -2.4359 -1.5776 -1.4609
 6965SOL    HW232355   3.554   0.289  17.623  0.6578  0.8555  1.3836
 6966SOL     OW32356   2.609   1.139   1.516  0.1599 -0.1802 -0.5645
 6966SOL    HW132357   2.526   1.109   1.477 -0.6874  0.2313  0.9240
 6966SOL    HW232358   2.671   1.074   1.484 -1.5698 -2.6328  1.0628
 6967SOL     OW32359   4.541   3.863   3.145  0.2700  0.1555 -0.3734
 6967SOL    HW132360   4.457   3.842   3.103  0.3424 -0.0516 -0.4183
 6967SOL    HW232361   4.523   3.837   3.235  1.7895 -0.0366 -0.1169
 6968SOL     OW32362   0.812   2.394   5.887 -0.1072  0.5090  0.1008
 6968SOL    HW132363   0.853   2.340   5.819 -0.0467  0.0744  0.4824
 6968SOL    HW232364   0.799   2.317   5.943 -0.6930 -0.6288 -1.5837
 6969SOL     OW32365   0.580   0.589   8.830 -0.2038  0.4783 -0.1786
 6969SOL    HW132366   0.538   0.672   8.805  2.4811  2.3069  1.3526
 6969SOL    HW232367   0.652   0.619   8.886 -1.9840  3.4818  0.5185
 6970SOL     OW32368   1.889   2.944  11.653  0.6080  0.1964 -0.3622
 6970SOL    HW132369   1.982   2.951  11.630  0.9259 -0.1162  0.8513
 6970SOL    HW232370   1.889   2.995  11.734 -1.3535  0.1971 -0.3517
 6971SOL     OW32371   4.123   2.935   6.275 -0.6707 -0.3208  0.2907
 6971SOL    HW132372   4.130   2.963   6.366  0.2607  0.0304  0.1099
 6971SOL    HW232373   4.094   3.021   6.245  0.5203  0.2087  0.6578
 6972SOL     OW32374   4.638   0.382   7.386  0.6190  0.2775  0.1112
 6972SOL    HW132375   4.697   0.455   7.405  0.7830  0.2787 -0.3818
 6972SOL    HW232376   4.644   0.340   7.471 -0.9461 -1.2501 -0.5281
 6973SOL     OW32377   3.499   2.033   0.391  0.4151  0.0278 -0.0319
 6973SOL    HW132378   3.437   1.983   0.443 -3.3452  0.6169 -4.0149
 6973SOL    HW232379   3.584   2.024   0.436 -0.3025 -1.8697  0.9152
 6974SOL     OW32380   4.111   1.241  11.553  0.1036  0.3090 -0.1184
 6974SOL    HW132381   4.170   1.316  11.539 -1.4055  1.2927 -1.2904
 6974SOL    HW232382   4.055   1.235  11.476 -1.6300 -1.4669  1.3119
 6975SOL     OW32383   4.522   0.540   2.982  0.1728  0.0062  0.1856
 6975SOL    HW132384   4.518   0.453   3.020 -1.3157 -0.5031 -1.1108
 6975SOL    HW232385   4.578   0.582   3.047 -0.1200  0.8682 -0.1146
 6976SOL     OW32386   4.418   1.943  12.184  0.4976  0.3213 -0.4747
 6976SOL    HW132387   4.372   1.994  12.250  1.0465  1.5334 -1.0392
 6976SOL    HW232388   4.509   1.968  12.200  0.5900 -1.4549  1.8231
 6977SOL     OW32389   1.787   3.654  11.041  0.5893  0.0626 -0.0176
 6977SOL    HW132390   1.854   3.682  11.103  0.7286 -0.4778  0.0733
 6977SOL    HW232391   1.804   3.718  10.972  2.7551  1.0756  1.4374
 6978SOL     OW32392   1.652   3.189  13.551 -0.1018 -0.3571 -0.5016
 6978SOL    HW132393   1.647   3.259  13.485 -0.1433  1.9726  1.9710
 6978SOL    HW232394   1.748   3.190  13.552 -0.0958 -1.4906 -0.8235
 6979SOL     OW32395   4.422   0.146   6.697  0.0637 -0.7060  0.0663
 6979SOL    HW132396   4.503   0.096   6.706  0.5986  0.3711  1.2288
 6979SOL    HW232397   4.451   0.237   6.694 -1.2462 -0.3206 -0.9590
 6980SOL     OW32398   2.836   3.165   9.673 -0.0798  0.2398 -0.2261
 6980SOL    HW132399   2.909   3.181   9.613 -0.0555  2.8055  0.5113
 6980SOL    HW232400   2.888   3.168   9.754 -0.9817  0.5181  0.3358
 6981SOL     OW32401   3.052   0.309  11.326  0.0129 -0.6794  0.2496
 6981SOL    HW132402   2.997   0.319  11.248  0.6535  0.0408 -0.1014
 6981SOL    HW232403   3.138   0.318  11.285 -0.1399 -0.0569  0.0678
 6982SOL     OW32404   1.205   3.140  10.576  0.1007 -0.0872 -0.3902
 6982SOL    HW132405   1.116   3.156  10.608 -0.1221 -1.0025 -0.5649
 6982SOL    HW232406   1.202   3.184  10.491  0.5594 -0.5035 -0.6179
 6983SOL     OW32407   2.699   2.844  13.984 -0.2129  0.1280 -0.0294
 6983SOL    HW132408   2.662   2.801  14.061 -2.9861 -1.1082 -2.0654
 6983SOL    HW232409   2.634   2.832  13.915  0.5011  2.5154 -1.1175
 6984SOL     OW32410   2.663   1.975   7.670  0.7312 -0.4046 -0.3737
 6984SOL    HW132411   2.687   2.066   7.689 -0.5967  0.2153 -1.6721
 6984SOL    HW232412   2.706   1.956   7.587  1.8844 -0.4739  0.2449
 6985SOL     OW32413   0.016   4.712   1.701 -0.3715 -0.0972 -0.2033
 6985SOL    HW132414   4.660   4.713   1.645  1.7914  1.1289 -3.2041
 6985SOL    HW232415   0.040   0.083   1.697  1.3405 -0.4181  2.2376
 6986SOL     OW32416   1.204   0.465  11.065 -0.2350 -0.4060  0.9882
 6986SOL    HW132417   1.279   0.416  11.099  0.5031 -0.1719 -0.2940
 6986SOL    HW232418   1.240   0.537  11.014 -1.9244 -2.4483 -3.1620
 6987SOL     OW32419   3.316   4.696   5.481 -0.1582  0.3379 -0.2511
 6987SOL    HW132420   3.264   0.036   5.430 -0.4142  0.1189 -0.2511
 6987SOL    HW232421   3.259   4.619   5.484 -0.5525  0.6573  0.3013
 6988SOL     OW32422   3.369   2.077   2.857 -0.5214 -0.4625  0.7017
 6988SOL    HW132423   3.393   2.127   2.779 -2.1387  2.7049  2.2516
 6988SOL    HW232424   3.441   2.015   2.851 -0.7508 -0.6504 -0.1254
 6989SOL     OW32425   2.946   1.831  11.820  0.2307 -0.0921 -0.8937
 6989SOL    HW132426   3.002   1.894  11.775 -1.6542  1.8041 -0.5290
 6989SOL    HW232427   2.873   1.881  11.854 -0.4348 -1.4132 -0.3844
 6990SOL     OW32428   4.627   2.531   6.102  0.3042  0.7203  0.2188
 6990SOL    HW132429   4.629   2.619   6.141 -2.0294  1.2860 -0.8812
 6990SOL    HW232430   4.704   2.538   6.045  1.2554 -1.7993  1.2190
 6991SOL     OW32431   3.281   2.045   8.467  0.0397  0.2119 -0.1787
 6991SOL    HW132432   3.198   2.090   8.486  0.2286  0.0753  0.9585
 6991SOL    HW232433   3.343   2.111   8.498  0.3609 -0.5037  0.6869
 6992SOL     OW32434   3.799   3.819  17.306 -0.3733  0.2936 -0.1859
 6992SOL    HW132435   3.865   3.828  17.375  0.6834 -0.8100 -1.0402
 6992SOL    HW232436   3.813   3.731  17.269 -3.7616 -0.6099  0.6863
 6993SOL     OW32437   0.148   2.169   3.746  0.1259 -0.3732 -0.4302
 6993SOL    HW132438   0.213   2.204   3.685  1.4000 -0.4666  0.8580
 6993SOL    HW232439   0.108   2.101   3.692 -1.6876 -0.7804  1.3980
 6994SOL     OW32440   4.208   1.976   8.013  0.3605  0.1237 -0.3345
 6994SOL    HW132441   4.113   1.970   8.027  0.8171 -0.3642  2.6599
 6994SOL    HW232442   4.228   1.883   8.023 -1.5922 -0.3776 -1.0323
 6995SOL     OW32443   4.302   0.971   3.163 -0.0976  0.4259  0.2520
 6995SOL    HW132444   4.318   0.892   3.112 -0.1080  0.8392 -0.3841
 6995SOL    HW232445   4.275   0.935   3.248 -0.7621  1.0833  0.3191
 6996SOL     OW32446   2.039   3.480   6.332 -0.1495  0.5126 -0.0323
 6996SOL    HW132447   1.951   3.444   6.319 -0.0244  0.4347 -0.6693
 6996SOL    HW232448   2.048   3.508   6.241 -0.6626  1.9228  0.3432
 6997SOL     OW32449   0.318   3.241   9.821  0.1338  0.1963  0.4796
 6997SOL    HW132450   0.347   3.164   9.771 -2.2726  0.0429 -0.6828
 6997SOL    HW232451   0.394   3.249   9.879 -1.1754  0.7763  2.1124
 6998SOL     OW32452   1.023   2.286   0.168  0.0249  0.6806 -0.0945
 6998SOL    HW132453   1.040   2.379   0.180  0.7508  0.6268 -0.7195
 6998SOL    HW232454   1.034   2.268   0.074  2.1886  0.2758  0.2441
 6999SOL     OW32455   1.636   1.870   2.690 -0.0050  0.1720  0.6969
 6999SOL    HW132456   1.543   1.846   2.682  0.4028 -0.9704 -0.7631
 6999SOL    HW232457   1.636   1.862   2.785 -1.2102  2.2706  0.8857
 7000SOL     OW32458   1.491   0.212  12.118  0.0206  0.5502  0.3646
 7000SOL    HW132459   1.511   0.301  12.149  0.6307  0.4645  0.2130
 7000SOL    HW232460   1.505   0.217  12.024  0.3312  0.6633  0.4170
 7001SOL     OW32461   2.454   4.458  11.747  0.0295  0.0098 -0.2762
 7001SOL    HW132462   2.369   4.478  11.707  0.2200 -0.5716 -0.9713
 7001SOL    HW232463   2.462   4.527  11.813 -1.0736  0.2866 -0.4357
 7002SOL     OW32464   4.618   2.339   3.758 -0.6843 -0.4953  0.5694
 7002SOL    HW132465   4.598   2.288   3.837  0.8766 -2.3209 -0.2181
 7002SOL    HW232466   4.604   2.264   3.701  0.6410 -0.0729 -0.3104
 7003SOL     OW32467   4.501   3.867   4.620 -0.4725 -0.1514 -0.1951
 7003SOL    HW132468   4.457   3.949   4.600 -2.1976 -1.2014 -0.6997
 7003SOL    HW232469   4.468   3.821   4.543  1.1459  1.6623 -1.9553
 7004SOL     OW32470   1.195   1.417  11.650 -0.1623  0.2127 -0.9459
 7004SOL    HW132471   1.146   1.482  11.600 -0.4344  1.8576  1.4539
 7004SOL    HW232472   1.201   1.349  11.583  1.2096  0.2315 -0.8449
 7005SOL     OW32473   3.689   4.518   6.455  0.3129  0.0227 -0.2708
 7005SOL    HW132474   3.771   4.542   6.498  0.6528 -1.8084  0.1131
 7005SOL    HW232475   3.691   4.426   6.483 -0.2933 -0.0590 -0.5040
 7006SOL     OW32476   0.867   1.355   0.800  0.1397  0.0229 -0.2117
 7006SOL    HW132477   0.801   1.422   0.780 -0.4053 -0.6566 -0.7114
 7006SOL    HW232478   0.879   1.348   0.895 -1.6722 -1.0896 -0.0741
 7007SOL     OW32479   0.256   2.817   2.832  0.0473  0.4275  0.1444
 7007SOL    HW132480   0.172   2.857   2.856 -0.2476  0.3050 -0.6930
 7007SOL    HW232481   0.273   2.863   2.750  0.6694 -0.9312 -0.4922
 7008SOL     OW32482   4.585   3.158  15.712 -0.2036  0.0365 -0.0857
 7008SOL    HW132483   4.547   3.117  15.634  2.2180  1.0451 -1.8139
 7008SOL    HW232484   4.630   3.237  15.684  2.7279 -2.6723 -3.1774
 7009SOL     OW32485   0.674   2.447  12.419 -0.0663  0.2654  0.2108
 7009SOL    HW132486   0.621   2.391  12.476 -1.6375  2.7888  1.2174
 7009SOL    HW232487   0.757   2.399  12.417  0.0549  0.5269 -1.4322
 7010SOL     OW32488   1.391   0.833   2.840 -0.1108 -0.0355  0.0802
 7010SOL    HW132489   1.471   0.824   2.788  0.3810  0.6515  0.7122
 7010SOL    HW232490   1.330   0.802   2.774  0.4955  0.4541 -0.7161
 7011SOL     OW32491   0.178   4.239   5.760 -0.3430 -0.0832 -0.6399
 7011SOL    HW132492   0.133   4.311   5.804  1.2742  0.8118 -0.4669
 7011SOL    HW232493   0.263   4.234   5.803 -0.0748 -1.9221 -1.3578
 7012SOL     OW32494   4.337   2.297  13.758  0.0229 -0.6007 -0.2254
 7012SOL    HW132495   4.308   2.293  13.850  0.1977  0.0283 -0.1412
 7012SOL    HW232496   4.307   2.380  13.721  1.3661 -0.5713 -1.2315
 7013SOL     OW32497   3.161   0.947   3.588 -0.1129  0.0476 -0.3178
 7013SOL    HW132498   3.136   0.937   3.680  2.1585 -0.6170  0.2166
 7013SOL    HW232499   3.085   0.990   3.549 -0.9422 -0.4790  0.7212
 7014SOL     OW32500   2.299   2.882  10.417  0.7040  0.2158 -0.5420
 7014SOL    HW132501   2.316   2.871  10.510 -0.6950  3.3628  0.0681
 7014SOL    HW232502   2.383   2.918  10.387  1.1394 -1.0958 -0.9285
 7015SOL     OW32503   4.695   3.236   0.157 -0.2158  0.2543 -0.1893
 7015SOL    HW132504   0.068   3.215   0.156  0.1697  2.0498 -3.0171
 7015SOL    HW232505   4.702   3.332   0.153 -0.2700  0.3015  0.7378
 7016SOL     OW32506   0.545   2.150   3.607  0.4922 -0.4140  0.4472
 7016SOL    HW132507   0.569   2.145   3.514 -1.5079  1.1804 -0.1594
 7016SOL    HW232508   0.461   2.196   3.603  0.4955 -0.4837 -0.4470
 7017SOL     OW32509   2.089   0.768   8.086  1.1319  0.2223 -0.0343
 7017SOL    HW132510   2.068   0.790   8.177 -3.0432 -1.2758 -0.6220
 7017SOL    HW232511   2.132   0.683   8.097 -0.8748 -0.9103 -0.9626
 7018SOL     OW32512   3.517   2.713   5.810  0.3116  0.4449  0.1441
 7018SOL    HW132513   3.472   2.658   5.875  0.9548  1.6512  1.5989
 7018SOL    HW232514   3.559   2.770   5.874 -0.9217  0.4731  0.9181
 7019SOL     OW32515   1.866   2.776   8.508  0.1032 -0.4137  0.9739
 7019SOL    HW132516   1.788   2.828   8.490  2.0828  2.6598  1.1071
 7019SOL    HW232517   1.865   2.772   8.603 -1.4476 -1.3325  0.9092
 7020SOL     OW32518   3.412   1.473   9.218 -0.8832  0.5743  0.1272
 7020SOL    HW132519   3.416   1.378   9.230 -0.3659  0.5107 -0.5047
 7020SOL    HW232520   3.454   1.474   9.132 -0.1975  2.4775  0.4779
 7021SOL     OW32521   2.492   3.394   6.541  0.4953  0.1153  0.4217
 7021SOL    HW132522   2.522   3.350   6.461 -1.7956 -3.2891  1.4829
 7021SOL    HW232523   2.425   3.446   6.496 -0.5476 -1.1466  0.5201
 7022SOL     OW32524   3.846   4.354   2.151  0.1067  0.2097  0.1868
 7022SOL    HW132525   3.836   4.361   2.056  0.4995  3.0071  0.3681
 7022SOL    HW232526   3.931   4.308   2.147  0.8129  1.5340  0.0357
 7023SOL     OW32527   3.694   3.766   6.426 -0.1975 -0.2808  0.4196
 7023SOL    HW132528   3.629   3.696   6.426  1.4837 -1.8530 -2.7404
 7023SOL    HW232529   3.686   3.807   6.340 -1.8307  0.1010  0.7675
 7024SOL     OW32530   3.861   0.727   6.128  0.0911 -0.0270 -0.0899
 7024SOL    HW132531   3.849   0.634   6.149  0.1044 -0.2988 -1.2760
 7024SOL    HW232532   3.771   0.758   6.138  0.3572  0.9148 -0.6446
 7025SOL     OW32533   1.854   0.198   1.986  0.3142 -0.3694 -0.5836
 7025SOL    HW132534   1.887   0.268   1.931  0.1555  0.9502  0.9850
 7025SOL    HW232535   1.920   0.203   2.055 -1.0864 -0.2763  0.7587
 7026SOL     OW32536   1.703   0.628  13.475  0.3657 -0.4883  0.4431
 7026SOL    HW132537   1.745   0.712  13.495 -0.6673  0.0515  0.3816
 7026SOL    HW232538   1.644   0.639  13.400  0.2072 -0.1312  0.6194
 7027SOL     OW32539   4.524   1.482  16.588  0.0325  0.3279  0.3660
 7027SOL    HW132540   4.580   1.480  16.510 -1.8614  0.2661 -1.0158
 7027SOL    HW232541   4.598   1.492  16.647 -0.0896 -3.9645  1.2371
 7028SOL     OW32542   0.688   4.330  17.284 -0.0323 -0.6960  0.0119
 7028SOL    HW132543   0.691   4.339  17.188 -0.2390  1.8785  0.2463
 7028SOL    HW232544   0.663   4.419  17.308 -1.0081 -0.2552 -2.5597
 7029SOL     OW32545   3.645   0.827   8.793 -0.3415 -0.1625 -0.3562
 7029SOL    HW132546   3.594   0.844   8.872  0.5878 -2.2296  0.6840
 7029SOL    HW232547   3.627   0.907   8.744  0.3243  0.0348 -0.2793
 7030SOL     OW32548   1.977   2.282   9.391 -0.1547  0.2546 -0.8317
 7030SOL    HW132549   2.019   2.280   9.476 -1.8581  3.8593  0.1218
 7030SOL    HW232550   1.925   2.360   9.409  0.6858  0.7628 -0.6011
 7031SOL     OW32551   2.459   2.160   6.743  0.1253 -0.2035 -0.0834
 7031SOL    HW132552   2.416   2.240   6.715  0.2725  0.4762  1.6886
 7031SOL    HW232553   2.381   2.107   6.760 -0.5662  0.4909 -1.0772
 7032SOL     OW32554   0.861   0.552   8.394 -0.0122 -0.2068  0.4648
 7032SOL    HW132555   0.824   0.611   8.328  0.7236  0.2996  0.4940
 7032SOL    HW232556   0.912   0.619   8.440  2.5280 -3.0676  1.8389
 7033SOL     OW32557   2.497   1.704  17.278  0.2555  0.2949 -0.5853
 7033SOL    HW132558   2.469   1.658  17.357 -0.7738 -0.2259 -1.2440
 7033SOL    HW232559   2.586   1.669  17.267  0.6005  0.8933  0.3364
 7034SOL     OW32560   4.646   2.148  14.872  0.2364 -0.0477 -0.0136
 7034SOL    HW132561   4.603   2.082  14.926 -1.4068 -0.2231 -1.5537
 7034SOL    HW232562   4.614   2.224  14.922  0.7042  0.1664 -0.0355
 7035SOL     OW32563   2.550   1.082   4.822 -0.4745 -0.2783 -0.6605
 7035SOL    HW132564   2.514   0.995   4.803 -0.6225 -0.2286 -0.6025
 7035SOL    HW232565   2.642   1.078   4.793 -0.8362 -0.3404 -1.8273
 7036SOL     OW32566   2.932   2.167   9.646  0.0702 -0.3844 -0.0502
 7036SOL    HW132567   2.996   2.212   9.590 -0.3713  1.2539  0.7512
 7036SOL    HW232568   2.870   2.142   9.577 -2.6885  0.7460  2.0315
 7037SOL     OW32569   4.674   4.005   2.895  0.3718  0.1581 -0.1125
 7037SOL    HW132570   0.026   4.038   2.947 -1.7590  1.1013  2.2420
 7037SOL    HW232571   4.611   3.970   2.958  1.0725  0.4293  0.7368
 7038SOL     OW32572   2.656   3.100   4.794 -0.8609 -0.4321 -0.4038
 7038SOL    HW132573   2.633   3.192   4.781  1.3944  0.0494 -1.0959
 7038SOL    HW232574   2.575   3.072   4.835 -0.2205 -2.5729 -0.5642
 7039SOL     OW32575   3.540   3.847  10.200  0.5158 -0.1341 -0.0754
 7039SOL    HW132576   3.480   3.816  10.269  0.6619  3.1140  1.4840
 7039SOL    HW232577   3.475   3.868  10.133 -0.0123  0.3632  0.5954
 7040SOL     OW32578   2.555   3.491   6.014 -0.5068  0.1137  0.0448
 7040SOL    HW132579   2.466   3.496   6.050  0.1372  1.1317  1.5193
 7040SOL    HW232580   2.610   3.487   6.092  0.5238 -1.5497 -0.7692
 7041SOL     OW32581   4.224   2.473   9.004 -0.4836 -0.1972 -0.1994
 7041SOL    HW132582   4.171   2.393   9.001  1.4595 -1.4832  0.1468
 7041SOL    HW232583   4.285   2.450   9.074  0.3272  1.4950 -0.3576
 7042SOL     OW32584   1.496   2.470   6.258  0.0624 -0.1758 -0.5586
 7042SOL    HW132585   1.492   2.374   6.261  2.6482 -0.2213  1.8695
 7042SOL    HW232586   1.444   2.490   6.336 -1.1148 -1.7097 -0.9496
 7043SOL     OW32587   2.932   0.235   5.263  0.0702 -0.1509 -0.0631
 7043SOL    HW132588   2.855   0.279   5.301 -1.4958 -1.9871 -1.0969
 7043SOL    HW232589   2.893   0.150   5.243 -0.5053 -0.0589  0.6634
 7044SOL     OW32590   2.575   2.490   8.766  0.0301  0.3615 -0.0520
 7044SOL    HW132591   2.514   2.483   8.692 -0.3502  2.1561  0.0934
 7044SOL    HW232592   2.646   2.522   8.710  0.3722 -2.4224 -1.2366
 7045SOL     OW32593   3.089   1.807   4.325  0.1429 -0.3064  0.1717
 7045SOL    HW132594   3.145   1.745   4.370  0.4929 -0.7668 -0.9137
 7045SOL    HW232595   3.139   1.887   4.340 -0.4493  0.4972 -2.0939
 7046SOL     OW32596   4.051   3.984   4.834 -0.5453  0.3402  0.1498
 7046SOL    HW132597   4.137   3.946   4.815 -1.9272 -2.8773  0.3434
 7046SOL    HW232598   4.006   3.970   4.751 -1.4935  1.3415  0.4873
 7047SOL     OW32599   1.671   1.380  12.200  0.0849 -0.0041  0.4987
 7047SOL    HW132600   1.711   1.465  12.218  1.8261 -0.5173 -0.9976
 7047SOL    HW232601   1.602   1.401  12.138 -1.3456 -1.6247  1.5331
 7048SOL     OW32602   0.292   3.832  13.035 -0.2429  0.0513 -0.3322
 7048SOL    HW132603   0.305   3.744  13.071 -0.4341 -0.0179 -0.4304
 7048SOL    HW232604   0.268   3.887  13.110 -3.9144 -1.4266 -0.4197
 7049SOL     OW32605   1.213   3.811  10.842 -0.0567  0.1436  0.4691
 7049SOL    HW132606   1.155   3.847  10.910  0.3068  0.5032  0.5922
 7049SOL    HW232607   1.294   3.798  10.891  0.9852  2.4360 -0.6296
 7050SOL     OW32608   2.017   3.443   7.454 -0.9519 -0.2599  0.0207
 7050SOL    HW132609   2.067   3.451   7.373  0.5031  0.7043  1.0219
 7050SOL    HW232610   1.963   3.366   7.434 -1.3182  0.3849 -1.4701
 7051SOL     OW32611   2.136   0.396   2.685  0.1293 -0.0465  0.1998
 7051SOL    HW132612   2.074   0.411   2.756 -0.3075 -2.2714  0.2574
 7051SOL    HW232613   2.217   0.370   2.729  1.9049  2.4698 -1.5203
 7052SOL     OW32614   2.394   4.560  16.604  0.3267  0.5720  0.2723
 7052SOL    HW132615   2.413   4.509  16.524  1.2192 -0.6613  1.2709
 7052SOL    HW232616   2.315   4.605  16.574  1.3140  1.9993 -0.1290
 7053SOL     OW32617   1.243   0.433   6.715  0.5328  0.0787  0.0081
 7053SOL    HW132618   1.291   0.463   6.638  2.1061 -1.6432  0.3189
 7053SOL    HW232619   1.199   0.516   6.733  1.5694  0.7322 -0.4665
 7054SOL     OW32620   2.116   1.635   5.091 -0.4721 -0.0842 -0.4944
 7054SOL    HW132621   2.114   1.596   5.003  0.5261 -1.5869  0.1374
 7054SOL    HW232622   2.021   1.636   5.104 -0.2439 -1.0372  1.2697
 7055SOL     OW32623   4.037   4.099   3.369 -0.5553  0.0656 -0.3308
 7055SOL    HW132624   4.095   4.115   3.295 -1.4465  1.4475 -0.7350
 7055SOL    HW232625   4.015   4.187   3.401  1.2439  1.0888 -1.9108
 7056SOL     OW32626   3.037   3.408  16.100 -0.1401  0.2636  0.9950
 7056SOL    HW132627   3.004   3.319  16.091 -1.2526  0.7238  0.5748
 7056SOL    HW232628   2.957   3.460  16.091  0.7392  1.5460  0.5533
 7057SOL     OW32629   3.412   1.475  17.417  0.1637 -0.2586  0.0216
 7057SOL    HW132630   3.329   1.446  17.378 -0.9046  0.6438  1.6063
 7057SOL    HW232631   3.379   1.504  17.502 -0.9376 -2.4160  0.3445
 7058SOL     OW32632   1.001   1.763   6.406  0.1076  0.2328  0.0760
 7058SOL    HW132633   0.993   1.693   6.341 -4.2553  0.9619 -0.1627
 7058SOL    HW232634   0.954   1.834   6.365  1.4644  0.1190 -1.6798
 7059SOL     OW32635   4.427   1.889   5.940 -0.6588 -0.5035  0.4452
 7059SOL    HW132636   4.520   1.881   5.916 -0.1626  3.3248  1.1008
 7059SOL    HW232637   4.413   1.982   5.922 -0.3728 -0.9211 -1.9736
 7060SOL     OW32638   3.573   2.974   5.876 -0.5462 -0.2557  0.1957
 7060SOL    HW132639   3.666   2.980   5.858 -0.0122  0.9224  3.3207
 7060SOL    HW232640   3.557   3.020   5.959  0.0747 -1.1468  0.8071
 7061SOL     OW32641   2.273   3.781   0.844  0.0020 -0.1435  0.9269
 7061SOL    HW132642   2.361   3.812   0.862 -1.8476  3.7778  3.1871
 7061SOL    HW232643   2.266   3.789   0.748  2.7525  0.8797  0.8285
 7062SOL     OW32644   3.933   2.354   5.213  0.0765  0.3038 -0.0425
 7062SOL    HW132645   4.004   2.419   5.221 -1.7091  1.9801  2.2456
 7062SOL    HW232646   3.866   2.413   5.179  0.4060 -0.2571 -1.6674
 7063SOL     OW32647   3.913   1.142   2.656 -0.0717 -1.2231 -0.3348
 7063SOL    HW132648   3.832   1.091   2.650  0.0100 -1.1441 -2.1705
 7063SOL    HW232649   3.928   1.150   2.562  1.2469  1.5214  0.1048
 7064SOL     OW32650   3.847   0.872   2.986 -0.3947 -0.0317  0.1582
 7064SOL    HW132651   3.845   0.870   2.891  3.2556 -0.6330  0.0796
 7064SOL    HW232652   3.776   0.933   3.003 -1.4316 -1.1012 -0.3377
 7065SOL     OW32653   1.772   0.332   7.851  0.1284  0.1440  1.0865
 7065SOL    HW132654   1.701   0.374   7.802  0.2934  0.8565  1.4475
 7065SOL    HW232655   1.739   0.355   7.938  0.4520 -0.7509  1.4412
 7066SOL     OW32656   3.545   3.447   9.073 -0.1384 -0.1969  1.2113
 7066SOL    HW132657   3.473   3.396   9.110 -0.7659 -0.4226 -0.3562
 7066SOL    HW232658   3.569   3.499   9.150 -0.5713  1.8845 -0.0638
 7067SOL     OW32659   0.408   0.896   6.761 -0.1421 -0.1992 -0.0318
 7067SOL    HW132660   0.481   0.836   6.744 -0.0528  0.6235 -2.4332
 7067SOL    HW232661   0.353   0.836   6.812  1.9400 -1.0183  1.2570
 7068SOL     OW32662   1.013   2.981   0.720 -0.2480 -0.3568 -0.3507
 7068SOL    HW132663   1.014   3.071   0.686 -1.6543  0.4447  1.7450
 7068SOL    HW232664   0.921   2.957   0.706 -0.4254 -0.5828  1.2106
 7069SOL     OW32665   4.412   3.891   6.580  0.3658  0.0728  0.0810
 7069SOL    HW132666   4.321   3.868   6.565  0.0836 -0.4382  2.5775
 7069SOL    HW232667   4.456   3.808   6.562  1.4077  0.8056 -0.8009
 7070SOL     OW32668   3.384   2.641  15.913 -0.3431  0.2415 -0.1173
 7070SOL    HW132669   3.384   2.614  15.821  1.3412 -0.7873  0.1762
 7070SOL    HW232670   3.453   2.707  15.910  0.6906 -0.8760 -1.4253
 7071SOL     OW32671   0.641   1.105  12.598  0.8671 -0.1066 -0.1072
 7071SOL    HW132672   0.699   1.124  12.524  2.0179 -0.9051  0.5918
 7071SOL    HW232673   0.664   1.174  12.661 -1.0305  0.7093 -0.3139
 7072SOL     OW32674   3.316   0.893  12.867  0.5618 -0.2262 -0.4034
 7072SOL    HW132675   3.361   0.839  12.803  0.2189 -0.4835 -0.4309
 7072SOL    HW232676   3.350   0.857  12.948 -2.0015  0.5830  1.0452
 7073SOL     OW32677   4.609   3.666   5.892 -0.1031  0.4235  0.1224
 7073SOL    HW132678   4.641   3.617   5.968  1.5207 -0.8157 -1.3764
 7073SOL    HW232679   4.518   3.636   5.884 -0.7355  1.9784  1.5324
 7074SOL     OW32680   3.387   1.470  12.189  0.1008 -0.6052 -0.1891
 7074SOL    HW132681   3.314   1.462  12.129  1.3645 -0.5435 -1.7476
 7074SOL    HW232682   3.345   1.443  12.271  1.3721 -2.5272 -0.1690
 7075SOL     OW32683   4.307   1.444   3.203 -0.2234 -0.5774 -0.0007
 7075SOL    HW132684   4.382   1.450   3.144 -0.8239  1.0254 -0.6058
 7075SOL    HW232685   4.236   1.447   3.139 -0.5861  0.3517  0.4469
 7076SOL     OW32686   4.480   0.851   4.915  0.1237 -0.1873 -0.2220
 7076SOL    HW132687   4.507   0.776   4.862  2.9813  1.4980 -1.1366
 7076SOL    HW232688   4.456   0.912   4.845  3.5334  0.9324 -0.4070
 7077SOL     OW32689   3.811   2.786   2.760  0.0253  0.2055 -0.0810
 7077SOL    HW132690   3.900   2.813   2.784  0.9594 -2.4515 -0.5281
 7077SOL    HW232691   3.774   2.760   2.845  0.1239  1.9145  0.4843
 7078SOL     OW32692   1.970   3.480   2.845  0.5213  0.2186  0.5524
 7078SOL    HW132693   2.037   3.449   2.907 -0.1699 -1.0104  0.6790
 7078SOL    HW232694   1.895   3.441   2.890  1.4516  0.4097  2.3091
 7079SOL     OW32695   1.212   1.952   5.653  0.1059  0.0027 -0.0321
 7079SOL    HW132696   1.278   1.948   5.722  0.7678  1.8900 -0.5589
 7079SOL    HW232697   1.251   1.892   5.590 -0.2545 -0.2290 -0.0357
 7080SOL     OW32698   4.618   2.428  17.603 -0.1895  0.6121  0.2761
 7080SOL    HW132699   4.657   2.476  17.530  1.0322 -0.7772  0.0312
 7080SOL    HW232700   4.558   2.370  17.556 -2.2098  2.6579  0.3165
 7081SOL     OW32701   1.727   1.679   4.229  0.2154 -0.1800 -0.0969
 7081SOL    HW132702   1.754   1.750   4.288  0.2567 -0.2103 -0.0795
 7081SOL    HW232703   1.717   1.731   4.150  0.4839 -0.0819 -0.0673
 7082SOL     OW32704   4.367   0.401   3.213  0.3953 -0.3145  0.0719
 7082SOL    HW132705   4.440   0.457   3.239 -1.0698  1.7898 -0.2973
 7082SOL    HW232706   4.383   0.322   3.264  2.2418  0.3845  0.5589
 7083SOL     OW32707   3.173   3.243  14.736 -0.0263 -0.4004  0.4090
 7083SOL    HW132708   3.229   3.273  14.665  0.3938  0.6044  1.1611
 7083SOL    HW232709   3.206   3.153  14.745  0.9264  0.0438  1.2873
 7084SOL     OW32710   2.279   1.373   5.220 -0.3889  0.0704 -0.4968
 7084SOL    HW132711   2.218   1.310   5.259 -0.0522 -0.7944 -1.3507
 7084SOL    HW232712   2.310   1.324   5.144 -2.9934 -0.1477 -1.4070
 7085SOL     OW32713   3.777   1.498   3.774  0.1150 -0.0325  0.0492
 7085SOL    HW132714   3.751   1.511   3.683 -3.8733 -2.6727  0.8503
 7085SOL    HW232715   3.693   1.469   3.808  0.8833 -1.1609  0.9767
 7086SOL     OW32716   4.528   0.172   4.316 -0.4046 -0.0567  0.2873
 7086SOL    HW132717   4.570   0.165   4.230  2.0340  0.5534  1.4231
 7086SOL    HW232718   4.457   0.109   4.304  1.9983 -2.3740 -1.8554
 7087SOL     OW32719   4.523   2.190   5.305 -0.5873 -0.1376 -0.1060
 7087SOL    HW132720   4.447   2.131   5.302 -1.5574  1.0436  1.2212
 7087SOL    HW232721   4.493   2.247   5.376  0.9904 -0.6859  1.0151
 7088SOL     OW32722   4.278   3.232  15.676 -0.0978 -0.0189 -0.4616
 7088SOL    HW132723   4.351   3.183  15.638 -0.4244 -1.1434  0.3496
 7088SOL    HW232724   4.212   3.236  15.606  0.2154 -0.4608 -0.7841
 7089SOL     OW32725   1.711   2.046  14.105  0.6164  0.0922  0.1883
 7089SOL    HW132726   1.667   2.106  14.045  2.0086  0.2930 -0.6423
 7089SOL    HW232727   1.645   2.058  14.173 -0.5735 -1.2100 -0.7316
 7090SOL     OW32728   3.228   1.185   6.856 -0.3578 -0.0125  0.0758
 7090SOL    HW132729   3.260   1.095   6.861 -2.2395 -0.7145 -0.6491
 7090SOL    HW232730   3.284   1.226   6.922 -0.6022  0.9463 -0.3133
 7091SOL     OW32731   0.078   3.959   7.201 -0.4887 -0.2680  0.6225
 7091SOL    HW132732   0.030   4.001   7.130 -0.1547 -1.3191 -0.2256
 7091SOL    HW232733   0.041   4.011   7.272  0.6881  0.2299  0.8741
 7092SOL     OW32734   0.370   3.939  17.503 -0.0550 -0.0532 -0.5017
 7092SOL    HW132735   0.397   3.893  17.583  1.2806 -0.2773 -1.0918
 7092SOL    HW232736   0.415   4.023  17.510  0.7756 -0.5147 -0.3742
 7093SOL     OW32737   2.860   2.016   9.855  0.6240 -0.3670  0.1573
 7093SOL    HW132738   2.869   2.083   9.787  0.2822 -0.3796  0.0964
 7093SOL    HW232739   2.770   2.043   9.874 -0.1697 -1.7876 -1.5680
 7094SOL     OW32740   1.832   0.521   4.458  0.2766  0.3598  0.4184
 7094SOL    HW132741   1.755   0.577   4.446  0.1056  0.6239  2.5821
 7094SOL    HW232742   1.800   0.432   4.469  0.0514  0.4791  0.7405
 7095SOL     OW32743   0.755   0.668   5.036 -0.1638  0.1445  0.0566
 7095SOL    HW132744   0.733   0.594   4.980  0.6210 -1.0230  1.2666
 7095SOL    HW232745   0.670   0.689   5.074 -0.4563 -1.8187  0.5169
 7096SOL     OW32746   2.118   0.475   1.201 -0.0438  0.1937 -0.1580
 7096SOL    HW132747   2.175   0.404   1.232  0.7196  0.2759 -1.3650
 7096SOL    HW232748   2.160   0.542   1.255  0.8547  0.0422 -0.6719
 7097SOL     OW32749   2.312   4.108   7.569  0.5683 -0.0190  0.0445
 7097SOL    HW132750   2.396   4.098   7.613  0.2820  2.6639  1.1990
 7097SOL    HW232751   2.252   4.043   7.606  1.0211  1.1790  2.8814
 7098SOL     OW32752   3.812   2.416   4.582  0.4061 -0.6153  0.1849
 7098SOL    HW132753   3.739   2.450   4.633  0.3305  0.3656 -0.5869
 7098SOL    HW232754   3.816   2.474   4.505  0.6155  0.3980  0.9627
 7099SOL     OW32755   0.705   0.695   2.154 -0.0041 -0.2824  0.2693
 7099SOL    HW132756   0.735   0.786   2.153 -0.6546 -0.0652  0.4145
 7099SOL    HW232757   0.789   0.655   2.130 -1.3102 -2.0931 -1.2862
 7100SOL     OW32758   2.696   2.383   5.952  0.1416 -0.1073  0.2389
 7100SOL    HW132759   2.728   2.386   6.043 -1.0849 -1.6550  0.7226
 7100SOL    HW232760   2.654   2.469   5.945 -0.8050 -0.6762 -0.9381
 7101SOL     OW32761   0.325   3.872   9.453  0.1937  0.6764  0.6903
 7101SOL    HW132762   0.366   3.786   9.461  0.4019  0.6350 -0.8255
 7101SOL    HW232763   0.360   3.898   9.368 -0.4152 -0.9980 -0.0679
 7102SOL     OW32764   2.094   1.344   6.949 -0.0119 -0.0214 -0.2452
 7102SOL    HW132765   2.158   1.299   7.004  0.7264  0.3480 -0.8034
 7102SOL    HW232766   2.012   1.338   6.997 -1.3756  2.0609 -2.2832
 7103SOL     OW32767   0.340   0.657   8.587  0.4252  0.3437 -0.0335
 7103SOL    HW132768   0.415   0.716   8.590  1.3094 -0.7295 -0.8999
 7103SOL    HW232769   0.298   0.687   8.668  1.3033 -1.5552  1.1388
 7104SOL     OW32770   2.367   0.696   2.830  0.3221 -0.3402  0.7029
 7104SOL    HW132771   2.340   0.656   2.913  0.4398  3.7176  2.6782
 7104SOL    HW232772   2.289   0.745   2.804  1.4622  1.0548 -0.0424
 7105SOL     OW32773   3.266   1.641   4.951  0.4106 -0.4227 -0.5155
 7105SOL    HW132774   3.176   1.674   4.958  1.4831  2.5483 -0.5546
 7105SOL    HW232775   3.283   1.596   5.034  1.9887  0.7858 -0.1758
 7106SOL     OW32776   2.336   1.680   1.246 -0.0770 -0.6217 -0.4352
 7106SOL    HW132777   2.377   1.736   1.312 -2.7283  2.2447 -1.2141
 7106SOL    HW232778   2.385   1.598   1.239  2.8327  0.9646  1.2223
 7107SOL     OW32779   3.771   2.186  15.758  0.0364  0.1763 -0.0391
 7107SOL    HW132780   3.843   2.147  15.709 -1.1558 -0.3416 -1.3795
 7107SOL    HW232781   3.816   2.192  15.842 -2.6368 -0.8572  1.4515
 7108SOL     OW32782   3.301   0.856   5.252  0.4216 -0.2745  0.6772
 7108SOL    HW132783   3.394   0.879   5.259  1.1563 -2.5961 -1.2504
 7108SOL    HW232784   3.249   0.936   5.249 -0.6287 -0.9830 -0.0486
 7109SOL     OW32785   4.716   1.514   3.443 -0.5794 -0.5080 -0.3533
 7109SOL    HW132786   4.703   1.525   3.538  2.2793  1.4617 -0.2215
 7109SOL    HW232787   4.625   1.531   3.419 -0.1329  2.8783  0.4288
 7110SOL     OW32788   1.555   4.715   8.538  0.1316 -0.1418 -0.3092
 7110SOL    HW132789   1.481   0.043   8.573  1.1188  0.0800  1.4827
 7110SOL    HW232790   1.547   4.626   8.573 -1.9182  0.1631  0.0019
 7111SOL     OW32791   0.155   3.156   4.348 -0.7008  0.1626 -0.0782
 7111SOL    HW132792   0.063   3.180   4.354 -1.0282 -0.6882 -1.8294
 7111SOL    HW232793   0.187   3.236   4.389 -2.9585  1.1982 -0.3397
 7112SOL     OW32794   0.309   0.409  11.622 -0.2561 -0.2792 -1.0615
 7112SOL    HW132795   0.333   0.498  11.647 -1.1662 -0.3782  0.1621
 7112SOL    HW232796   0.395   0.368  11.635  1.3531  2.5702 -2.7291
 7113SOL     OW32797   3.600   1.226  14.918  0.2570  0.1197  0.9076
 7113SOL    HW132798   3.528   1.163  14.921 -2.7822  3.4968 -0.8987
 7113SOL    HW232799   3.555   1.310  14.932 -1.5868 -1.4532  4.3310
 7114SOL     OW32800   4.659   1.675   2.148  0.2794 -0.3188 -0.1473
 7114SOL    HW132801   0.018   1.675   2.096  1.1240 -2.8277  1.1578
 7114SOL    HW232802   4.692   1.703   2.233 -0.0020  1.0459 -0.4920
 7115SOL     OW32803   3.612   3.924   6.621  0.5131  0.3228  0.4661
 7115SOL    HW132804   3.654   3.857   6.566  0.3042 -1.1971  2.1627
 7115SOL    HW232805   3.685   3.981   6.645  0.3573  0.2817  1.0299
 7116SOL     OW32806   3.924   2.713   0.097  1.0334  0.3127  0.3667
 7116SOL    HW132807   3.884   2.630   0.072 -1.9242  2.0398 -0.5656
 7116SOL    HW232808   4.007   2.683   0.136 -0.3787  0.2890  3.3539
 7117SOL     OW32809   2.519   4.692   2.804 -0.2870  0.4801 -0.5117
 7117SOL    HW132810   2.484   4.720   2.889  0.7873 -2.1072  0.8087
 7117SOL    HW232811   2.448   0.002   2.749 -0.0640  1.4019 -0.2835
 7118SOL     OW32812   1.983   3.470  17.310 -0.2319  0.3277 -0.4817
 7118SOL    HW132813   2.000   3.490  17.218  4.3840 -1.1286  0.0224
 7118SOL    HW232814   1.943   3.554  17.335  0.9624  1.0684 -1.0129
 7119SOL     OW32815   0.148   1.046   9.748  0.4477  0.3494 -0.2243
 7119SOL    HW132816   0.052   1.049   9.739  0.4719  0.3114 -0.5022
 7119SOL    HW232817   0.160   1.022   9.840 -1.5801  2.2143  0.5254
 7120SOL     OW32818   4.160   2.547   1.581 -0.5439 -0.7543 -0.5983
 7120SOL    HW132819   4.108   2.609   1.632  0.0845  1.3330 -2.5185
 7120SOL    HW232820   4.112   2.467   1.601 -0.0252 -1.0193 -0.3999
 7121SOL     OW32821   4.104   3.860   9.164  0.1808 -0.3230 -0.0370
 7121SOL    HW132822   4.087   3.771   9.134 -1.4748 -0.2277  0.6370
 7121SOL    HW232823   4.200   3.861   9.161  0.1737  1.0616  0.3800
 7122SOL     OW32824   4.611   1.148   5.820 -0.0679  0.3543  0.8151
 7122SOL    HW132825   4.688   1.182   5.774 -1.3509  1.1725 -0.7295
 7122SOL    HW232826   4.538   1.188   5.773 -0.0926  1.2221  1.5647
 7123SOL     OW32827   4.102   4.573   6.702 -0.4113 -0.2480 -0.6524
 7123SOL    HW132828   4.010   4.584   6.726 -0.5110  1.1855 -1.6482
 7123SOL    HW232829   4.121   4.489   6.742 -1.9150 -1.1081 -1.7374
 7124SOL     OW32830   0.496   2.819   1.288 -0.5192 -0.0911  0.0652
 7124SOL    HW132831   0.559   2.763   1.333  1.0041  2.4459  1.0682
 7124SOL    HW232832   0.412   2.779   1.310 -1.4219  1.9958  0.4080
 7125SOL     OW32833   2.940   2.323   1.384  0.0314  0.3526 -0.3278
 7125SOL    HW132834   2.966   2.393   1.324  1.5309 -0.3462 -0.4902
 7125SOL    HW232835   2.857   2.354   1.421  0.7731  2.1332 -0.1357
 7126SOL     OW32836   4.277   2.143   8.667  0.3510  0.4169  0.3118
 7126SOL    HW132837   4.337   2.195   8.613  1.5252  1.7024  2.8493
 7126SOL    HW232838   4.313   2.144   8.755 -0.4650 -0.8254  0.6654
 7127SOL     OW32839   3.350   3.582   6.026 -0.5068 -0.2464 -0.0358
 7127SOL    HW132840   3.349   3.660   5.970 -1.8586 -0.5124 -0.3696
 7127SOL    HW232841   3.413   3.531   5.976 -0.3651  0.8066 -0.9446
 7128SOL     OW32842   4.589   0.285   8.365 -0.1244 -0.1323  0.3316
 7128SOL    HW132843   4.594   0.300   8.270  0.7168 -0.0217  0.3891
 7128SOL    HW232844   4.658   0.335   8.408  0.3152 -1.2548  0.9247
 7129SOL     OW32845   2.407   4.070   8.169  0.0576  0.1053  0.3516
 7129SOL    HW132846   2.401   4.050   8.076  1.7759 -2.3628  0.7774
 7129SOL    HW232847   2.468   4.001   8.193  0.7315  0.6297  0.1326
 7130SOL     OW32848   2.337   0.502  16.020 -0.1116  0.4472 -0.0245
 7130SOL    HW132849   2.421   0.546  16.010  1.2105 -2.1145 -0.0252
 7130SOL    HW232850   2.330   0.510  16.115 -0.1294  0.2565 -0.0115
 7131SOL     OW32851   1.459   1.926   3.967  0.1047 -0.2188  0.0260
 7131SOL    HW132852   1.419   1.976   3.896  0.8744  1.6796  0.9525
 7131SOL    HW232853   1.417   1.965   4.044 -0.0218 -0.7132  0.2139
 7132SOL     OW32854   3.599   2.784   2.566  0.2905 -0.2386  0.4345
 7132SOL    HW132855   3.598   2.694   2.599 -0.8384 -0.8891 -1.4014
 7132SOL    HW232856   3.673   2.827   2.608  0.3187 -0.6067  0.7705
 7133SOL     OW32857   2.854   3.734  16.464 -0.2875 -0.0795 -0.5391
 7133SOL    HW132858   2.883   3.789  16.538 -1.8564  2.5607 -1.8769
 7133SOL    HW232859   2.917   3.666  16.489 -1.0714 -0.1632  1.2836
 7134SOL     OW32860   0.349   1.058   2.616  0.0363 -0.2613 -0.1496
 7134SOL    HW132861   0.416   1.003   2.577  1.1180  1.0932 -0.2001
 7134SOL    HW232862   0.314   1.001   2.685  2.2999 -2.1550 -0.5948
 7135SOL     OW32863   4.352   0.365  13.607 -0.3362 -0.0011 -0.9434
 7135SOL    HW132864   4.429   0.314  13.633 -0.7573  0.3638  1.0485
 7135SOL    HW232865   4.285   0.299  13.624  0.4061 -0.5296 -0.0190
 7136SOL     OW32866   2.373   1.949   7.052 -0.0876 -0.3481  0.6332
 7136SOL    HW132867   2.362   2.002   7.131 -0.4339 -0.0499  0.3812
 7136SOL    HW232868   2.461   1.920   7.076 -0.5879 -0.7362  2.0598
 7137SOL     OW32869   0.045   1.781  15.401  0.0501 -0.2081  0.1835
 7137SOL    HW132870   0.027   1.863  15.355 -0.6448 -0.2972  0.2941
 7137SOL    HW232871   4.693   1.731  15.364 -0.8305  0.6590  0.7215
 7138SOL     OW32872   4.490   2.553   0.849  0.1499 -0.1721 -0.7503
 7138SOL    HW132873   4.529   2.613   0.785  1.6773  1.3403  1.5967
 7138SOL    HW232874   4.412   2.531   0.798 -1.3529 -2.8536  2.6659
 7139SOL     OW32875   4.311   2.875   1.183  0.2664 -0.2982  0.2284
 7139SOL    HW132876   4.376   2.805   1.177  0.5685 -0.0309  0.3542
 7139SOL    HW232877   4.277   2.883   1.094  0.8804  0.3084  0.0529
 7140SOL     OW32878   4.432   0.297   1.489 -0.0052 -0.2659  0.6828
 7140SOL    HW132879   4.344   0.261   1.489  0.2527 -0.8539 -2.2118
 7140SOL    HW232880   4.456   0.283   1.581  0.5128 -0.2458  0.5527
 7141SOL     OW32881   3.128   2.795   4.391 -0.0170  0.9375 -0.6525
 7141SOL    HW132882   3.224   2.795   4.393  0.0028  0.0289 -2.0159
 7141SOL    HW232883   3.113   2.733   4.463 -1.5963  0.9474 -0.9871
 7142SOL     OW32884   0.186   0.022  14.816 -0.0562  0.1512 -0.1154
 7142SOL    HW132885   0.155   4.686  14.886  1.1824  0.0114  0.3307
 7142SOL    HW232886   0.278   0.018  14.844 -0.1525 -1.0580  0.0366
 7143SOL     OW32887   4.336   1.123   4.364  0.0361 -0.1829 -0.4815
 7143SOL    HW132888   4.327   1.169   4.281  0.5430  0.7475 -0.0126
 7143SOL    HW232889   4.318   1.194   4.426  0.3146  0.1003 -0.7280
 7144SOL     OW32890   3.067   3.900   3.399  0.8792  0.5262  0.3015
 7144SOL    HW132891   2.995   3.942   3.446  1.1753 -0.7085  1.8581
 7144SOL    HW232892   3.089   3.832   3.462 -1.8839 -1.1178 -0.5031
 7145SOL     OW32893   2.064   2.056   7.232 -0.1619 -0.4057  0.4538
 7145SOL    HW132894   2.020   2.063   7.317  1.1276  1.0421  1.0025
 7145SOL    HW232895   2.152   2.046   7.270  0.4010  3.4408  0.1021
 7146SOL     OW32896   0.731   1.129  15.250 -0.4640 -0.3461 -0.0802
 7146SOL    HW132897   0.732   1.209  15.199  1.8671  0.1448  0.7334
 7146SOL    HW232898   0.759   1.072  15.178  3.2793  1.5586 -0.1387
 7147SOL     OW32899   3.372   3.196   7.490 -0.6652  0.1381 -0.4953
 7147SOL    HW132900   3.452   3.233   7.454 -0.8624  2.8761  1.8348
 7147SOL    HW232901   3.305   3.215   7.424 -0.6259  0.0316 -0.5647
 7148SOL     OW32902   2.211   2.301   8.795  0.4627  0.0459  0.1995
 7148SOL    HW132903   2.302   2.288   8.821  0.8129 -0.6323 -1.3874
 7148SOL    HW232904   2.187   2.376   8.850 -0.3491  0.5888 -0.9110
 7149SOL     OW32905   3.734   1.614   4.135  0.2099 -0.4089 -0.5686
 7149SOL    HW132906   3.734   1.652   4.046  0.5017  2.6125  0.7187
 7149SOL    HW232907   3.801   1.546   4.135 -1.4002 -1.9701 -0.4360
 7150SOL     OW32908   0.191   4.234   5.426  0.3066 -0.0390 -0.1452
 7150SOL    HW132909   0.098   4.223   5.447  0.0395  0.2233 -1.2106
 7150SOL    HW232910   0.215   4.142   5.420 -1.7608 -0.5470 -0.5442
 7151SOL     OW32911   4.446   1.123  10.920  0.3289 -0.2028  0.0111
 7151SOL    HW132912   4.487   1.172  10.991  1.8373  0.9523 -1.6591
 7151SOL    HW232913   4.455   1.185  10.847  0.8474 -0.7379 -0.3813
 7152SOL     OW32914   4.085   0.329   6.144 -0.3065  0.3605 -0.5146
 7152SOL    HW132915   4.098   0.365   6.057  2.3773 -0.1068 -0.3270
 7152SOL    HW232916   4.152   0.261   6.150  0.9697  1.4391 -2.4642
 7153SOL     OW32917   3.497   0.785   8.447  0.0599 -0.0787  0.5362
 7153SOL    HW132918   3.475   0.863   8.497  0.5986  2.4093 -3.0860
 7153SOL    HW232919   3.552   0.828   8.381 -2.1217 -0.0133 -1.2606
 7154SOL     OW32920   4.095   3.009  11.571 -0.0794 -0.4347 -1.4242
 7154SOL    HW132921   4.121   3.092  11.531  0.4273 -0.4008 -1.0222
 7154SOL    HW232922   4.096   2.942  11.502 -0.2627 -2.3771  0.4606
 7155SOL     OW32923   0.906   0.921   0.913 -0.0948  0.6215  0.2105
 7155SOL    HW132924   0.963   0.898   0.986  0.7097 -0.4781 -0.7628
 7155SOL    HW232925   0.904   0.840   0.861  0.9688 -0.3027  1.6287
 7156SOL     OW32926   2.263   2.827   2.031 -0.3661  0.5804  0.2228
 7156SOL    HW132927   2.296   2.754   2.084  0.7325  0.0457 -1.2022
 7156SOL    HW232928   2.220   2.785   1.957 -1.8817  0.0053  1.4048
 7157SOL     OW32929   2.658   0.400  14.923  0.0567  0.4921 -0.1757
 7157SOL    HW132930   2.626   0.491  14.926 -0.9618  0.1275  0.2612
 7157SOL    HW232931   2.751   0.412  14.943  0.1576 -2.2537  0.9469
 7158SOL     OW32932   1.180   2.425   8.127  0.5076  0.3728  0.5584
 7158SOL    HW132933   1.242   2.433   8.200 -1.8153 -1.2897  2.7187
 7158SOL    HW232934   1.146   2.338   8.145  1.5650 -0.3889 -1.1689
 7159SOL     OW32935   2.913   0.300   6.378 -0.3874  0.1742  0.4846
 7159SOL    HW132936   2.821   0.324   6.383  0.2900  2.8774 -0.1639
 7159SOL    HW232937   2.952   0.382   6.408  0.0356  0.7210 -1.5357
 7160SOL     OW32938   1.416   4.569   0.368  0.1703  0.2998  0.2520
 7160SOL    HW132939   1.352   4.616   0.314  1.9950  2.3778 -0.0650
 7160SOL    HW232940   1.498   4.605   0.335  0.9838 -0.9396  0.9147
 7161SOL     OW32941   2.821   1.855   8.195 -0.2674 -0.1933 -0.3041
 7161SOL    HW132942   2.896   1.915   8.200 -0.0150 -0.6113  0.8214
 7161SOL    HW232943   2.857   1.789   8.135  0.3775 -0.1505  0.0302
 7162SOL     OW32944   2.888   1.821  16.643  0.6906  0.1111 -0.0197
 7162SOL    HW132945   2.799   1.833  16.678  0.6440  0.8715 -0.3836
 7162SOL    HW232946   2.898   1.895  16.583 -2.0504 -0.2457 -0.9352
 7163SOL     OW32947   0.914   3.590   9.587  0.0070 -0.3709 -0.4109
 7163SOL    HW132948   1.004   3.581   9.555 -0.5953 -0.5301 -2.0274
 7163SOL    HW232949   0.892   3.677   9.553 -2.8988 -1.0864 -0.3604
 7164SOL     OW32950   1.536   2.815   9.311  0.2872  0.2669 -0.6436
 7164SOL    HW132951   1.618   2.825   9.264 -1.3622  1.9566 -3.1336
 7164SOL    HW232952   1.551   2.859   9.395 -0.3727 -0.9008  0.0871
 7165SOL     OW32953   2.281   1.166  15.788  0.1415 -0.5732  0.1926
 7165SOL    HW132954   2.214   1.170  15.856  0.5554  0.6266  0.5265
 7165SOL    HW232955   2.288   1.262  15.784  0.8867 -0.5535  1.8177
 7166SOL     OW32956   3.720   3.135  13.055  0.0485 -0.2418 -0.3487
 7166SOL    HW132957   3.776   3.200  13.013 -0.3487  0.7237  0.5877
 7166SOL    HW232958   3.759   3.048  13.053 -2.2794 -1.3031 -0.0683
 7167SOL     OW32959   4.693   2.730   4.357 -0.2127 -0.0714  0.5235
 7167SOL    HW132960   0.023   2.747   4.278  1.0258  0.8581  1.5240
 7167SOL    HW232961   0.008   2.642   4.372 -0.7625  0.0770  2.6726
 7168SOL     OW32962   2.085   1.905   5.957 -0.8054 -0.1460  0.3968
 7168SOL    HW132963   2.001   1.950   5.970 -0.9414 -0.3478  0.2148
 7168SOL    HW232964   2.102   1.906   5.863  0.6801 -0.9587  0.6634
 7169SOL     OW32965   3.319   0.284  10.519 -0.2047 -0.0873  0.2241
 7169SOL    HW132966   3.332   0.222  10.590 -0.6634  2.6402  2.6912
 7169SOL    HW232967   3.244   0.333  10.554  0.6860  2.5890 -1.6285
 7170SOL     OW32968   4.370   1.432   7.221 -0.2609  0.3035 -1.1891
 7170SOL    HW132969   4.323   1.372   7.164 -0.6226 -2.0407  1.5716
 7170SOL    HW232970   4.299   1.485   7.258  0.6261  1.1557 -0.7043
 7171SOL     OW32971   0.604   3.604   3.760  0.5538 -0.1672  0.5686
 7171SOL    HW132972   0.532   3.659   3.790  0.3447 -0.2728  0.2534
 7171SOL    HW232973   0.599   3.525   3.813  0.2862 -1.2630 -1.1047
 7172SOL     OW32974   3.853   1.689  14.162 -0.0435  0.0017  0.3510
 7172SOL    HW132975   3.936   1.641  14.170  0.5517  0.8578 -0.6888
 7172SOL    HW232976   3.817   1.640  14.236  0.8041 -0.4602  0.4622
 7173SOL     OW32977   0.922   2.637   0.949  0.0394 -0.6752 -0.2055
 7173SOL    HW132978   0.961   2.695   1.015  0.1238 -3.6858  2.3915
 7173SOL    HW232979   0.882   2.580   1.014  0.3208 -0.0737  0.5062
 7174SOL     OW32980   3.060   4.640   4.616  0.4378  0.1089  0.0627
 7174SOL    HW132981   3.122   4.679   4.554 -0.1157  0.8658 -0.0129
 7174SOL    HW232982   2.978   4.675   4.583  1.0747  0.1325 -1.5071
 7175SOL     OW32983   1.958   2.478  14.278  0.3219  0.3377  0.1542
 7175SOL    HW132984   1.995   2.413  14.338  1.3028 -2.4422 -3.5271
 7175SOL    HW232985   1.929   2.548  14.337  2.2034  0.6205  0.7362
 7176SOL     OW32986   0.636   2.038   3.907  0.0705  0.1923  0.2452
 7176SOL    HW132987   0.698   2.099   3.867 -1.6384  0.9193 -1.2995
 7176SOL    HW232988   0.686   2.029   3.988  1.4724 -0.3813 -0.6903
 7177SOL     OW32989   2.526   3.958   5.320  0.0978  0.3107 -0.0223
 7177SOL    HW132990   2.543   4.036   5.374 -0.6861  2.1190 -2.3977
 7177SOL    HW232991   2.435   3.946   5.347  0.1963  0.9474  0.5766
 7178SOL     OW32992   1.866   4.005   5.358 -0.2170 -0.1691  0.0097
 7178SOL    HW132993   1.961   4.015   5.361 -0.2830  0.1736  0.9583
 7178SOL    HW232994   1.853   3.977   5.267 -1.1863 -1.2394  0.4733
 7179SOL     OW32995   1.862   0.691  11.179 -0.6056  0.2157  0.8144
 7179SOL    HW132996   1.947   0.694  11.222  0.4415 -2.7636 -1.0728
 7179SOL    HW232997   1.869   0.770  11.126 -1.4313 -0.0875  0.2513
 7180SOL     OW32998   0.085   0.741   2.102  0.6526  0.0007 -0.6067
 7180SOL    HW132999   0.156   0.761   2.163 -0.2050  0.2425  0.3229
 7180SOL    HW233000   0.102   0.808   2.037 -0.5327  0.3842 -0.5270
 7181SOL     OW33001   4.377   1.799   5.118  0.1494  0.6513 -0.0120
 7181SOL    HW133002   4.409   1.716   5.155 -1.9009 -0.7650 -1.4156
 7181SOL    HW233003   4.383   1.784   5.023  2.4753  0.3329  0.1916
 7182SOL     OW33004   2.659   1.353   0.569 -0.3084 -0.7376  0.4027
 7182SOL    HW133005   2.629   1.369   0.658  1.1364  0.1668  0.7140
 7182SOL    HW233006   2.753   1.342   0.582 -0.7940 -0.5721  4.0849
 7183SOL     OW33007   1.039   0.643   7.059  1.0216 -0.2790 -0.3056
 7183SOL    HW133008   1.089   0.614   6.983  0.1199 -1.7619 -0.3290
 7183SOL    HW233009   1.007   0.729   7.030  1.7935  0.7265  1.8187
 7184SOL     OW33010   2.765   0.764   4.796 -0.0147 -0.4551 -0.9537
 7184SOL    HW133011   2.713   0.835   4.832 -1.1518 -1.8011  0.0523
 7184SOL    HW233012   2.698   0.706   4.760 -0.5757  0.0913 -0.7893
 7185SOL     OW33013   2.942   0.112  10.780 -0.2943 -0.2678  0.3758
 7185SOL    HW133014   2.848   0.100  10.792 -0.6387  1.1296 -0.9431
 7185SOL    HW233015   2.965   0.019  10.768  0.8440  0.4927 -3.4672
 7186SOL     OW33016   3.106   1.659  13.757  0.2920 -0.0645 -0.6731
 7186SOL    HW133017   3.136   1.575  13.792  0.6633  1.2484  2.1522
 7186SOL    HW233018   3.143   1.718  13.823  0.2879 -0.0669 -0.6687
 7187SOL     OW33019   4.576   2.235   2.307 -0.1844  0.4820 -0.0014
 7187SOL    HW133020   4.556   2.324   2.335 -1.3927 -0.4055  1.9740
 7187SOL    HW233021   4.520   2.187   2.368 -0.0814  1.1042  0.5839
 7188SOL     OW33022   2.142   2.240  15.204  0.0299  0.0464 -0.7090
 7188SOL    HW133023   2.150   2.300  15.130  3.0185 -0.4112 -0.7745
 7188SOL    HW233024   2.225   2.252  15.250 -0.0423 -0.6518 -0.3933
 7189SOL     OW33025   4.498   3.010   1.804 -0.2165  0.2960  0.4089
 7189SOL    HW133026   4.446   3.065   1.864 -0.8406  1.6747 -1.4046
 7189SOL    HW233027   4.426   2.955   1.775 -0.7479  1.1657  0.0854
 7190SOL     OW33028   1.695   3.716   3.487 -0.1955 -0.7534  0.0489
 7190SOL    HW133029   1.622   3.767   3.452 -0.1299 -0.4869  0.3000
 7190SOL    HW233030   1.773   3.770   3.479 -0.2922 -0.6849 -0.4609
 7191SOL     OW33031   1.010   1.666   0.934  0.1365  0.2709 -0.2707
 7191SOL    HW133032   0.924   1.643   0.899 -0.7570  0.0606  2.1035
 7191SOL    HW233033   0.993   1.695   1.024 -0.4876  1.7762 -0.8682
 7192SOL     OW33034   3.078   2.004  17.243 -0.3839 -0.4021  0.0341
 7192SOL    HW133035   3.068   2.016  17.337 -0.8708  1.6366 -0.2683
 7192SOL    HW233036   3.002   1.953  17.214 -0.5536  0.0822 -0.3660
 7193SOL     OW33037   0.752   3.706   4.330  0.4876  0.3320 -0.0687
 7193SOL    HW133038   0.781   3.698   4.421  0.1001  0.8242  0.0936
 7193SOL    HW233039   0.781   3.618   4.305  0.4307  0.5136 -0.7486
 7194SOL     OW33040   3.699   4.484   5.813 -0.2637  0.8504 -0.0065
 7194SOL    HW133041   3.784   4.441   5.803 -0.4950  0.4557 -0.2487
 7194SOL    HW233042   3.711   4.506   5.905 -0.0789 -2.1024  0.6913
 7195SOL     OW33043   0.721   3.211  17.254  0.3194 -0.1128  0.1227
 7195SOL    HW133044   0.684   3.217  17.166  0.9568  0.2348 -0.1269
 7195SOL    HW233045   0.797   3.156  17.235 -0.3139 -1.1935  0.7616
 7196SOL     OW33046   2.114   2.511   2.207  0.1406  0.1332  0.0099
 7196SOL    HW133047   2.174   2.571   2.252  1.5874 -2.3494  1.4257
 7196SOL    HW233048   2.160   2.505   2.123 -1.0840 -0.7356 -0.5908
 7197SOL     OW33049   4.256   4.380  13.129  0.0507  0.7629  0.1021
 7197SOL    HW133050   4.242   4.428  13.211  0.2385  0.4830  0.2946
 7197SOL    HW233051   4.323   4.324  13.168 -0.0069  0.7603  0.1948
 7198SOL     OW33052   3.611   1.294   2.770 -0.3540  0.2389 -0.2018
 7198SOL    HW133053   3.702   1.315   2.794 -0.2438 -1.4079  0.7878
 7198SOL    HW233054   3.618   1.224   2.706 -2.5662  0.1425 -0.3353
 7199SOL     OW33055   3.215   0.838  12.510  0.0995  0.2926  0.2683
 7199SOL    HW133056   3.135   0.855  12.560  0.3418 -1.4678  1.2722
 7199SOL    HW233057   3.209   0.742  12.514  1.7584  0.1418 -0.6994
 7200SOL     OW33058   1.564   4.605   7.840 -0.1176 -0.5027  0.1020
 7200SOL    HW133059   1.590   4.663   7.768 -0.8568  2.0703  1.9249
 7200SOL    HW233060   1.554   4.669   7.911 -2.6494  0.5944 -1.2455
 7201SOL     OW33061   3.451   0.280  12.416 -0.0095 -0.9448 -0.3191
 7201SOL    HW133062   3.464   0.337  12.492 -0.7430  1.2739 -1.8462
 7201SOL    HW233063   3.367   0.312  12.384  0.0153 -1.8243 -1.2808
 7202SOL     OW33064   3.059   1.152  10.402  0.1814 -0.1177  0.3042
 7202SOL    HW133065   3.045   1.246  10.411 -2.6116 -0.5789  0.5906
 7202SOL    HW233066   2.985   1.117  10.353 -0.5810  1.8052  0.0810
 7203SOL     OW33067   3.797   4.688   8.724  0.2946 -0.1450 -0.3756
 7203SOL    HW133068   3.744   4.623   8.677 -2.1645  1.0327  0.7663
 7203SOL    HW233069   3.730   0.032   8.744  1.8646  2.5679 -4.1016
 7204SOL     OW33070   3.444   1.139   7.040  0.0357 -0.8507  0.0918
 7204SOL    HW133071   3.468   1.220   7.086 -1.3963 -1.2831  1.6107
 7204SOL    HW233072   3.446   1.073   7.109 -1.9165 -0.3605  0.6396
 7205SOL     OW33073   1.544   3.411   6.170  0.3505  0.2622  0.0756
 7205SOL    HW133074   1.457   3.420   6.208  0.7192 -0.5245  1.0862
 7205SOL    HW233075   1.571   3.320   6.181 -0.2322  0.1459  0.5732
 7206SOL     OW33076   1.741   4.497   7.413 -0.2092 -0.5839 -0.2439
 7206SOL    HW133077   1.667   4.557   7.425  0.9739  0.4691  1.7513
 7206SOL    HW233078   1.820   4.539   7.449 -1.4405 -0.4935  2.3399
 7207SOL     OW33079   2.252   3.594   0.446  0.1803 -0.2683  0.1076
 7207SOL    HW133080   2.188   3.547   0.500 -3.3651  1.8429 -2.2610
 7207SOL    HW233081   2.209   3.678   0.464  0.1054 -0.5444  1.2190
 7208SOL     OW33082   3.864   0.271   6.512  0.2196  0.1397  0.5848
 7208SOL    HW133083   3.935   0.223   6.554  0.6495  2.5760  2.6725
 7208SOL    HW233084   3.829   0.224   6.436  1.7406  0.0032 -0.0221
 7209SOL     OW33085   1.670   4.605  15.810  1.1263 -0.1525  0.0360
 7209SOL    HW133086   1.659   4.691  15.850 -1.3140 -0.3975 -0.1167
 7209SOL    HW233087   1.765   4.607  15.802  1.0280  0.2838 -1.0691
 7210SOL     OW33088   4.667   4.415   6.591  0.0533  0.3013  0.1437
 7210SOL    HW133089   4.702   4.420   6.502 -0.8158  1.6208 -0.1068
 7210SOL    HW233090   0.020   4.450   6.641  1.3946 -1.1426 -0.8064
 7211SOL     OW33091   2.490   3.187   5.521  0.5922  0.1492 -0.3434
 7211SOL    HW133092   2.560   3.218   5.465  0.6905 -0.5233 -0.5928
 7211SOL    HW233093   2.496   3.229   5.607  0.0951  0.1039 -0.2866
 7212SOL     OW33094   0.792   4.475  16.983 -0.5115  0.2338 -0.3036
 7212SOL    HW133095   0.745   4.406  16.936  2.8466  0.4324 -3.9850
 7212SOL    HW233096   0.872   4.423  16.998 -1.1728 -1.2500 -1.9875
 7213SOL     OW33097   0.372   1.176  11.221  0.1176 -0.0465  0.4584
 7213SOL    HW133098   0.304   1.226  11.265 -0.6959  0.5200 -1.4553
 7213SOL    HW233099   0.379   1.238  11.149 -1.1625  1.9819  2.1024
 7214SOL     OW33100   0.652   3.516   7.659 -0.2255  0.0760 -0.4837
 7214SOL    HW133101   0.623   3.431   7.625  0.3760 -0.5675  0.6000
 7214SOL    HW233102   0.567   3.559   7.653 -1.6189 -2.5095  0.6369
 7215SOL     OW33103   0.400   1.421   3.302  0.2114 -0.2080 -0.1937
 7215SOL    HW133104   0.405   1.345   3.245 -0.5976  0.9220 -1.7635
 7215SOL    HW233105   0.389   1.386   3.391  4.0466  1.3821  0.9283
 7216SOL     OW33106   0.531   0.900   2.497  0.1770  0.4201  0.9677
 7216SOL    HW133107   0.571   0.915   2.582 -1.3003 -0.5061  1.8197
 7216SOL    HW233108   0.530   0.804   2.494  0.4708  0.4745 -1.5718
 7217SOL     OW33109   1.538   4.259   3.966 -0.5501 -0.1384  0.2580
 7217SOL    HW133110   1.492   4.288   3.888 -0.9331  0.1535  0.5911
 7217SOL    HW233111   1.470   4.248   4.033 -0.3352  1.5588  0.7579
 7218SOL     OW33112   2.531   0.368  10.271  0.1197 -0.1516 -0.5125
 7218SOL    HW133113   2.525   0.331  10.183 -0.8146 -1.7415  0.2134
 7218SOL    HW233114   2.497   0.308  10.338 -1.9468  1.5912 -0.0144
 7219SOL     OW33115   3.331   1.742  16.832  0.2587 -0.3082 -0.0244
 7219SOL    HW133116   3.283   1.801  16.774  0.0151 -0.2328  0.2523
 7219SOL    HW233117   3.373   1.805  16.891  0.3551 -0.5772  0.1948
 7220SOL     OW33118   2.087   2.335   1.097 -0.1461  0.0887 -0.0069
 7220SOL    HW133119   2.123   2.287   1.171  1.8063 -0.2091 -1.1453
 7220SOL    HW233120   2.012   2.278   1.082 -1.0498  0.8514  1.7108
 7221SOL     OW33121   4.123   1.278  11.882  0.4878 -0.4738  0.8175
 7221SOL    HW133122   4.185   1.318  11.943  2.2126  0.0685 -1.2974
 7221SOL    HW233123   4.038   1.321  11.894  1.5247  2.2606 -1.6468
 7222SOL     OW33124   4.476   3.652  11.997  0.2633  0.2734  0.6181
 7222SOL    HW133125   4.398   3.597  12.004 -0.1466  0.5941 -1.2943
 7222SOL    HW233126   4.514   3.644  12.084 -1.1661 -2.4144  0.9955
 7223SOL     OW33127   1.671   0.050   2.604 -0.0279  0.6444  0.1167
 7223SOL    HW133128   1.748   0.105   2.598  1.7542 -1.7848  0.7101
 7223SOL    HW233129   1.691   4.699   2.664  1.2455  0.1047 -0.9546
 7224SOL     OW33130   0.802   1.543  14.334  0.3609 -0.4098  0.3316
 7224SOL    HW133131   0.747   1.622  14.333  0.0172 -0.6437  0.7905
 7224SOL    HW233132   0.873   1.560  14.396  0.9687  0.8172 -0.6921
 7225SOL     OW33133   1.585   0.086   7.650 -0.0404 -0.4852  0.1725
 7225SOL    HW133134   1.543   0.170   7.633  2.0443  0.7944  1.3557
 7225SOL    HW233135   1.581   0.059   7.558  0.7139  0.9890 -0.2902
 7226SOL     OW33136   2.832   4.626   6.785 -0.6388  0.2480 -0.2535
 7226SOL    HW133137   2.907   4.626   6.844 -0.1114  0.3115 -0.9306
 7226SOL    HW233138   2.858   4.692   6.721  1.6532 -0.7342 -0.3122
 7227SOL     OW33139   0.400   3.897   0.617  0.0014  0.6261 -0.3855
 7227SOL    HW133140   0.417   3.883   0.710  0.5158  1.9575 -0.2760
 7227SOL    HW233141   0.473   3.957   0.597  1.4258 -0.7241  0.7222
 7228SOL     OW33142   4.129   1.370   1.743  0.2702  0.1425 -0.0636
 7228SOL    HW133143   4.181   1.362   1.822  1.4049  0.2115 -0.8073
 7228SOL    HW233144   4.043   1.343   1.775 -0.1983  1.0411 -0.5289
 7229SOL     OW33145   2.773   0.970   7.453 -0.2962  0.6703  0.2679
 7229SOL    HW133146   2.755   0.908   7.523 -1.8836  0.0305 -0.7138
 7229SOL    HW233147   2.836   1.023   7.501 -1.0008  0.9466  0.8885
 7230SOL     OW33148   2.211   2.112  17.294  0.2659  0.2206 -0.2062
 7230SOL    HW133149   2.302   2.092  17.313  0.3002  0.4240 -0.1684
 7230SOL    HW233150   2.191   2.188  17.347 -0.6403  0.6117 -1.0867
 7231SOL     OW33151   2.387   0.525   6.789  0.0237 -0.1365 -0.5348
 7231SOL    HW133152   2.302   0.565   6.776 -0.3242 -0.7847 -0.2495
 7231SOL    HW233153   2.422   0.581   6.858  0.5982  0.6752 -1.4694
 7232SOL     OW33154   4.117   0.529   7.474  0.2682 -0.4611 -0.0403
 7232SOL    HW133155   4.179   0.586   7.427 -0.8800  0.8476  0.0358
 7232SOL    HW233156   4.159   0.443   7.470  1.2651  0.0932 -1.5530
 7233SOL     OW33157   4.279   3.645   6.026  0.3082 -0.7717 -0.4519
 7233SOL    HW133158   4.191   3.607   6.018  0.1595 -0.6538  0.6036
 7233SOL    HW233159   4.334   3.567   6.021 -0.0078 -0.9795 -0.7230
 7234SOL     OW33160   2.087   4.639  13.524  0.8680 -0.2351 -0.2811
 7234SOL    HW133161   2.064   4.595  13.442 -0.9765 -1.6606  1.0122
 7234SOL    HW233162   2.018   4.706  13.521  0.6822 -0.4005  0.5451
 7235SOL     OW33163   1.190   2.225   0.638  0.1567  0.1795 -0.2190
 7235SOL    HW133164   1.245   2.303   0.626  1.2117 -0.5392 -0.0695
 7235SOL    HW233165   1.138   2.211   0.559  1.2047 -0.7432 -0.7566
 7236SOL     OW33166   2.624   1.502   6.489  0.1053 -0.5020 -0.1931
 7236SOL    HW133167   2.609   1.543   6.574 -1.9656 -1.1343 -0.2543
 7236SOL    HW233168   2.706   1.459   6.516 -1.8133 -1.7794  3.5660
 7237SOL     OW33169   0.191   3.597  16.530 -0.7212 -0.0789 -1.3599
 7237SOL    HW133170   0.256   3.536  16.495  1.4212  2.1731 -1.2579
 7237SOL    HW233171   0.168   3.654  16.457 -1.1610  0.5335 -0.7414
 7238SOL     OW33172   4.177   3.270  11.523 -0.1616 -0.2305  0.4217
 7238SOL    HW133173   4.209   3.342  11.470 -2.4017  1.4790  1.3999
 7238SOL    HW233174   4.142   3.315  11.600  0.9416  0.8477  0.2701
 7239SOL     OW33175   1.600   1.424   7.795  0.0438  0.2727  0.0616
 7239SOL    HW133176   1.562   1.343   7.763  1.2018  0.3304 -1.4385
 7239SOL    HW233177   1.532   1.458   7.854  0.1999 -1.7712  1.4275
 7240SOL     OW33178   1.077   3.559  13.912  0.0586  0.2509 -0.5477
 7240SOL    HW133179   1.049   3.647  13.887  1.9402  0.3709 -2.2237
 7240SOL    HW233180   1.160   3.555  13.865 -0.4939 -0.7701 -1.4540
 7241SOL     OW33181   4.204   1.903  16.820 -0.5516  0.3755  0.5259
 7241SOL    HW133182   4.164   1.831  16.771  0.8098  0.6761 -0.9978
 7241SOL    HW233183   4.285   1.862  16.851 -1.1664 -1.8571 -0.8063
 7242SOL     OW33184   2.975   2.182   7.544 -0.2846 -0.0853 -0.2744
 7242SOL    HW133185   2.919   2.234   7.602  1.3341 -0.0434  1.2477
 7242SOL    HW233186   2.969   2.235   7.464 -0.8008  0.1556 -0.0798
 7243SOL     OW33187   3.046   1.774   1.897 -0.5033  0.1324  0.3020
 7243SOL    HW133188   3.024   1.809   1.983 -0.2782 -0.8619  0.7628
 7243SOL    HW233189   3.057   1.855   1.847 -0.7513  1.0039  1.6540
 7244SOL     OW33190   3.845   3.227  13.959 -0.3186  0.4712  0.1707
 7244SOL    HW133191   3.870   3.303  14.011  2.7435 -1.3846  1.4190
 7244SOL    HW233192   3.765   3.260  13.919 -1.2600 -1.1923  0.6941
 7245SOL     OW33193   1.889   3.502   7.912 -0.3124 -0.0382  0.6304
 7245SOL    HW133194   1.939   3.516   7.992 -0.7929 -1.1629  1.1159
 7245SOL    HW233195   1.954   3.448   7.868 -0.3342  1.2048 -0.9182
 7246SOL     OW33196   2.733   4.345  13.843 -0.5069  0.2125  0.1681
 7246SOL    HW133197   2.711   4.385  13.928  0.5460  2.7711 -0.7671
 7246SOL    HW233198   2.651   4.340  13.795 -0.2374 -1.0497 -0.1497
 7247SOL     OW33199   1.671   1.280   3.245 -0.6008  0.3195  0.5856
 7247SOL    HW133200   1.684   1.259   3.153 -1.9559  2.3749 -0.0454
 7247SOL    HW233201   1.585   1.243   3.265 -0.1732 -0.5103  0.9043
 7248SOL     OW33202   3.737   0.526  15.848 -0.5657  0.4451  0.3021
 7248SOL    HW133203   3.805   0.586  15.879 -0.7564  1.5671 -1.4244
 7248SOL    HW233204   3.656   0.574  15.864  1.2979  4.5825 -2.5554
 7249SOL     OW33205   3.601   3.600   2.468  0.4426  0.6944  0.2002
 7249SOL    HW133206   3.548   3.679   2.481 -1.9768 -0.9204 -0.0582
 7249SOL    HW233207   3.598   3.596   2.372  2.3913 -0.8790  0.2014
 7250SOL     OW33208   3.127   0.590   8.247 -0.1156  0.3356  0.0782
 7250SOL    HW133209   3.214   0.565   8.279  0.7059  1.0125 -1.6439
 7250SOL    HW233210   3.096   0.629   8.329  3.7599  0.1250  1.6521
 7251SOL     OW33211   3.575   3.895   7.964 -0.3975  0.2399  0.2216
 7251SOL    HW133212   3.659   3.925   7.929  0.0639 -2.6435 -1.1662
 7251SOL    HW233213   3.564   3.953   8.039 -2.0961  3.3164 -2.3762
 7252SOL     OW33214   2.042   3.069   4.914 -0.1553  0.3037  0.3947
 7252SOL    HW133215   2.098   3.075   4.991 -0.3162 -1.1685  0.6233
 7252SOL    HW233216   2.099   3.008   4.867 -0.7113 -0.6600  0.9662
 7253SOL     OW33217   2.062   1.119   3.001 -0.0771 -0.0355  0.0232
 7253SOL    HW133218   1.977   1.106   3.044  0.0935  3.2629  1.3244
 7253SOL    HW233219   2.108   1.037   3.018 -0.6634 -0.3231  0.2276
 7254SOL     OW33220   1.150   2.838   7.784  0.6889  0.0763 -0.7847
 7254SOL    HW133221   1.167   2.827   7.691 -0.4218 -0.5377 -0.9074
 7254SOL    HW233222   1.148   2.744   7.800 -0.5797  0.2264 -0.0464
 7255SOL     OW33223   1.214   2.351   7.056 -0.9937  0.1017  0.9069
 7255SOL    HW133224   1.129   2.391   7.075 -0.9095  0.6605  0.0778
 7255SOL    HW233225   1.270   2.368   7.132  0.1436 -1.6611  0.4679
 7256SOL     OW33226   4.335   0.659   8.198  0.1710  0.4920  0.1999
 7256SOL    HW133227   4.256   0.633   8.244 -0.4642  0.5405 -0.8690
 7256SOL    HW233228   4.399   0.652   8.269 -0.4745 -0.3630  0.7039
 7257SOL     OW33229   0.714   3.145   4.743  0.5079 -0.3539  0.2697
 7257SOL    HW133230   0.704   3.060   4.700  0.0619 -0.5873  0.8270
 7257SOL    HW233231   0.618   3.153   4.746  0.6293  1.5081 -0.7658
 7258SOL     OW33232   0.007   1.012   5.552 -0.2499 -0.6011 -0.2395
 7258SOL    HW133233   0.065   0.936   5.549 -0.4502 -0.8541  1.9192
 7258SOL    HW233234   0.028   1.034   5.643  0.7471 -0.9085 -0.4055
 7259SOL     OW33235   3.240   3.140   9.885 -0.1774  0.0220  0.3034
 7259SOL    HW133236   3.225   3.191   9.964 -0.3433  0.0788  0.2348
 7259SOL    HW233237   3.152   3.113   9.861 -0.4493  1.2738 -0.1315
 7260SOL     OW33238   2.778   0.413   8.735  0.6187 -0.4381  0.2065
 7260SOL    HW133239   2.808   0.493   8.779  0.7669  0.6040 -1.7756
 7260SOL    HW233240   2.767   0.452   8.648 -0.1939  0.6427  0.7985
 7261SOL     OW33241   4.682   3.767   6.902  0.2289 -0.6231 -0.4423
 7261SOL    HW133242   4.700   3.847   6.852 -0.1941 -1.1919 -1.5193
 7261SOL    HW233243   0.036   3.769   6.962 -0.4530 -0.8410  0.4162
 7262SOL     OW33244   0.358   4.364  17.333  0.0928 -0.2325  0.5309
 7262SOL    HW133245   0.431   4.419  17.306  1.5805 -1.6216  1.7767
 7262SOL    HW233246   0.404   4.309  17.396 -0.1977 -0.9084  0.1539
 7263SOL     OW33247   4.703   1.630   5.151 -0.1639  0.4381  0.3898
 7263SOL    HW133248   0.050   1.588   5.097 -0.7993  0.1772 -0.2108
 7263SOL    HW233249   0.001   1.722   5.133 -0.9788  0.3630 -0.8616
 7264SOL     OW33250   2.684   3.481   4.361  0.3034  0.1655  0.0165
 7264SOL    HW133251   2.728   3.420   4.302  2.3485  2.8899 -1.2744
 7264SOL    HW233252   2.594   3.454   4.342  0.2553  0.4115 -0.1043
 7265SOL     OW33253   3.097   1.163  17.549 -0.1194 -0.3782 -0.2355
 7265SOL    HW133254   3.053   1.184  17.467  0.6572  0.8943 -0.3209
 7265SOL    HW233255   3.157   1.094  17.519  0.6831  1.3711 -2.5989
 7266SOL     OW33256   2.518   1.124   8.893 -0.1854 -0.2410  0.3110
 7266SOL    HW133257   2.572   1.104   8.970 -0.0331  1.0003  0.5392
 7266SOL    HW233258   2.550   1.213   8.879 -0.9131  0.1816  1.3675
 7267SOL     OW33259   3.890   2.042  15.065  0.1031  0.0419 -0.0941
 7267SOL    HW133260   3.891   2.004  15.153 -1.5446 -0.2840 -0.2205
 7267SOL    HW233261   3.844   1.971  15.022  0.4638 -1.0124  1.2373
 7268SOL     OW33262   1.946   1.901   4.179 -0.1834 -0.0122 -0.3089
 7268SOL    HW133263   1.887   1.863   4.114  0.3807  1.5565 -1.7236
 7268SOL    HW233264   2.023   1.848   4.160 -0.6453 -0.6656 -0.3686
 7269SOL     OW33265   1.246   0.603   8.935  0.1479  0.2121 -0.1661
 7269SOL    HW133266   1.291   0.594   9.019 -0.6778 -0.7687  0.1811
 7269SOL    HW233267   1.231   0.697   8.932  0.3332  0.2509  0.1487
 7270SOL     OW33268   3.408   1.163  11.999  0.0493  0.4455  0.1374
 7270SOL    HW133269   3.377   1.110  11.925  3.1809 -1.0468 -0.0721
 7270SOL    HW233270   3.355   1.243  12.009 -0.2718  0.0521  1.5513
 7271SOL     OW33271   0.145   0.242   0.473  0.2743  0.1255  0.3817
 7271SOL    HW133272   0.195   0.176   0.522 -1.2680 -1.1931  0.1613
 7271SOL    HW233273   0.053   0.224   0.491  0.4692 -0.0680  1.1952
 7272SOL     OW33274   3.694   3.432  16.304  0.2857 -0.4669 -0.5180
 7272SOL    HW133275   3.738   3.370  16.246 -0.7210 -0.3026 -1.4602
 7272SOL    HW233276   3.627   3.462  16.243  0.5228 -1.5258 -1.3051
 7273SOL     OW33277   3.813   3.762   7.166 -0.5543 -0.2728  0.2829
 7273SOL    HW133278   3.853   3.725   7.245 -0.8039 -0.5574  0.2772
 7273SOL    HW233279   3.826   3.854   7.188  1.1121 -0.3636 -0.2935
 7274SOL     OW33280   0.723   4.379  12.580 -0.0083 -0.2094  0.3126
 7274SOL    HW133281   0.776   4.374  12.500  0.5210 -1.0678  0.7218
 7274SOL    HW233282   0.659   4.312  12.556  0.2019 -0.2079 -0.2679
 7275SOL     OW33283   3.118   1.602   8.296 -0.1626 -0.3444 -0.3147
 7275SOL    HW133284   3.196   1.557   8.263  0.2756 -0.7015  1.2105
 7275SOL    HW233285   3.143   1.689   8.264  1.2045  0.3459  2.6031
 7276SOL     OW33286   2.566   1.341   7.374 -0.2745 -0.3263  1.0259
 7276SOL    HW133287   2.632   1.310   7.436  2.5725  2.0233 -0.8053
 7276SOL    HW233288   2.612   1.338   7.290 -0.3896  0.6746  0.9238
 7277SOL     OW33289   3.929   4.377   7.452  0.4883  0.3287  0.2700
 7277SOL    HW133290   4.001   4.385   7.389  0.1050 -0.3233 -0.2636
 7277SOL    HW233291   3.853   4.371   7.393  0.1412 -1.6272  0.9186
 7278SOL     OW33292   4.191   1.818  17.482  0.4798  0.0607  0.1179
 7278SOL    HW133293   4.126   1.826  17.551  1.8749  0.6384  1.3726
 7278SOL    HW233294   4.275   1.803  17.526  0.0239  0.2351  1.0285
 7279SOL     OW33295   1.192   0.823   8.693  0.1107  0.0323  0.3367
 7279SOL    HW133296   1.186   0.877   8.772 -0.8141  0.7514 -0.2242
 7279SOL    HW233297   1.270   0.854   8.647 -0.4837  2.5653  1.0078
 7280SOL     OW33298   0.219   2.735   5.145  0.1415  0.2807  0.0185
 7280SOL    HW133299   0.174   2.698   5.068 -0.4125  1.1042 -0.0540
 7280SOL    HW233300   0.199   2.666   5.207  0.8996 -0.3399 -0.4284
 7281SOL     OW33301   4.155   0.415   8.547 -0.1156  0.3232 -0.1720
 7281SOL    HW133302   4.131   0.323   8.538 -0.8933  0.4616  0.5575
 7281SOL    HW233303   4.161   0.443   8.455 -3.1851  2.2704  0.2062
 7282SOL     OW33304   2.837   2.208   3.501  0.2537  0.3219 -0.6547
 7282SOL    HW133305   2.868   2.298   3.508  0.4503  0.1950  0.1203
 7282SOL    HW233306   2.872   2.186   3.415  0.4188  1.4911 -0.8863
 7283SOL     OW33307   1.018   3.001   1.367 -0.5053  0.5587  0.8251
 7283SOL    HW133308   1.067   2.928   1.329 -1.8918  1.4475 -2.7040
 7283SOL    HW233309   1.057   3.075   1.320 -0.2254  0.3382  0.7075
 7284SOL     OW33310   2.608   2.760   6.406 -0.5313 -0.2243  0.3503
 7284SOL    HW133311   2.694   2.725   6.427 -0.9351 -1.5730 -0.2281
 7284SOL    HW233312   2.574   2.682   6.363  0.4157  0.5238 -1.7268
 7285SOL     OW33313   0.428   1.371  11.910  0.6716 -0.7616 -0.3379
 7285SOL    HW133314   0.363   1.315  11.952  1.9458 -0.8514  1.4856
 7285SOL    HW233315   0.451   1.326  11.828 -0.6029  0.7084 -1.4862
 7286SOL     OW33316   3.048   4.496   2.925 -0.0491  0.1368  0.0607
 7286SOL    HW133317   3.056   4.442   3.004 -2.8575  2.7952  2.1820
 7286SOL    HW233318   2.973   4.549   2.950  0.8978  1.0238  1.0446
 7287SOL     OW33319   2.381   0.874  10.491  0.3985 -0.1252  0.0691
 7287SOL    HW133320   2.321   0.841  10.558  0.4690 -0.4372 -0.0191
 7287SOL    HW233321   2.358   0.814  10.421  2.4773 -0.3477 -0.4190
 7288SOL     OW33322   2.182   3.415   5.375  0.4806 -0.3367  0.3940
 7288SOL    HW133323   2.273   3.435   5.396  0.2570  0.6335  0.4192
 7288SOL    HW233324   2.173   3.323   5.401 -1.7971 -0.3150 -0.3435
 7289SOL     OW33325   1.704   0.858   1.720 -0.3330 -0.2008  0.2466
 7289SOL    HW133326   1.773   0.830   1.659 -0.3530 -0.0867  0.1723
 7289SOL    HW233327   1.654   0.777   1.734  1.5828 -1.7392 -1.7619
 7290SOL     OW33328   2.295   2.291   6.029  0.7936  0.3948 -0.6452
 7290SOL    HW133329   2.333   2.217   5.981 -2.1327 -1.8192  0.4132
 7290SOL    HW233330   2.296   2.245   6.113 -2.0508  0.7260 -0.4428
 7291SOL     OW33331   4.390   4.569  16.031  0.3728 -0.3191 -0.4199
 7291SOL    HW133332   4.355   4.609  16.110 -0.3322 -1.8540  0.0438
 7291SOL    HW233333   4.405   4.480  16.062 -0.4774  0.4265  2.0812
 7292SOL     OW33334   1.646   4.521   2.729  0.2459 -0.5301  0.4239
 7292SOL    HW133335   1.687   4.487   2.809 -0.2302  0.9697  1.3225
 7292SOL    HW233336   1.559   4.553   2.752  0.6876  1.7666 -1.0965
 7293SOL     OW33337   0.633   0.228   8.760  0.1961 -0.1575  0.5834
 7293SOL    HW133338   0.647   0.188   8.846 -0.2226  1.2527  1.3024
 7293SOL    HW233339   0.722   0.262   8.755  0.3938 -0.8897 -1.0875
 7294SOL     OW33340   3.989   2.083  13.812  1.0288 -0.3887 -0.2161
 7294SOL    HW133341   4.007   2.016  13.878  2.1895  0.7532  0.6152
 7294SOL    HW233342   3.900   2.110  13.838 -0.3027 -4.1007 -0.9639
 7295SOL     OW33343   3.360   3.274   6.351 -0.0363  0.2669 -0.5892
 7295SOL    HW133344   3.407   3.190   6.355 -0.4541  0.0329 -0.6098
 7295SOL    HW233345   3.367   3.312   6.438  0.0224  1.8968 -1.3048
 7296SOL     OW33346   0.267   0.672   0.507  0.3947 -0.2490 -0.0459
 7296SOL    HW133347   0.298   0.736   0.442 -1.9222  1.3094  0.3610
 7296SOL    HW233348   0.196   0.729   0.536 -0.3929 -1.9797  1.4061
 7297SOL     OW33349   3.034   0.107  10.504  0.0074  0.1498 -0.0526
 7297SOL    HW133350   3.117   0.144  10.474 -0.0835 -0.1628 -0.6738
 7297SOL    HW233351   3.027   0.147  10.591  0.2422  1.7701 -0.7768
 7298SOL     OW33352   2.213   2.855  12.746 -0.0641  0.0818 -0.4331
 7298SOL    HW133353   2.256   2.916  12.685  1.6172  0.1565  0.8140
 7298SOL    HW233354   2.290   2.828  12.797  1.9301  1.9714 -2.4003
 7299SOL     OW33355   1.020   0.009   2.275 -0.7351 -0.1689 -0.1110
 7299SOL    HW133356   1.044   4.660   2.215  1.3151  0.5213 -0.1198
 7299SOL    HW233357   0.975   0.071   2.218 -0.1459  0.6573  0.3152
 7300SOL     OW33358   3.601   3.293   3.239 -0.1125 -1.0072  0.1762
 7300SOL    HW133359   3.589   3.317   3.147 -2.6570 -1.2866  0.4374
 7300SOL    HW233360   3.543   3.352   3.287  2.2614  1.6304 -0.2358
 7301SOL     OW33361   1.070   4.177  14.601  0.4007 -0.2652  0.1721
 7301SOL    HW133362   1.087   4.233  14.526 -2.0513 -1.2616 -1.1307
 7301SOL    HW233363   1.015   4.117  14.550 -0.0059 -0.4582  0.8310
 7302SOL     OW33364   1.984   2.029  10.786  0.1102 -0.1523 -0.4163
 7302SOL    HW133365   2.010   1.937  10.779 -0.5311 -0.0748 -3.9258
 7302SOL    HW233366   1.923   2.031  10.859 -0.3587  2.9396 -0.8768
 7303SOL     OW33367   0.024   3.782   2.777  0.5205  0.0247 -0.6622
 7303SOL    HW133368   0.107   3.751   2.812  0.3900  2.1883  1.5177
 7303SOL    HW233369   0.030   3.871   2.812 -0.2681 -0.6467  1.1525
 7304SOL     OW33370   2.131   4.654  13.017  0.1967 -0.6369 -0.1501
 7304SOL    HW133371   2.098   4.664  12.928 -0.0452  0.6586  0.0803
 7304SOL    HW233372   2.225   4.644  13.006 -0.0929 -0.5932 -2.5741
 7305SOL     OW33373   3.631   3.501   5.993 -0.5209 -0.4181 -0.2163
 7305SOL    HW133374   3.672   3.582   5.965  0.1052 -0.0604  1.7773
 7305SOL    HW233375   3.593   3.469   5.911 -0.9056 -0.7648  0.0938
 7306SOL     OW33376   4.404   3.430  14.826 -0.2113 -0.0220 -0.4692
 7306SOL    HW133377   4.399   3.358  14.888 -0.0301  0.1248 -0.2838
 7306SOL    HW233378   4.478   3.399  14.774 -1.2102 -0.4639 -1.6176
 7307SOL     OW33379   0.859   0.379   4.941 -0.1274  0.2242 -0.1024
 7307SOL    HW133380   0.767   0.381   4.917 -0.3662  1.6759  0.9793
 7307SOL    HW233381   0.862   0.287   4.968 -0.0199  0.4009  0.4979
 7308SOL     OW33382   4.441   4.321   7.005  0.5008  0.0880  0.3853
 7308SOL    HW133383   4.401   4.259   7.066 -0.1823  0.4724  0.3290
 7308SOL    HW233384   4.516   4.352   7.057  1.2335 -2.2442  0.7237
 7309SOL     OW33385   2.486   3.441   7.974  0.1686 -0.0209 -0.4102
 7309SOL    HW133386   2.483   3.441   7.878 -0.7334 -0.9153 -0.3877
 7309SOL    HW233387   2.400   3.474   8.000  0.2011  0.7327 -1.2559
 7310SOL     OW33388   1.782   1.182   0.361  0.0582  0.1280 -0.6640
 7310SOL    HW133389   1.823   1.266   0.344  0.8828 -0.3561 -1.0750
 7310SOL    HW233390   1.701   1.206   0.406  0.9663  2.6257 -0.3681
 7311SOL     OW33391   3.143   2.210  15.269  0.2453  0.3336  0.5496
 7311SOL    HW133392   3.081   2.172  15.206 -0.2906  1.8791  0.1541
 7311SOL    HW233393   3.087   2.271  15.316 -0.3694  0.3601 -0.2107
 7312SOL     OW33394   3.182   2.643   1.368  0.0815 -0.5824 -0.5104
 7312SOL    HW133395   3.113   2.598   1.319  0.0285 -0.6959 -0.3319
 7312SOL    HW233396   3.213   2.695   1.294 -0.3023 -1.0545 -1.0062
 7313SOL     OW33397   0.746   1.769   5.977 -0.3595  0.1216  1.1987
 7313SOL    HW133398   0.833   1.785   6.012  0.8266  1.1343 -2.2222
 7313SOL    HW233399   0.715   1.693   6.026 -0.3612  0.3004  1.4748
 7314SOL     OW33400   3.606   2.167   4.906  0.0242  0.8094 -0.1551
 7314SOL    HW133401   3.521   2.129   4.926  1.0042  0.3304  3.0522
 7314SOL    HW233402   3.578   2.224   4.835  1.3628 -1.0158 -2.1473
 7315SOL     OW33403   3.711   0.442   0.918  0.7849 -1.0182 -0.2308
 7315SOL    HW133404   3.644   0.509   0.932  1.2675 -0.3952 -0.8489
 7315SOL    HW233405   3.748   0.471   0.834  0.7598 -0.1519  0.0621
 7316SOL     OW33406   3.266   1.158   1.605  0.4759  0.5265 -0.7081
 7316SOL    HW133407   3.315   1.088   1.647  1.7874  2.1804  0.4968
 7316SOL    HW233408   3.329   1.186   1.539  0.4156  0.6332 -0.7215
 7317SOL     OW33409   1.810   1.364   4.557  0.6046  0.2575 -0.3271
 7317SOL    HW133410   1.783   1.428   4.623 -0.6835 -0.1435 -0.4500
 7317SOL    HW233411   1.734   1.305   4.556 -1.1911  2.5116  1.9678
 7318SOL     OW33412   4.277   4.632  11.759  0.1127  0.1067  0.5205
 7318SOL    HW133413   4.233   4.716  11.768 -0.6945 -0.2323 -0.2969
 7318SOL    HW233414   4.363   4.659  11.725 -0.2943 -2.1615 -2.3212
 7319SOL     OW33415   1.085   0.366   0.048  0.3662 -0.4890 -0.2651
 7319SOL    HW133416   1.032   0.407   0.115  0.1574  2.0370 -1.9674
 7319SOL    HW233417   1.022   0.367  17.663 -0.3000  2.7811  0.4095
 7320SOL     OW33418   0.672   1.395   7.293  0.3557 -0.5105 -1.0174
 7320SOL    HW133419   0.683   1.357   7.206 -0.2321 -0.8018 -0.9715
 7320SOL    HW233420   0.576   1.391   7.296  0.5001 -2.5061  2.0298
 7321SOL     OW33421   1.116   3.142   8.134 -0.0228 -0.0175  0.0905
 7321SOL    HW133422   1.158   3.212   8.083 -1.6882  1.8362  1.2470
 7321SOL    HW233423   1.162   3.067   8.098 -1.7246 -0.6768 -0.7259
 7322SOL     OW33424   0.920   1.050  12.701 -0.3950  0.0180 -0.1858
 7322SOL    HW133425   0.972   1.130  12.694 -0.9962  0.4052 -0.2410
 7322SOL    HW233426   0.885   1.046  12.612  0.1428  1.1515 -0.4486
 7323SOL     OW33427   3.306   3.554   6.506 -0.3658 -0.1918 -0.6380
 7323SOL    HW133428   3.215   3.548   6.478 -0.3908  2.6698 -1.2088
 7323SOL    HW233429   3.309   3.510   6.591  2.1102 -0.0158 -0.6205
 7324SOL     OW33430   2.166   0.306  15.745 -0.2396 -0.0242  0.1593
 7324SOL    HW133431   2.183   0.399  15.734  0.0227  0.0027  0.8036
 7324SOL    HW233432   2.190   0.259  15.665  0.6704  1.3343 -0.3621
 7325SOL     OW33433   0.309   2.786  12.003  0.8929  0.3600  0.0670
 7325SOL    HW133434   0.276   2.814  12.088  1.9331  0.6991  0.3586
 7325SOL    HW233435   0.403   2.796  12.020  1.2328 -1.3566 -0.7874
 7326SOL     OW33436   0.577   1.904  11.693  0.6243 -0.5501 -0.1926
 7326SOL    HW133437   0.570   1.898  11.598  0.0982  1.0967 -0.2663
 7326SOL    HW233438   0.488   1.921  11.724  1.4905  0.9520  1.4683
 7327SOL     OW33439   4.680   0.329   7.635 -0.1006  0.0100 -0.5709
 7327SOL    HW133440   4.646   0.288   7.715  1.0529 -0.5261 -0.3411
 7327SOL    HW233441   0.053   0.311   7.636 -0.2769 -0.8838 -0.1322
 7328SOL     OW33442   1.919   1.210   4.382  0.2747 -0.0727  0.0314
 7328SOL    HW133443   1.989   1.213   4.448 -1.2779  0.0841  1.6789
 7328SOL    HW233444   1.861   1.279   4.415  0.8704  0.8319 -0.8407
 7329SOL     OW33445   2.011   1.628   3.121  0.0444 -0.3505  0.2441
 7329SOL    HW133446   1.978   1.635   3.031  0.0164 -0.8993  0.2134
 7329SOL    HW233447   2.042   1.538   3.128  0.0183 -0.4217 -0.5787
 7330SOL     OW33448   0.934   0.373   3.487  0.3493 -0.4171 -0.2744
 7330SOL    HW133449   0.996   0.300   3.496 -0.0845 -0.6723  0.6253
 7330SOL    HW233450   0.984   0.436   3.538  0.7076 -2.5876  2.0286
 7331SOL     OW33451   3.126   0.240   6.706  0.0520  0.2313  0.3314
 7331SOL    HW133452   3.215   0.251   6.740  0.1049  3.7687 -0.9695
 7331SOL    HW233453   3.098   0.330   6.694  0.6040  0.6823  2.3987
 7332SOL     OW33454   1.766   1.265   9.965 -0.4861 -0.0224  0.1418
 7332SOL    HW133455   1.775   1.235  10.055 -0.2168  0.2959  0.2197
 7332SOL    HW233456   1.760   1.176   9.930 -2.7290 -0.7029  2.2919
 7333SOL     OW33457   2.165   3.379   4.253 -0.0972  0.2487  0.1468
 7333SOL    HW133458   2.157   3.470   4.282  1.3266  0.5999 -0.5538
 7333SOL    HW233459   2.081   3.346   4.285  0.7417 -2.1564 -0.0801
 7334SOL     OW33460   4.619   1.639   8.692 -0.1928 -0.9069 -0.1207
 7334SOL    HW133461   4.596   1.729   8.712 -0.4079 -1.3615  1.6690
 7334SOL    HW233462   4.706   1.642   8.652 -0.1667 -3.1855 -0.2836
 7335SOL     OW33463   4.080   1.935   8.669  0.2565 -0.0943  0.7886
 7335SOL    HW133464   4.002   1.990   8.669  0.3393  0.0540 -1.8232
 7335SOL    HW233465   4.146   1.999   8.643 -1.6370  1.1169 -1.0432
 7336SOL     OW33466   0.020   2.977   4.850 -0.0627 -0.7630 -0.4253
 7336SOL    HW133467   0.012   3.071   4.866 -0.3333 -0.9632  0.6017
 7336SOL    HW233468   4.718   2.962   4.758 -4.3588  2.2413  0.1560
 7337SOL     OW33469   3.602   2.601  17.648 -0.3061 -0.1297 -0.1039
 7337SOL    HW133470   3.583   2.627   0.052 -2.0701  1.1834 -0.8515
 7337SOL    HW233471   3.599   2.506  17.654 -4.3240 -0.0583 -1.0145
 7338SOL     OW33472   4.071   1.469   2.327  1.0496  0.2712 -0.6713
 7338SOL    HW133473   4.042   1.483   2.237  0.1617 -0.4515 -0.4945
 7338SOL    HW233474   4.165   1.490   2.321  1.2398 -0.5516 -0.4709
 7339SOL     OW33475   2.041   1.681  16.665 -0.1999 -0.0578  0.1950
 7339SOL    HW133476   2.022   1.765  16.706  0.4950 -0.4160  1.2555
 7339SOL    HW233477   2.053   1.705  16.573  0.1150  0.7737  0.4549
 7340SOL     OW33478   4.368   3.857   1.481  0.4002 -0.2862 -0.1495
 7340SOL    HW133479   4.418   3.882   1.403  1.2079 -3.5403 -0.7012
 7340SOL    HW233480   4.416   3.784   1.522 -1.3650 -0.4683  1.5864
 7341SOL     OW33481   0.802   0.589  15.120 -0.4916 -0.2730 -0.4717
 7341SOL    HW133482   0.777   0.629  15.204 -2.5169 -1.4412 -0.5231
 7341SOL    HW233483   0.873   0.532  15.149  0.9908  2.7519  1.9063
 7342SOL     OW33484   0.364   1.444   4.354  0.0013 -0.3129 -0.1417
 7342SOL    HW133485   0.322   1.371   4.400 -1.7733  1.9940  1.8575
 7342SOL    HW233486   0.298   1.506   4.323  1.4084  0.5445 -1.4059
 7343SOL     OW33487   1.960   4.666  12.497 -0.3701 -0.0420  0.5159
 7343SOL    HW133488   1.929   4.585  12.456 -0.4651  0.6171 -0.7007
 7343SOL    HW233489   1.887   0.006  12.495 -0.6532 -0.3283  2.0694
 7344SOL     OW33490   4.633   4.104  14.362 -0.5230  0.5480 -0.2811
 7344SOL    HW133491   4.647   4.083  14.270  0.9359  0.9212 -0.1446
 7344SOL    HW233492   4.575   4.179  14.347 -1.6875 -0.7147 -2.0563
 7345SOL     OW33493   1.900   0.631   4.970  0.3596  0.2490  0.1707
 7345SOL    HW133494   1.938   0.634   4.882 -0.3765  1.4088 -0.0941
 7345SOL    HW233495   1.847   0.710   4.962  2.0799  1.3590 -0.3431
 7346SOL     OW33496   3.063   2.742  10.506 -0.3438 -0.2148  0.2232
 7346SOL    HW133497   2.973   2.710  10.499 -0.8879  1.3354  0.2315
 7346SOL    HW233498   3.096   2.661  10.468 -1.7798  0.5425 -2.6484
 7347SOL     OW33499   3.782   4.285   7.707  0.0271  0.1885 -0.4768
 7347SOL    HW133500   3.808   4.294   7.615  0.7029  0.0571 -0.2965
 7347SOL    HW233501   3.687   4.294   7.697  0.1229  0.1191 -1.4325
 7348SOL     OW33502   1.044   0.955  17.583  0.4773 -0.3437 -0.1337
 7348SOL    HW133503   0.951   0.959  17.563  0.4743  3.2490  0.5587
 7348SOL    HW233504   1.029   0.937  17.676 -0.9180  0.8299 -0.1343
 7349SOL     OW33505   2.926   1.074  16.419  0.2337  0.4170 -0.1588
 7349SOL    HW133506   2.858   1.109  16.476 -0.8197 -0.3653 -0.9344
 7349SOL    HW233507   2.882   0.997  16.383 -0.4532  0.8102 -0.1760
 7350SOL     OW33508   0.393   1.907   6.204  0.1969  0.2605 -0.4024
 7350SOL    HW133509   0.314   1.947   6.240  1.4369 -0.2081  2.8442
 7350SOL    HW233510   0.382   1.919   6.109  0.2564  2.0971 -0.1724
 7351SOL     OW33511   3.015   0.366   8.486 -0.1603  0.0060 -0.9005
 7351SOL    HW133512   2.948   0.329   8.543  0.8672  0.0033  0.3215
 7351SOL    HW233513   3.040   0.437   8.545 -1.6979 -0.7747  0.7022
 7352SOL     OW33514   3.403   3.571   4.198  0.0063 -0.0735  0.2659
 7352SOL    HW133515   3.437   3.623   4.271  2.8611 -2.1597  0.4158
 7352SOL    HW233516   3.320   3.549   4.241  0.1414 -0.6868  0.2197
 7353SOL     OW33517   0.497   2.423  16.831  0.3715 -0.4761  0.2974
 7353SOL    HW133518   0.587   2.415  16.799  0.2448 -2.1004  0.3695
 7353SOL    HW233519   0.490   2.519  16.831 -1.6025 -0.6235  1.9159
 7354SOL     OW33520   4.506   4.228   3.625 -0.2978 -0.1077 -0.2723
 7354SOL    HW133521   4.481   4.181   3.704  2.0975 -1.4485 -0.2971
 7354SOL    HW233522   4.509   4.318   3.658  1.1809 -0.0785 -0.4591
 7355SOL     OW33523   0.650   4.048  17.293 -0.0878 -0.0951 -0.1761
 7355SOL    HW133524   0.651   4.144  17.292  1.3008 -0.1067 -0.1041
 7355SOL    HW233525   0.697   4.040  17.210 -0.4106 -2.1754 -0.1487
 7356SOL     OW33526   2.815   0.726   1.258 -0.0900  0.5429 -0.2545
 7356SOL    HW133527   2.776   0.767   1.181 -3.4522 -1.8212  0.2131
 7356SOL    HW233528   2.804   0.636   1.228  1.6287  0.1794  0.2241
 7357SOL     OW33529   4.143   3.689   9.413  0.3246 -0.3797  0.7764
 7357SOL    HW133530   4.151   3.647   9.328 -2.1698 -0.3309  0.5317
 7357SOL    HW233531   4.212   3.755   9.401  0.1734 -0.1163  1.3013
 7358SOL     OW33532   3.158   0.541   6.725  0.0542  0.6350 -0.0695
 7358SOL    HW133533   3.246   0.550   6.690  0.1378  0.3970  0.0769
 7358SOL    HW233534   3.180   0.544   6.818 -0.9518 -0.2737  0.1978
 7359SOL     OW33535   4.220   0.579   5.038  0.1412  0.0507 -0.1717
 7359SOL    HW133536   4.273   0.520   4.984 -0.6245 -2.3578  1.6927
 7359SOL    HW233537   4.270   0.660   5.040 -1.9992  1.3062  2.4081
 7360SOL     OW33538   3.189   0.244   8.742  0.1141 -0.5939 -0.0404
 7360SOL    HW133539   3.282   0.254   8.761 -0.1762  0.7177  0.6853
 7360SOL    HW233540   3.148   0.308   8.800 -0.2797 -0.6620 -0.2426
 7361SOL     OW33541   1.587   2.733   6.085 -0.5143  0.5607  0.5134
 7361SOL    HW133542   1.645   2.789   6.034 -0.8901  0.0301 -0.4965
 7361SOL    HW233543   1.654   2.682   6.130 -1.0945 -0.8313 -0.1890
 7362SOL     OW33544   0.632   3.211   0.801 -0.0272  0.0407  0.0483
 7362SOL    HW133545   0.640   3.268   0.878 -0.2620  0.1715 -0.0262
 7362SOL    HW233546   0.681   3.260   0.735 -0.3608 -0.0391 -0.2534
 7363SOL     OW33547   0.946   4.143   0.760 -0.7254  0.2026 -0.6304
 7363SOL    HW133548   0.911   4.056   0.779  2.2934 -0.0047  3.8821
 7363SOL    HW233549   0.918   4.193   0.837 -1.1602 -0.9050 -0.0654
 7364SOL     OW33550   3.969   1.421   8.606 -0.0206  0.2101 -0.6810
 7364SOL    HW133551   3.964   1.512   8.577  1.1209  0.3037 -0.5903
 7364SOL    HW233552   4.060   1.423   8.634  0.8079  0.6663 -3.4299
 7365SOL     OW33553   3.187   4.432  11.881 -0.6474 -0.4943 -0.2211
 7365SOL    HW133554   3.142   4.489  11.819 -0.1125 -0.8093 -0.8923
 7365SOL    HW233555   3.277   4.424  11.850 -1.3265 -1.8433 -1.7911
 7366SOL     OW33556   3.978   1.620   6.452  0.1156  0.6183 -0.4189
 7366SOL    HW133557   3.945   1.545   6.403  1.3967 -0.0950 -0.1838
 7366SOL    HW233558   4.031   1.571   6.515  2.9215  2.8196 -1.0765
 7367SOL     OW33559   3.647   4.073   6.320  0.1384 -0.5128 -0.5155
 7367SOL    HW133560   3.657   4.127   6.398  0.2658  0.5134 -1.2350
 7367SOL    HW233561   3.723   4.093   6.264  0.3152  0.1540 -0.0311
 7368SOL     OW33562   3.351   1.169   8.797  0.1052  0.0445 -0.5339
 7368SOL    HW133563   3.298   1.179   8.719  0.0327 -0.0512 -0.4958
 7368SOL    HW233564   3.373   1.260   8.817  0.5456 -0.4999  1.4847
 7369SOL     OW33565   3.729   0.362   2.856 -0.4549 -0.1922  0.1705
 7369SOL    HW133566   3.693   0.321   2.778 -2.9950  1.8550  0.3006
 7369SOL    HW233567   3.654   0.345   2.913 -0.3162 -0.9326  0.1412
 7370SOL     OW33568   1.295   2.146   0.240  0.2939  0.3303 -0.7002
 7370SOL    HW133569   1.289   2.226   0.292 -2.2843  1.5801 -2.9387
 7370SOL    HW233570   1.221   2.097   0.276 -1.7248  3.6360 -0.2977
 7371SOL     OW33571   0.403   0.710  12.545  0.5924  0.7053 -0.7455
 7371SOL    HW133572   0.382   0.787  12.597 -0.3636  0.1581 -0.3351
 7371SOL    HW233573   0.395   0.657  12.624  0.4400  2.3058  0.2905
 7372SOL     OW33574   3.027   1.569  11.820  0.3054  0.4325  0.3229
 7372SOL    HW133575   3.014   1.526  11.904 -0.3715 -0.5650 -0.2942
 7372SOL    HW233576   2.997   1.659  11.831 -3.7606 -1.0506  1.1484
 7373SOL     OW33577   0.273   2.763  14.145  0.0173  0.1775  0.4523
 7373SOL    HW133578   0.311   2.823  14.210 -0.7184  0.4114  0.6630
 7373SOL    HW233579   0.240   2.827  14.082  0.2356 -1.0739 -0.9337
 7374SOL     OW33580   4.587   0.905  15.860  0.0149  0.0028 -0.2208
 7374SOL    HW133581   4.582   0.995  15.830 -1.2219  0.1631  0.4535
 7374SOL    HW233582   4.663   0.916  15.916 -1.1894 -0.4936  1.5026
 7375SOL     OW33583   2.778   4.120  13.986  0.3509 -0.1298 -0.2333
 7375SOL    HW133584   2.768   4.188  13.920  1.4317 -1.5780 -1.9074
 7375SOL    HW233585   2.832   4.053  13.944 -0.0493 -0.5213 -0.1220
 7376SOL     OW33586   3.609   0.056  12.497 -0.0250  0.1585  0.0225
 7376SOL    HW133587   3.563   0.131  12.459 -1.1847 -0.4181  0.2791
 7376SOL    HW233588   3.566   4.706  12.450  1.6634 -1.2971  0.6598
 7377SOL     OW33589   2.579   3.353   4.774 -0.2202 -0.1713 -0.1825
 7377SOL    HW133590   2.587   3.432   4.720 -3.7953  0.0935 -0.3655
 7377SOL    HW233591   2.588   3.410   4.850 -0.5152 -1.5451  0.8879
 7378SOL     OW33592   4.632   1.487   4.749 -0.1206 -0.0524 -0.1964
 7378SOL    HW133593   4.608   1.404   4.706 -0.3620 -0.3957  0.5959
 7378SOL    HW233594   4.678   1.518   4.671  0.6101 -4.1209 -1.4165
 7379SOL     OW33595   4.380   2.011   7.771  0.0699  0.1291  0.2416
 7379SOL    HW133596   4.303   1.979   7.817 -2.0936  0.9023 -2.8565
 7379SOL    HW233597   4.356   1.975   7.686 -1.1455 -0.1828  0.7249
 7380SOL     OW33598   2.513   0.696   7.824  0.4844 -0.4801 -0.5139
 7380SOL    HW133599   2.481   0.621   7.774 -2.2526  1.2222 -1.2698
 7380SOL    HW233600   2.599   0.663   7.851  0.4811  0.1893  0.3172
 7381SOL     OW33601   0.473   2.732   4.666 -0.3680 -0.3366 -0.4108
 7381SOL    HW133602   0.452   2.777   4.747  1.2484 -1.3197  0.5606
 7381SOL    HW233603   0.540   2.791   4.633  0.9334 -2.2399 -1.2131
 7382SOL     OW33604   4.272   3.733   1.766 -0.1374 -0.1135 -0.2429
 7382SOL    HW133605   4.182   3.720   1.737 -0.7827  0.8954  1.3280
 7382SOL    HW233606   4.309   3.648   1.743  2.0098  0.3278  1.5962
 7383SOL     OW33607   4.349   0.173   5.846 -0.5801 -0.0802 -0.0852
 7383SOL    HW133608   4.402   0.240   5.889 -0.2404 -0.0174 -0.6009
 7383SOL    HW233609   4.294   0.219   5.784 -0.0535 -0.4765 -0.8429
 7384SOL     OW33610   0.843   1.844   7.833 -0.3298  0.5647 -0.2238
 7384SOL    HW133611   0.842   1.794   7.915 -2.0879  1.4513  0.2943
 7384SOL    HW233612   0.799   1.781   7.777 -0.8477 -0.6052  1.4850
 7385SOL     OW33613   3.239   0.462   5.084 -0.0442 -0.0341  0.5107
 7385SOL    HW133614   3.245   0.539   5.028 -0.2707  0.6538  1.4458
 7385SOL    HW233615   3.274   0.492   5.168  2.3784 -0.4670 -0.3241
 7386SOL     OW33616   0.720   0.978  15.004 -1.3114 -0.3734 -0.3972
 7386SOL    HW133617   0.789   0.917  15.027 -1.9086 -0.8021  0.2867
 7386SOL    HW233618   0.770   1.036  14.948  0.6494  0.2907  2.0405
 7387SOL     OW33619   2.767   3.848   5.860  0.1033 -0.1728  0.4762
 7387SOL    HW133620   2.744   3.924   5.913 -1.9604 -1.2334  1.1222
 7387SOL    HW233621   2.845   3.809   5.901 -0.4256 -1.1125  0.6076
 7388SOL     OW33622   1.569   1.649   8.440  0.8817 -0.1796  0.7460
 7388SOL    HW133623   1.520   1.635   8.359  0.0259 -0.5424  1.3251
 7388SOL    HW233624   1.539   1.739   8.453 -1.1026 -0.9190  1.3200
 7389SOL     OW33625   4.716   4.165   3.195  0.1481  0.0846 -0.2601
 7389SOL    HW133626   0.062   4.125   3.250 -0.8865  1.9126  2.2769
 7389SOL    HW233627   0.052   4.196   3.124 -0.1900 -2.7479 -1.7802
 7390SOL     OW33628   4.492   3.799   8.103  0.6585  0.4945  0.0290
 7390SOL    HW133629   4.507   3.754   8.186 -1.5051 -1.7710 -0.8114
 7390SOL    HW233630   4.576   3.799   8.057  0.6715  0.3644  0.0520
 7391SOL     OW33631   0.574   4.101  16.804  0.7094 -0.0699 -0.4291
 7391SOL    HW133632   0.498   4.058  16.844 -0.1072  1.0760 -0.7669
 7391SOL    HW233633   0.560   4.066  16.716  0.8583 -0.8792 -0.1352
 7392SOL     OW33634   0.189   2.969   8.433 -0.3046  0.8358  0.3550
 7392SOL    HW133635   0.230   3.052   8.458  0.2547  0.9549 -0.9649
 7392SOL    HW233636   0.265   2.929   8.390  0.3549  2.2875  0.1621
 7393SOL     OW33637   3.370   3.755   7.873 -1.0198  0.2245 -0.1523
 7393SOL    HW133638   3.355   3.670   7.915  0.7145  0.5109  1.0179
 7393SOL    HW233639   3.436   3.799   7.925 -0.7943 -0.2056 -0.0797
 7394SOL     OW33640   0.151   3.437   8.439  0.2719  0.4991 -0.1638
 7394SOL    HW133641   0.123   3.412   8.527 -1.5027  0.3358 -0.7786
 7394SOL    HW233642   0.109   3.522   8.425 -2.7749 -0.6373  2.0891
 7395SOL     OW33643   1.323   4.555  15.663  0.1767 -0.3548 -0.5382
 7395SOL    HW133644   1.402   4.531  15.613  0.7206  1.0405 -0.3561
 7395SOL    HW233645   1.282   4.473  15.691  3.3387 -1.6080  0.5167
 7396SOL     OW33646   1.038   4.338   9.381 -0.1687  0.4214 -0.1308
 7396SOL    HW133647   0.976   4.394   9.427 -0.8329  1.9581 -2.9075
 7396SOL    HW233648   1.103   4.316   9.448 -0.2206 -0.4703 -0.3639
 7397SOL     OW33649   3.867   4.281   4.620  0.3753  0.3563  0.2670
 7397SOL    HW133650   3.882   4.343   4.548  0.0505 -1.9997 -1.8237
 7397SOL    HW233651   3.814   4.333   4.681 -1.6099 -2.6336  1.1075
 7398SOL     OW33652   4.404   0.392   4.105  0.0107  0.0134  0.0405
 7398SOL    HW133653   4.362   0.344   4.034  0.5787  0.8430 -0.8439
 7398SOL    HW233654   4.461   0.323   4.140 -2.3768 -2.2127 -0.4362
 7399SOL     OW33655   0.488   1.893  11.995 -0.3449  0.1345  0.3402
 7399SOL    HW133656   0.437   1.849  11.928  0.1374  1.1076 -0.6620
 7399SOL    HW233657   0.469   1.838  12.071  0.9751 -4.1426 -2.4960
 7400SOL     OW33658   1.410   1.566   6.451  0.3700  0.0734 -0.0093
 7400SOL    HW133659   1.453   1.512   6.517 -0.1442  0.1044  0.3419
 7400SOL    HW233660   1.350   1.501   6.415  0.3933  0.3194 -0.4955
 7401SOL     OW33661   4.226   0.612   3.874 -0.7948 -0.3943  0.6307
 7401SOL    HW133662   4.150   0.610   3.815 -0.8001  1.1184  0.5817
 7401SOL    HW233663   4.232   0.520   3.899 -0.5657 -0.3700  0.6638
 7402SOL     OW33664   3.834   3.277  16.110 -0.5259  0.3974 -0.1073
 7402SOL    HW133665   3.806   3.246  16.024  0.0567 -0.8795  0.1668
 7402SOL    HW233666   3.909   3.331  16.084 -1.4547  1.5829 -0.3748
 7403SOL     OW33667   4.434   1.281   5.630 -0.0581  0.2525 -0.5733
 7403SOL    HW133668   4.358   1.251   5.680  0.0668  1.3482  0.2666
 7403SOL    HW233669   4.404   1.270   5.540  0.2677 -0.0099 -0.6462
 7404SOL     OW33670   4.220   0.076   9.148  0.6546  0.2892 -0.1394
 7404SOL    HW133671   4.174   0.158   9.130 -0.2610  0.1001  1.3188
 7404SOL    HW233672   4.169   0.038   9.220  0.6177 -0.4928 -0.5802
 7405SOL     OW33673   3.417   1.917  17.046  0.2908  0.2816 -0.6588
 7405SOL    HW133674   3.509   1.894  17.037 -0.7451 -4.5772  1.1686
 7405SOL    HW233675   3.408   1.918  17.142 -1.6086  0.0789 -0.8347
 7406SOL     OW33676   3.059   2.729   5.784 -0.4664  0.2572  0.3318
 7406SOL    HW133677   3.013   2.701   5.705  0.9210 -0.4590 -0.2298
 7406SOL    HW233678   3.064   2.824   5.774  1.1715  0.1593  0.1067
 7407SOL     OW33679   1.934   1.790   6.743 -0.3884  0.3411 -0.1562
 7407SOL    HW133680   1.952   1.787   6.837  1.5011 -0.5938 -0.5563
 7407SOL    HW233681   1.993   1.861   6.720 -0.9123  0.7900 -0.1231
 7408SOL     OW33682   0.662   2.210   1.668  0.9390  0.1072  0.1151
 7408SOL    HW133683   0.734   2.165   1.712  0.3550 -2.0069 -1.1519
 7408SOL    HW233684   0.659   2.158   1.588 -0.5667  0.0772  0.2026
 7409SOL     OW33685   2.168   3.728   2.592  0.4330  0.0015 -0.8578
 7409SOL    HW133686   2.221   3.739   2.513  2.0889  0.5334  0.2951
 7409SOL    HW233687   2.238   3.679   2.636 -1.4619  0.4374  2.6521
 7410SOL     OW33688   2.713   2.814   5.790  0.5387  0.4306  0.5764
 7410SOL    HW133689   2.719   2.824   5.885 -2.4876 -1.0254  0.9131
 7410SOL    HW233690   2.704   2.905   5.763 -2.4364 -0.4383 -1.3998
 7411SOL     OW33691   0.627   4.025   0.549  0.1451  0.1654  0.1997
 7411SOL    HW133692   0.707   3.972   0.549 -0.2629 -0.4651 -1.6122
 7411SOL    HW233693   0.640   4.106   0.598 -0.8971  1.8488 -2.2783
 7412SOL     OW33694   3.072   0.082   8.947  0.0950  0.1434 -0.2655
 7412SOL    HW133695   3.120   0.112   8.870 -0.7202  1.2393 -0.3510
 7412SOL    HW233696   2.980   0.102   8.931 -0.0616 -0.1050  0.3347
 7413SOL     OW33697   3.202   2.627   5.123 -0.3411 -0.2564 -0.6030
 7413SOL    HW133698   3.190   2.691   5.194 -0.0203  0.1984 -0.9576
 7413SOL    HW233699   3.297   2.630   5.115 -0.1550  1.0160  2.2365
 7414SOL     OW33700   3.193   2.431   7.943 -0.1304 -0.1483  0.5459
 7414SOL    HW133701   3.103   2.400   7.945 -1.2362  2.9284 -1.0114
 7414SOL    HW233702   3.246   2.352   7.933  0.2123  0.1934 -0.3843
 7415SOL     OW33703   0.369   1.830   6.835  0.0908  0.2241  0.3827
 7415SOL    HW133704   0.436   1.845   6.769  0.7336  0.4611  1.0822
 7415SOL    HW233705   0.296   1.798   6.782  0.7830 -3.3619  1.5944
 7416SOL     OW33706   4.338   3.589  11.111 -0.3504 -0.1259 -0.4069
 7416SOL    HW133707   4.317   3.674  11.072  1.0092  1.0739  1.4753
 7416SOL    HW233708   4.371   3.541  11.035 -0.7209 -0.2997 -0.4579
 7417SOL     OW33709   2.747   1.644  11.637  0.2636  1.3100 -0.9922
 7417SOL    HW133710   2.798   1.573  11.596 -0.2607  0.7043 -0.5897
 7417SOL    HW233711   2.811   1.675  11.702  1.7583 -0.1887 -1.7379
 7418SOL     OW33712   1.284   2.471   6.433 -0.3901  0.1481  0.4647
 7418SOL    HW133713   1.227   2.414   6.382  2.3582 -1.4278 -0.8311
 7418SOL    HW233714   1.235   2.497   6.511 -2.2533 -1.6721 -0.0924
 7419SOL     OW33715   3.611   2.530   6.881  0.1186  0.5557  0.0728
 7419SOL    HW133716   3.683   2.592   6.870 -0.4531  0.9845 -1.3043
 7419SOL    HW233717   3.660   2.454   6.911  0.6905  1.1313  0.5797
 7420SOL     OW33718   0.608   2.522   5.760 -0.1033 -0.1857  0.2226
 7420SOL    HW133719   0.574   2.433   5.749  0.8951 -0.3358 -1.7224
 7420SOL    HW233720   0.680   2.519   5.823  0.3820  1.9153 -0.2136
 7421SOL     OW33721   0.325   1.316   6.350  0.4214  0.3334  0.5900
 7421SOL    HW133722   0.318   1.403   6.312 -2.3484 -0.2929 -0.2986
 7421SOL    HW233723   0.412   1.287   6.323  0.2140  0.8709 -0.6445
 7422SOL     OW33724   1.777   2.209   2.774 -0.4317  0.0816 -0.4235
 7422SOL    HW133725   1.859   2.207   2.724 -1.0234  2.1528 -1.4746
 7422SOL    HW233726   1.788   2.297   2.810 -0.1965 -0.1833  0.1403
 7423SOL     OW33727   1.794   3.549   5.146 -0.3420  0.3724 -0.2115
 7423SOL    HW133728   1.764   3.637   5.169  0.8441  1.0536 -1.3411
 7423SOL    HW233729   1.865   3.565   5.084  0.1601  0.2953  0.3383
 7424SOL     OW33730   3.529   1.211   8.045 -0.0135 -0.0010 -0.0489
 7424SOL    HW133731   3.524   1.117   8.030 -0.3125  0.5316 -3.2670
 7424SOL    HW233732   3.531   1.210   8.140  4.0921 -0.5539 -0.1224
 7425SOL     OW33733   0.592   0.136   8.495 -0.3779 -0.0835  0.1163
 7425SOL    HW133734   0.550   0.211   8.453 -0.2607 -0.8259 -1.3149
 7425SOL    HW233735   0.602   0.167   8.585  3.0847  0.7616 -0.5375
 7426SOL     OW33736   1.344   2.898   5.700  0.1845  0.0570 -0.4212
 7426SOL    HW133737   1.366   2.946   5.780  1.2982 -0.3431 -0.4893
 7426SOL    HW233738   1.323   2.815   5.745 -0.7644  0.7894  0.4836
 7427SOL     OW33739   3.523   3.202   6.854 -0.2072 -0.3698  0.3038
 7427SOL    HW133740   3.579   3.236   6.925  0.3807 -0.5267 -0.0859
 7427SOL    HW233741   3.547   3.110   6.861  1.2346  0.0928  1.5103
 7428SOL     OW33742   2.013   2.669  10.524  0.2717 -0.2038  0.1881
 7428SOL    HW133743   2.078   2.670  10.453 -1.0172 -0.3864 -1.0122
 7428SOL    HW233744   1.946   2.611  10.487 -0.3688  0.5220  0.1980
 7429SOL     OW33745   1.924   2.588   4.704  1.1052 -0.1335 -0.0985
 7429SOL    HW133746   1.843   2.551   4.740 -0.5266  3.5071 -0.0126
 7429SOL    HW233747   1.953   2.532   4.633  1.2044  1.9778 -1.7421
 7430SOL     OW33748   1.561   3.153   2.722 -0.0024  0.1163 -0.3787
 7430SOL    HW133749   1.491   3.198   2.675 -0.0264 -0.7185 -1.1299
 7430SOL    HW233750   1.559   3.066   2.682  3.2358  0.9658 -2.4406
 7431SOL     OW33751   1.647   3.061   3.903  0.3302  0.3071 -0.1657
 7431SOL    HW133752   1.742   3.057   3.890 -0.0335 -3.8396 -1.6336
 7431SOL    HW233753   1.611   3.009   3.831  0.6767  1.9924 -1.5490
 7432SOL     OW33754   2.524   3.848   0.928  0.5694  0.3047  0.3717
 7432SOL    HW133755   2.532   3.800   1.010 -1.0487  0.8407  0.8398
 7432SOL    HW233756   2.576   3.788   0.874 -3.0064 -1.7726 -0.7402
 7433SOL     OW33757   0.455   1.448   8.206  0.0477  0.3473 -0.4685
 7433SOL    HW133758   0.423   1.538   8.199 -0.3712  0.4382  2.6940
 7433SOL    HW233759   0.378   1.404   8.243  1.4019 -1.4794  0.1944
 7434SOL     OW33760   2.244   0.269   1.326 -0.0913  0.0879 -0.1529
 7434SOL    HW133761   2.304   0.210   1.370  0.5504  0.9043  0.0717
 7434SOL    HW233762   2.162   0.221   1.335 -0.9129  1.1719 -1.7834
 7435SOL     OW33763   2.715   3.760   3.587 -0.5689  0.2816  0.0751
 7435SOL    HW133764   2.641   3.752   3.527  0.0694 -1.6874 -0.4633
 7435SOL    HW233765   2.695   3.692   3.652  1.1931 -0.5554 -0.2613
 7436SOL     OW33766   4.312   2.778   6.410  0.5351 -0.3402  0.4541
 7436SOL    HW133767   4.260   2.846   6.368 -0.1297 -0.2644  1.3886
 7436SOL    HW233768   4.389   2.829   6.433  0.9034 -0.4175 -0.6162
 7437SOL     OW33769   4.503   1.426  15.149  0.5209 -0.8245 -0.3396
 7437SOL    HW133770   4.436   1.445  15.215  2.1189 -0.2142  1.1294
 7437SOL    HW233771   4.448   1.410  15.073  0.6482  2.6773 -1.1658
 7438SOL     OW33772   4.207   0.821   6.941  0.1378 -0.2400 -0.3097
 7438SOL    HW133773   4.241   0.876   7.012  0.3959 -0.9482  0.1127
 7438SOL    HW233774   4.235   0.877   6.868 -0.6461 -0.2322 -0.5936
 7439SOL     OW33775   4.058   3.204   1.936 -0.0321 -0.5415  0.5637
 7439SOL    HW133776   3.999   3.267   1.895  1.8786  1.9077  1.5959
 7439SOL    HW233777   4.139   3.228   1.891 -0.0297  0.1437  0.9286
 7440SOL     OW33778   0.779   1.261  10.941 -0.0747  0.1720 -0.7809
 7440SOL    HW133779   0.708   1.279  10.879 -1.8786 -0.0047  1.2459
 7440SOL    HW233780   0.847   1.326  10.924  1.0419 -1.0307 -0.8897
 7441SOL     OW33781   3.928   0.863   2.433 -0.5802  0.3030  0.6234
 7441SOL    HW133782   4.017   0.836   2.454  0.2601  0.1309 -3.1690
 7441SOL    HW233783   3.953   0.899   2.348  1.3006 -0.6558  0.7638
 7442SOL     OW33784   0.850   1.985   4.715  0.8298 -0.0534  0.3771
 7442SOL    HW133785   0.913   1.975   4.785  0.0944 -1.0026  0.9074
 7442SOL    HW233786   0.799   2.064   4.734  0.3210 -0.1590 -0.5333
 7443SOL     OW33787   2.413   1.395   4.757  0.2753  0.5910 -0.4279
 7443SOL    HW133788   2.335   1.368   4.709 -0.5329  1.2077  0.5567
 7443SOL    HW233789   2.443   1.312   4.794  0.5245  0.5688 -0.6767
 7444SOL     OW33790   4.326   2.494   9.668 -0.0652  0.2034  0.2338
 7444SOL    HW133791   4.250   2.550   9.681 -0.6857 -1.1835  2.4202
 7444SOL    HW233792   4.350   2.500   9.760  0.7362 -2.0249  0.1847
 7445SOL     OW33793   3.995   1.849  13.976 -0.0372 -0.3306 -0.7745
 7445SOL    HW133794   3.999   1.787  13.903  0.4609 -0.9528 -0.2329
 7445SOL    HW233795   3.942   1.794  14.034 -0.3011  0.8699  0.1084
 7446SOL     OW33796   1.473   2.680   2.145  0.0900  0.3892 -0.3309
 7446SOL    HW133797   1.398   2.724   2.184 -0.4825 -2.3828  1.6965
 7446SOL    HW233798   1.501   2.746   2.081  1.0952 -0.1688 -0.4685
 7447SOL     OW33799   0.749   1.634   5.622 -0.7777 -0.2229  0.0578
 7447SOL    HW133800   0.693   1.680   5.560  0.9607  1.5769 -0.1947
 7447SOL    HW233801   0.820   1.698   5.618  0.0336 -0.9424  2.9484
 7448SOL     OW33802   1.669   0.592  10.217 -0.3121 -0.5890  0.3767
 7448SOL    HW133803   1.755   0.553  10.202 -0.2005 -0.3595  0.4172
 7448SOL    HW233804   1.698   0.682  10.232 -0.7205 -0.5008  0.6383
 7449SOL     OW33805   1.333   3.670   2.862  0.7593 -0.0714 -0.0420
 7449SOL    HW133806   1.414   3.721   2.858  0.7996 -0.3054 -2.1330
 7449SOL    HW233807   1.318   3.655   2.769 -2.7449 -0.5850  0.5948
 7450SOL     OW33808   0.190   4.709   0.590 -0.5540 -0.4647  0.2642
 7450SOL    HW133809   0.192   4.676   0.500 -0.7425  0.5807 -0.1338
 7450SOL    HW233810   0.098   4.684   0.600 -0.6319  0.2119  1.2397
 7451SOL     OW33811   2.520   4.074  14.024  0.2276 -0.1814  0.4617
 7451SOL    HW133812   2.600   4.124  14.007 -0.4778 -0.0068 -2.4711
 7451SOL    HW233813   2.568   3.997  14.056  1.2708 -0.4480 -1.7211
 7452SOL     OW33814   3.889   0.658   7.522  0.1519  0.4901  0.0916
 7452SOL    HW133815   3.892   0.727   7.456 -0.5174 -0.2239 -0.6835
 7452SOL    HW233816   3.965   0.612   7.487  0.3284  0.8870 -0.0488
 7453SOL     OW33817   3.557   4.293   3.567  0.2395  0.5474 -0.6777
 7453SOL    HW133818   3.596   4.365   3.517 -1.2909  2.4647  0.8998
 7453SOL    HW233819   3.506   4.343   3.631  2.8234  1.7416  0.4593
 7454SOL     OW33820   0.505   2.300   2.175 -0.2825  0.2971  0.4635
 7454SOL    HW133821   0.560   2.366   2.133  0.8539  0.1394  1.7413
 7454SOL    HW233822   0.446   2.367   2.210  0.0254  1.1623 -0.6774
 7455SOL     OW33823   2.587   0.775   4.532  0.0399 -0.4095  0.7751
 7455SOL    HW133824   2.676   0.740   4.524  1.6773  3.4051  1.9608
 7455SOL    HW233825   2.545   0.736   4.456 -0.0846 -1.7576  1.5423
 7456SOL     OW33826   0.718   1.730  10.195 -0.3573  0.2091  0.1310
 7456SOL    HW133827   0.804   1.695  10.173 -1.0337 -0.1983 -1.9138
 7456SOL    HW233828   0.665   1.652  10.208  0.3075 -0.7144 -2.6385
 7457SOL     OW33829   2.227   2.906   9.531  0.2660 -0.1472  0.3150
 7457SOL    HW133830   2.318   2.933   9.536  0.6864 -1.3379 -1.0259
 7457SOL    HW233831   2.190   2.992   9.510 -1.6542 -1.0997 -0.2316
 7458SOL     OW33832   0.340   3.924   2.198  0.2721 -0.6225 -0.2611
 7458SOL    HW133833   0.276   3.986   2.233  1.3343 -0.2860  1.0582
 7458SOL    HW233834   0.409   3.979   2.160  0.8820 -1.2141  0.0057
 7459SOL     OW33835   0.593   0.759   7.879  0.8072  0.2919  0.6028
 7459SOL    HW133836   0.562   0.781   7.967  2.5006  1.4897  0.8974
 7459SOL    HW233837   0.520   0.792   7.826  1.2258 -0.2675 -0.3270
 7460SOL     OW33838   3.691   1.510   8.312  0.6646 -0.1726  0.5224
 7460SOL    HW133839   3.752   1.576   8.279 -0.9199  1.2535  0.4648
 7460SOL    HW233840   3.719   1.429   8.271  0.4479  0.2896 -0.5349
 7461SOL     OW33841   4.220   2.641   3.792 -0.1216 -0.4984 -0.0210
 7461SOL    HW133842   4.246   2.585   3.719  1.0668 -3.0969  2.3798
 7461SOL    HW233843   4.271   2.721   3.780 -0.8898 -0.2759 -1.8491
 7462SOL     OW33844   3.805   0.846   2.727 -0.0272  0.4186  0.3558
 7462SOL    HW133845   3.830   0.859   2.636  1.6857  0.9787  0.9120
 7462SOL    HW233846   3.709   0.839   2.726  0.0975 -1.0945 -1.3218
 7463SOL     OW33847   3.427   2.019   7.718 -0.7220 -0.5431 -0.2963
 7463SOL    HW133848   3.449   2.106   7.753 -1.5223 -0.7372  0.6762
 7463SOL    HW233849   3.494   1.967   7.763 -0.6854  0.1053  0.3995
 7464SOL     OW33850   0.457   0.007   2.185  0.5853  0.1539  0.4607
 7464SOL    HW133851   0.394   4.718   2.256  0.7913  0.9476  0.7626
 7464SOL    HW233852   0.422   0.079   2.134 -0.4838  0.1221  1.1459
 7465SOL     OW33853   2.570   0.011   7.383 -0.3827  0.3364 -0.0152
 7465SOL    HW133854   2.542   4.662   7.323  0.2850  0.7885 -0.8603
 7465SOL    HW233855   2.490   0.063   7.386 -1.3767 -1.2354  0.8440
 7466SOL     OW33856   4.650   2.854  17.470 -0.1572 -0.1738  0.3101
 7466SOL    HW133857   4.648   2.949  17.460  2.7312 -0.0666  0.5988
 7466SOL    HW233858   4.653   2.855  17.565  1.1837  1.2651  0.2578
 7467SOL     OW33859   0.682   2.931   2.576 -0.1290 -0.3087  0.4997
 7467SOL    HW133860   0.710   2.852   2.530 -0.7648  0.7830 -1.7757
 7467SOL    HW233861   0.725   2.996   2.519 -3.2005  1.3661  0.0817
 7468SOL     OW33862   2.309   1.571   0.638 -0.6090  0.4730 -0.6971
 7468SOL    HW133863   2.335   1.658   0.607  1.4630  0.1284  0.0524
 7468SOL    HW233864   2.343   1.567   0.728  0.8904  1.4471 -1.2213
 7469SOL     OW33865   1.718   4.110  15.449  0.5229 -0.4843  0.3500
 7469SOL    HW133866   1.725   4.189  15.502  1.1264 -0.5131  0.3131
 7469SOL    HW233867   1.632   4.077  15.473  0.7349 -1.1056  0.2601
 7470SOL     OW33868   0.851   0.593  12.377 -0.1291  0.0624  0.2204
 7470SOL    HW133869   0.777   0.633  12.423  1.0173  4.1610 -1.5235
 7470SOL    HW233870   0.890   0.669  12.335  0.5498  0.6466  1.9196
 7471SOL     OW33871   1.380   2.243   8.928  0.4338 -0.0709  0.5436
 7471SOL    HW133872   1.292   2.220   8.955  0.4591  0.0026  0.6874
 7471SOL    HW233873   1.398   2.168   8.871 -0.3381  0.4831 -0.4319
 7472SOL     OW33874   4.438   2.528   3.644  0.1582  0.1786 -0.1402
 7472SOL    HW133875   4.510   2.466   3.657 -0.1529 -0.1452  0.0545
 7472SOL    HW233876   4.371   2.485   3.592  0.1037  1.1995 -0.9112
 7473SOL     OW33877   1.317   1.353   1.033  0.1106 -0.2819 -0.6092
 7473SOL    HW133878   1.242   1.357   1.092  0.9344  1.5977  0.2896
 7473SOL    HW233879   1.293   1.412   0.962  1.8225 -1.4121 -2.1441
 7474SOL     OW33880   1.115   1.559   2.372 -0.3340 -0.1252  0.3672
 7474SOL    HW133881   1.140   1.644   2.408  1.1819 -0.0663 -0.8619
 7474SOL    HW233882   1.022   1.550   2.394 -0.6834  1.4469 -0.5068
 7475SOL     OW33883   2.983   4.614   4.129 -0.2027 -0.1805 -0.3340
 7475SOL    HW133884   2.926   4.676   4.175 -0.8109 -1.3146  0.4530
 7475SOL    HW233885   2.933   4.608   4.047 -0.9727  0.1950  0.1012
 7476SOL     OW33886   3.380   2.733  16.941 -0.1345  0.0230  0.1210
 7476SOL    HW133887   3.378   2.651  16.892  0.0687  1.2380 -1.9341
 7476SOL    HW233888   3.416   2.790  16.872  0.6225  0.0748  0.5594
 7477SOL     OW33889   1.516   0.584   1.895  0.2188  0.2866  0.8983
 7477SOL    HW133890   1.557   0.527   1.831 -0.3011  0.1798  0.6567
 7477SOL    HW233891   1.561   0.553   1.973  1.7992 -0.5203 -0.3336
 7478SOL     OW33892   2.417   1.764   2.555 -0.6629  0.2741  0.2718
 7478SOL    HW133893   2.347   1.703   2.531  0.1615 -0.6687  0.2718
 7478SOL    HW233894   2.413   1.810   2.471 -1.5774  2.3515  1.4514
 7479SOL     OW33895   1.085   3.003   6.217  0.1887  0.5931  0.2558
 7479SOL    HW133896   1.179   2.999   6.200 -0.1891  0.1684 -1.7732
 7479SOL    HW233897   1.060   2.910   6.210 -0.9224  0.9555 -0.6668
 7480SOL     OW33898   1.991   3.273   4.716 -0.3446  0.2490 -0.4141
 7480SOL    HW133899   1.996   3.208   4.786  0.1334  1.1297  0.3646
 7480SOL    HW233900   2.084   3.293   4.700 -0.3415 -0.5443 -1.4129
 7481SOL     OW33901   2.898   2.818   2.414 -0.2884 -0.5329 -0.7016
 7481SOL    HW133902   2.873   2.775   2.333  0.4223 -0.4653 -0.9516
 7481SOL    HW233903   2.852   2.902   2.405 -0.0951 -0.1373  1.9952
 7482SOL     OW33904   3.829   4.580   1.142 -0.1804 -0.4090 -0.2041
 7482SOL    HW133905   3.788   4.535   1.068 -0.7594  0.2256 -0.2692
 7482SOL    HW233906   3.846   4.502   1.194 -0.1319  0.9747  1.8449
 7483SOL     OW33907   0.480   3.488  15.671 -0.1591 -0.0032 -0.0781
 7483SOL    HW133908   0.423   3.478  15.747 -0.8777 -0.9706 -0.7405
 7483SOL    HW233909   0.566   3.481  15.711 -0.8670 -0.6914  1.3146
 7484SOL     OW33910   0.140   0.458   2.073 -0.0614  0.3539  0.4324
 7484SOL    HW133911   0.070   0.434   2.011  1.5673  2.4791 -2.2153
 7484SOL    HW233912   0.117   0.550   2.085  0.3670  0.4093  0.8079
 7485SOL     OW33913   2.278   2.645   4.960 -0.3675  0.6556  0.0799
 7485SOL    HW133914   2.288   2.582   4.889  1.8845  0.9959  0.1095
 7485SOL    HW233915   2.224   2.595   5.022 -0.3134 -0.9669 -1.1970
 7486SOL     OW33916   0.243   1.612   5.383 -0.1492 -0.0520 -0.2580
 7486SOL    HW133917   0.301   1.536   5.383  1.0804  0.8805 -1.0729
 7486SOL    HW233918   0.268   1.653   5.300  1.5272  0.1060  0.3209
 7487SOL     OW33919   2.684   0.444   2.901  0.3773 -0.4859  0.1263
 7487SOL    HW133920   2.726   0.370   2.857  1.2749  1.5885 -2.4988
 7487SOL    HW233921   2.660   0.405   2.984 -1.1548  3.5564  1.5962
 7488SOL     OW33922   2.221   1.478  12.306  0.0643 -0.0820  0.0674
 7488SOL    HW133923   2.219   1.573  12.313  2.6482  0.1010 -1.9868
 7488SOL    HW233924   2.239   1.459  12.398 -0.6699 -1.0203  0.0214
 7489SOL     OW33925   0.618   3.616   8.346 -0.7514 -0.1857  0.2816
 7489SOL    HW133926   0.565   3.654   8.276 -1.2001  0.5068  0.9984
 7489SOL    HW233927   0.611   3.682   8.415  1.3402 -0.1040  0.4099
 7490SOL     OW33928   2.985   1.983  11.541 -0.4175 -0.1636  0.0288
 7490SOL    HW133929   3.035   2.057  11.575  2.1144 -2.0833  0.4895
 7490SOL    HW233930   2.896   2.013  11.560 -0.6649 -2.0320  1.7835
 7491SOL     OW33931   2.207   1.005   1.686  0.5780 -0.2303 -0.0569
 7491SOL    HW133932   2.123   1.049   1.701  0.8283  0.1237  0.2896
 7491SOL    HW233933   2.197   0.980   1.594 -0.0456  2.3270 -0.6887
 7492SOL     OW33934   4.170   2.909   7.116 -0.3340 -0.3845 -0.9376
 7492SOL    HW133935   4.091   2.867   7.149 -2.0436  1.8684 -2.1951
 7492SOL    HW233936   4.164   2.986   7.173 -1.1255 -0.7972 -0.4680
 7493SOL     OW33937   3.058   2.386   9.481  0.0267  0.2146 -0.6759
 7493SOL    HW133938   3.134   2.365   9.535 -0.1619 -1.4667 -1.0771
 7493SOL    HW233939   3.079   2.339   9.400  0.4821  1.9033 -1.5447
 7494SOL     OW33940   3.251   2.325   7.609 -0.4514  0.3942  0.3460
 7494SOL    HW133941   3.162   2.358   7.623  0.0117  1.7943 -0.0677
 7494SOL    HW233942   3.232   2.233   7.589  0.6022  0.2140  0.1922
 7495SOL     OW33943   2.752   3.482  14.415  0.0353 -0.0605  0.3210
 7495SOL    HW133944   2.777   3.394  14.387  2.9125  0.7549  0.2733
 7495SOL    HW233945   2.679   3.504  14.358 -0.7162  1.0711  1.7261
 7496SOL     OW33946   1.770   1.765   3.313 -0.5516 -0.1071 -0.0837
 7496SOL    HW133947   1.848   1.753   3.259 -1.2248 -1.6352 -0.7265
 7496SOL    HW233948   1.786   1.706   3.387 -2.1245  1.1708  1.2631
 7497SOL     OW33949   1.208   0.174   7.066 -0.0105  0.3955  0.4734
 7497SOL    HW133950   1.161   0.096   7.095 -0.0710  0.1670 -0.2514
 7497SOL    HW233951   1.210   0.151   6.974  2.2277 -1.8279  1.0888
 7498SOL     OW33952   3.184   1.913   3.803 -0.1973  0.0045  0.0578
 7498SOL    HW133953   3.189   1.946   3.893 -2.1379 -0.5641  0.3677
 7498SOL    HW233954   3.138   1.981   3.754 -1.9816 -1.5761 -0.4829
 7499SOL     OW33955   1.831   2.302   5.122 -0.5189 -0.3973  0.4455
 7499SOL    HW133956   1.803   2.253   5.045  1.1313 -1.0942  0.2701
 7499SOL    HW233957   1.770   2.375   5.114  0.5422  0.5846  1.3119
 7500SOL     OW33958   0.440   1.838   4.640  0.1406 -0.1503 -0.5549
 7500SOL    HW133959   0.390   1.767   4.601 -0.5982 -0.2371  0.5694
 7500SOL    HW233960   0.475   1.886   4.564  0.5260 -0.8930 -0.8533
 7501SOL     OW33961   3.157   1.381   7.914  0.4501  0.9692  0.0579
 7501SOL    HW133962   3.188   1.469   7.934 -1.2419  1.7498 -0.7627
 7501SOL    HW233963   3.077   1.373   7.967  0.7773 -1.6304  0.1652
 7502SOL     OW33964   3.596   0.865   7.760  0.2484 -0.3060 -0.0642
 7502SOL    HW133965   3.545   0.796   7.717 -1.9257  2.2348 -1.5521
 7502SOL    HW233966   3.666   0.813   7.799 -1.2785 -1.3456  1.2556
 7503SOL     OW33967   2.331   4.286   2.490 -0.9259 -0.1609 -0.3608
 7503SOL    HW133968   2.413   4.335   2.491 -0.8701 -0.2009 -2.3185
 7503SOL    HW233969   2.310   4.272   2.582  0.1784  1.1934  0.0971
 7504SOL     OW33970   0.861   2.099  10.075 -0.0893  0.3276  1.1765
 7504SOL    HW133971   0.942   2.065  10.035 -2.3155 -0.8157 -2.3697
 7504SOL    HW233972   0.803   2.033  10.037 -0.4175  0.3834  1.5852
 7505SOL     OW33973   3.575   1.447   2.001 -0.5208  0.1785  0.1878
 7505SOL    HW133974   3.514   1.374   1.995  0.9129 -1.1690  2.0905
 7505SOL    HW233975   3.610   1.430   1.913  1.5801 -1.7013  1.3828
 7506SOL     OW33976   3.367   0.493   9.157 -0.0846  0.1855 -0.6498
 7506SOL    HW133977   3.409   0.413   9.187  0.2149  1.0044  1.1178
 7506SOL    HW233978   3.415   0.559   9.207  0.9636  0.4941 -2.0779
 7507SOL     OW33979   3.153   2.526  15.298 -0.3829 -0.6605 -0.2636
 7507SOL    HW133980   3.064   2.495  15.318 -1.0501  0.4196 -1.5502
 7507SOL    HW233981   3.148   2.619  15.317  0.9629 -0.1278 -2.5502
 7508SOL     OW33982   1.765   2.963   5.458 -0.1310 -0.1112  0.1575
 7508SOL    HW133983   1.829   2.956   5.386 -0.9577 -1.7348 -0.4266
 7508SOL    HW233984   1.813   2.922   5.530 -0.8898 -1.6029 -0.1956
 7509SOL     OW33985   0.588   2.602  17.368  0.1459 -0.4734 -0.3049
 7509SOL    HW133986   0.595   2.697  17.374  4.0197 -0.6459 -1.9052
 7509SOL    HW233987   0.661   2.583  17.428  0.5945  0.9229 -0.3970
 7510SOL     OW33988   4.545   2.117  13.690 -0.3367  0.7255 -0.2425
 7510SOL    HW133989   4.611   2.126  13.759  0.7537 -0.2498 -1.1371
 7510SOL    HW233990   4.490   2.193  13.706  0.7200  1.9609 -2.5036
 7511SOL     OW33991   1.078   2.880  14.116  0.4536  0.9638  0.1088
 7511SOL    HW133992   1.148   2.945  14.122  1.1897  0.1861 -0.1092
 7511SOL    HW233993   1.087   2.834  14.200  4.0384 -2.1828 -2.0450
 7512SOL     OW33994   4.322   4.706   4.271  0.8255 -0.4405 -0.4187
 7512SOL    HW133995   4.363   4.659   4.343 -1.0999 -0.2565  0.8136
 7512SOL    HW233996   4.233   0.009   4.299  0.4821 -0.6515 -1.3092
 7513SOL     OW33997   0.034   1.512   8.232 -0.3058 -0.5648  0.4605
 7513SOL    HW133998   0.004   1.459   8.159 -0.4286  0.8745 -0.5325
 7513SOL    HW233999   4.673   1.506   8.280  0.1926  4.4913  2.0004
 7514SOL     OW34000   3.314   3.445   7.621 -0.9660  0.2183 -0.0018
 7514SOL    HW134001   3.312   3.362   7.573  3.8416  0.9754 -1.4787
 7514SOL    HW234002   3.340   3.405   7.704  0.5392 -1.6019 -1.3403
 7515SOL     OW34003   1.857   4.450  11.066  0.3427  0.2714 -0.4440
 7515SOL    HW134004   1.762   4.464  11.066  0.0821 -1.4200 -0.7526
 7515SOL    HW234005   1.863   4.372  11.010  0.3221 -0.6715  0.8592
 7516SOL     OW34006   1.952   1.018   6.278 -0.0467  0.0083 -0.5345
 7516SOL    HW134007   1.997   1.103   6.274 -2.6779  1.5038  1.8818
 7516SOL    HW234008   2.028   0.963   6.298 -0.2309 -0.6193 -1.5206
 7517SOL     OW34009   0.262   4.240  10.380 -0.4732  0.1652  0.0081
 7517SOL    HW134010   0.205   4.232  10.303  0.6210 -0.5720 -0.7322
 7517SOL    HW234011   0.330   4.293  10.338  0.7131  1.5098  3.6926
 7518SOL     OW34012   3.157   1.902  16.707  0.0378  0.1438 -0.6785
 7518SOL    HW134013   3.117   1.985  16.733 -0.6210  0.2484 -2.0648
 7518SOL    HW234014   3.093   1.831  16.706 -0.2292  0.3512  1.4408
 7519SOL     OW34015   2.461   4.686   5.492 -0.0083 -0.5313 -0.0010
 7519SOL    HW134016   2.432   4.637   5.569 -0.1657  1.7499  1.3901
 7519SOL    HW234017   2.545   4.717   5.526 -1.2257 -0.5728  3.0254
 7520SOL     OW34018   3.326   3.950  12.709 -0.1497  0.0151  0.4750
 7520SOL    HW134019   3.352   3.897  12.784  1.5313 -0.8016 -0.6879
 7520SOL    HW234020   3.301   4.032  12.753 -2.1349 -1.8423  2.7950
 7521SOL     OW34021   4.169   1.124   8.262 -0.2484 -0.3611  0.2815
 7521SOL    HW134022   4.198   1.064   8.330  0.1796 -2.1953 -1.5195
 7521SOL    HW234023   4.092   1.168   8.300  0.1954  0.9659 -0.3734
 7522SOL     OW34024   2.651   4.170  15.386  0.4371 -0.2260  0.2443
 7522SOL    HW134025   2.671   4.256  15.349  1.2117 -0.0561  1.0532
 7522SOL    HW234026   2.583   4.145  15.323  1.5286  0.7474 -1.3342
 7523SOL     OW34027   2.727   2.489   3.333 -0.1229  0.5465 -0.0663
 7523SOL    HW134028   2.685   2.500   3.419  0.6831  0.5260  0.3332
 7523SOL    HW234029   2.817   2.516   3.353 -0.2117 -1.1940  2.6308
 7524SOL     OW34030   3.751   4.542  16.698 -0.0342 -0.2072 -0.2136
 7524SOL    HW134031   3.780   4.462  16.742 -0.0970  0.7830  1.6417
 7524SOL    HW234032   3.667   4.555  16.742 -0.6347 -1.1262 -1.1173
 7525SOL     OW34033   3.632   3.389  13.918  0.1345  0.2089  0.0885
 7525SOL    HW134034   3.599   3.468  13.877 -1.0773 -1.0982 -1.4495
 7525SOL    HW234035   3.580   3.386  13.998  0.3797  4.5920  0.4048
 7526SOL     OW34036   2.649   1.848   6.044 -0.2882  0.1438 -0.2292
 7526SOL    HW134037   2.613   1.759   6.038  0.3958 -0.0913 -0.7778
 7526SOL    HW234038   2.589   1.908   6.000  2.4663  2.6402 -0.5666
 7527SOL     OW34039   3.819   1.004   4.127 -0.2491 -0.1293  0.2508
 7527SOL    HW134040   3.803   1.085   4.078  0.0510  0.1961  0.6924
 7527SOL    HW234041   3.779   1.030   4.210 -0.7989 -0.1723 -0.0018
 7528SOL     OW34042   3.825   1.250  10.424 -0.8533 -0.2160  0.2149
 7528SOL    HW134043   3.856   1.271  10.512 -2.0795  1.7879  0.1686
 7528SOL    HW234044   3.805   1.160  10.449  0.3116 -0.8650 -1.1822
 7529SOL     OW34045   1.281   2.867   2.211  0.7739 -0.3731  0.5813
 7529SOL    HW134046   1.196   2.853   2.253 -0.6730  0.3729 -2.0860
 7529SOL    HW234047   1.269   2.943   2.154  0.1024  0.1520  1.4250
 7530SOL     OW34048   1.178   3.109   1.742  0.4214  0.3251 -0.1019
 7530SOL    HW134049   1.228   3.066   1.811  0.6263  1.6378  0.5536
 7530SOL    HW234050   1.086   3.085   1.748  0.5086  0.6107  2.3382
 7531SOL     OW34051   4.619   0.537   5.402 -0.2713 -0.8177 -0.6941
 7531SOL    HW134052   4.616   0.463   5.341 -1.4809 -3.8264  2.9921
 7531SOL    HW234053   4.593   0.614   5.352 -2.2834 -0.9011  0.2155
 7532SOL     OW34054   1.335   4.253  12.623 -0.2381 -0.4122 -0.1845
 7532SOL    HW134055   1.315   4.272  12.531 -2.4360  0.3661  0.4544
 7532SOL    HW234056   1.347   4.341  12.657  0.5999 -0.7115  0.3075
 7533SOL     OW34057   1.420   1.821  14.067 -0.4990  0.7028  0.0803
 7533SOL    HW134058   1.508   1.783  14.073 -0.8006 -0.6203 -3.8855
 7533SOL    HW234059   1.424   1.873  13.987  2.5791  0.4297  0.0429
 7534SOL     OW34060   2.555   2.790   7.845  0.0850 -0.5072  0.0670
 7534SOL    HW134061   2.641   2.779   7.805  0.3639  0.5900  0.3698
 7534SOL    HW234062   2.506   2.827   7.772 -1.2217  0.6074  1.5070
 7535SOL     OW34063   0.463   2.856   8.985  0.2750  0.1128 -0.2041
 7535SOL    HW134064   0.419   2.933   8.949  0.4890 -1.2725 -3.4961
 7535SOL    HW234065   0.552   2.869   8.950  1.0827 -1.4261  1.3070
 7536SOL     OW34066   1.085   0.731  13.005 -0.1575 -0.5504 -0.1283
 7536SOL    HW134067   1.165   0.717  13.055 -0.0361 -1.7712 -0.6658
 7536SOL    HW234068   1.020   0.703  13.070 -1.4063  3.4496  0.3468
 7537SOL     OW34069   4.090   4.211   5.687 -0.0718 -0.1371  0.3822
 7537SOL    HW134070   4.019   4.147   5.695  0.8256 -1.1799 -0.1603
 7537SOL    HW234071   4.147   4.175   5.755  0.7212  1.1752  0.4068
 7538SOL     OW34072   0.053   0.575   4.607 -0.5699  0.3079 -0.0770
 7538SOL    HW134073   0.089   0.594   4.521  2.2176 -0.1702  0.9900
 7538SOL    HW234074   0.098   0.635   4.666 -0.2406  0.5365 -0.5669
 7539SOL     OW34075   0.938   4.173   5.052 -0.2116  0.5997  0.1911
 7539SOL    HW134076   1.000   4.245   5.056 -0.2236  0.6369 -0.2796
 7539SOL    HW234077   0.905   4.174   4.962 -1.5622 -2.4025  0.6737
 7540SOL     OW34078   3.781   1.372  15.289 -0.1009  0.0389  0.1129
 7540SOL    HW134079   3.730   1.429  15.231 -1.5603  0.3214  1.6563
 7540SOL    HW234080   3.828   1.444  15.331 -0.5059  1.1086 -1.2922
 7541SOL     OW34081   0.409   1.471   6.614 -0.1710 -0.2592  0.5437
 7541SOL    HW134082   0.400   1.406   6.544  3.5508  0.7227 -0.8413
 7541SOL    HW234083   0.475   1.435   6.672 -1.3511 -1.5697  1.0724
 7542SOL     OW34084   1.780   0.667   1.187  0.1651  0.0424 -0.2982
 7542SOL    HW134085   1.758   0.733   1.252 -0.7605  1.1638 -1.7606
 7542SOL    HW234086   1.702   0.655   1.134  0.7952 -1.9666 -0.7694
 7543SOL     OW34087   4.270   0.585   8.733 -0.2764 -0.1792  0.2347
 7543SOL    HW134088   4.246   0.519   8.668  0.6644  1.3270 -1.6539
 7543SOL    HW234089   4.264   0.666   8.682  0.0925  0.6827  1.5531
 7544SOL     OW34090   2.845   3.019   6.769 -0.0342  0.3879  0.2615
 7544SOL    HW134091   2.853   3.006   6.675  1.4415 -0.2929  0.4923
 7544SOL    HW234092   2.758   2.980   6.777  0.3780 -0.0951  2.5702
 7545SOL     OW34093   0.659   4.390   4.470  0.2421 -0.0072 -0.7234
 7545SOL    HW134094   0.582   4.422   4.516  1.2998  2.6922 -0.8360
 7545SOL    HW234095   0.734   4.428   4.515 -0.2724  0.2494 -0.0893
 7546SOL     OW34096   2.744   2.298   8.357 -0.4350 -0.1784  0.3164
 7546SOL    HW134097   2.714   2.223   8.408 -0.8017 -0.4498 -0.3018
 7546SOL    HW234098   2.840   2.293   8.359 -0.3757  0.8314  0.3960
 7547SOL     OW34099   2.579   0.074   8.430  0.4805  0.1330  0.4186
 7547SOL    HW134100   2.563   0.061   8.337  0.3777  0.0704  0.4451
 7547SOL    HW234101   2.555   0.166   8.437  0.5282  0.0554  1.6227
 7548SOL     OW34102   3.654   2.348   0.130 -0.7405  0.3036  0.0148
 7548SOL    HW134103   3.708   2.282   0.173 -1.6599 -0.6364 -0.2680
 7548SOL    HW234104   3.564   2.320   0.150 -0.9817 -0.0832 -1.6347
 7549SOL     OW34105   2.363   2.351  13.805  0.6187  0.2461  0.0746
 7549SOL    HW134106   2.394   2.262  13.791 -1.7440 -0.7167  0.8858
 7549SOL    HW234107   2.309   2.335  13.882 -2.3842  0.9946 -1.8462
 7550SOL     OW34108   3.135   1.380  14.904  0.2310 -0.4634  0.3183
 7550SOL    HW134109   3.190   1.353  14.830 -0.1291  0.5938 -0.3332
 7550SOL    HW234110   3.185   1.453  14.938  2.6450 -1.4067 -1.2062
 7551SOL     OW34111   2.880   1.806   5.588  0.4702  0.4701  0.6427
 7551SOL    HW134112   2.946   1.737   5.581  0.7031  0.6209  1.2647
 7551SOL    HW234113   2.848   1.801   5.678 -1.4344  0.8243 -0.0220
 7552SOL     OW34114   2.768   3.315  11.627 -0.4548  0.0543  0.2643
 7552SOL    HW134115   2.859   3.339  11.611 -0.4879  0.1111  0.1642
 7552SOL    HW234116   2.756   3.230  11.584 -0.7926  0.6065 -0.7204
 7553SOL     OW34117   4.389   0.381   7.608 -0.1808 -0.3154  0.2764
 7553SOL    HW134118   4.478   0.410   7.589 -0.1449  0.3946  1.5581
 7553SOL    HW234119   4.372   0.311   7.545  0.1217  0.5548 -0.7703
 7554SOL     OW34120   3.208   3.900   2.707 -0.5211  0.1840  0.3839
 7554SOL    HW134121   3.142   3.856   2.654  1.5227 -2.1220 -0.2562
 7554SOL    HW234122   3.187   3.863   2.793 -0.6080  2.7572  1.4941
 7555SOL     OW34123   0.977   1.149  16.350  0.0458 -0.6281 -0.0690
 7555SOL    HW134124   1.029   1.224  16.322 -0.0237  0.0573  1.6493
 7555SOL    HW234125   1.031   1.114  16.421  0.4498 -2.9787 -1.5364
 7556SOL     OW34126   1.560   3.827   4.388  0.1937 -0.0760  0.0956
 7556SOL    HW134127   1.629   3.874   4.435  0.0510 -0.3208  0.5415
 7556SOL    HW234128   1.509   3.796   4.463  0.5184  3.0788  1.6298
 7557SOL     OW34129   1.434   1.920   8.502  0.2945 -0.0365  0.2733
 7557SOL    HW134130   1.479   1.970   8.434 -1.5522 -0.4976 -1.3077
 7557SOL    HW234131   1.344   1.912   8.469  0.2748 -0.4189  0.4201
 7558SOL     OW34132   4.049   2.935   5.214 -0.3652  0.2692  0.2597
 7558SOL    HW134133   4.028   3.009   5.271 -0.5718  1.3742 -1.2403
 7558SOL    HW234134   4.127   2.904   5.259  0.4308  0.0814 -1.2669
 7559SOL     OW34135   2.604   3.004  14.683  0.0635  0.6896  0.3837
 7559SOL    HW134136   2.527   3.020  14.737 -0.3644  1.2546 -0.4027
 7559SOL    HW234137   2.656   2.936  14.727  1.1907  1.5221  0.3526
 7560SOL     OW34138   2.148   3.560   3.385 -0.1321 -0.3431  0.0192
 7560SOL    HW134139   2.233   3.517   3.392  0.2301  0.2435 -0.7308
 7560SOL    HW234140   2.097   3.491   3.345  0.2145 -0.4189 -0.2966
 7561SOL     OW34141   0.495   1.310   8.840  0.1876  0.2666  0.1729
 7561SOL    HW134142   0.496   1.246   8.911 -1.9961 -0.4395 -0.4125
 7561SOL    HW234143   0.588   1.332   8.833  0.2214  0.3028  0.7723
 7562SOL     OW34144   3.578   0.597   2.498 -0.0099  0.0346  0.2138
 7562SOL    HW134145   3.603   0.683   2.531 -1.6704  0.4353  0.4292
 7562SOL    HW234146   3.642   0.584   2.428  0.6576 -1.5156  1.1100
 7563SOL     OW34147   1.068   2.728   3.831  0.3931 -0.1651  0.3611
 7563SOL    HW134148   1.149   2.756   3.788 -0.0194 -1.9293 -1.5501
 7563SOL    HW234149   1.032   2.683   3.755  1.5566 -1.5497  0.6429
 7564SOL     OW34150   1.432   0.409   6.216 -0.2670  0.5780  0.1496
 7564SOL    HW134151   1.354   0.410   6.161 -0.4104  1.4426  0.3708
 7564SOL    HW234152   1.471   0.489   6.181  1.6756 -0.9024 -1.0575
 7565SOL     OW34153   0.988   3.536   0.628 -0.0204  0.5659 -0.4745
 7565SOL    HW134154   1.011   3.529   0.535 -0.5036 -2.5672 -0.3539
 7565SOL    HW234155   1.078   3.545   0.661 -0.6297 -2.2782  1.9927
 7566SOL     OW34156   0.930   4.568  14.276 -0.0927 -0.0647 -0.4494
 7566SOL    HW134157   0.837   4.565  14.299  0.0352  0.8397  0.1884
 7566SOL    HW234158   0.961   4.655  14.301  0.1966 -0.3649  0.2216
 7567SOL     OW34159   0.346   4.294   6.601  0.1506  0.6332 -0.4339
 7567SOL    HW134160   0.335   4.203   6.631  1.4778  0.3288 -0.8718
 7567SOL    HW234161   0.411   4.313   6.669 -0.5921 -0.2493  0.5266
 7568SOL     OW34162   3.549   1.392   3.862 -0.3279  0.1251  0.5207
 7568SOL    HW134163   3.480   1.459   3.861  0.6826  1.1807  1.9635
 7568SOL    HW234164   3.502   1.316   3.828 -0.5210  0.0158  1.0315
 7569SOL     OW34165   0.673   2.863  17.175 -0.3797 -0.4231  0.1311
 7569SOL    HW134166   0.655   2.772  17.154 -1.3609 -0.5563  1.5316
 7569SOL    HW234167   0.671   2.867  17.271 -0.6796  0.0127  0.1094
 7570SOL     OW34168   0.356   1.645  11.854  0.8705 -0.8736 -0.1116
 7570SOL    HW134169   0.378   1.567  11.904 -0.6388 -1.1511  0.1325
 7570SOL    HW234170   0.383   1.620  11.766 -0.2806 -0.7555 -0.5051
 7571SOL     OW34171   0.646   2.880   3.311  0.9290 -0.1847  0.0675
 7571SOL    HW134172   0.727   2.931   3.308  1.9325 -1.5756  3.1828
 7571SOL    HW234173   0.640   2.857   3.218 -0.9687  0.6787 -0.0263
 7572SOL     OW34174   1.156   3.649  16.599 -0.3817 -0.0023 -0.2758
 7572SOL    HW134175   1.181   3.729  16.644  5.7262 -0.7408 -2.2820
 7572SOL    HW234176   1.078   3.667  16.548  0.1874  0.5617 -0.9319
 7573SOL     OW34177   3.680   3.635   5.202  0.9415 -0.0546  0.8853
 7573SOL    HW134178   3.700   3.640   5.108 -0.0416 -0.0745  0.6686
 7573SOL    HW234179   3.588   3.610   5.193  1.3739 -1.4941  0.3234
 7574SOL     OW34180   2.122   2.988   7.716 -0.2277  0.1348  0.0121
 7574SOL    HW134181   2.028   2.972   7.703 -0.2792  0.1433  0.3569
 7574SOL    HW234182   2.169   2.930   7.657 -1.4039  0.3133 -1.0959
 7575SOL     OW34183   1.083   1.692  10.916  0.8591  0.3111 -0.4277
 7575SOL    HW134184   1.178   1.695  10.925  0.7609  0.4709  0.6366
 7575SOL    HW234185   1.053   1.774  10.956 -0.5121 -0.7010  0.6359
 7576SOL     OW34186   4.253   4.625   3.241  0.3857  0.0440 -0.0090
 7576SOL    HW134187   4.266   4.538   3.279  2.4593  1.7299  3.1774
 7576SOL    HW234188   4.168   4.603   3.203  0.8368 -1.8785  0.1258
 7577SOL     OW34189   4.184   3.144   1.025 -0.7069 -0.0741 -0.6083
 7577SOL    HW134190   4.220   3.196   0.953 -1.0493 -0.8516 -1.3398
 7577SOL    HW234191   4.206   3.058   0.989  0.1759  0.1728 -0.6622
 7578SOL     OW34192   2.536   2.837  17.094 -0.4228 -0.5665 -0.4418
 7578SOL    HW134193   2.514   2.929  17.080 -0.1502 -0.3452  0.5892
 7578SOL    HW234194   2.629   2.835  17.116 -0.8682 -1.1737  1.4647
 7579SOL     OW34195   1.218   0.055   5.721 -0.4832  0.4110 -1.0573
 7579SOL    HW134196   1.305   0.014   5.722 -0.2450  0.9164 -1.0780
 7579SOL    HW234197   1.219   0.078   5.628  0.1971 -0.6632 -1.3119
 7580SOL     OW34198   0.206   1.113   3.379 -0.3203 -0.2111 -0.0851
 7580SOL    HW134199   0.287   1.158   3.405 -0.0658 -1.1032  0.6870
 7580SOL    HW234200   0.196   1.039   3.439 -2.0645 -1.2352 -1.6453
 7581SOL     OW34201   4.500   4.215   6.117  0.2215 -0.3775  0.4384
 7581SOL    HW134202   4.521   4.137   6.065  2.2895  1.6067 -1.6962
 7581SOL    HW234203   4.580   4.222   6.168 -0.5864  0.2542  1.6089
 7582SOL     OW34204   0.236   0.866   3.491 -0.1781  0.0210  0.0276
 7582SOL    HW134205   0.242   0.797   3.425  0.9745  2.2269 -2.1175
 7582SOL    HW234206   0.239   0.815   3.573  0.6172  0.3923  0.2193
 7583SOL     OW34207   3.911   1.952  16.975 -0.0966  0.2861  0.1942
 7583SOL    HW134208   3.966   1.958  17.054 -0.6201 -0.5944  0.6288
 7583SOL    HW234209   3.885   2.044  16.976  0.6354  0.5011 -1.0655
 7584SOL     OW34210   4.024   2.641  16.542 -0.3080  0.1791 -0.6600
 7584SOL    HW134211   4.007   2.570  16.604  1.0058 -0.4010 -0.9730
 7584SOL    HW234212   4.069   2.596  16.471  0.8982 -0.1240  0.2911
 7585SOL     OW34213   4.649   2.302   6.256  0.8214 -0.0456 -0.1429
 7585SOL    HW134214   4.644   2.337   6.345  2.6762  1.6273 -0.7055
 7585SOL    HW234215   4.648   2.385   6.208  0.0034  0.1873  0.2744
 7586SOL     OW34216   3.837   4.018   2.934 -0.1132  0.1574 -0.6273
 7586SOL    HW134217   3.889   4.093   2.907 -0.9436  0.4692 -1.3430
 7586SOL    HW234218   3.778   4.054   3.000 -0.4281 -0.7448 -0.4108
 7587SOL     OW34219   1.581   2.598  12.447  0.0722  0.0871 -0.3665
 7587SOL    HW134220   1.648   2.621  12.383  1.4706  0.5586  1.2696
 7587SOL    HW234221   1.641   2.612  12.520 -2.3046  1.0419  1.3925
 7588SOL     OW34222   3.472   0.982   5.561 -0.1401  0.4019 -0.0905
 7588SOL    HW134223   3.555   0.935   5.563  0.6917  1.9897  2.4664
 7588SOL    HW234224   3.472   1.006   5.653 -0.8235  1.4657 -0.3663
 7589SOL     OW34225   2.606   1.680   5.016 -0.0306  0.2777  0.1876
 7589SOL    HW134226   2.631   1.645   4.931  0.8141  1.8189 -0.2084
 7589SOL    HW234227   2.513   1.701   5.006 -0.2545 -0.7896  0.0429
 7590SOL     OW34228   3.628   0.300   1.452  0.2354  0.1769 -0.2054
 7590SOL    HW134229   3.550   0.355   1.463 -0.0166 -0.5128  1.3943
 7590SOL    HW234230   3.686   0.366   1.413 -1.5733  0.6208 -2.1195
 7591SOL     OW34231   2.066   2.170  10.418  0.5975 -0.1102  0.2678
 7591SOL    HW134232   2.066   2.198  10.327  1.1902 -0.1747  0.2440
 7591SOL    HW234233   2.137   2.106  10.423  1.4383  0.5831 -2.8022
 7592SOL     OW34234   1.505   3.117   4.678  0.2580 -0.2021 -0.4092
 7592SOL    HW134235   1.519   3.153   4.766  0.9922 -0.8310 -0.2705
 7592SOL    HW234236   1.410   3.121   4.679  0.1910 -2.2419  1.4242
 7593SOL     OW34237   2.227   3.715   1.114 -0.3361  0.6640 -0.0208
 7593SOL    HW134238   2.224   3.752   1.026  0.5313  0.9196  0.0612
 7593SOL    HW234239   2.281   3.638   1.097 -2.2031 -0.4613 -0.8719
 7594SOL     OW34240   1.573   0.088   0.813 -0.3997 -0.5471  0.0985
 7594SOL    HW134241   1.634   0.053   0.748 -1.7613  2.4390 -2.7693
 7594SOL    HW234242   1.612   0.164   0.855 -0.1162  1.2264 -3.3885
 7595SOL     OW34243   1.870   3.622   6.501  0.2887  0.5822 -0.2579
 7595SOL    HW134244   1.951   3.585   6.468 -1.8380 -1.5353 -3.0484
 7595SOL    HW234245   1.800   3.575   6.455 -1.3710  3.0318 -0.2668
 7596SOL     OW34246   1.260   1.732  12.889  0.3869  0.0582  0.0070
 7596SOL    HW134247   1.262   1.809  12.945  0.6114 -1.3551  1.9285
 7596SOL    HW234248   1.180   1.687  12.915  0.0767  1.1114  0.8819
 7597SOL     OW34249   0.377   1.872   5.917 -0.0824 -0.4159  0.4836
 7597SOL    HW134250   0.416   1.863   5.830  0.4098  0.7189  0.5961
 7597SOL    HW234251   0.289   1.888   5.882  0.2248  1.5801  0.6434
 7598SOL     OW34252   1.077   1.938   1.710 -0.1458 -0.6848 -0.1193
 7598SOL    HW134253   1.071   1.846   1.685 -2.3001 -0.4338 -0.5172
 7598SOL    HW234254   1.105   1.923   1.800  2.4942  0.0565 -0.8224
 7599SOL     OW34255   1.904   2.669   4.286 -0.5075 -0.3323 -0.4596
 7599SOL    HW134256   1.856   2.696   4.364 -0.7669 -1.4969 -0.2040
 7599SOL    HW234257   1.905   2.573   4.293 -0.5043 -0.3119 -0.1767
 7600SOL     OW34258   1.946   3.886   6.503 -0.1120 -0.2961 -0.4711
 7600SOL    HW134259   1.942   3.936   6.421  0.7897 -0.9598 -0.9153
 7600SOL    HW234260   1.920   3.797   6.481  0.7341 -0.5573 -0.4061
 7601SOL     OW34261   3.495   2.422   6.321  0.0286 -0.0111 -0.6283
 7601SOL    HW134262   3.446   2.359   6.267 -0.3185 -0.3817  0.1133
 7601SOL    HW234263   3.425   2.452   6.380  0.1159  1.4908 -1.2927
 7602SOL     OW34264   2.333   4.152   3.172 -0.4909  0.2146  0.2001
 7602SOL    HW134265   2.428   4.139   3.172 -0.4480  0.5395 -1.1240
 7602SOL    HW234266   2.336   4.189   3.084  0.5245 -0.9206 -0.2433
 7603SOL     OW34267   1.237   3.111   6.605  0.4291 -0.3424  0.2559
 7603SOL    HW134268   1.248   3.097   6.700 -0.6615  0.7166  0.5393
 7603SOL    HW234269   1.147   3.080   6.593  0.0321  0.2142  1.7494
 7604SOL     OW34270   4.438   4.622  14.038 -0.2787 -0.8410  0.6113
 7604SOL    HW134271   4.391   4.574  13.970 -4.5724  1.9059  1.6662
 7604SOL    HW234272   4.365   4.630  14.100  0.7401 -2.6748  2.0268
 7605SOL     OW34273   3.214   2.474   1.590  0.7065 -0.3788  0.4802
 7605SOL    HW134274   3.163   2.523   1.654  1.3635  2.2970 -1.0438
 7605SOL    HW234275   3.227   2.542   1.524 -0.4753  1.0585  1.7439
 7606SOL     OW34276   2.688   0.044   5.623 -0.0356  0.1433  0.6879
 7606SOL    HW134277   2.774   0.011   5.649 -0.2806 -0.3603  0.8474
 7606SOL    HW234278   2.697   0.139   5.635 -0.5597  0.2889 -0.0427
 7607SOL     OW34279   0.108   3.412   8.712  0.1005  0.3699 -1.0287
 7607SOL    HW134280   0.114   3.497   8.755 -0.3196 -2.2356  4.1956
 7607SOL    HW234281   0.184   3.365   8.747 -0.4835 -0.3360 -0.7121
 7608SOL     OW34282   3.422   0.173  13.265  0.2501  0.5479 -0.4952
 7608SOL    HW134283   3.499   0.229  13.251  0.3400  1.3033  3.1252
 7608SOL    HW234284   3.353   0.220  13.218  0.2382 -1.4097 -2.4389
 7609SOL     OW34285   2.543   0.989   4.231  0.7896 -0.5129  0.4576
 7609SOL    HW134286   2.558   0.903   4.192 -1.7310 -0.5746 -0.4304
 7609SOL    HW234287   2.449   0.994   4.212  1.0570 -0.3500 -0.7755
 7610SOL     OW34288   4.616   2.703   1.883 -0.0496 -0.3680 -0.2139
 7610SOL    HW134289   4.646   2.773   1.825  0.3132  0.3084  0.7695
 7610SOL    HW234290   4.622   2.759   1.961 -0.8820 -3.1277  1.8415
 7611SOL     OW34291   1.526   0.027  17.652  0.0507  0.0154 -0.5390
 7611SOL    HW134292   1.431   0.039  17.651  0.2948  1.8951 -1.9897
 7611SOL    HW234293   1.548   0.120  17.658  1.1201 -0.3493  1.4927
 7612SOL     OW34294   1.507   2.503  10.251  0.1082 -0.2641  0.0300
 7612SOL    HW134295   1.476   2.559  10.181 -1.3564  0.2105  1.0513
 7612SOL    HW234296   1.556   2.444  10.193 -2.0900 -0.9103 -1.1561
 7613SOL     OW34297   3.382   0.056   8.359  0.2905  0.0768 -0.6689
 7613SOL    HW134298   3.292   0.023   8.357  0.5067 -0.5284 -0.3639
 7613SOL    HW234299   3.363   0.148   8.340  1.2005  0.5095  0.5785
 7614SOL     OW34300   3.947   0.361   1.232 -0.7744  0.0826 -0.6969
 7614SOL    HW134301   3.883   0.425   1.262 -1.0214 -1.2571  1.6121
 7614SOL    HW234302   3.950   0.397   1.143  1.8654  2.1885  0.2193
 7615SOL     OW34303   2.493   3.563   2.418 -0.1885  0.0263 -0.1327
 7615SOL    HW134304   2.564   3.598   2.363  0.3982  3.2368  2.6860
 7615SOL    HW234305   2.502   3.615   2.498 -2.4501 -0.4619  0.4516
 7616SOL     OW34306   1.666   3.453  17.288  0.3926 -0.6253  0.6777
 7616SOL    HW134307   1.738   3.515  17.295 -0.4115  0.2890  0.7872
 7616SOL    HW234308   1.695   3.403  17.212 -1.3796  0.4619 -0.7230
 7617SOL     OW34309   4.459   1.384   6.528  0.5239 -0.3617  0.2826
 7617SOL    HW134310   4.364   1.380   6.515 -0.1745 -0.5006  5.4017
 7617SOL    HW234311   4.485   1.476   6.525  2.5650 -0.9013  1.2863
 7618SOL     OW34312   2.885   1.105  17.175 -0.4964 -0.3135  0.0607
 7618SOL    HW134313   2.857   1.050  17.101  1.2797  1.1762 -1.7400
 7618SOL    HW234314   2.822   1.176  17.166 -1.0992 -1.0287 -1.4263
 7619SOL     OW34315   0.824   0.251   1.171  0.3032 -0.0110  0.4748
 7619SOL    HW134316   0.834   0.161   1.141 -0.8787  0.1462 -0.4142
 7619SOL    HW234317   0.739   0.250   1.214 -0.5812 -0.8061 -1.2872
 7620SOL     OW34318   1.441   0.934   2.492 -0.5799  0.1563 -0.3369
 7620SOL    HW134319   1.401   0.997   2.552  1.7881  1.9034 -0.5721
 7620SOL    HW234320   1.506   0.991   2.450  1.1091 -1.5990 -0.1236
 7621SOL     OW34321   2.457   4.611   6.229  0.2836  0.3444  0.4515
 7621SOL    HW134322   2.465   4.706   6.240  0.3415  0.4038 -0.0642
 7621SOL    HW234323   2.441   4.589   6.320  1.3226 -0.6490  0.3862
 7622SOL     OW34324   4.152   4.470  15.547 -0.6293  0.0739 -0.1340
 7622SOL    HW134325   4.158   4.401  15.482  1.2791  0.0683  0.0623
 7622SOL    HW234326   4.224   4.464  15.610 -0.6347  0.0773 -0.1275
 7623SOL     OW34327   0.865   2.728  10.687  0.1235 -0.1141 -0.8532
 7623SOL    HW134328   0.944   2.770  10.720  0.1992 -0.7226 -0.2571
 7623SOL    HW234329   0.877   2.633  10.688 -0.8127 -0.2349 -1.0613
 7624SOL     OW34330   3.963   3.039   8.480  0.2750 -0.8142 -0.2079
 7624SOL    HW134331   4.050   3.024   8.517 -0.5001 -1.5360  1.3305
 7624SOL    HW234332   3.971   2.977   8.407 -0.6662  2.3642 -2.9616
 7625SOL     OW34333   2.201   4.160   1.733 -0.2040 -0.4210  0.2983
 7625SOL    HW134334   2.165   4.237   1.776 -3.3215 -0.2705 -2.5453
 7625SOL    HW234335   2.151   4.090   1.774  1.2534 -0.5722  1.7817
 7626SOL     OW34336   1.358   0.519   8.195  0.1203 -0.2430  0.0605
 7626SOL    HW134337   1.342   0.598   8.247 -1.4674 -1.0306  0.7645
 7626SOL    HW234338   1.368   0.447   8.257  0.3897  1.3513  1.8888
 7627SOL     OW34339   0.187   2.194   2.027 -0.0401  0.1483 -0.2008
 7627SOL    HW134340   0.278   2.215   2.049 -0.7100  2.2462  0.5247
 7627SOL    HW234341   0.151   2.196   2.116  1.9437  0.2395  0.6019
 7628SOL     OW34342   2.145   4.240   8.624  0.4630 -0.0803 -0.0506
 7628SOL    HW134343   2.073   4.232   8.561  0.9250  0.0812 -0.5967
 7628SOL    HW234344   2.222   4.230   8.569  0.5006  0.1923 -0.0501
 7629SOL     OW34345   0.805   4.104   8.662  0.6037  0.0667 -0.3808
 7629SOL    HW134346   0.725   4.134   8.706 -0.7552 -1.8287 -1.6055
 7629SOL    HW234347   0.771   4.065   8.582  0.5456 -0.3950 -0.1306
 7630SOL     OW34348   4.034   0.863   8.403 -0.0109 -0.0326 -0.0345
 7630SOL    HW134349   3.993   0.844   8.488  1.5500  0.9703  0.9427
 7630SOL    HW234350   4.125   0.839   8.421  0.1638 -0.1844 -1.1483
 7631SOL     OW34351   1.602   0.031  14.466 -0.5296  0.2289  0.1129
 7631SOL    HW134352   1.619   0.036  14.372  0.1790  0.9437  0.2868
 7631SOL    HW234353   1.612   4.657  14.476  2.9450  0.7620  1.5043
 7632SOL     OW34354   0.638   2.992   6.904  0.3324 -0.1886  0.2746
 7632SOL    HW134355   0.639   3.034   6.990 -2.8515  1.5810 -0.5793
 7632SOL    HW234356   0.709   2.928   6.898  0.1221 -0.3954  0.0188
 7633SOL     OW34357   3.230   0.778  14.099  0.2149 -0.0547  0.4073
 7633SOL    HW134358   3.324   0.795  14.091  0.1329  0.4255  0.4682
 7633SOL    HW234359   3.179   0.858  14.089 -1.5960 -1.4063 -1.0741
 7634SOL     OW34360   1.911   0.022   3.468 -0.4016 -0.0946 -0.2584
 7634SOL    HW134361   1.848   4.675   3.493  0.1748  0.3472  2.3792
 7634SOL    HW234362   1.988   4.686   3.460  0.0773  0.4528  0.5833
 7635SOL     OW34363   3.708   3.308   7.022 -0.3222  0.6286  0.5596
 7635SOL    HW134364   3.690   3.401   7.037 -0.8126  0.7867 -1.0003
 7635SOL    HW234365   3.801   3.311   7.000 -1.0001 -1.0933 -2.5127
 7636SOL     OW34366   3.722   4.168   1.893 -0.5859 -0.4357  0.1093
 7636SOL    HW134367   3.741   4.259   1.869 -1.1765  0.1925  2.1129
 7636SOL    HW234368   3.632   4.190   1.913  0.4564  1.2552  2.8921
 7637SOL     OW34369   0.052   2.397   8.057  0.2279 -0.0482 -0.1057
 7637SOL    HW134370   0.067   2.470   8.117  0.1543  0.8628 -1.1935
 7637SOL    HW234371   0.115   2.425   7.991  0.0897 -0.3778 -0.3796
 7638SOL     OW34372   1.300   3.197   7.462  0.1217  0.2043 -0.0971
 7638SOL    HW134373   1.250   3.252   7.522  2.2461  2.4310 -0.3487
 7638SOL    HW234374   1.314   3.264   7.395  1.4194 -0.6269 -0.6604
 7639SOL     OW34375   3.380   1.186  14.290  0.2173  0.3713 -0.0052
 7639SOL    HW134376   3.298   1.199  14.243  0.3601 -1.1438 -0.6639
 7639SOL    HW234377   3.439   1.188  14.215  0.5595 -2.4100  0.2051
 7640SOL     OW34378   2.024   1.068   3.448 -0.3488 -0.1355  0.0303
 7640SOL    HW134379   2.063   0.994   3.401 -0.9836  0.0299 -0.7496
 7640SOL    HW234380   2.092   1.088   3.512 -1.6654  2.1568  0.6938
 7641SOL     OW34381   2.950   0.869  10.532 -1.2547 -0.6156  0.4227
 7641SOL    HW134382   2.903   0.898  10.453  0.4249  0.9946  0.0263
 7641SOL    HW234383   2.910   0.784  10.552 -1.9624 -0.5803 -0.8093
 7642SOL     OW34384   0.555   1.973   4.387  0.2134 -0.1589 -0.0356
 7642SOL    HW134385   0.500   2.040   4.345  1.3103  2.5558  2.8459
 7642SOL    HW234386   0.639   2.019   4.382  0.9179 -1.2046  2.2214
 7643SOL     OW34387   1.479   2.148   3.795  0.1003 -0.2724 -0.4877
 7643SOL    HW134388   1.483   2.102   3.711 -0.6477 -1.4836  0.1465
 7643SOL    HW234389   1.566   2.187   3.799  0.4903 -1.5751  3.3994
 7644SOL     OW34390   4.418   1.165  11.610 -0.1474 -0.7472 -0.4201
 7644SOL    HW134391   4.326   1.140  11.617 -0.2589  0.0741  1.0365
 7644SOL    HW234392   4.456   1.098  11.667 -2.0547 -1.2152  0.2895
 7645SOL     OW34393   0.613   1.692   4.802  0.0846  0.0046 -0.0456
 7645SOL    HW134394   0.585   1.750   4.731 -0.1170 -0.1339 -0.0792
 7645SOL    HW234395   0.637   1.765   4.859 -0.2102  0.7260 -0.8523
 7646SOL     OW34396   1.553   3.216   5.676  0.2528 -0.5607 -0.2425
 7646SOL    HW134397   1.521   3.289   5.729 -0.1359 -0.5913 -0.4296
 7646SOL    HW234398   1.491   3.201   5.604 -1.3822  2.3400  0.5610
 7647SOL     OW34399   3.877   4.384   2.477 -0.2853 -0.0070 -0.1852
 7647SOL    HW134400   3.811   4.397   2.409  0.4745  1.5784 -0.6212
 7647SOL    HW234401   3.956   4.394   2.425  0.7694 -1.5475  1.1559
 7648SOL     OW34402   0.805   0.342  11.815 -0.4465  0.1544  0.7658
 7648SOL    HW134403   0.738   0.307  11.873  0.0254  0.6712  1.6231
 7648SOL    HW234404   0.866   0.269  11.808 -0.1439  0.4558  0.2924
 7649SOL     OW34405   3.322   0.139   4.906 -0.0497 -0.5226 -0.4852
 7649SOL    HW134406   3.296   0.075   4.972 -2.7412  3.0787  1.8961
 7649SOL    HW234407   3.259   0.207   4.928  0.6397  0.4671 -1.5671
 7650SOL     OW34408   1.368   0.797  12.967  0.0214  0.4247 -0.4356
 7650SOL    HW134409   1.373   0.719  12.913 -0.1748  1.0132 -1.3111
 7650SOL    HW234410   1.356   0.865  12.901 -2.0448 -0.0677 -0.5592
 7651SOL     OW34411   2.622   3.566  14.643 -0.1692 -0.4285 -0.0701
 7651SOL    HW134412   2.578   3.483  14.660 -0.5855 -0.8835 -3.4458
 7651SOL    HW234413   2.668   3.546  14.561 -0.7396  0.0039 -0.4966
 7652SOL     OW34414   4.387   2.247  14.041  0.0564  0.2582  0.0976
 7652SOL    HW134415   4.447   2.290  14.103 -1.6515  0.3182  1.7152
 7652SOL    HW234416   4.448   2.200  13.984 -0.6547 -0.9763  0.3553
 7653SOL     OW34417   2.987   0.490   7.443  0.8263  0.0175  0.4209
 7653SOL    HW134418   3.071   0.537   7.451 -0.7863  2.8450  0.6358
 7653SOL    HW234419   3.007   0.437   7.366  0.2153 -1.8657  1.5652
 7654SOL     OW34420   1.554   0.474   5.093 -0.4076  0.1369 -0.3524
 7654SOL    HW134421   1.484   0.410   5.109  0.5624 -0.9621 -0.4438
 7654SOL    HW234422   1.555   0.482   4.997  0.3410  1.1084 -0.2653
 7655SOL     OW34423   4.104   1.232   6.764 -0.0026 -0.0331 -0.5706
 7655SOL    HW134424   4.025   1.204   6.718 -0.0172  0.2660 -0.7246
 7655SOL    HW234425   4.157   1.157   6.737  1.8057  0.2027  2.3233
 7656SOL     OW34426   1.402   2.874   4.099 -0.0865 -0.0393  0.3017
 7656SOL    HW134427   1.364   2.961   4.107 -0.3475 -0.1609  0.3777
 7656SOL    HW234428   1.426   2.850   4.188 -0.6734  2.4576  1.1333
 7657SOL     OW34429   3.651   3.183   2.704 -0.0152  0.5821  0.4092
 7657SOL    HW134430   3.714   3.196   2.633 -1.5956  0.0429 -1.0784
 7657SOL    HW234431   3.615   3.271   2.713 -0.0906  0.4819  1.0773
 7658SOL     OW34432   1.559   0.407  13.242 -0.0463 -0.1473  0.2340
 7658SOL    HW134433   1.595   0.494  13.259  0.5863 -0.3799  0.0952
 7658SOL    HW234434   1.516   0.408  13.157 -0.6538 -0.6873  0.5294
 7659SOL     OW34435   4.077   0.954   4.366 -0.0064  0.5582  0.3119
 7659SOL    HW134436   4.159   0.947   4.316 -1.1447  0.2563 -1.4849
 7659SOL    HW234437   4.104   0.920   4.452  1.6152  0.4324 -0.2469
 7660SOL     OW34438   3.038   2.115   2.742 -0.3602 -0.4515 -0.5655
 7660SOL    HW134439   3.123   2.072   2.742 -0.0435  0.1861 -1.7444
 7660SOL    HW234440   2.982   2.054   2.791 -1.6139  1.1234 -0.0469
 7661SOL     OW34441   2.951   0.918  15.116 -0.1187  0.2944  0.1080
 7661SOL    HW134442   2.957   0.854  15.046 -2.3762  0.2525 -0.0538
 7661SOL    HW234443   3.036   0.961  15.115  0.5176 -1.0309 -1.5365
 7662SOL     OW34444   2.214   0.013  11.272 -0.0342  0.0638  0.5437
 7662SOL    HW134445   2.163   0.012  11.353  0.9993  0.5184  1.2103
 7662SOL    HW234446   2.178   4.663  11.220 -0.2241  1.2946 -0.9959
 7663SOL     OW34447   3.785   3.073   7.555  0.1935 -0.1060 -0.0744
 7663SOL    HW134448   3.828   3.157   7.542 -0.4517  0.3462  0.7267
 7663SOL    HW234449   3.841   3.014   7.505 -0.6143 -0.1003 -0.9809
 7664SOL     OW34450   0.745   2.279   5.371 -0.2457  0.1985 -0.7400
 7664SOL    HW134451   0.744   2.375   5.375  1.5003  0.1347  1.1004
 7664SOL    HW234452   0.778   2.255   5.284 -0.1340  0.7397 -0.8454
 7665SOL     OW34453   1.263   0.767   5.653  0.2353  0.9340  0.6648
 7665SOL    HW134454   1.254   0.737   5.562 -0.6164  0.7572  0.8042
 7665SOL    HW234455   1.186   0.725   5.691  0.0041 -0.3617 -1.1960
 7666SOL     OW34456   3.472   0.342   8.652 -0.0880  0.3534  0.3813
 7666SOL    HW134457   3.496   0.415   8.709 -1.8700 -0.3037  1.9717
 7666SOL    HW234458   3.418   0.385   8.586  0.8153  2.9220  1.3320
 7667SOL     OW34459   2.462   1.879   7.426 -0.1102 -0.6466 -0.4108
 7667SOL    HW134460   2.548   1.838   7.434  1.2018  2.2652  0.3265
 7667SOL    HW234461   2.401   1.820   7.470  0.1498 -1.6405 -1.3749
 7668SOL     OW34462   0.057   0.261  16.218 -0.3933  0.3786 -0.4139
 7668SOL    HW134463   0.130   0.318  16.242 -0.9651  1.3493 -1.0186
 7668SOL    HW234464   4.705   0.319  16.237 -1.7699 -0.9740 -1.6133
 7669SOL     OW34465   0.758   0.916  17.550 -0.8016 -0.1520  0.2429
 7669SOL    HW134466   0.777   0.825  17.573 -0.9756  0.0723  1.2646
 7669SOL    HW234467   0.711   0.940  17.629 -3.3553  1.2608 -1.7149
 7670SOL     OW34468   1.835   3.902   3.307 -0.1525 -0.1518  0.3296
 7670SOL    HW134469   1.858   3.853   3.228 -1.0584  0.6543 -0.4447
 7670SOL    HW234470   1.911   3.895   3.364 -1.2882 -0.2951  1.8305
 7671SOL     OW34471   4.317   0.884   5.137  0.3143 -0.4158  0.3365
 7671SOL    HW134472   4.377   0.895   5.063 -0.3298 -1.4721 -0.3261
 7671SOL    HW234473   4.353   0.959   5.185  0.4104 -0.7260  0.7475
 7672SOL     OW34474   1.018   3.153  13.251  0.1389 -0.1675  0.1889
 7672SOL    HW134475   0.934   3.159  13.206 -0.3552  0.5182  1.1854
 7672SOL    HW234476   1.009   3.233  13.303 -0.7444  0.2998 -0.6876
 7673SOL     OW34477   2.916   0.181  15.006 -0.0057 -0.2148  0.3009
 7673SOL    HW134478   2.959   0.209  15.086 -1.4869 -0.2513  1.1118
 7673SOL    HW234479   2.920   0.267  14.964  0.0439  0.6571  2.0872
 7674SOL     OW34480   1.843   0.556   6.187  0.3402 -0.6324  0.2068
 7674SOL    HW134481   1.757   0.598   6.180  1.4497  1.3891 -1.1860
 7674SOL    HW234482   1.846   0.494   6.114  1.7903 -0.2794 -0.0278
 7675SOL     OW34483   3.180   3.469  10.566  0.0018 -0.1460 -0.1898
 7675SOL    HW134484   3.101   3.431  10.605 -0.6025  1.4055  0.1107
 7675SOL    HW234485   3.207   3.533  10.632  3.4865 -1.4523 -0.3519
 7676SOL     OW34486   1.486   2.125   7.457  0.1554 -0.3030  0.1362
 7676SOL    HW134487   1.555   2.059   7.468  2.1761  1.8417  0.4351
 7676SOL    HW234488   1.451   2.109   7.544  0.0628  0.2976  0.2047
 7677SOL     OW34489   4.638   3.986   2.103 -0.2459 -0.4127  0.7208
 7677SOL    HW134490   4.695   4.060   2.080 -1.0807  0.1722  0.5371
 7677SOL    HW234491   4.626   3.950   2.016 -0.4746  1.0717  0.1320
 7678SOL     OW34492   1.255   4.129   6.357 -0.3829  0.0782 -0.2415
 7678SOL    HW134493   1.262   4.193   6.427 -0.1208  0.2827 -0.4554
 7678SOL    HW234494   1.276   4.185   6.282  2.0292  0.0217  0.4003
 7679SOL     OW34495   0.900   4.174  15.002 -0.7676 -0.4570 -0.0954
 7679SOL    HW134496   0.823   4.206  15.049  0.0337  1.9104 -0.4143
 7679SOL    HW234497   0.850   4.144  14.926  0.9810  1.7557 -2.1219
 7680SOL     OW34498   1.803   3.194   2.854 -0.5252 -0.3806  0.7821
 7680SOL    HW134499   1.759   3.246   2.921 -0.0052  1.2974 -0.1797
 7680SOL    HW234500   1.729   3.204   2.793 -1.8900 -3.3861  1.9350
 7681SOL     OW34501   3.469   1.516   5.100  0.1117  0.6342  0.1007
 7681SOL    HW134502   3.518   1.435   5.114  0.4861  0.9044  0.3398
 7681SOL    HW234503   3.423   1.524   5.184 -1.6076  0.1325 -0.7919
 7682SOL     OW34504   2.236   3.470   7.618  0.1082  0.3914 -0.6492
 7682SOL    HW134505   2.236   3.415   7.696  1.3833  2.0567  0.5383
 7682SOL    HW234506   2.154   3.449   7.572 -1.4040  0.6792  1.8959
 7683SOL     OW34507   4.096   1.593   4.180  0.1020  0.2052  0.5886
 7683SOL    HW134508   4.044   1.555   4.251  0.6955 -0.7176  0.5332
 7683SOL    HW234509   4.063   1.550   4.101 -0.6907  2.0495 -0.0758
 7684SOL     OW34510   2.229   1.676  16.168 -0.1784  0.0395 -0.4681
 7684SOL    HW134511   2.202   1.603  16.224  1.0131 -0.6764 -0.8276
 7684SOL    HW234512   2.149   1.714  16.132  0.0267 -1.6062 -2.6552
 7685SOL     OW34513   3.036   0.015  11.084  0.5317 -0.5111  0.4260
 7685SOL    HW134514   2.959   4.700  11.040 -0.7328  1.0698  1.3777
 7685SOL    HW234515   3.050   4.669  11.150 -1.5538 -0.3835  1.0005
 7686SOL     OW34516   2.498   0.715  15.564 -0.4567  0.4078 -0.1043
 7686SOL    HW134517   2.440   0.765  15.622 -2.2963 -0.2220 -1.3897
 7686SOL    HW234518   2.435   0.655  15.525  1.2474 -0.3546 -1.6888
 7687SOL     OW34519   2.101   2.531   9.883  0.3034  0.4256 -0.0478
 7687SOL    HW134520   2.157   2.600   9.848  0.0725  0.0955 -1.0715
 7687SOL    HW234521   2.040   2.525   9.809  0.9486  1.9013 -0.6988
 7688SOL     OW34522   1.357   1.607   8.635 -0.4099  0.2242 -0.2222
 7688SOL    HW134523   1.375   1.516   8.660 -0.7250 -0.2334 -1.6966
 7688SOL    HW234524   1.442   1.621   8.595 -0.6312 -0.2649 -0.8604
 7689SOL     OW34525   3.700   4.223   5.550 -0.5639 -0.0027  0.0870
 7689SOL    HW134526   3.686   4.172   5.630 -0.4804 -1.5638 -0.8845
 7689SOL    HW234527   3.720   4.313   5.575 -1.5463  0.0908  0.5229
 7690SOL     OW34528   4.717   3.366  16.708 -0.2293 -0.1149 -0.1379
 7690SOL    HW134529   0.029   3.280  16.734  0.9678  0.5717  0.6486
 7690SOL    HW234530   4.700   3.346  16.616 -2.0114 -0.9181  0.3820
 7691SOL     OW34531   0.357   0.717   4.846 -0.4372 -0.6922 -0.3008
 7691SOL    HW134532   0.361   0.628   4.810 -0.1568 -0.2528 -1.3661
 7691SOL    HW234533   0.417   0.718   4.920 -1.2157 -1.1373  0.3286
 7692SOL     OW34534   4.191   2.142   3.401 -0.1363  0.1617  0.6093
 7692SOL    HW134535   4.173   2.215   3.460  0.8257  0.4245  0.5796
 7692SOL    HW234536   4.108   2.096   3.411 -0.3397  0.4709  0.3154
 7693SOL     OW34537   0.939   0.366   5.732  0.3531 -0.3887  0.6448
 7693SOL    HW134538   0.935   0.278   5.770 -1.4857 -0.1843  0.9493
 7693SOL    HW234539   0.921   0.347   5.640  1.2945  2.8137 -0.1803
 7694SOL     OW34540   2.351   1.299  11.638 -0.4568  0.6909  0.0654
 7694SOL    HW134541   2.325   1.377  11.590  0.6897  0.9418 -0.1569
 7694SOL    HW234542   2.278   1.293  11.699  0.4149 -1.3924  0.9156
 7695SOL     OW34543   3.562   1.464  15.153 -0.3162  0.1779  0.1126
 7695SOL    HW134544   3.554   1.476  15.059  0.7155  1.5863  0.2022
 7695SOL    HW234545   3.477   1.499  15.179 -1.4522 -2.1807 -0.4793
 7696SOL     OW34546   4.338   2.375   7.120 -0.4908  0.2067  0.6836
 7696SOL    HW134547   4.396   2.445   7.090 -1.7962  1.5676  1.2829
 7696SOL    HW234548   4.328   2.406   7.210  0.7231 -3.9359  2.2511
 7697SOL     OW34549   3.222   3.137   1.611 -0.6713  0.0520  0.1099
 7697SOL    HW134550   3.311   3.148   1.577 -1.0179 -2.1074 -1.5140
 7697SOL    HW234551   3.179   3.094   1.538 -2.1846 -0.2407  1.1840
 7698SOL     OW34552   2.996   1.602   7.557 -0.0219 -0.2515  0.1837
 7698SOL    HW134553   2.994   1.612   7.462  0.7827 -1.2845  0.0566
 7698SOL    HW234554   2.905   1.580   7.576 -0.2911 -0.3729 -1.2861
 7699SOL     OW34555   0.801   0.153   5.891 -0.5587  0.0602 -0.0725
 7699SOL    HW134556   0.861   0.079   5.885  0.8784  1.3577 -1.4016
 7699SOL    HW234557   0.817   0.178   5.982 -0.3849 -2.7593  0.6885
 7700SOL     OW34558   4.359   3.489   2.949 -0.0174  0.3891 -0.3390
 7700SOL    HW134559   4.334   3.575   2.982 -1.1786 -0.5669  1.2716
 7700SOL    HW234560   4.433   3.516   2.895  0.5300 -1.3495 -0.4708
 7701SOL     OW34561   1.282   3.901  14.536  0.3175  0.1797 -0.0514
 7701SOL    HW134562   1.291   3.822  14.589 -1.7712 -1.0338 -1.4952
 7701SOL    HW234563   1.362   3.948  14.555  1.2377 -0.9976 -1.0178
 7702SOL     OW34564   3.336   2.078   1.474  0.0784 -0.0750 -0.0442
 7702SOL    HW134565   3.292   1.993   1.467 -0.4299  0.0956  1.1296
 7702SOL    HW234566   3.257   2.131   1.488  0.2843 -0.4998  2.8459
 7703SOL     OW34567   2.827   1.239   8.715  0.4314  0.2242  0.2263
 7703SOL    HW134568   2.759   1.267   8.775  2.2818  1.6861  1.6505
 7703SOL    HW234569   2.894   1.300   8.747  0.5750  0.2254 -0.0753
 7704SOL     OW34570   1.924   2.076   7.458 -0.1010 -0.4725 -0.4891
 7704SOL    HW134571   1.892   2.115   7.540  0.5076  0.9809 -0.9497
 7704SOL    HW234572   1.953   1.991   7.491  0.0618  0.9338  3.0314
 7705SOL     OW34573   4.471   2.209   2.039 -0.3443 -0.4208 -0.2191
 7705SOL    HW134574   4.468   2.301   2.014 -1.9947 -0.2394  0.6571
 7705SOL    HW234575   4.521   2.213   2.120  0.8416  0.1072 -0.9777
 7706SOL     OW34576   2.698   3.127   7.489 -0.3379 -0.2397 -0.6114
 7706SOL    HW134577   2.691   3.032   7.496  1.4559 -0.2577  0.8991
 7706SOL    HW234578   2.666   3.145   7.577 -0.8291  4.1926 -1.7407
 7707SOL     OW34579   0.649   1.632  11.750 -0.2069 -0.1628 -0.0757
 7707SOL    HW134580   0.565   1.589  11.735 -0.9194  1.3588 -0.4003
 7707SOL    HW234581   0.630   1.725  11.751  0.7959  0.0020  2.5245
 7708SOL     OW34582   3.436   4.484   6.267  0.6050  0.3518 -0.3406
 7708SOL    HW134583   3.381   4.561   6.277 -0.1488 -0.2061 -0.2082
 7708SOL    HW234584   3.515   4.527   6.302  0.4974 -0.3700  0.7781
 7709SOL     OW34585   1.842   3.911   5.852  0.1686  0.4350 -0.3064
 7709SOL    HW134586   1.783   3.890   5.924 -1.6053  0.6845 -1.6808
 7709SOL    HW234587   1.789   3.961   5.790  0.1841 -1.1464 -1.6061
 7710SOL     OW34588   4.208   3.985   2.915  0.6691 -0.4428  0.7825
 7710SOL    HW134589   4.251   3.958   2.834  0.3475 -0.9063  0.7620
 7710SOL    HW234590   4.131   4.029   2.879  1.2228  0.6339  0.9471
 7711SOL     OW34591   2.097   2.737   7.957 -0.6198  0.0890 -0.3058
 7711SOL    HW134592   2.127   2.813   8.007 -0.2714  0.5964 -1.3081
 7711SOL    HW234593   2.142   2.662   7.995 -1.4182 -0.5977 -0.7144
 7712SOL     OW34594   3.392   1.781  15.725  0.1080  0.0073 -0.1199
 7712SOL    HW134595   3.452   1.758  15.654  0.4678  1.6054 -0.3445
 7712SOL    HW234596   3.459   1.819  15.781  0.5062  0.6270 -1.0035
 7713SOL     OW34597   3.323   2.497  12.551 -0.7743 -0.2575 -0.4654
 7713SOL    HW134598   3.314   2.495  12.456 -0.1532  0.9811 -0.5539
 7713SOL    HW234599   3.265   2.425  12.573  1.7621 -1.7334  1.4252
 7714SOL     OW34600   2.588   0.036   3.868  0.5048  0.2295  0.4922
 7714SOL    HW134601   2.552   0.053   3.955 -1.7646 -1.2025 -0.1776
 7714SOL    HW234602   2.507   0.017   3.820 -0.1074  1.4911  1.0077
 7715SOL     OW34603   2.194   2.464  15.449  0.0151  0.0571 -0.3169
 7715SOL    HW134604   2.151   2.514  15.519 -0.3641  1.5874 -1.6322
 7715SOL    HW234605   2.157   2.380  15.474  1.3718 -1.5152 -3.6345
 7716SOL     OW34606   3.553   3.144   6.112 -0.4298  0.3057  0.0587
 7716SOL    HW134607   3.471   3.139   6.161 -0.3895  0.2800  0.1231
 7716SOL    HW234608   3.589   3.232   6.122  1.3922 -0.3086 -1.0878
 7717SOL     OW34609   1.350   3.246  10.769 -0.0968  0.6958 -0.2123
 7717SOL    HW134610   1.394   3.162  10.782  1.4282  1.6977  1.1423
 7717SOL    HW234611   1.287   3.230  10.699  0.4128 -1.3019 -0.1909
 7718SOL     OW34612   4.344   0.534  12.710  0.1761  0.6095 -0.2153
 7718SOL    HW134613   4.306   0.584  12.782  0.4675 -0.5537  0.7394
 7718SOL    HW234614   4.327   0.450  12.752 -4.8794  1.0719 -1.3553
 7719SOL     OW34615   1.815   4.268   9.258  0.4909 -0.5304 -0.3427
 7719SOL    HW134616   1.834   4.175   9.245  1.7134 -0.3378  0.1096
 7719SOL    HW234617   1.731   4.263   9.304  0.1736 -0.4357 -0.9231
 7720SOL     OW34618   1.156   4.186   3.644 -0.0455  0.3365  0.1732
 7720SOL    HW134619   1.132   4.155   3.557  2.2502 -0.4379 -0.1738
 7720SOL    HW234620   1.088   4.149   3.701 -0.3328 -1.3507 -1.2567
 7721SOL     OW34621   4.173   2.841   6.021  0.1782 -0.4842 -0.2428
 7721SOL    HW134622   4.198   2.752   6.044 -1.3346 -0.1103  2.9119
 7721SOL    HW234623   4.134   2.873   6.103  1.2792  1.5036 -0.4890
 7722SOL     OW34624   0.595   2.114  14.040 -0.0294  0.3099  0.0366
 7722SOL    HW134625   0.675   2.117  14.093  0.1650  0.9782 -0.2942
 7722SOL    HW234626   0.593   2.018  14.048  1.1432  0.3819  1.2737
 7723SOL     OW34627   3.500   4.662   9.148  0.0895 -0.5107  0.0913
 7723SOL    HW134628   3.590   4.644   9.121 -0.2093  3.1996 -3.3615
 7723SOL    HW234629   3.453   4.584   9.118  1.8770 -1.6198  0.2255
 7724SOL     OW34630   0.495   0.571   7.606  0.1814  0.3677  0.0884
 7724SOL    HW134631   0.426   0.523   7.560 -0.1115  0.1309  0.7828
 7724SOL    HW234632   0.466   0.656   7.572 -0.7464  0.0256  0.0203
 7725SOL     OW34633   3.120   4.324  14.270 -0.1305 -0.2160  0.8924
 7725SOL    HW134634   3.048   4.264  14.250  1.0728 -0.8258 -1.5877
 7725SOL    HW234635   3.186   4.266  14.233  1.5651  1.5324  1.2078
 7726SOL     OW34636   4.032   4.382  11.144  0.2724  0.1702 -0.0706
 7726SOL    HW134637   4.037   4.301  11.095 -0.6561 -0.0384  0.1862
 7726SOL    HW234638   3.991   4.360  11.228 -0.3872  0.4376 -0.3276
 7727SOL     OW34639   2.151   2.611  10.259 -0.0799  0.0532  0.2052
 7727SOL    HW134640   2.063   2.599  10.222  0.8679 -1.7748 -1.4668
 7727SOL    HW234641   2.184   2.691  10.219 -1.0836  0.7700  0.8378
 7728SOL     OW34642   2.926   0.259  11.076  0.5332  1.0218  0.7954
 7728SOL    HW134643   2.938   0.304  10.993  0.5514  2.4350  1.5758
 7728SOL    HW234644   2.971   0.175  11.064 -1.0002  0.0475  1.6785
 7729SOL     OW34645   4.683   4.583   0.577 -0.2440  0.0991  0.1804
 7729SOL    HW134646   4.668   4.513   0.514  1.0932  0.4278 -0.4940
 7729SOL    HW234647   4.598   4.593   0.620  0.0014  1.3538  0.3720
 7730SOL     OW34648   1.015   3.517  13.166  0.2018  0.5757  0.1317
 7730SOL    HW134649   0.941   3.485  13.115 -0.3111  0.8766  0.6941
 7730SOL    HW234650   1.012   3.605  13.129  0.4086 -0.0300 -1.3320
 7731SOL     OW34651   3.811   0.892  16.544  0.1571  0.8251  0.7497
 7731SOL    HW134652   3.870   0.873  16.471 -0.8773 -0.4766  0.2481
 7731SOL    HW234653   3.858   0.835  16.605  0.9526  0.9115  0.2231
 7732SOL     OW34654   1.150   2.089   4.439 -0.0630 -0.0193 -0.2353
 7732SOL    HW134655   1.220   2.123   4.384 -1.0516  0.9069 -0.9084
 7732SOL    HW234656   1.170   2.114   4.529 -0.3481 -1.3510  0.1971
 7733SOL     OW34657   3.816   0.257   4.477 -0.0550 -0.1671 -0.2076
 7733SOL    HW134658   3.764   0.247   4.556 -0.8670  0.5372 -0.6443
 7733SOL    HW234659   3.751   0.251   4.407 -0.3618 -1.3778  0.1895
 7734SOL     OW34660   3.913   3.670   8.102 -0.0944  0.6129 -0.3834
 7734SOL    HW134661   3.876   3.629   8.180 -2.6949 -1.1416 -2.5455
 7734SOL    HW234662   3.921   3.761   8.131  3.0573  0.3170 -0.3492
 7735SOL     OW34663   4.375   4.359   8.938 -0.1471 -0.2279  0.4480
 7735SOL    HW134664   4.369   4.274   8.982 -2.2968  0.0812  0.7723
 7735SOL    HW234665   4.467   4.382   8.926  0.2739 -1.0736  2.0764
 7736SOL     OW34666   2.260   1.828  11.485  0.5901  0.2703 -0.2414
 7736SOL    HW134667   2.248   1.869  11.570 -5.0447 -1.2816 -0.2545
 7736SOL    HW234668   2.345   1.788  11.499  0.8668  0.5405 -1.1235
 7737SOL     OW34669   3.797   4.154  13.373 -0.3372  0.6457  0.2025
 7737SOL    HW134670   3.856   4.083  13.348 -0.1197  1.0780 -0.5349
 7737SOL    HW234671   3.827   4.167  13.463  0.5130  1.0243 -0.1380
 7738SOL     OW34672   2.493   4.122  15.185 -0.4128 -0.2552 -0.3661
 7738SOL    HW134673   2.544   4.095  15.108 -2.9945 -2.8178 -1.1776
 7738SOL    HW234674   2.410   4.154  15.150 -0.0018  1.0796 -0.1102
 7739SOL     OW34675   0.944   2.026   9.659 -0.2012 -0.3455 -0.2337
 7739SOL    HW134676   0.868   2.039   9.716 -0.5135  2.0336 -1.2031
 7739SOL    HW234677   0.906   1.983   9.582 -0.0470  0.2982 -0.6676
 7740SOL     OW34678   2.010   1.933   7.717  0.4530 -0.3945 -0.5266
 7740SOL    HW134679   1.973   1.947   7.805 -2.7804 -2.5481 -1.5599
 7740SOL    HW234680   2.007   1.838   7.711  1.3056 -0.5006  0.7509
 7741SOL     OW34681   1.051   3.080   2.525 -0.0599 -0.2294 -0.0998
 7741SOL    HW134682   1.048   3.076   2.621 -2.0948  1.5503 -0.1049
 7741SOL    HW234683   1.104   3.000   2.516 -2.4879 -1.8340 -0.1642
 7742SOL     OW34684   3.800   3.794  15.791  0.7276 -0.4635 -0.3260
 7742SOL    HW134685   3.734   3.746  15.842  0.1013  0.2005 -0.5162
 7742SOL    HW234686   3.746   3.870  15.768  1.4496  0.1098 -0.1347
 7743SOL     OW34687   3.841   3.346   7.562  0.0237  0.0911  0.1938
 7743SOL    HW134688   3.835   3.341   7.657 -2.2950 -0.0761  0.0566
 7743SOL    HW234689   3.790   3.425   7.544 -1.2670 -1.1567 -1.6759
 7744SOL     OW34690   3.095   2.514   2.747  0.2801 -0.1082 -0.0435
 7744SOL    HW134691   3.089   2.532   2.653  1.3769 -0.2119 -0.1371
 7744SOL    HW234692   3.114   2.599   2.786 -0.2350  0.4445 -1.0036
 7745SOL     OW34693   3.282   0.517   1.907  0.3199 -0.2417  0.2097
 7745SOL    HW134694   3.374   0.543   1.901  0.0850  1.1453  2.5922
 7745SOL    HW234695   3.247   0.576   1.841  1.7069  0.5565  0.1824
 7746SOL     OW34696   1.565   3.639   4.187 -0.2631 -0.1107  0.2817
 7746SOL    HW134697   1.558   3.565   4.249 -0.7975 -0.0668  0.2661
 7746SOL    HW234698   1.571   3.715   4.244  1.1994 -0.1538  0.2001
 7747SOL     OW34699   3.437   1.843   4.877  0.1171 -0.3204  0.7871
 7747SOL    HW134700   3.386   1.913   4.918 -1.8293 -1.5611  0.4902
 7747SOL    HW234701   3.377   1.770   4.892  1.1918 -0.9890  1.7884
 7748SOL     OW34702   3.871   3.373  11.539  0.0819  0.2944 -0.0904
 7748SOL    HW134703   3.924   3.451  11.522 -1.8608  2.0276  1.8114
 7748SOL    HW234704   3.920   3.335  11.612 -1.1797  0.0744  0.6326
 7749SOL     OW34705   3.076   0.896   1.906  0.4884 -0.3681 -0.2636
 7749SOL    HW134706   3.017   0.821   1.907  1.5563 -1.1812  2.7934
 7749SOL    HW234707   3.039   0.956   1.840  0.2438  1.2054  1.2991
 7750SOL     OW34708   2.707   1.678  12.567 -0.4168 -0.2389  0.5431
 7750SOL    HW134709   2.752   1.630  12.498 -1.0902  1.5507 -1.1597
 7750SOL    HW234710   2.643   1.730  12.518 -0.0304 -1.1713 -0.9531
 7751SOL     OW34711   1.209   4.586  14.608 -0.1992  0.6880  0.4971
 7751SOL    HW134712   1.270   4.660  14.607 -1.5426  1.7637 -1.0719
 7751SOL    HW234713   1.126   4.633  14.611 -1.4806 -1.4527 -0.9813
 7752SOL     OW34714   1.614   2.701   3.987 -0.4078  0.9290 -0.5041
 7752SOL    HW134715   1.705   2.708   4.016 -0.1932 -0.4171 -0.8467
 7752SOL    HW234716   1.578   2.784   4.018 -0.0073  1.8957 -2.6369
 7753SOL     OW34717   1.784   1.124   2.558  0.1290 -0.5194 -0.1265
 7753SOL    HW134718   1.744   1.110   2.472 -1.3797  0.4254  0.4288
 7753SOL    HW234719   1.877   1.107   2.545  0.2104 -1.3858  1.6095
 7754SOL     OW34720   4.310   0.245   0.190 -0.2626  0.0023 -0.6866
 7754SOL    HW134721   4.222   0.280   0.175 -0.8297 -0.7026  1.0340
 7754SOL    HW234722   4.364   0.266   0.114  0.0031  1.6566 -0.0458
 7755SOL     OW34723   0.212   1.230   3.860 -0.1353 -0.4889  0.0924
 7755SOL    HW134724   0.133   1.195   3.902 -1.7043  1.8365 -0.8659
 7755SOL    HW234725   0.284   1.172   3.884  0.4337  0.2475  0.1843
 7756SOL     OW34726   2.344   0.825   6.534 -0.6202  0.1574  0.4190
 7756SOL    HW134727   2.422   0.862   6.576 -0.9530 -0.7623  1.8536
 7756SOL    HW234728   2.315   0.771   6.607  3.0355  0.8759  2.4152
 7757SOL     OW34729   0.933   3.746   0.106 -0.1494 -0.3007  0.0285
 7757SOL    HW134730   1.027   3.767   0.101 -0.3305  0.8986  2.0219
 7757SOL    HW234731   0.931   3.653   0.082 -1.5944  0.0834 -1.2599
 7758SOL     OW34732   1.809   4.310   6.115  0.8658  0.2675 -0.3156
 7758SOL    HW134733   1.771   4.396   6.100 -1.0132 -0.7706 -1.5584
 7758SOL    HW234734   1.901   4.334   6.119  0.0506  3.1187  1.1480
 7759SOL     OW34735   1.395   3.574  11.223  0.0927  0.8193  0.3440
 7759SOL    HW134736   1.357   3.489  11.199 -0.7112  1.2604  0.0695
 7759SOL    HW234737   1.431   3.553  11.310  0.3572 -0.1405  0.0117
 7760SOL     OW34738   1.967   2.489  13.670  0.2052  0.3111  0.4687
 7760SOL    HW134739   2.009   2.559  13.720  2.1453 -1.9410  2.0216
 7760SOL    HW234740   2.038   2.452  13.617  1.6239  2.4668  0.8690
 7761SOL     OW34741   4.510   0.829   1.517  0.1765 -0.5884  0.4530
 7761SOL    HW134742   4.572   0.839   1.444 -2.6118  1.1104 -1.6853
 7761SOL    HW234743   4.538   0.747   1.558  1.5515 -0.8891 -1.0902
 7762SOL     OW34744   1.548   4.143   6.946  0.3620  0.3720  0.0040
 7762SOL    HW134745   1.514   4.162   6.859  1.5872  1.9966 -0.1102
 7762SOL    HW234746   1.633   4.107   6.922  0.7908  0.8713  0.7429
 7763SOL     OW34747   4.070   0.879   8.855 -0.2252 -0.2238  0.5009
 7763SOL    HW134748   4.142   0.936   8.881 -1.4012  1.0434  0.9614
 7763SOL    HW234749   4.019   0.888   8.936  0.1603  0.1552  0.7001
 7764SOL     OW34750   4.101   1.912   8.975 -0.4054 -0.7260 -0.2676
 7764SOL    HW134751   4.085   1.861   8.895 -0.9705 -0.4906 -0.2994
 7764SOL    HW234752   4.192   1.885   8.992 -0.5904 -1.3309 -0.2510
 7765SOL     OW34753   4.060   1.917   3.595  0.0324  0.1213 -0.2386
 7765SOL    HW134754   4.115   1.849   3.635 -2.9913 -1.1686  1.7239
 7765SOL    HW234755   4.070   1.893   3.503 -0.9580 -0.3861 -0.2145
 7766SOL     OW34756   3.258   0.913   8.915  0.5522  0.1838  0.2467
 7766SOL    HW134757   3.288   1.001   8.893  0.3263 -0.3021 -1.9444
 7766SOL    HW234758   3.249   0.877   8.827 -1.4740  2.9774 -0.6872
 7767SOL     OW34759   2.517   2.193   7.842  0.6784 -0.4960 -0.1745
 7767SOL    HW134760   2.553   2.112   7.878 -2.1113 -1.4207  0.5090
 7767SOL    HW234761   2.597   2.244   7.828  0.4557  0.5984  2.5952
 7768SOL     OW34762   1.483   3.866   3.378 -0.3849 -0.0721  0.2108
 7768SOL    HW134763   1.400   3.882   3.423 -0.2939 -0.3621  0.4874
 7768SOL    HW234764   1.463   3.918   3.300  0.0343 -0.4458 -0.1517
 7769SOL     OW34765   3.394   0.248  10.149  0.2505  0.1006  0.8843
 7769SOL    HW134766   3.387   0.326  10.204  0.3746 -0.1055  1.1878
 7769SOL    HW234767   3.433   0.289  10.071  0.8601  1.0133  1.6773
 7770SOL     OW34768   1.422   4.667   9.279  0.1873  0.2956  0.6071
 7770SOL    HW134769   1.425   4.684   9.373  1.1114 -0.9712  0.7968
 7770SOL    HW234770   1.386   0.033   9.262 -0.2639  0.3213  1.7435
 7771SOL     OW34771   2.934   0.941  11.766 -0.3191  0.3629 -0.3424
 7771SOL    HW134772   2.899   1.023  11.732  1.4904  1.0777 -0.4944
 7771SOL    HW234773   2.920   0.881  11.693 -1.1827 -0.8246  0.7926
 7772SOL     OW34774   1.963   1.125   1.697  0.2283 -0.4070 -0.6867
 7772SOL    HW134775   1.966   1.060   1.627 -1.5899 -0.0446 -1.0892
 7772SOL    HW234776   1.959   1.207   1.649  1.1244  1.3639  2.2599
 7773SOL     OW34777   1.568   3.619   8.690  0.3938 -0.0434 -0.2582
 7773SOL    HW134778   1.594   3.628   8.599  0.5007 -2.6184 -0.4729
 7773SOL    HW234779   1.638   3.559   8.715 -0.0738 -0.0484  1.0451
 7774SOL     OW34780   2.014   2.210  12.584 -0.3331  0.0327 -0.0465
 7774SOL    HW134781   2.018   2.142  12.518 -0.6476  0.7395 -0.7842
 7774SOL    HW234782   1.951   2.268  12.543  2.8389  1.6665 -2.6233
 7775SOL     OW34783   0.334   2.924   9.966 -0.3738  0.4774  0.7724
 7775SOL    HW134784   0.426   2.948   9.955 -0.0159 -1.3187 -0.1577
 7775SOL    HW234785   0.301   2.967   9.887  0.4842 -0.4776 -0.1127
 7776SOL     OW34786   1.254   2.438   6.796 -0.2061 -0.3459 -0.1010
 7776SOL    HW134787   1.318   2.378   6.757 -1.0449 -1.4519  0.2100
 7776SOL    HW234788   1.244   2.402   6.884  1.0169 -0.3154  0.0478
 7777SOL     OW34789   4.237   2.076   3.802 -0.5103  0.6650 -0.1963
 7777SOL    HW134790   4.165   2.040   3.751  0.0944 -0.2324 -0.4158
 7777SOL    HW234791   4.184   2.148   3.835 -1.3833 -0.7111  1.4113
 7778SOL     OW34792   1.282   3.482   6.269 -0.8709 -0.0146  0.8020
 7778SOL    HW134793   1.293   3.408   6.329 -1.2094  0.1409  1.0544
 7778SOL    HW234794   1.206   3.455   6.218  0.6607 -0.9490 -0.9999
 7779SOL     OW34795   3.148   2.349  13.295 -0.2196 -0.8013 -0.3643
 7779SOL    HW134796   3.211   2.280  13.316 -0.3657 -0.5578  0.8465
 7779SOL    HW234797   3.204   2.418  13.262  1.8878 -2.4821 -0.2921
 7780SOL     OW34798   3.491   3.575  16.172  0.2242 -0.2854 -0.2799
 7780SOL    HW134799   3.496   3.642  16.240 -1.1666 -0.0450 -0.4256
 7780SOL    HW234800   3.401   3.576  16.140 -0.1705  0.1794  0.8630
 7781SOL     OW34801   2.370   2.525   6.756  0.2312  0.5867 -0.2033
 7781SOL    HW134802   2.310   2.472   6.704 -0.0002 -0.2398  0.9024
 7781SOL    HW234803   2.321   2.606   6.772 -0.9270 -0.0711 -0.3944
 7782SOL     OW34804   2.726   2.081   8.548  0.0440  0.0198  0.2093
 7782SOL    HW134805   2.739   1.990   8.574  0.8474  0.1223  0.1608
 7782SOL    HW234806   2.731   2.137   8.625 -1.5676 -0.7243  0.8491
 7783SOL     OW34807   4.477   3.810   7.320  0.8576  1.1111 -0.1691
 7783SOL    HW134808   4.502   3.719   7.308  2.3507  1.3619  1.1077
 7783SOL    HW234809   4.382   3.794   7.320  1.1737 -0.7415  0.3235
 7784SOL     OW34810   1.527   3.199   6.988  0.0416  0.1856 -0.1908
 7784SOL    HW134811   1.532   3.129   7.053 -2.7492 -0.1240 -0.3208
 7784SOL    HW234812   1.601   3.183   6.929 -0.2203 -0.6467 -0.2889
 7785SOL     OW34813   2.136   0.106   6.687  0.6305  0.0709  0.2374
 7785SOL    HW134814   2.113   0.032   6.744  1.0535 -1.1935 -1.2124
 7785SOL    HW234815   2.215   0.138   6.732  0.8194  1.1078 -0.8412
 7786SOL     OW34816   1.024   2.077   7.019 -0.1243 -0.0057 -0.5638
 7786SOL    HW134817   1.111   2.060   6.983  0.5262  0.8046  0.6090
 7786SOL    HW234818   1.046   2.137   7.090 -2.6890  2.1425 -1.5535
 7787SOL     OW34819   2.418   1.403   0.462 -0.0179  0.0828  0.0753
 7787SOL    HW134820   2.488   1.348   0.495  2.1159  2.7195 -0.0507
 7787SOL    HW234821   2.383   1.457   0.534  1.6516  1.6145 -0.2594
 7788SOL     OW34822   2.740   1.921   6.914  0.1603  0.1702 -0.1836
 7788SOL    HW134823   2.711   2.011   6.895  0.3991  0.3512  0.3144
 7788SOL    HW234824   2.771   1.939   7.003  0.5817  0.4204 -0.3832
 7789SOL     OW34825   0.455   3.898   1.507  0.0392 -0.4283  0.3854
 7789SOL    HW134826   0.510   3.847   1.448  0.5493  0.9276 -0.3079
 7789SOL    HW234827   0.522   3.951   1.549  0.3133 -0.0083 -0.5780
 7790SOL     OW34828   0.237   1.774  13.272 -0.0497  1.0105 -0.1198
 7790SOL    HW134829   0.250   1.858  13.315  0.9851  0.7927 -0.0148
 7790SOL    HW234830   0.219   1.803  13.183 -0.1370  0.3316 -0.3264
 7791SOL     OW34831   2.302   0.253  11.327 -0.2354  0.1206  0.1448
 7791SOL    HW134832   2.281   0.300  11.246 -0.6036  2.2931  1.4974
 7791SOL    HW234833   2.261   0.166  11.325  0.2903 -0.0981 -0.9002
 7792SOL     OW34834   0.694   4.719   3.581 -0.0278  0.0257  0.3426
 7792SOL    HW134835   0.618   0.002   3.639 -0.7324  1.7436 -0.6829
 7792SOL    HW234836   0.642   0.004   3.500  2.1519  2.1525 -0.8937
 7793SOL     OW34837   3.965   1.905   7.510 -0.2475  0.3688 -0.3748
 7793SOL    HW134838   3.875   1.939   7.511 -0.7330 -0.9081 -0.6269
 7793SOL    HW234839   3.939   1.813   7.503  1.2321 -0.2491  2.4017
 7794SOL     OW34840   0.979   1.007   3.588  0.4098 -0.6308  0.2394
 7794SOL    HW134841   1.063   0.964   3.606  0.6653  0.2443  1.1713
 7794SOL    HW234842   0.998   1.055   3.508  2.3378  0.1119  1.1533
 7795SOL     OW34843   3.493   2.350   2.370 -0.1615 -0.0371  0.2006
 7795SOL    HW134844   3.466   2.277   2.426 -1.6451 -1.0951 -1.9039
 7795SOL    HW234845   3.467   2.424   2.425  0.1458 -0.6707  1.1984
 7796SOL     OW34846   4.023   3.646  15.869 -0.4284 -0.5845  0.1545
 7796SOL    HW134847   3.952   3.705  15.842 -1.1975 -1.9698 -0.8357
 7796SOL    HW234848   4.059   3.639  15.781 -0.0286  1.2075  0.1701
 7797SOL     OW34849   1.195   0.881   4.209  0.3562 -0.3291 -0.0578
 7797SOL    HW134850   1.214   0.818   4.139 -0.1297 -1.4895  0.8593
 7797SOL    HW234851   1.107   0.911   4.183 -0.1521 -0.7774  1.1644
 7798SOL     OW34852   2.093   0.991   1.210 -0.1910 -0.2015  0.2629
 7798SOL    HW134853   2.008   1.034   1.200  0.2996  0.3931 -1.2691
 7798SOL    HW234854   2.093   0.911   1.157 -2.0233  0.1634 -0.2895
 7799SOL     OW34855   1.112   1.600   5.956  0.4601  0.3683  0.1595
 7799SOL    HW134856   1.204   1.580   5.937  0.2651 -0.9980  0.6941
 7799SOL    HW234857   1.075   1.514   5.938 -1.1672  0.5241  2.7632
 7800SOL     OW34858   3.858   2.641   6.905 -0.5992  0.3446 -0.3384
 7800SOL    HW134859   3.864   2.734   6.927 -0.4661  0.2819 -0.1161
 7800SOL    HW234860   3.906   2.591   6.970 -2.7483  0.7514  1.5433
 7801SOL     OW34861   1.382   0.695  14.115  0.2100 -0.1113  0.4158
 7801SOL    HW134862   1.328   0.618  14.098 -0.3571  0.3483  0.1155
 7801SOL    HW234863   1.392   0.684  14.210 -2.8482 -2.0470  0.5264
 7802SOL     OW34864   1.225   4.125  16.598  0.0830  0.1725  0.2773
 7802SOL    HW134865   1.311   4.096  16.567 -0.1855 -0.0348 -0.2796
 7802SOL    HW234866   1.258   4.189  16.661 -1.1338  0.2794  0.7977
 7803SOL     OW34867   4.142   2.152  11.505  0.2714 -0.3762  0.0855
 7803SOL    HW134868   4.077   2.082  11.510  0.6537 -0.6578  1.1694
 7803SOL    HW234869   4.133   2.193  11.591 -0.2677 -2.2283  0.9348
 7804SOL     OW34870   1.160   1.936   2.246 -0.7701  0.0999 -0.4899
 7804SOL    HW134871   1.234   1.875   2.250 -2.6786 -2.1381  1.3690
 7804SOL    HW234872   1.103   1.895   2.311 -0.0598 -1.3232 -0.7572
 7805SOL     OW34873   2.398   3.694   5.051 -0.3476 -0.2341  0.4505
 7805SOL    HW134874   2.375   3.785   5.030  0.5460 -0.2005 -0.4138
 7805SOL    HW234875   2.334   3.686   5.122  0.3214  0.4502  1.1341
 7806SOL     OW34876   2.556   1.730   8.259  0.7320  0.2812  0.5764
 7806SOL    HW134877   2.587   1.730   8.349 -0.8935 -2.6259  1.1337
 7806SOL    HW234878   2.633   1.767   8.215  0.7742  1.3421  1.5701
 7807SOL     OW34879   2.141   2.577   0.966  0.5706 -0.3410  0.0166
 7807SOL    HW134880   2.052   2.612   0.969  0.4535 -0.7019  0.8673
 7807SOL    HW234881   2.116   2.489   0.996  0.5513 -0.1136  0.6597
 7808SOL     OW34882   2.122   0.356  16.626  0.2614 -0.8666 -0.0423
 7808SOL    HW134883   2.062   0.368  16.699 -1.7795 -0.4712 -1.7975
 7808SOL    HW234884   2.118   0.261  16.636  1.9955 -0.9760 -0.3851
 7809SOL     OW34885   3.953   2.241   7.840  0.1405 -0.2644  0.2063
 7809SOL    HW134886   4.030   2.278   7.884  0.2914  0.6171 -0.7941
 7809SOL    HW234887   3.988   2.218   7.754 -0.7063 -1.3962  0.1650
 7810SOL     OW34888   0.518   2.982   7.921 -0.0440  0.5690 -0.1642
 7810SOL    HW134889   0.565   3.015   7.997 -0.2670  0.7957 -0.1246
 7810SOL    HW234890   0.425   2.994   7.937 -0.2775 -0.0397 -1.0472
 7811SOL     OW34891   1.092   1.832   3.986  0.0568  0.1304 -0.9384
 7811SOL    HW134892   1.049   1.865   3.907  2.3145  0.0977 -2.1610
 7811SOL    HW234893   1.088   1.905   4.048  0.8436 -0.7173  0.1138
 7812SOL     OW34894   3.244   3.840   3.202  0.0391  0.0737 -0.1703
 7812SOL    HW134895   3.262   3.906   3.136 -2.6819  0.6804 -0.2835
 7812SOL    HW234896   3.168   3.869   3.253 -1.8149 -0.7535 -2.4613
 7813SOL     OW34897   2.336   1.880  11.221 -0.0491 -0.6967  0.5362
 7813SOL    HW134898   2.304   1.903  11.309  0.6663 -0.3956  0.7172
 7813SOL    HW234899   2.418   1.843  11.254 -0.2321 -2.4562 -0.9839
 7814SOL     OW34900   0.271   4.111   9.011  0.2102  0.0824 -0.4279
 7814SOL    HW134901   0.189   4.161   9.017  0.4178  0.1169  2.1594
 7814SOL    HW234902   0.308   4.149   8.931  1.3977 -0.5289 -0.1682
 7815SOL     OW34903   1.405   4.596   5.695 -0.6602 -0.1150 -0.2998
 7815SOL    HW134904   1.484   4.649   5.705 -0.4681 -0.7977  1.7453
 7815SOL    HW234905   1.427   4.517   5.743 -1.3433  1.5425  2.7730
 7816SOL     OW34906   1.642   2.804  15.831 -0.4229  0.4293  0.0531
 7816SOL    HW134907   1.574   2.819  15.765 -1.1585 -2.2484  0.1962
 7816SOL    HW234908   1.605   2.861  15.899 -1.6842  1.3199 -1.3788
 7817SOL     OW34909   2.804   3.976   7.870  1.2282 -0.0722 -0.0607
 7817SOL    HW134910   2.723   3.978   7.922 -0.3845  1.2710 -2.5935
 7817SOL    HW234911   2.806   3.888   7.833  1.3888 -0.1644  0.1723
 7818SOL     OW34912   0.921   2.572   1.976 -0.3640 -0.2875  0.1094
 7818SOL    HW134913   0.916   2.541   1.886 -1.4958  0.5853 -0.1217
 7818SOL    HW234914   1.010   2.608   1.969  0.1219 -1.7260 -1.2080
 7819SOL     OW34915   2.558   1.131   2.247  0.6653 -0.5153 -0.1480
 7819SOL    HW134916   2.622   1.157   2.181  1.0062  0.7572  0.6794
 7819SOL    HW234917   2.584   1.041   2.264  0.3221 -1.0889 -2.6913
 7820SOL     OW34918   1.180   1.156  10.789 -0.4666 -0.1688  0.3954
 7820SOL    HW134919   1.169   1.249  10.769  1.4953 -0.0401 -0.0519
 7820SOL    HW234920   1.273   1.150  10.810 -0.0856 -0.9556 -1.5586
 7821SOL     OW34921   2.037   3.422   9.558 -0.4005  0.4524  0.6512
 7821SOL    HW134922   2.058   3.479   9.633 -1.2054 -0.6494  1.7148
 7821SOL    HW234923   2.017   3.491   9.495 -0.5631 -0.4935 -0.3243
 7822SOL     OW34924   2.983   4.113  11.691 -0.0502 -0.4695  0.0338
 7822SOL    HW134925   3.000   4.019  11.699 -1.8570 -0.9374 -1.5389
 7822SOL    HW234926   2.967   4.129  11.598 -2.7389  1.2737  0.7879
 7823SOL     OW34927   1.576   1.077   1.616 -0.0217  0.2869 -0.0623
 7823SOL    HW134928   1.632   1.009   1.653 -1.4320 -0.8325  0.0279
 7823SOL    HW234929   1.631   1.156   1.623  2.1891 -1.3234  0.6559
 7824SOL     OW34930   3.154   3.699   3.567  0.1012  0.7316  0.1984
 7824SOL    HW134931   3.156   3.606   3.547 -0.0372  0.9744 -0.9683
 7824SOL    HW234932   3.088   3.697   3.636  0.3282  2.1000  0.4612
 7825SOL     OW34933   0.775   4.514   1.915  0.2066  0.1865  0.0691
 7825SOL    HW134934   0.734   4.543   1.996  0.1125  1.3661 -0.4005
 7825SOL    HW234935   0.710   4.452   1.883  0.0621  1.3549 -1.9293
 7826SOL     OW34936   1.990   2.170   6.661 -0.4239 -0.1737  0.1303
 7826SOL    HW134937   2.045   2.108   6.614  0.1570  0.3053  0.1836
 7826SOL    HW234938   1.919   2.172   6.597 -1.4232 -0.2522  1.2304
 7827SOL     OW34939   2.925   1.626   7.298  0.1513  0.0441 -0.2235
 7827SOL    HW134940   2.942   1.546   7.247  0.6521 -1.4497  2.2790
 7827SOL    HW234941   2.988   1.670   7.240  2.2397 -1.1854  1.0995
 7828SOL     OW34942   0.746   1.225   2.360  0.0989  0.5054 -0.0672
 7828SOL    HW134943   0.696   1.158   2.314  0.0845 -0.1573  0.9211
 7828SOL    HW234944   0.689   1.258   2.429 -1.6998  0.4302 -1.4926
 7829SOL     OW34945   0.240   1.517   7.190  0.4496  0.6763 -0.4467
 7829SOL    HW134946   0.270   1.588   7.246  0.3201  0.5536 -0.2184
 7829SOL    HW234947   0.275   1.440   7.236 -3.0000 -0.7938 -0.2369
 7830SOL     OW34948   2.466   4.690   9.338  0.4354  0.3376  0.0980
 7830SOL    HW134949   2.499   4.602   9.323 -1.3601 -0.5974  1.6396
 7830SOL    HW234950   2.384   4.691   9.288 -1.4560 -2.0337  3.1245
 7831SOL     OW34951   0.669   1.560   6.113 -0.7236  0.6086 -0.2460
 7831SOL    HW134952   0.638   1.500   6.180  1.3445 -1.5704 -1.2569
 7831SOL    HW234953   0.613   1.535   6.039 -1.6169  1.9180 -0.0210
 7832SOL     OW34954   2.223   4.032  12.541  0.3978  0.3690 -0.0756
 7832SOL    HW134955   2.177   3.952  12.515 -0.4378  0.9123 -0.2928
 7832SOL    HW234956   2.307   4.012  12.500 -0.7401 -1.5367 -1.4602
 7833SOL     OW34957   3.926   2.131  15.983 -0.0600 -0.1918 -0.0854
 7833SOL    HW134958   3.987   2.066  15.949 -1.2478 -1.5482  0.3840
 7833SOL    HW234959   3.977   2.184  16.044 -3.7833  0.4705  2.3911
 7834SOL     OW34960   3.593   2.707  13.716  0.2490 -0.4475  0.4737
 7834SOL    HW134961   3.669   2.763  13.710  0.1095 -0.6108 -2.7955
 7834SOL    HW234962   3.634   2.632  13.672 -1.9505  0.5389 -3.3183
 7835SOL     OW34963   3.041   1.588   2.816  0.0302 -0.3098  0.4647
 7835SOL    HW134964   3.000   1.612   2.899 -0.4885 -1.2624  0.4808
 7835SOL    HW234965   3.124   1.635   2.813  0.4830 -1.2032 -0.7751
 7836SOL     OW34966   3.023   2.105   8.825 -0.8747  0.6491 -0.4686
 7836SOL    HW134967   3.093   2.050   8.789 -1.3693  0.5891 -1.3257
 7836SOL    HW234968   3.050   2.127   8.914 -1.1429  2.2699 -0.7966
 7837SOL     OW34969   3.647   4.623   7.703  0.0459  0.1683  0.4756
 7837SOL    HW134970   3.603   4.609   7.786 -0.9561  2.0964  0.2757
 7837SOL    HW234971   3.621   4.555   7.641  0.4427  0.5766 -0.1433
 7838SOL     OW34972   3.233   3.887   9.640  0.0569  0.4098 -0.3351
 7838SOL    HW134973   3.148   3.844   9.626  1.0082 -1.1721 -1.3013
 7838SOL    HW234974   3.281   3.804   9.638 -0.6907 -0.0689  1.4044
 7839SOL     OW34975   0.391   2.287   2.689  0.6530 -0.5700 -0.2780
 7839SOL    HW134976   0.465   2.340   2.659 -1.3814  1.1283 -2.2994
 7839SOL    HW234977   0.372   2.325   2.774  2.2582 -1.1764  0.3431
 7840SOL     OW34978   2.810   1.682   1.613  0.1068 -0.2835 -0.6559
 7840SOL    HW134979   2.859   1.640   1.684  1.2782 -0.5763 -1.6391
 7840SOL    HW234980   2.721   1.661   1.639  0.2553  0.1954  0.2191
 7841SOL     OW34981   2.290   2.725   5.760 -0.3580  0.0169 -0.2969
 7841SOL    HW134982   2.341   2.675   5.697  1.0442  1.4749 -0.3184
 7841SOL    HW234983   2.224   2.656   5.771  0.0502 -0.4963 -1.0626
 7842SOL     OW34984   2.899   2.608   0.058  0.0540 -0.2277 -0.2148
 7842SOL    HW134985   2.961   2.673   0.091  2.3964 -2.0227 -1.0001
 7842SOL    HW234986   2.816   2.644   0.087  0.3368  0.5896 -0.4268
 7843SOL     OW34987   1.752   4.107   8.731 -0.0114 -0.0766 -0.3566
 7843SOL    HW134988   1.754   4.201   8.711  1.8653  0.0419  0.4107
 7843SOL    HW234989   1.771   4.113   8.824 -0.8660 -0.5288 -0.1474
 7844SOL     OW34990   1.240   4.677   8.942 -0.3028 -0.1244  0.1690
 7844SOL    HW134991   1.180   4.603   8.938  0.7232 -0.9364 -0.0910
 7844SOL    HW234992   1.185   0.022   8.985 -0.9753  0.4017 -1.4787
 7845SOL     OW34993   3.337   2.507   8.699 -0.2553 -0.2333  0.7383
 7845SOL    HW134994   3.270   2.519   8.765 -1.4112 -0.9682 -0.2933
 7845SOL    HW234995   3.286   2.497   8.619 -1.0197  0.0108  1.2038
 7846SOL     OW34996   2.222   1.621   6.384  0.2881  0.4667  0.1876
 7846SOL    HW134997   2.164   1.639   6.458 -2.6440 -5.4356 -0.6172
 7846SOL    HW234998   2.162   1.625   6.310 -2.5928 -0.7662  2.4375
 7847SOL     OW34999   2.705   3.119   8.267 -0.3023  0.5482  0.0840
 7847SOL    HW135000   2.669   3.033   8.242  1.4376  0.2779 -1.5203
 7847SOL    HW235001   2.781   3.104   8.210 -0.1027 -1.0910  0.7712
 7848SOL     OW35002   2.328   3.678   7.110 -0.3382 -0.2221 -0.2696
 7848SOL    HW135003   2.267   3.705   7.041  0.3260  2.2119  0.1004
 7848SOL    HW235004   2.315   3.744   7.178 -3.2637 -1.2233  0.1551
 7849SOL     OW35005   3.125   1.548   9.196  0.8119 -0.4745  0.2569
 7849SOL    HW135006   3.200   1.494   9.173 -1.1987 -3.1375 -0.0499
 7849SOL    HW235007   3.100   1.512   9.281 -1.0885  0.9442  0.3213
 7850SOL     OW35008   0.044   2.940   1.803  0.2485 -0.1971  0.4660
 7850SOL    HW135009   4.675   2.968   1.789  0.3151 -1.0673 -1.6870
 7850SOL    HW235010   0.067   3.010   1.864  0.9818 -2.2903  2.6069
 7851SOL     OW35011   3.001   4.549  10.742 -0.1504  0.2473 -0.2940
 7851SOL    HW135012   3.094   4.526  10.739  0.0603  1.1617 -0.6188
 7851SOL    HW235013   2.967   4.462  10.764 -1.1441  0.8575  0.5943
 7852SOL     OW35014   1.123   2.217   1.891  0.3987 -0.3865  0.0232
 7852SOL    HW135015   1.150   2.127   1.874 -2.2895 -1.2649  0.4096
 7852SOL    HW235016   1.147   2.245   1.979 -1.1214 -1.8782  0.9087
 7853SOL     OW35017   4.341   1.711   7.494 -0.3101  0.6882  0.5016
 7853SOL    HW135018   4.292   1.683   7.417 -2.9249 -1.3685  2.8884
 7853SOL    HW235019   4.303   1.798   7.508 -0.2112  0.7182  0.5889
 7854SOL     OW35020   4.398   4.617   2.228 -0.0286  0.0814 -0.5175
 7854SOL    HW135021   4.448   4.698   2.221 -0.7963  0.3930 -2.1843
 7854SOL    HW235022   4.429   4.590   2.315  0.1642  1.1587 -0.2629
 7855SOL     OW35023   3.190   2.802  10.762  0.4028 -0.6850 -0.1581
 7855SOL    HW135024   3.141   2.786  10.681 -0.7060  1.6980  0.0666
 7855SOL    HW235025   3.280   2.796  10.731  0.1925 -0.2813 -0.8396
 7856SOL     OW35026   4.642   2.176   4.456 -0.1317 -0.0573 -0.0550
 7856SOL    HW135027   4.637   2.117   4.531 -1.8460 -0.7047 -0.7048
 7856SOL    HW235028   4.647   2.114   4.384 -1.3241 -1.2411  0.8929
 7857SOL     OW35029   1.310   3.924   1.032  0.1052 -0.0073  0.1835
 7857SOL    HW135030   1.250   3.975   1.085  0.6134  1.2387 -0.4479
 7857SOL    HW235031   1.269   3.838   1.041 -2.1114  0.9427 -1.0658
 7858SOL     OW35032   1.541   0.312  17.360 -0.3636  0.0511 -0.4485
 7858SOL    HW135033   1.619   0.352  17.398  0.6763 -1.0905 -1.3995
 7858SOL    HW235034   1.468   0.349  17.410  0.2646 -0.0061  0.5160
 7859SOL     OW35035   4.586   0.955   9.730  0.2598  0.5629  0.4579
 7859SOL    HW135036   4.597   0.867   9.765  0.1237  0.3218 -0.1005
 7859SOL    HW235037   4.500   0.987   9.757  0.0379  0.8653 -0.6098
 7860SOL     OW35038   1.839   2.280  13.827 -0.2928 -0.2354  0.2519
 7860SOL    HW135039   1.864   2.331  13.750 -0.7042 -0.7332 -0.2125
 7860SOL    HW235040   1.744   2.274  13.817 -0.4715 -0.6026  2.2652
 7861SOL     OW35041   1.049   4.305   4.204  0.3095  0.7524 -0.2661
 7861SOL    HW135042   1.081   4.255   4.280 -0.9672 -1.4757 -1.2196
 7861SOL    HW235043   1.072   4.240   4.138 -1.3887 -1.3156  1.1817
 7862SOL     OW35044   3.336   3.471   8.846  1.3382  0.2109  0.2020
 7862SOL    HW135045   3.312   3.527   8.920  0.6103  0.8783 -0.5478
 7862SOL    HW235046   3.401   3.415   8.889 -0.1225 -1.5568  0.1048
 7863SOL     OW35047   2.089   2.308   4.921 -0.6752  0.4937 -0.7977
 7863SOL    HW135048   2.081   2.367   4.846 -0.4612  1.9368  0.3294
 7863SOL    HW235049   2.051   2.360   4.992  3.3070 -0.8407  2.3077
 7864SOL     OW35050   4.651   3.134  12.944  0.6359  0.4887  0.1891
 7864SOL    HW135051   4.599   3.208  12.973  0.6401  0.8443 -0.7090
 7864SOL    HW235052   4.590   3.065  12.918 -0.2538  1.3217  0.0987
 7865SOL     OW35053   0.160   0.922   6.115  0.4662  0.4887  0.0172
 7865SOL    HW135054   0.078   0.876   6.131  1.2462 -0.4810  1.2493
 7865SOL    HW235055   0.128   1.012   6.112 -3.1512 -0.8098  0.0282
 7866SOL     OW35056   0.219   0.767  13.956 -0.6259  0.2463  0.3350
 7866SOL    HW135057   0.290   0.821  13.921 -0.2834  0.0290  0.6891
 7866SOL    HW235058   0.265   0.715  14.022 -0.8006 -0.3960 -0.0423
 7867SOL     OW35059   0.808   3.958   9.056  0.9913  0.2020 -0.0840
 7867SOL    HW135060   0.803   4.052   9.073  0.9508  0.2053 -0.1132
 7867SOL    HW235061   0.837   3.933   9.144  2.0554 -3.5282 -1.4869
 7868SOL     OW35062   3.411   2.778  10.134 -0.6376  0.5577 -0.6662
 7868SOL    HW135063   3.336   2.830  10.161 -0.5132 -0.2249  1.1946
 7868SOL    HW235064   3.466   2.836  10.081 -1.4990  1.0742 -0.9947
 7869SOL     OW35065   3.449   2.699   2.110 -0.4386 -0.3502 -0.0780
 7869SOL    HW135066   3.441   2.604   2.104  3.9655 -0.6749 -1.0697
 7869SOL    HW235067   3.537   2.721   2.079 -0.5321  0.2420  0.0688
 7870SOL     OW35068   2.929   2.867   3.768  0.2499 -0.1735 -0.0258
 7870SOL    HW135069   2.866   2.931   3.734  0.0218 -0.3372  0.0870
 7870SOL    HW235070   2.938   2.814   3.689  0.8684  1.4698 -1.0585
 7871SOL     OW35071   4.146   2.375   8.647  0.4730 -0.0099 -0.3866
 7871SOL    HW135072   4.194   2.296   8.623 -1.0618 -1.1486  0.3512
 7871SOL    HW235073   4.084   2.331   8.704  1.3818 -0.8189 -0.0212
 7872SOL     OW35074   4.289   2.684  10.587 -0.0703 -1.0358  0.7908
 7872SOL    HW135075   4.229   2.672  10.514 -0.2450  1.6603  0.4829
 7872SOL    HW235076   4.377   2.690  10.549 -1.1566 -0.8358 -1.6548
 7873SOL     OW35077   4.544   1.669  15.321 -0.2625 -0.3240 -0.1249
 7873SOL    HW135078   4.528   1.575  15.325 -1.5118 -0.0979  0.6711
 7873SOL    HW235079   4.473   1.701  15.264  0.1894  0.2090 -0.3882
 7874SOL     OW35080   4.612   2.329   0.943  1.0000 -0.2227  0.3335
 7874SOL    HW135081   4.579   2.417   0.921  1.4128 -0.2460 -0.4072
 7874SOL    HW235082   4.681   2.359   1.003  1.2150  0.3428 -0.1915
 7875SOL     OW35083   4.591   3.193   3.427 -0.0587  0.2590 -0.1326
 7875SOL    HW135084   4.648   3.169   3.501  1.0479 -0.3987 -1.2053
 7875SOL    HW235085   4.603   3.287   3.434  1.7136  0.2407 -3.1383
 7876SOL     OW35086   1.080   4.580   8.093 -0.5921 -0.1155  0.1711
 7876SOL    HW135087   1.151   4.550   8.035 -0.1806  1.2524 -0.0236
 7876SOL    HW235088   1.115   4.662   8.129 -0.1164  0.0892 -0.7494
 7877SOL     OW35089   0.996   3.261   0.738 -0.2114  0.0612  0.3064
 7877SOL    HW135090   0.920   3.308   0.703 -0.6491  0.0340  1.2332
 7877SOL    HW235091   1.053   3.337   0.753 -1.7980  1.1170  0.8761
 7878SOL     OW35092   3.567   2.870   7.488  0.4264 -0.0142  0.7460
 7878SOL    HW135093   3.543   2.924   7.412  1.2584  0.0209  0.5117
 7878SOL    HW235094   3.632   2.920   7.536  0.3890  1.1864 -0.4742
 7879SOL     OW35095   2.170   0.573   2.258  0.0726  0.0572 -0.0722
 7879SOL    HW135096   2.229   0.563   2.183 -4.1630  0.2834 -3.3901
 7879SOL    HW235097   2.206   0.507   2.317  0.2816  0.5895  0.3960
 7880SOL     OW35098   0.924   3.476   0.007 -0.2247 -0.4698  0.0183
 7880SOL    HW135099   0.899   3.532  17.621  0.4208 -0.1063  0.0782
 7880SOL    HW235100   0.959   3.397  17.651  0.4271 -0.4817  0.5796
 7881SOL     OW35101   4.161   1.473   2.943 -0.6553 -0.2870  0.2971
 7881SOL    HW135102   4.165   1.382   2.913 -1.4393 -0.3140  0.2878
 7881SOL    HW235103   4.110   1.496   2.865 -1.9794  1.2801  1.6381
 7882SOL     OW35104   3.084   0.085  11.502 -0.1259  0.2685  0.8464
 7882SOL    HW135105   3.059   0.152  11.438 -1.8995 -0.8691  0.3673
 7882SOL    HW235106   3.179   0.097  11.495 -0.3367  0.0005 -2.5038
 7883SOL     OW35107   1.829   0.760   3.266 -0.1334  0.2204  0.8771
 7883SOL    HW135108   1.761   0.817   3.229  1.0949  1.4823  0.5773
 7883SOL    HW235109   1.774   0.705   3.322  0.6737 -0.6227  0.8456
 7884SOL     OW35110   0.557   2.402   2.492 -0.0561  0.4663  0.1276
 7884SOL    HW135111   0.635   2.430   2.443 -1.1155  2.5266 -0.3969
 7884SOL    HW235112   0.487   2.430   2.433 -0.2299  0.2867  0.2498
 7885SOL     OW35113   3.059   3.208   2.254 -0.0313  0.1516  0.1311
 7885SOL    HW135114   2.991   3.257   2.209  0.6913  0.6063 -0.4474
 7885SOL    HW235115   3.012   3.191   2.336  0.1292  0.7408  0.3463
 7886SOL     OW35116   3.429   1.152   3.432  0.7579 -0.3081 -0.0866
 7886SOL    HW135117   3.522   1.136   3.415  0.5743 -0.8530 -0.5862
 7886SOL    HW235118   3.383   1.078   3.473 -1.4858 -0.2285 -2.4432
 7887SOL     OW35119   3.509   0.141   5.630 -0.0775 -0.0615  0.1426
 7887SOL    HW135120   3.573   0.081   5.669  0.7941  0.9829  0.3114
 7887SOL    HW235121   3.449   0.081   5.586  0.1080 -1.2620  1.5300
 7888SOL     OW35122   4.194   0.313   8.205  0.6639 -0.3316  0.6520
 7888SOL    HW135123   4.207   0.250   8.276  3.2970  0.1870  0.6189
 7888SOL    HW235124   4.127   0.274   8.148 -0.8381  1.4080  1.2217
 7889SOL     OW35125   1.476   4.647   4.137  0.0894 -0.3039  0.3150
 7889SOL    HW135126   1.427   4.565   4.134 -0.9560  0.3342  0.0574
 7889SOL    HW235127   1.410   4.713   4.115 -1.3583 -1.8213  0.1244
 7890SOL     OW35128   4.107   0.340   0.060  0.2637 -0.5732  0.2221
 7890SOL    HW135129   4.013   0.354   0.072  0.2013 -2.5411  1.9468
 7890SOL    HW235130   4.114   0.330  17.652 -0.2266  0.2632  0.0944
 7891SOL     OW35131   1.865   2.156  13.454 -0.7610  0.2675 -0.0945
 7891SOL    HW135132   1.951   2.195  13.439 -0.6660  0.9926  2.3790
 7891SOL    HW235133   1.882   2.081  13.510 -1.2052 -1.1115 -1.8260
 7892SOL     OW35134   3.739   2.023  13.219 -0.0801 -0.1599  0.6234
 7892SOL    HW135135   3.772   2.072  13.294  0.9102 -0.5606  0.4428
 7892SOL    HW235136   3.707   1.947  13.267 -2.3316  0.2751 -0.1574
 7893SOL     OW35137   1.783   3.331   7.292 -0.0540 -0.4680 -0.3014
 7893SOL    HW135138   1.818   3.337   7.204  0.1366  1.5822 -0.0674
 7893SOL    HW235139   1.765   3.236   7.293 -0.5366 -0.3727  0.3186
 7894SOL     OW35140   2.767   1.769   6.279 -0.2891 -0.4819  0.6143
 7894SOL    HW135141   2.707   1.834   6.315 -0.6327 -0.3252 -0.2439
 7894SOL    HW235142   2.750   1.777   6.185 -1.3165 -1.3571  0.7330
 7895SOL     OW35143   3.809   2.669   5.532 -0.3628  0.4082  0.0148
 7895SOL    HW135144   3.812   2.662   5.628  1.9268  0.8246 -0.0378
 7895SOL    HW235145   3.861   2.597   5.498 -1.8583  0.3078 -2.0562
 7896SOL     OW35146   2.808   2.751  11.220  0.1199  0.4482  0.2632
 7896SOL    HW135147   2.839   2.802  11.294 -1.2163 -0.2956  1.3342
 7896SOL    HW235148   2.717   2.738  11.249 -0.6019 -0.6224 -2.4648
 7897SOL     OW35149   1.879   4.215   4.250 -0.3890  0.0279 -0.1758
 7897SOL    HW135150   1.818   4.219   4.324  0.7308 -2.2640  0.8938
 7897SOL    HW235151   1.929   4.293   4.270  0.1792 -1.0359  2.5650
 7898SOL     OW35152   2.573   4.259   8.425 -0.2425 -0.3302 -0.1427
 7898SOL    HW135153   2.664   4.258   8.454 -0.5829  0.9022  0.9564
 7898SOL    HW235154   2.563   4.317   8.350  1.1437  0.6869  0.4717
 7899SOL     OW35155   0.953   0.857   2.343 -0.2935 -0.2861  0.4242
 7899SOL    HW135156   0.919   0.902   2.265 -1.1245 -0.1872  0.8494
 7899SOL    HW235157   1.045   0.837   2.324 -0.6551 -2.0152  0.4241
 7900SOL     OW35158   0.131   1.727   6.354 -0.1654  0.2235  0.4675
 7900SOL    HW135159   0.140   1.725   6.449 -1.9938 -2.9155  0.5478
 7900SOL    HW235160   0.061   1.792   6.353 -1.2525 -0.9949 -2.7839
 7901SOL     OW35161   1.514   2.616  17.327 -0.2294 -0.4076  0.2464
 7901SOL    HW135162   1.470   2.631  17.244 -1.8947  2.5235  1.6628
 7901SOL    HW235163   1.496   2.693  17.381 -1.4999 -0.8641  0.4625
 7902SOL     OW35164   0.087   0.340  11.348  0.1014 -0.1220 -0.5016
 7902SOL    HW135165   0.078   0.278  11.421  1.3733  1.3570  0.9197
 7902SOL    HW235166   0.153   0.299  11.292 -0.2521 -1.1646 -0.1672
 7903SOL     OW35167   4.447   1.573   8.351  0.0891  0.1230 -0.0023
 7903SOL    HW135168   4.412   1.514   8.284 -0.7158 -0.2239  0.7269
 7903SOL    HW235169   4.436   1.653   8.299  0.3115 -0.1103 -0.4049
 7904SOL     OW35170   2.348   2.250   9.094 -0.2880  0.5256  0.2166
 7904SOL    HW135171   2.340   2.154   9.097  0.4850  0.4489 -0.1716
 7904SOL    HW235172   2.408   2.242   9.019 -1.5666 -2.2536 -0.5283
 7905SOL     OW35173   0.404   0.949   9.663  0.6900  0.5313 -0.2840
 7905SOL    HW135174   0.488   0.986   9.689  0.2991  2.3524 -1.6381
 7905SOL    HW235175   0.348   1.023   9.684 -2.0198 -1.7652  0.5472
 7906SOL     OW35176   3.263   0.867  16.436 -0.3555  0.3522 -0.4828
 7906SOL    HW135177   3.352   0.845  16.463  0.6140  2.1486 -2.2630
 7906SOL    HW235178   3.273   0.961  16.421  0.5260  0.1317 -1.2576
 7907SOL     OW35179   1.061   0.597   7.328  0.8579 -0.1320 -0.2434
 7907SOL    HW135180   1.061   0.617   7.234 -1.5811  1.4755  0.1279
 7907SOL    HW235181   0.970   0.612   7.352  0.6604 -0.3763 -0.8475
 7908SOL     OW35182   0.911   3.055   1.758 -0.3102 -0.5143 -0.0392
 7908SOL    HW135183   0.916   2.962   1.737  1.7996 -0.2410 -0.7681
 7908SOL    HW235184   0.863   3.088   1.682  0.2533 -1.9887 -1.0334
 7909SOL     OW35185   4.511   4.173   8.417 -0.3461  0.4415 -0.0698
 7909SOL    HW135186   4.596   4.208   8.388  0.1583 -0.2320  0.6103
 7909SOL    HW235187   4.444   4.199   8.354 -0.8819  0.7948  0.6418
 7910SOL     OW35188   1.239   0.148   1.917 -0.1505 -0.0794 -0.3311
 7910SOL    HW135189   1.162   0.105   1.954  0.6547 -1.7231 -0.5524
 7910SOL    HW235190   1.315   0.106   1.957 -1.2633  0.1313  2.0072
 7911SOL     OW35191   0.029   1.333   3.252 -0.4975 -0.0629 -0.2416
 7911SOL    HW135192   0.097   1.294   3.307 -0.7373 -0.3548 -0.1518
 7911SOL    HW235193   0.021   1.413   3.304 -1.7814  0.8589 -1.8606
 7912SOL     OW35194   1.918   3.910  12.427 -0.6877 -0.0076  0.2212
 7912SOL    HW135195   1.846   3.947  12.375  0.4432  0.9296 -0.6945
 7912SOL    HW235196   1.888   3.915  12.517  0.1064  1.1722  0.4182
 7913SOL     OW35197   3.267   0.170  10.994 -0.2367 -0.1270 -0.0903
 7913SOL    HW135198   3.204   0.100  11.013 -0.5484  0.6419  1.6981
 7913SOL    HW235199   3.261   0.217  11.078 -0.5578 -0.8850  0.3106
 7914SOL     OW35200   2.979   0.660   9.269  0.3255  0.3377  0.1571
 7914SOL    HW135201   2.923   0.586   9.247  2.0600 -1.1693  0.8365
 7914SOL    HW235202   3.036   0.658   9.192  0.5254 -1.1815  0.3521
 7915SOL     OW35203   4.629   0.511   8.658  0.6124 -0.0679  0.0058
 7915SOL    HW135204   4.623   0.561   8.739  0.6693 -1.1795  0.7001
 7915SOL    HW235205   4.538   0.492   8.635  0.2684  0.7884  0.6730
 7916SOL     OW35206   4.300   1.169   4.095  0.0521 -0.1932  0.4636
 7916SOL    HW135207   4.231   1.215   4.047 -0.5005  0.6923  2.0885
 7916SOL    HW235208   4.334   1.112   4.027 -0.0582  0.7627 -0.3871
 7917SOL     OW35209   2.130   4.053   5.301  0.0432 -0.2608  0.5445
 7917SOL    HW135210   2.134   4.145   5.327 -1.1127 -0.2646  0.7249
 7917SOL    HW235211   2.207   4.026   5.352 -0.5622  0.2222  1.6930
 7918SOL     OW35212   3.837   2.350   2.779  0.0245  0.2426  0.3247
 7918SOL    HW135213   3.877   2.286   2.720  1.9424  0.2165  1.6612
 7918SOL    HW235214   3.763   2.295   2.805  0.6081 -0.1455  1.1728
 7919SOL     OW35215   4.175   2.173  11.773  0.0238  0.0437  0.7353
 7919SOL    HW135216   4.238   2.167  11.845  0.8247  0.3808  0.0553
 7919SOL    HW235217   4.119   2.095  11.774 -1.7968  1.3066 -3.5304
 7920SOL     OW35218   2.730   4.169   2.356  0.6024  0.0322  0.2632
 7920SOL    HW135219   2.764   4.092   2.311 -0.5997  0.4312 -1.3357
 7920SOL    HW235220   2.803   4.173   2.418  1.1076  1.4837 -0.4236
 7921SOL     OW35221   4.270   0.344   1.906 -0.4093  0.0859 -1.0002
 7921SOL    HW135222   4.316   0.386   1.979  1.6586 -0.8191 -1.7802
 7921SOL    HW235223   4.176   0.362   1.911  0.0851  1.9919  1.4204
 7922SOL     OW35224   3.401   3.582   7.298  0.2166  0.6338  0.0864
 7922SOL    HW135225   3.332   3.564   7.233  0.1679  0.6418  0.1356
 7922SOL    HW235226   3.442   3.651   7.246 -2.8205  0.4053 -2.6872
 7923SOL     OW35227   0.811   2.130   9.244  0.1985  0.6205 -0.0656
 7923SOL    HW135228   0.905   2.117   9.241  0.1984  0.8224 -1.3382
 7923SOL    HW235229   0.788   2.094   9.329 -2.5572  4.0998  0.6650
 7924SOL     OW35230   2.391   0.937   3.101  0.5358 -0.4506  1.3658
 7924SOL    HW135231   2.428   0.887   3.028  0.6155  0.1617  0.9910
 7924SOL    HW235232   2.458   0.917   3.166  1.6592 -2.4008 -0.4018
 7925SOL     OW35233   0.862   1.063   1.286  0.2474 -0.1524 -0.3147
 7925SOL    HW135234   0.893   0.972   1.288  0.1568 -0.2015 -1.1018
 7925SOL    HW235235   0.802   1.059   1.211 -1.2056  1.9390  0.7376
 7926SOL     OW35236   4.015   2.327   3.509 -0.1810 -0.7776 -0.5170
 7926SOL    HW135237   4.008   2.300   3.601  1.3837  1.6207  0.3019
 7926SOL    HW235238   3.940   2.285   3.468 -0.7185 -0.4752  0.1561
 7927SOL     OW35239   0.282   0.095   5.437  0.6178  0.4694 -0.0960
 7927SOL    HW135240   0.297   0.001   5.433 -0.4595  0.2320  1.2175
 7927SOL    HW235241   0.223   0.116   5.364  1.8350  0.8574 -0.9677
 7928SOL     OW35242   0.410   2.197  17.624 -0.2784  0.6400  0.1243
 7928SOL    HW135243   0.351   2.171   0.009 -2.1540 -1.5259 -2.2373
 7928SOL    HW235244   0.438   2.112  17.589  2.0128  1.2032  0.6112
 7929SOL     OW35245   1.470   2.488   4.041 -0.1592 -0.6092  0.3207
 7929SOL    HW135246   1.381   2.523   4.052  0.5556  1.7938 -1.5862
 7929SOL    HW235247   1.526   2.560   4.011 -0.5823 -0.1910  0.5275
 7930SOL     OW35248   2.529   2.908   2.607  0.2759 -0.1628 -0.3820
 7930SOL    HW135249   2.512   2.900   2.513  0.6616  2.0463 -0.6353
 7930SOL    HW235250   2.518   2.814   2.625 -0.7688 -0.0797 -0.6303
 7931SOL     OW35251   4.021   2.266   6.569  0.0174 -0.2542 -0.1800
 7931SOL    HW135252   4.085   2.210   6.613 -2.4246 -1.4507  1.7746
 7931SOL    HW235253   4.019   2.340   6.630  2.3419  2.8418 -3.8781
 7932SOL     OW35254   0.129   3.714  16.295  0.3483 -0.3513  0.3403
 7932SOL    HW135255   0.201   3.656  16.270 -0.1534 -0.9278  0.2422
 7932SOL    HW235256   0.099   3.729  16.206  0.7017  0.8098  0.4221
 7933SOL     OW35257   2.056   1.156   8.094  0.1044 -0.2026 -0.1478
 7933SOL    HW135258   2.067   1.165   7.999 -0.3296  1.6609 -0.0222
 7933SOL    HW235259   1.962   1.142   8.101 -0.0554  0.7622 -0.3645
 7934SOL     OW35260   1.484   4.360   4.972 -0.1002 -0.4913  0.0720
 7934SOL    HW135261   1.577   4.359   4.949 -0.0777  2.9872 -0.0293
 7934SOL    HW235262   1.486   4.378   5.066  0.0897  2.4484 -0.4787
 7935SOL     OW35263   3.321   4.614   6.747 -0.3476  0.0485 -1.1159
 7935SOL    HW135264   3.385   4.683   6.727  0.2743 -0.3984 -0.6707
 7935SOL    HW235265   3.381   4.540   6.756  1.6611  1.8241 -0.0018
 7936SOL     OW35266   0.259   1.103   8.409  0.2971  0.3538  0.1443
 7936SOL    HW135267   0.217   1.189   8.416  0.3575  0.3917  0.0293
 7936SOL    HW235268   0.301   1.102   8.495 -1.9200  1.4471  1.2521
 7937SOL     OW35269   3.663   1.798   3.401  0.3149  0.2391  0.1169
 7937SOL    HW135270   3.603   1.868   3.426  0.2229  0.1259  0.2138
 7937SOL    HW235271   3.663   1.752   3.485 -0.7674  1.2409  0.6688
 7938SOL     OW35272   1.094   2.441  10.456 -0.0786  0.0426 -0.0667
 7938SOL    HW135273   1.081   2.435  10.361  1.1151  1.7169 -0.3345
 7938SOL    HW235274   1.081   2.348  10.475 -0.5448  0.0463 -0.3379
 7939SOL     OW35275   2.013   3.130   3.405 -0.1677 -0.0269  0.7143
 7939SOL    HW135276   1.995   3.207   3.459 -2.0204 -0.1082  0.2271
 7939SOL    HW235277   1.929   3.083   3.412  0.1248 -1.0912 -2.7375
 7940SOL     OW35278   1.410   4.718   8.284 -0.3691  0.9691  0.4959
 7940SOL    HW135279   1.449   4.718   8.372  0.0566  0.9456  0.3051
 7940SOL    HW235280   1.329   0.048   8.292 -0.7626  0.4665 -0.2985
 7941SOL     OW35281   2.177   2.047   8.154 -0.0553 -0.3984  0.1322
 7941SOL    HW135282   2.210   2.131   8.187  0.6655  0.0523 -1.7252
 7941SOL    HW235283   2.261   2.007   8.131 -0.0663 -0.7949  0.7758
 7942SOL     OW35284   1.515   0.821   3.843 -0.5290  0.0630  0.3591
 7942SOL    HW135285   1.547   0.857   3.760 -1.2671  0.4266  0.2318
 7942SOL    HW235286   1.446   0.762   3.814  1.2066 -1.4451 -0.6938
 7943SOL     OW35287   1.421   4.339  17.373 -0.1935  0.2357 -0.0741
 7943SOL    HW135288   1.386   4.316  17.459 -0.7342  3.0202  0.4577
 7943SOL    HW235289   1.467   4.417  17.404 -1.3382  1.8594 -2.4915
 7944SOL     OW35290   0.229   1.713   4.520 -0.1839 -0.6402 -0.1304
 7944SOL    HW135291   0.257   1.692   4.431  1.0368  0.6179 -0.0357
 7944SOL    HW235292   0.164   1.644   4.538 -2.2247  1.3814  0.2527
 7945SOL     OW35293   3.061   3.206  14.065 -0.3502  0.8067  0.2359
 7945SOL    HW135294   3.091   3.177  13.979  0.2652 -0.2114  0.7999
 7945SOL    HW235295   3.067   3.123  14.112  1.6563  0.6829 -0.2359
 7946SOL     OW35296   3.098   1.767   4.042 -0.6434 -0.5386 -0.1093
 7946SOL    HW135297   3.131   1.857   4.050 -0.0831 -0.7927  0.5530
 7946SOL    HW235298   3.053   1.775   4.126  1.1058  1.6713  0.6174
 7947SOL     OW35299   0.917   4.086   8.058 -0.3650 -0.4192 -0.7214
 7947SOL    HW135300   0.830   4.054   8.080 -1.3710  2.4747 -0.4453
 7947SOL    HW235301   0.919   4.040   7.974  0.5865  1.5724 -1.8075
 7948SOL     OW35302   2.883   3.088  15.375 -0.4111 -0.5697 -0.0567
 7948SOL    HW135303   2.868   3.137  15.294 -0.4127 -1.4461 -0.5860
 7948SOL    HW235304   2.870   2.994  15.363  0.3591 -0.7679  0.6551
 7949SOL     OW35305   4.161   4.706   1.757 -0.4410  0.0875 -0.4142
 7949SOL    HW135306   4.178   0.046   1.828 -0.6426 -0.1449 -0.1677
 7949SOL    HW235307   4.220   4.633   1.777 -0.7936  0.2253  1.0767
 7950SOL     OW35308   2.774   1.560  16.702 -0.3796 -0.4479  0.3790
 7950SOL    HW135309   2.840   1.615  16.661 -1.0934 -0.1130 -0.3319
 7950SOL    HW235310   2.699   1.576  16.645  0.2969  0.3922 -0.2756
 7951SOL     OW35311   2.989   4.227   5.773 -0.0228  0.3572 -0.3236
 7951SOL    HW135312   3.008   4.292   5.841 -1.3835  2.5599 -2.0392
 7951SOL    HW235313   2.942   4.276   5.706  1.5551  1.0255 -0.9253
 7952SOL     OW35314   3.857   3.349   1.790  0.5184 -0.4130  0.7177
 7952SOL    HW135315   3.869   3.444   1.795 -0.7836 -0.1572 -1.3317
 7952SOL    HW235316   3.763   3.340   1.802  0.7477  0.9196  3.6952
 7953SOL     OW35317   2.954   2.330   2.903 -0.3645  0.3835  0.3757
 7953SOL    HW135318   2.990   2.258   2.850 -0.8954  1.7758 -1.8306
 7953SOL    HW235319   3.027   2.389   2.885  0.9156 -1.4785 -0.5834
 7954SOL     OW35320   1.734   0.981  12.692 -0.0817  0.2378  0.0397
 7954SOL    HW135321   1.658   1.023  12.649  1.8028 -0.7429 -4.2655
 7954SOL    HW235322   1.693   0.898  12.716  1.1605 -0.2716  0.3729
 7955SOL     OW35323   1.746   4.215   6.472 -0.2895 -0.0248 -0.3558
 7955SOL    HW135324   1.704   4.247   6.392  0.6425 -2.1843 -1.6977
 7955SOL    HW235325   1.694   4.139   6.496  1.2105 -1.1085 -0.5603
 7956SOL     OW35326   2.988   0.895  17.338  0.0750  0.3946  0.2905
 7956SOL    HW135327   2.948   0.946  17.268 -0.2499 -1.8254 -1.1451
 7956SOL    HW235328   3.076   0.931  17.350  0.7805 -0.6584 -1.6767
 7957SOL     OW35329   0.784   3.232  11.198  0.0817  0.2249 -0.2504
 7957SOL    HW135330   0.717   3.300  11.190 -0.1631  0.1098  0.7966
 7957SOL    HW235331   0.760   3.207  11.288  2.6559 -1.3446 -0.0067
 7958SOL     OW35332   3.084   0.238   5.030 -0.5668 -0.3119 -0.4162
 7958SOL    HW135333   3.016   0.237   5.097  0.3426  2.4682  0.5668
 7958SOL    HW235334   3.112   0.329   5.032 -1.5302 -0.0219  0.1489
 7959SOL     OW35335   3.556   3.425   5.488  0.0249 -0.1712  0.0510
 7959SOL    HW135336   3.558   3.521   5.484 -0.8106 -0.1323  0.5709
 7959SOL    HW235337   3.543   3.413   5.394 -1.4211  2.9221 -0.1552
 7960SOL     OW35338   3.943   4.082   6.253 -0.0259 -0.1585 -0.4202
 7960SOL    HW135339   3.973   4.076   6.344  2.0592  0.6904 -1.0492
 7960SOL    HW235340   4.001   4.150   6.218 -0.5332 -0.8400 -2.5802
 7961SOL     OW35341   2.203   2.422  13.563 -0.0889  0.2445  0.2455
 7961SOL    HW135342   2.251   2.501  13.540 -0.2877 -0.0483 -1.1603
 7961SOL    HW235343   2.249   2.401  13.645  0.7115  0.7585 -0.0800
 7962SOL     OW35344   2.167   0.845   8.550 -0.0603  0.1834  0.3665
 7962SOL    HW135345   2.234   0.908   8.574  0.8825 -0.7017  0.0544
 7962SOL    HW235346   2.223   0.778   8.510  3.2796  0.6897  4.1668
 7963SOL     OW35347   1.127   0.530  12.506 -1.1837 -0.2879 -0.2983
 7963SOL    HW135348   1.091   0.534  12.595 -0.7844  1.4324 -0.2196
 7963SOL    HW235349   1.046   0.564  12.468 -0.3590  1.0023 -0.8963
 7964SOL     OW35350   0.769   0.491   7.181 -0.4784 -0.2780  0.5182
 7964SOL    HW135351   0.791   0.529   7.267  0.2402  2.1399 -0.7348
 7964SOL    HW235352   0.768   0.566   7.122 -1.0420 -0.4766  0.2789
 7965SOL     OW35353   0.967   2.831  11.937 -0.5526 -0.0260 -0.7412
 7965SOL    HW135354   0.931   2.863  12.020 -0.2269  0.0393 -0.6209
 7965SOL    HW235355   0.988   2.909  11.886 -0.0197  0.1519 -0.2600
 7966SOL     OW35356   0.229   2.319   5.194  0.0227 -0.5484 -0.0958
 7966SOL    HW135357   0.306   2.342   5.246 -0.5186  0.9492  0.0686
 7966SOL    HW235358   0.267   2.271   5.121 -1.6918 -1.4674 -0.3779
 7967SOL     OW35359   2.936   1.066   3.456 -0.3443 -0.3986  0.1862
 7967SOL    HW135360   2.855   1.029   3.492 -0.0868 -0.3954  0.7593
 7967SOL    HW235361   2.915   1.089   3.366  0.4124 -0.9411 -0.1233
 7968SOL     OW35362   1.647   3.291   9.135 -0.5966  0.6491 -0.6571
 7968SOL    HW135363   1.579   3.330   9.191  0.6239  1.4871  0.2515
 7968SOL    HW235364   1.695   3.371   9.112 -0.6379  0.7484 -0.4066
 7969SOL     OW35365   0.572   1.021   5.008  0.7322 -0.2893  0.3971
 7969SOL    HW135366   0.534   0.953   5.063 -0.3044 -0.5965 -0.6908
 7969SOL    HW235367   0.494   1.067   4.976  1.2124 -0.3526 -0.8573
 7970SOL     OW35368   0.376   1.567   7.525 -0.3070  0.3575 -0.6377
 7970SOL    HW135369   0.412   1.656   7.525 -1.9553  1.0464  1.6269
 7970SOL    HW235370   0.283   1.575   7.544  0.1396 -1.3068  2.3214
 7971SOL     OW35371   3.610   0.286  15.768 -0.4080 -0.3108 -0.3873
 7971SOL    HW135372   3.652   0.368  15.793 -3.0417  0.7995  0.4463
 7971SOL    HW235373   3.638   0.222  15.834  0.5024  0.1220 -0.3592
 7972SOL     OW35374   4.234   3.584   6.453 -0.4415  0.2089  0.0088
 7972SOL    HW135375   4.243   3.526   6.377  2.6817 -1.2690  1.4985
 7972SOL    HW235376   4.325   3.610   6.470  0.0072 -2.2894  1.5226
 7973SOL     OW35377   3.987   1.826   5.766 -0.0230 -0.5167 -0.2177
 7973SOL    HW135378   4.022   1.901   5.814 -0.8255  0.9912 -2.0167
 7973SOL    HW235379   4.063   1.770   5.752  0.3851  0.4626 -1.8427
 7974SOL     OW35380   1.311   4.344   6.519  0.3177  0.0239 -0.0835
 7974SOL    HW135381   1.313   4.397   6.439  0.8771 -0.2648 -0.2554
 7974SOL    HW235382   1.334   4.415   6.579 -0.4893 -0.0750  0.3435
 7975SOL     OW35383   1.766   2.176   5.341  0.2556  0.0424  0.3034
 7975SOL    HW135384   1.802   2.192   5.254 -0.9708  0.9793 -0.0459
 7975SOL    HW235385   1.687   2.228   5.326 -1.1176 -3.0929 -3.2995
 7976SOL     OW35386   3.634   1.145  10.211  0.1074  0.7746 -0.1819
 7976SOL    HW135387   3.697   1.074  10.227 -1.1813 -0.3989 -0.3704
 7976SOL    HW235388   3.666   1.217  10.266  1.5520  0.4672 -0.6300
 7977SOL     OW35389   3.660   2.671  15.431  0.1619  0.3176 -0.2650
 7977SOL    HW135390   3.640   2.708  15.345  0.4910  1.0951 -0.0025
 7977SOL    HW235391   3.586   2.614  15.452 -0.6935  1.7267  0.5088
 7978SOL     OW35392   3.383   0.771  17.632  0.3114 -0.5946 -0.1201
 7978SOL    HW135393   3.346   0.780   0.033 -1.0875 -0.7455 -0.6984
 7978SOL    HW235394   3.370   0.678  17.614  0.0883 -0.8017  1.1101
 7979SOL     OW35395   3.428   4.055   9.223 -0.3396 -0.1486 -0.1204
 7979SOL    HW135396   3.511   4.091   9.255 -0.2475 -0.6805  0.2366
 7979SOL    HW235397   3.465   4.037   9.137  2.0740  1.4348  0.5909
 7980SOL     OW35398   1.986   1.661   7.733 -0.2679  0.9009 -0.9200
 7980SOL    HW135399   1.978   1.632   7.824 -1.5621  0.2624 -1.2385
 7980SOL    HW235400   2.044   1.596   7.693  0.4999  1.1034 -0.1376
 7981SOL     OW35401   3.582   1.409   0.857 -0.2999  0.1832  0.0113
 7981SOL    HW135402   3.564   1.343   0.924 -0.0384 -1.8714 -1.9458
 7981SOL    HW235403   3.608   1.351   0.785  3.1053  2.0474 -0.2460
 7982SOL     OW35404   4.160   1.355  10.364 -0.2323 -0.4983 -0.5815
 7982SOL    HW135405   4.114   1.437  10.345 -0.1387 -0.1711  0.6342
 7982SOL    HW235406   4.247   1.392  10.348  0.4879 -1.9380  0.0463
 7983SOL     OW35407   4.060   4.042   1.076  0.1980  1.2142 -0.1199
 7983SOL    HW135408   4.143   4.078   1.107  0.9108  0.1438 -0.7740
 7983SOL    HW235409   4.087   4.030   0.984 -1.7127  0.0654 -0.5203
 7984SOL     OW35410   0.117   4.034   7.550  0.6950 -0.1503  0.6630
 7984SOL    HW135411   0.110   3.943   7.521 -0.1251  0.4442 -0.9940
 7984SOL    HW235412   0.034   4.070   7.518  1.6638  0.1976 -1.4639
 7985SOL     OW35413   2.660   2.101   4.993  0.0312 -0.5741  0.0503
 7985SOL    HW135414   2.734   2.148   5.032  0.4437 -2.0785  1.0664
 7985SOL    HW235415   2.595   2.120   5.061 -0.0480 -0.1211 -0.1482
 7986SOL     OW35416   2.921   2.629   6.727  0.0238 -0.0898 -0.3266
 7986SOL    HW135417   2.827   2.611   6.731  0.7095 -3.3853  0.6143
 7986SOL    HW235418   2.937   2.661   6.816  0.3994  0.0933 -0.4555
 7987SOL     OW35419   4.695   4.699   8.840 -0.4948  0.1114 -0.0903
 7987SOL    HW135420   4.695   0.067   8.806  0.7353 -0.3991 -1.3750
 7987SOL    HW235421   4.634   4.721   8.912 -0.8172 -0.1158 -0.2945
 7988SOL     OW35422   2.296   2.291   3.486  0.4831  0.4713  0.1971
 7988SOL    HW135423   2.322   2.207   3.448  1.3773  1.4797 -1.4084
 7988SOL    HW235424   2.229   2.311   3.421 -0.3723 -1.5391  0.4215
 7989SOL     OW35425   4.397   1.932   9.121  0.5124 -0.1466 -0.4039
 7989SOL    HW135426   4.465   1.968   9.063 -1.6454  0.8792 -2.2810
 7989SOL    HW235427   4.369   2.020   9.146 -2.5013 -1.2715  0.1360
 7990SOL     OW35428   2.997   3.818  11.763  0.2004  0.1611  0.2866
 7990SOL    HW135429   2.920   3.761  11.756  1.9093 -1.7337 -3.1108
 7990SOL    HW235430   3.005   3.832  11.857 -1.0248 -1.2336  0.6121
 7991SOL     OW35431   2.196   3.017   5.167 -0.2145 -0.0354  0.1492
 7991SOL    HW135432   2.286   2.985   5.166  0.1908  1.1447 -2.3200
 7991SOL    HW235433   2.195   3.081   5.238  1.5843 -1.3455  1.3460
 7992SOL     OW35434   2.904   1.343   8.053 -0.0487  0.0119  0.3025
 7992SOL    HW135435   2.868   1.421   8.095 -0.8072 -0.7565  1.0671
 7992SOL    HW235436   2.839   1.273   8.063  0.7459 -0.4419  2.4152
 7993SOL     OW35437   1.386   0.622  12.545 -0.3101  0.5302 -0.2383
 7993SOL    HW135438   1.428   0.676  12.478 -0.7742  1.7073  0.4343
 7993SOL    HW235439   1.305   0.593  12.503 -0.0065 -1.5253  0.5694
 7994SOL     OW35440   2.786   4.179   9.173 -0.0415 -0.5045 -0.4820
 7994SOL    HW135441   2.717   4.245   9.179  1.1018  0.8900 -3.1282
 7994SOL    HW235442   2.863   4.235   9.178 -0.5470  0.0264  1.7525
 7995SOL     OW35443   2.551   1.829   8.653 -0.5235  0.3604 -0.0557
 7995SOL    HW135444   2.498   1.893   8.606 -0.9988 -0.6974 -0.9727
 7995SOL    HW235445   2.506   1.829   8.738  1.7700 -0.7805  1.1518
 7996SOL     OW35446   4.524   1.908   0.796 -0.0632 -0.1499 -0.7241
 7996SOL    HW135447   4.433   1.910   0.769 -0.6597 -0.3080  1.2975
 7996SOL    HW235448   4.572   1.895   0.714 -2.4459 -0.9427 -1.9970
 7997SOL     OW35449   3.973   3.079   5.958  0.3107  0.2275 -0.5762
 7997SOL    HW135450   4.034   3.016   5.920  2.0317  1.2748  0.4419
 7997SOL    HW235451   3.974   3.152   5.896  0.5898  0.2893 -0.4988
 7998SOL     OW35452   1.988   4.597   8.566 -0.6452 -0.1714 -0.9132
 7998SOL    HW135453   1.984   4.613   8.472 -0.4048  0.4546 -0.8199
 7998SOL    HW235454   1.917   4.652   8.599  0.7899 -0.0757  2.0238
 7999SOL     OW35455   2.073   2.825  15.981  0.4003  0.5547  0.4669
 7999SOL    HW135456   2.048   2.843  15.891  1.4694 -2.3264 -0.3834
 7999SOL    HW235457   2.118   2.741  15.977  0.6699  0.7073  0.3274
 8000SOL     OW35458   3.851   1.013   8.968 -0.2161  0.3707 -0.4295
 8000SOL    HW135459   3.863   1.072   8.894 -0.3218 -3.3551 -3.4356
 8000SOL    HW235460   3.773   1.036   9.018 -0.3914  2.1316 -1.5341
 8001SOL     OW35461   4.033   1.854   4.292  0.3829 -0.1795 -0.0451
 8001SOL    HW135462   4.071   1.778   4.248 -1.7507 -1.3233  0.0997
 8001SOL    HW235463   3.940   1.835   4.300  0.8576 -0.6544  3.9828
 8002SOL     OW35464   2.222   3.848   9.219 -0.1407 -0.6158 -0.1697
 8002SOL    HW135465   2.172   3.767   9.212  0.7172 -1.0030 -1.9736
 8002SOL    HW235466   2.183   3.878   9.301 -0.3833 -0.5320 -0.3165
 8003SOL     OW35467   0.027   2.748   3.753  0.0941  0.1042 -0.1969
 8003SOL    HW135468   4.678   2.778   3.695 -0.4594 -1.6451 -0.4361
 8003SOL    HW235469   4.689   2.702   3.814  0.2659 -1.9324 -1.5552
 8004SOL     OW35470   3.782   0.388   5.085 -0.0173  0.1772  0.1472
 8004SOL    HW135471   3.757   0.352   5.170  0.7619  0.2704  0.4186
 8004SOL    HW235472   3.849   0.325   5.059 -0.3405 -1.5183  3.4660
 8005SOL     OW35473   2.119   1.667   2.064  0.8734 -0.1165  0.6626
 8005SOL    HW135474   2.206   1.673   2.105  1.0062 -2.1979  0.6666
 8005SOL    HW235475   2.126   1.726   1.988  0.7291 -0.0007  0.7401
 8006SOL     OW35476   1.373   2.924   9.849 -0.1963  0.2879  0.2696
 8006SOL    HW135477   1.453   2.975   9.862  1.3097 -1.6797 -1.1295
 8006SOL    HW235478   1.348   2.935   9.941  0.1697  3.3141 -0.0030
 8007SOL     OW35479   2.056   0.682   0.183 -0.1404  0.1713  0.5002
 8007SOL    HW135480   1.962   0.675   0.195 -0.1088  0.3711  0.8818
 8007SOL    HW235481   2.067   0.756   0.123  2.3132  2.1770  3.3894
 8008SOL     OW35482   0.404   3.342   8.756 -0.2260 -0.0419  0.1179
 8008SOL    HW135483   0.388   3.264   8.702 -1.5755 -0.5473  1.2501
 8008SOL    HW235484   0.479   3.387   8.717 -0.4029 -1.8535 -2.3748
 8009SOL     OW35485   0.030   0.290   3.030  0.1291 -0.1814 -0.5703
 8009SOL    HW135486   0.073   0.325   3.108 -0.4292 -3.2116  1.0646
 8009SOL    HW235487   0.104   0.288   2.968 -0.4310  2.8365 -1.3912
 8010SOL     OW35488   0.681   0.913   2.742  0.5284  0.5456 -0.2601
 8010SOL    HW135489   0.724   0.843   2.693 -0.3566  0.5588 -1.0423
 8010SOL    HW235490   0.750   0.959   2.791  1.7642 -2.7085  1.0774
 8011SOL     OW35491   1.105   1.424   2.728 -0.0254 -0.2689  0.3707
 8011SOL    HW135492   1.111   1.367   2.805  1.8546 -0.0975  0.3528
 8011SOL    HW235493   1.108   1.361   2.657 -0.6954 -0.5492  0.5936
 8012SOL     OW35494   1.946   1.613   2.818  0.4935 -0.0631 -0.2098
 8012SOL    HW135495   1.901   1.665   2.751 -0.4762 -0.8189 -0.1541
 8012SOL    HW235496   2.035   1.608   2.784  0.6443 -1.6759  0.4580
 8013SOL     OW35497   3.355   0.543  13.111  0.6506 -0.2118 -0.1240
 8013SOL    HW135498   3.290   0.544  13.182  1.2634 -0.0930  0.4363
 8013SOL    HW235499   3.339   0.452  13.086 -1.5347 -0.1168  0.9055
 8014SOL     OW35500   3.619   2.805  11.518  0.6965 -0.3439  0.1335
 8014SOL    HW135501   3.701   2.755  11.520  0.7662 -0.2435 -0.1286
 8014SOL    HW235502   3.654   2.894  11.523 -0.2108  0.0344 -0.4513
 8015SOL     OW35503   2.052   2.039   4.835  0.5225  0.0894  0.2089
 8015SOL    HW135504   2.092   2.119   4.869  1.0724 -0.2505  0.3663
 8015SOL    HW235505   2.129   1.983   4.828  0.0236 -0.3516 -1.7361
 8016SOL     OW35506   0.666   0.828   9.006 -0.8266  0.5414  0.1687
 8016SOL    HW135507   0.680   0.758   9.069  0.7263  2.0495  1.4789
 8016SOL    HW235508   0.628   0.888   9.070  1.1400  0.3588  1.5208
 8017SOL     OW35509   0.016   2.253   1.813 -0.1980 -0.3516  0.2393
 8017SOL    HW135510   0.083   2.311   1.778  0.6343 -0.6670  1.3399
 8017SOL    HW235511   0.060   2.211   1.886 -1.0525 -0.8282  0.4777
 8018SOL     OW35512   4.106   1.684  16.700  0.0440  0.0494  0.0475
 8018SOL    HW135513   4.172   1.676  16.631 -0.3341 -0.9788 -0.1965
 8018SOL    HW235514   4.083   1.591  16.701 -0.9043  0.2516 -2.4820
 8019SOL     OW35515   2.253   1.097   3.600 -0.3405  0.2697 -0.4714
 8019SOL    HW135516   2.291   1.011   3.620 -2.6483 -0.1987  1.8567
 8019SOL    HW235517   2.327   1.143   3.559  0.2071  0.2903  0.5332
 8020SOL     OW35518   4.654   0.460  17.486 -0.2042 -0.5432  0.2040
 8020SOL    HW135519   4.652   0.546  17.443  3.2235 -0.1340  0.9186
 8020SOL    HW235520   4.703   0.407  17.423  0.3345  0.2990 -0.0911
 8021SOL     OW35521   2.678   3.717   7.557 -0.5884  0.1763  0.1472
 8021SOL    HW135522   2.677   3.625   7.533 -0.2009  0.0080  0.7469
 8021SOL    HW235523   2.757   3.719   7.612  0.5740  0.4617 -1.5267
 8022SOL     OW35524   4.327   1.050   9.319  0.7623  0.5101  0.1915
 8022SOL    HW135525   4.281   1.093   9.392 -1.5253 -2.4858  0.5268
 8022SOL    HW235526   4.411   1.040   9.363  0.2622 -3.6331  0.2138
 8023SOL     OW35527   2.746   0.755   5.945  0.4045 -0.5766 -0.2316
 8023SOL    HW135528   2.692   0.829   5.971  0.7489 -0.4540  0.1207
 8023SOL    HW235529   2.811   0.810   5.902  1.2464 -1.3665  0.0200
 8024SOL     OW35530   4.241   0.230  16.533 -0.1368 -0.4284 -0.1186
 8024SOL    HW135531   4.165   0.173  16.521 -1.5519  1.0976  1.6819
 8024SOL    HW235532   4.259   0.252  16.441 -1.2976  0.6277 -0.0939
 8025SOL     OW35533   0.026   0.766  14.395  0.3342 -0.2983 -0.1876
 8025SOL    HW135534   0.062   0.843  14.350  0.3478 -0.6693 -0.8051
 8025SOL    HW235535   0.096   0.700  14.392  0.6579  0.0773 -0.8364
 8026SOL     OW35536   1.568   2.108   0.757  0.2124  0.1449 -0.0725
 8026SOL    HW135537   1.625   2.062   0.695  0.1222 -0.9701  0.6733
 8026SOL    HW235538   1.543   2.180   0.699  2.2571  2.6773  2.1914
 8027SOL     OW35539   2.407   3.192   1.466 -0.2798 -0.0228  0.6809
 8027SOL    HW135540   2.325   3.237   1.488 -0.2322 -0.1200  1.0627
 8027SOL    HW235541   2.458   3.262   1.426 -0.2676  0.3751  1.3958
 8028SOL     OW35542   2.364   2.436   4.067  0.0462 -0.1096  0.1361
 8028SOL    HW135543   2.359   2.406   3.976  0.0813 -0.7641  0.3507
 8028SOL    HW235544   2.456   2.433   4.092 -0.8638  1.2564  3.6485
 8029SOL     OW35545   4.006   0.640   9.404  0.3668 -0.0507  0.3075
 8029SOL    HW135546   4.050   0.685   9.331 -0.4250 -0.0284 -0.1615
 8029SOL    HW235547   3.986   0.561   9.353 -1.7233  0.2572  0.6878
 8030SOL     OW35548   0.344   1.136  15.946  0.0739  0.2416 -0.1963
 8030SOL    HW135549   0.323   1.226  15.921  1.2560  0.1061 -1.6966
 8030SOL    HW235550   0.360   1.150  16.039 -0.0697  0.7676 -0.2505
 8031SOL     OW35551   1.617   1.654   1.772 -0.0465 -0.1258 -0.0653
 8031SOL    HW135552   1.646   1.723   1.713 -2.1262 -0.2432 -1.2064
 8031SOL    HW235553   1.692   1.632   1.828  0.3415 -0.4602 -0.7209
 8032SOL     OW35554   1.243   0.095  15.691 -0.1809 -0.3064 -0.2251
 8032SOL    HW135555   1.170   0.095  15.629 -1.6976  0.1183  1.5561
 8032SOL    HW235556   1.270   0.005  15.673 -0.7929 -0.9459  2.0444
 8033SOL     OW35557   2.044   0.466   4.005  0.4786 -0.0277 -0.5110
 8033SOL    HW135558   2.010   0.377   4.016 -0.7614  0.4143 -0.7332
 8033SOL    HW235559   2.023   0.499   4.092 -1.0880  1.9365 -1.6449
 8034SOL     OW35560   3.646   1.077   2.588  0.0843 -0.3345 -0.2435
 8034SOL    HW135561   3.611   0.990   2.605  0.2715  0.4051  4.0542
 8034SOL    HW235562   3.603   1.103   2.507 -0.4520  1.1812  0.5134
 8035SOL     OW35563   0.687   4.084   1.446  0.1800 -0.0388  0.0003
 8035SOL    HW135564   0.638   4.166   1.455 -1.2092 -0.5815 -2.7134
 8035SOL    HW235565   0.650   4.061   1.361  0.1760  0.9436 -0.2630
 8036SOL     OW35566   0.551   3.450   6.009 -0.0120 -1.0115 -0.7124
 8036SOL    HW135567   0.597   3.389   5.952  1.7048  0.0206 -0.4281
 8036SOL    HW235568   0.520   3.510   5.940  0.9860  0.0963 -0.2087
 8037SOL     OW35569   3.190   0.555  13.332 -0.2591  0.0019 -0.1743
 8037SOL    HW135570   3.243   0.528  13.406 -1.5815 -2.7310 -0.2218
 8037SOL    HW235571   3.174   0.644  13.364 -0.7659  0.3762 -1.4402
 8038SOL     OW35572   4.253   0.638   4.393  0.2414 -0.3543  0.2386
 8038SOL    HW135573   4.292   0.659   4.308 -2.1235 -0.2978 -0.8300
 8038SOL    HW235574   4.241   0.725   4.431  0.5003  0.3241 -1.2316
 8039SOL     OW35575   0.844   3.621   1.685 -0.0901  0.4462  0.7231
 8039SOL    HW135576   0.936   3.645   1.678  0.1436 -0.7308 -0.2797
 8039SOL    HW235577   0.853   3.536   1.642  1.1609  1.0404 -0.1533
 8040SOL     OW35578   3.642   0.931   0.304 -0.4756 -0.2401  0.0690
 8040SOL    HW135579   3.692   0.987   0.245  0.3398  0.8238  1.7905
 8040SOL    HW235580   3.581   0.890   0.243 -0.2382 -0.5368  0.0293
 8041SOL     OW35581   1.801   0.213   2.907  0.4126  0.3303  0.4803
 8041SOL    HW135582   1.834   0.287   2.856 -1.5165  0.6619 -0.2935
 8041SOL    HW235583   1.706   0.223   2.900  0.3079 -1.8311 -1.4607
 8042SOL     OW35584   3.298   2.389  14.816 -0.4897  0.3273  0.4017
 8042SOL    HW135585   3.272   2.375  14.907 -0.1800  2.2191  0.7671
 8042SOL    HW235586   3.252   2.314  14.777 -1.6208 -0.5816  3.4875
 8043SOL     OW35587   0.637   3.373   3.557 -0.6301 -0.0465  0.0020
 8043SOL    HW135588   0.616   3.461   3.525  0.6275  0.2155 -0.1023
 8043SOL    HW235589   0.619   3.331   3.474 -2.0931 -0.3693  0.4883
 8044SOL     OW35590   2.664   2.882   4.054  0.2361 -0.1104  0.0927
 8044SOL    HW135591   2.675   2.852   4.144  0.3861 -0.6502 -0.1114
 8044SOL    HW235592   2.619   2.812   4.008 -0.4831 -0.7176  1.7206
 8045SOL     OW35593   0.558   4.367   8.777 -0.5038  0.1741  0.0247
 8045SOL    HW135594   0.566   4.450   8.730  0.6824 -0.9610 -1.7721
 8045SOL    HW235595   0.616   4.379   8.852  2.2280  0.5374 -2.1553
 8046SOL     OW35596   1.191   4.360  14.785 -0.2346  0.3183  0.1994
 8046SOL    HW135597   1.140   4.311  14.721 -0.5426  1.4918 -0.4501
 8046SOL    HW235598   1.230   4.428  14.731 -0.2745 -1.4932 -2.1101
 8047SOL     OW35599   2.191   4.630   4.356  0.0515  0.1532 -0.5362
 8047SOL    HW135600   2.212   4.569   4.285 -1.0318  0.1576 -0.8622
 8047SOL    HW235601   2.107   4.667   4.328 -0.8277 -0.9826  0.5837
 8048SOL     OW35602   3.050   0.535  10.835 -0.3386 -0.3387 -0.2719
 8048SOL    HW135603   2.963   0.497  10.825 -0.1810 -0.2975 -1.9324
 8048SOL    HW235604   3.096   0.507  10.755  1.0652  1.6330 -0.1490
 8049SOL     OW35605   4.655   2.772   7.504 -0.4287 -0.0607  0.0794
 8049SOL    HW135606   4.579   2.721   7.533 -1.6062  0.6984 -1.6679
 8049SOL    HW235607   0.008   2.737   7.553 -1.0659  0.4545  1.4119
 8050SOL     OW35608   4.371   0.811   4.233  0.1395 -0.8694 -0.6991
 8050SOL    HW135609   4.412   0.894   4.256  2.4710 -1.9803 -0.7522
 8050SOL    HW235610   4.364   0.819   4.138 -0.5624 -0.0460 -0.5731
 8051SOL     OW35611   0.606   0.392   5.395  0.2887  0.2744  0.3814
 8051SOL    HW135612   0.558   0.378   5.314 -1.1797 -0.2255  1.3478
 8051SOL    HW235613   0.603   0.487   5.403 -1.2235  0.2995 -0.5536
 8052SOL     OW35614   3.415   2.234   8.006  0.7322  0.2993  1.0561
 8052SOL    HW135615   3.506   2.257   7.991  0.6252  1.0686  1.6111
 8052SOL    HW235616   3.419   2.140   7.991 -0.4472  0.3365  0.4761
 8053SOL     OW35617   4.284   1.618  16.514  0.6682 -0.2759 -0.6612
 8053SOL    HW135618   4.376   1.606  16.535  0.7355 -2.5400 -2.1921
 8053SOL    HW235619   4.284   1.622  16.418 -0.5335 -1.0960 -0.7011
 8054SOL     OW35620   4.351   3.554  11.608 -0.0038  0.6732 -0.0181
 8054SOL    HW135621   4.425   3.495  11.624  0.6927  0.9675 -2.1610
 8054SOL    HW235622   4.338   3.535  11.515 -1.4367 -0.6624  0.4576
 8055SOL     OW35623   3.332   3.271   7.827 -0.3582 -0.1968 -0.3003
 8055SOL    HW135624   3.289   3.203   7.776 -0.8198  1.1405 -1.7088
 8055SOL    HW235625   3.382   3.226   7.895 -2.6231 -0.0010  1.4999
 8056SOL     OW35626   3.569   2.118  14.060  0.4661 -0.4527 -0.0224
 8056SOL    HW135627   3.620   2.105  14.140  0.3610 -0.2776  0.0723
 8056SOL    HW235628   3.494   2.172  14.083  1.6992  0.5137  1.6996
 8057SOL     OW35629   1.888   3.656   4.758  0.0011  0.0086 -0.1095
 8057SOL    HW135630   1.962   3.644   4.818 -0.6769 -0.3052  0.6637
 8057SOL    HW235631   1.832   3.583   4.784 -0.1025  0.8668  2.0775
 8058SOL     OW35632   1.055   0.247   2.380  0.3076  0.2918 -0.1513
 8058SOL    HW135633   1.038   0.160   2.343 -0.2837  0.0906  0.5862
 8058SOL    HW235634   1.020   0.306   2.313 -3.0615 -1.0791  0.3691
 8059SOL     OW35635   1.317   2.451   2.061  0.2025 -0.6183 -0.6379
 8059SOL    HW135636   1.379   2.387   2.097  0.8997  0.1708 -0.4484
 8059SOL    HW235637   1.357   2.537   2.072 -3.2624  0.9139 -0.1368
 8060SOL     OW35638   4.433   2.494   4.317 -0.4245 -0.6523  0.1440
 8060SOL    HW135639   4.408   2.405   4.343  1.9413 -1.6981 -1.1300
 8060SOL    HW235640   4.518   2.512   4.358  1.2274 -0.5273 -3.2960
 8061SOL     OW35641   0.088   2.912   6.969 -0.0331  0.0383  0.0557
 8061SOL    HW135642   0.088   3.000   7.006  0.6086  0.6028 -1.2634
 8061SOL    HW235643   0.182   2.898   6.958 -0.0379  0.5810 -0.7033
 8062SOL     OW35644   3.901   4.324   3.477  0.1053 -0.4924  0.2593
 8062SOL    HW135645   3.942   4.410   3.483 -1.4196  0.2342  0.2807
 8062SOL    HW235646   3.840   4.323   3.551 -0.1904  1.5162  0.0443
 8063SOL     OW35647   0.637   3.455  11.307 -0.1954 -0.6925 -0.1287
 8063SOL    HW135648   0.544   3.463  11.329  0.3190  1.3357  1.3323
 8063SOL    HW235649   0.643   3.536  11.256  1.9599 -0.6700  0.1505
 8064SOL     OW35650   4.091   3.996   6.847  0.7610  0.6498 -0.3531
 8064SOL    HW135651   4.156   4.042   6.793 -0.2117 -0.8892 -2.8172
 8064SOL    HW235652   4.138   3.936   6.905 -0.6355 -0.1282 -0.0409
 8065SOL     OW35653   4.537   2.005   7.127  0.1858  0.0093 -0.1353
 8065SOL    HW135654   4.600   1.958   7.182 -1.0085 -1.6706 -0.1834
 8065SOL    HW235655   4.504   2.079   7.179  2.9809 -0.1574  1.8489
 8066SOL     OW35656   4.657   2.416   7.429 -0.2950  0.6107  0.2186
 8066SOL    HW135657   4.716   2.427   7.504  0.4994 -0.5039 -0.2405
 8066SOL    HW235658   4.719   2.424   7.357 -0.1995 -2.7828 -0.0793
 8067SOL     OW35659   3.015   3.961   1.953 -0.0983  0.6138 -0.0392
 8067SOL    HW135660   3.062   4.032   1.909 -2.0057  2.0946  0.3589
 8067SOL    HW235661   3.085   3.928   2.010  0.3108  2.2579  0.4050
 8068SOL     OW35662   2.733   1.798   6.672  0.5654 -0.0341 -0.1878
 8068SOL    HW135663   2.722   1.838   6.758 -2.1767 -0.0948 -0.5040
 8068SOL    HW235664   2.658   1.739   6.680  0.9197 -0.3575  0.7016
 8069SOL     OW35665   0.950   0.435   9.717 -0.0936 -0.0044  0.1145
 8069SOL    HW135666   1.027   0.427   9.774  1.0247 -2.2750 -1.7163
 8069SOL    HW235667   0.874   0.421   9.773 -1.1879  0.8460 -1.1581
 8070SOL     OW35668   2.891   2.813   8.549  0.3791  0.2653 -0.6488
 8070SOL    HW135669   2.932   2.774   8.627 -1.4083 -0.1205  0.1027
 8070SOL    HW235670   2.859   2.895   8.586  1.4579  0.5551 -0.3467
 8071SOL     OW35671   0.337   3.523  15.894 -0.4336 -0.6859  0.7464
 8071SOL    HW135672   0.265   3.497  15.950  0.1859 -0.2417  1.7414
 8071SOL    HW235673   0.332   3.618  15.906  1.9455 -0.7013  1.7652
 8072SOL     OW35674   0.026   0.718   3.675  0.1068  0.4440  0.3148
 8072SOL    HW135675   4.665   0.686   3.713  0.4026  1.1351  1.5349
 8072SOL    HW235676   0.003   0.756   3.590 -0.7400  1.0249  0.8013
 8073SOL     OW35677   4.351   3.884   9.423 -0.0587  0.0994 -0.0033
 8073SOL    HW135678   4.392   3.896   9.509 -1.8146 -1.8488  1.1252
 8073SOL    HW235679   4.421   3.849   9.369 -0.5032 -0.1281 -0.4299
 8074SOL     OW35680   1.235   4.478   3.537  0.1684 -0.0209  1.1399
 8074SOL    HW135681   1.190   4.520   3.610 -0.7380 -0.3181  0.7422
 8074SOL    HW235682   1.167   4.479   3.470  0.3567 -0.2365  0.9463
 8075SOL     OW35683   2.942   3.716   3.743 -0.2799  0.1029  0.4585
 8075SOL    HW135684   2.876   3.684   3.804 -2.9154  0.9929 -1.9284
 8075SOL    HW235685   2.877   3.748   3.680  0.4546  1.4752  0.4011
 8076SOL     OW35686   2.011   0.121   9.196 -0.3068 -0.4282 -0.9845
 8076SOL    HW135687   2.024   0.205   9.239  1.0905 -0.9364 -0.4096
 8076SOL    HW235688   1.916   0.122   9.203 -0.0081 -0.5982  2.8428
 8077SOL     OW35689   3.660   1.389   0.454 -0.2128  0.4571  0.6019
 8077SOL    HW135690   3.652   1.341   0.536  1.5524  0.1507  0.5939
 8077SOL    HW235691   3.626   1.477   0.469 -0.3835  0.6173 -0.7657
 8078SOL     OW35692   3.059   3.275  16.858  0.2440 -0.0275  0.1550
 8078SOL    HW135693   3.148   3.260  16.890 -0.0073  0.5828  1.1575
 8078SOL    HW235694   3.008   3.295  16.937  1.5794 -0.3312  1.0990
 8079SOL     OW35695   3.545   2.370   3.185 -0.8663 -0.3056 -0.5342
 8079SOL    HW135696   3.526   2.453   3.141  0.9602 -0.5275 -1.7568
 8079SOL    HW235697   3.637   2.363   3.159 -0.7713 -0.7174 -0.0680
 8080SOL     OW35698   2.989   0.797   3.281 -0.0741 -0.0782 -0.1534
 8080SOL    HW135699   2.912   0.843   3.250 -1.9846 -2.4136  1.1105
 8080SOL    HW235700   2.981   0.716   3.231 -0.9092  0.1020 -0.3064
 8081SOL     OW35701   0.132   1.700   2.376 -0.1852  0.4118 -0.1514
 8081SOL    HW135702   0.110   1.698   2.469  0.7607 -0.9033  0.0488
 8081SOL    HW235703   0.181   1.780   2.359  0.8951 -0.0397  0.8116
 8082SOL     OW35704   0.362   0.828   0.302  0.1698 -0.2674 -0.1024
 8082SOL    HW135705   0.345   0.867   0.216  1.4367 -0.3453 -0.3921
 8082SOL    HW235706   0.452   0.799   0.288  0.1890  0.6456 -1.8087
 8083SOL     OW35707   1.832   1.948  14.995 -0.3248 -0.4562 -0.0562
 8083SOL    HW135708   1.780   1.876  15.031 -0.7496 -0.7169 -1.1849
 8083SOL    HW235709   1.881   1.898  14.929  1.5786 -1.0882  1.8187
 8084SOL     OW35710   1.590   1.214   1.100  0.1193  0.0679 -0.0828
 8084SOL    HW135711   1.656   1.255   1.043 -0.3263  1.4305  0.3685
 8084SOL    HW235712   1.509   1.252   1.065 -0.5941 -0.1017  1.4065
 8085SOL     OW35713   1.452   0.862   8.518  0.0061  0.5823 -0.3649
 8085SOL    HW135714   1.491   0.948   8.499 -0.3060  1.1429  1.4911
 8085SOL    HW235715   1.528   0.805   8.505  1.0818  2.1262 -0.8890
 8086SOL     OW35716   2.467   1.038   5.839 -0.1875 -0.2014  0.5111
 8086SOL    HW135717   2.522   1.108   5.806 -1.6674  1.2302  1.0838
 8086SOL    HW235718   2.523   1.018   5.914  0.1421  1.3113  0.6676
 8087SOL     OW35719   3.693   1.163  11.474 -0.1918  0.1857  0.8687
 8087SOL    HW135720   3.630   1.217  11.522 -0.5176  0.8097 -0.2765
 8087SOL    HW235721   3.766   1.166  11.536  0.8465 -1.9638 -0.2612
 8088SOL     OW35722   4.666   2.157   1.194  0.2521  0.0716  0.0659
 8088SOL    HW135723   4.601   2.226   1.204 -0.2340 -0.9754  3.7996
 8088SOL    HW235724   4.624   2.101   1.128  2.4027 -0.2758 -1.0079
 8089SOL     OW35725   4.297   0.547   0.088 -0.8928 -0.1150  0.5417
 8089SOL    HW135726   4.378   0.518   0.047 -0.0868  2.8158  0.0917
 8089SOL    HW235727   4.238   0.476   0.061 -0.4564  0.6756 -2.4541
 8090SOL     OW35728   3.866   2.671   5.802 -0.3860 -0.0030 -0.3730
 8090SOL    HW135729   3.922   2.607   5.846 -2.6475 -0.4476  1.8346
 8090SOL    HW235730   3.828   2.712   5.879 -0.2716 -0.9209  0.1683
 8091SOL     OW35731   2.087   3.752   7.547 -0.1878  0.2303 -0.3846
 8091SOL    HW135732   2.051   3.759   7.459 -0.2846 -1.1769 -0.4583
 8091SOL    HW235733   2.116   3.661   7.547 -2.5285 -0.5006  1.7012
 8092SOL     OW35734   0.566   2.586  12.180 -0.8678 -0.3131 -0.0112
 8092SOL    HW135735   0.476   2.559  12.163 -1.4648  0.6612  1.5941
 8092SOL    HW235736   0.592   2.549  12.265  0.6511  0.2952 -0.2021
 8093SOL     OW35737   4.609   1.226  11.119 -0.4420 -0.0808 -0.2771
 8093SOL    HW135738   4.640   1.136  11.107  1.5981  0.4879  0.5960
 8093SOL    HW235739   4.618   1.238  11.213 -1.3730  0.2918 -0.2393
 8094SOL     OW35740   1.829   1.104   1.239 -0.8851 -0.0724 -0.0947
 8094SOL    HW135741   1.861   1.187   1.274 -2.3261 -0.6434  2.6146
 8094SOL    HW235742   1.754   1.142   1.194 -1.2744  0.1753  0.7597
 8095SOL     OW35743   0.158   2.703  10.296  0.2890  0.4707  0.2867
 8095SOL    HW135744   0.161   2.611  10.323 -2.2591  0.0871 -0.7567
 8095SOL    HW235745   0.138   2.746  10.378 -1.0373 -0.6299  0.5416
 8096SOL     OW35746   1.605   3.707  14.384 -0.4122 -0.1033 -0.0589
 8096SOL    HW135747   1.550   3.638  14.422 -0.7049 -0.7417 -1.6403
 8096SOL    HW235748   1.555   3.720  14.304 -0.9565 -0.1544  0.2706
 8097SOL     OW35749   3.631   0.993   6.411 -0.2840 -0.4823  0.3935
 8097SOL    HW135750   3.623   0.934   6.337 -1.5626  2.4543 -1.8074
 8097SOL    HW235751   3.689   1.056   6.367  0.3998 -0.2457  1.6076
 8098SOL     OW35752   1.280   0.121   4.901  0.2654  0.0643  0.0132
 8098SOL    HW135753   1.246   0.035   4.876 -0.9957  0.7826 -0.7378
 8098SOL    HW235754   1.210   0.181   4.874 -0.2413 -0.7650 -0.5299
 8099SOL     OW35755   2.039   1.303   6.317  0.0685 -0.8746 -0.1167
 8099SOL    HW135756   2.049   1.357   6.238  2.5343  0.3266  1.0046
 8099SOL    HW235757   2.024   1.356   6.395  0.2928  1.6736 -1.8028
 8100SOL     OW35758   3.287   4.209   0.785 -0.3804 -0.0650  0.2847
 8100SOL    HW135759   3.274   4.180   0.875  0.8263  0.4116  0.6131
 8100SOL    HW235760   3.208   4.180   0.740 -0.8266  0.1209  0.9581
 8101SOL     OW35761   0.713   3.129   9.155 -0.1806  0.4251 -0.8081
 8101SOL    HW135762   0.790   3.123   9.098  0.1590  0.0884 -0.3159
 8101SOL    HW235763   0.724   3.215   9.194  1.4380  0.4463 -1.2856
 8102SOL     OW35764   2.453   2.392  14.972 -0.4211 -0.1831 -0.0747
 8102SOL    HW135765   2.378   2.411  15.027 -1.1430 -2.0420 -0.4293
 8102SOL    HW235766   2.525   2.403  15.035  1.5677  0.5058 -2.4399
 8103SOL     OW35767   4.059   2.029  14.825 -0.7744 -0.4661 -0.7184
 8103SOL    HW135768   4.106   1.955  14.787  1.2760 -0.8991  2.6492
 8103SOL    HW235769   4.037   2.075  14.744 -0.8738  0.6357 -0.0722
 8104SOL     OW35770   4.138   3.299   7.787  0.0176  0.0685  0.4659
 8104SOL    HW135771   4.179   3.268   7.867  0.9765  2.5016  0.9096
 8104SOL    HW235772   4.050   3.326   7.813 -0.4245  0.9612 -1.9409
 8105SOL     OW35773   2.644   2.340   2.145 -0.5163 -0.1914  0.2951
 8105SOL    HW135774   2.735   2.325   2.170 -0.2156 -2.0750 -1.9294
 8105SOL    HW235775   2.631   2.432   2.168 -0.6422  0.1621 -1.1395
 8106SOL     OW35776   2.253   1.032   6.148  0.2920  0.1725  0.2422
 8106SOL    HW135777   2.236   0.939   6.133  0.0656  0.3212 -0.4188
 8106SOL    HW235778   2.310   1.028   6.225 -0.4253 -1.0555  0.7234
 8107SOL     OW35779   2.012   0.307  12.753 -0.7154 -0.0130 -0.6867
 8107SOL    HW135780   2.051   0.377  12.701  1.2717 -1.0109 -0.5712
 8107SOL    HW235781   2.070   0.305  12.829 -1.0711  1.6109 -0.3702
 8108SOL     OW35782   2.075   0.599  16.887 -0.4933  0.5252 -0.0734
 8108SOL    HW135783   2.121   0.570  16.966 -0.5867 -1.6336 -0.8162
 8108SOL    HW235784   2.027   0.522  16.855 -2.3985  1.4575  0.5465
 8109SOL     OW35785   3.927   0.453  14.778 -0.3145 -0.3577 -0.0326
 8109SOL    HW135786   3.856   0.390  14.770  0.4158 -1.3457  1.2952
 8109SOL    HW235787   3.910   0.499  14.695 -0.9972 -1.2123 -0.3645
 8110SOL     OW35788   2.963   1.512   5.543 -0.3305  0.7373  0.5205
 8110SOL    HW135789   3.040   1.556   5.581  0.4373  0.7321 -1.0595
 8110SOL    HW235790   2.990   1.423   5.566  0.2865  1.8960  4.3324
 8111SOL     OW35791   3.556   2.192  15.265 -0.0588  0.0989 -0.2858
 8111SOL    HW135792   3.612   2.234  15.199  3.2723 -1.5963  1.4362
 8111SOL    HW235793   3.581   2.223  15.352  0.0999  0.5028 -0.4733
 8112SOL     OW35794   0.672   3.322   2.723  0.2027  0.0167  0.7275
 8112SOL    HW135795   0.699   3.405   2.762  3.3196  0.1380 -1.6849
 8112SOL    HW235796   0.748   3.265   2.735 -1.0611 -1.2297  2.7958
 8113SOL     OW35797   1.951   3.248   7.015  0.2978  0.8478  0.4739
 8113SOL    HW135798   1.910   3.174   7.060  1.4081  0.1274  0.2928
 8113SOL    HW235799   2.041   3.219   7.003 -0.4395 -0.7284 -1.1653
 8114SOL     OW35800   0.367   4.536  15.208  0.0481 -0.0881  0.5310
 8114SOL    HW135801   0.378   4.512  15.116 -2.4484 -0.5161  0.3637
 8114SOL    HW235802   0.444   4.589  15.232  0.8821 -1.0573  0.0036
 8115SOL     OW35803   3.438   3.174   3.451  0.2115  0.4526 -0.2490
 8115SOL    HW135804   3.434   3.264   3.417  0.2864  0.4421 -0.2841
 8115SOL    HW235805   3.473   3.129   3.374  1.3426 -1.7332  1.5651
 8116SOL     OW35806   1.951   1.632   3.949  1.1622  0.2087 -0.4220
 8116SOL    HW135807   2.005   1.621   4.028 -0.1165 -1.4044  0.2251
 8116SOL    HW235808   1.997   1.705   3.908 -0.7696  1.2830 -0.6409
 8117SOL     OW35809   1.385   3.948   7.843 -0.2231  0.9895 -0.4875
 8117SOL    HW135810   1.457   3.997   7.882 -0.7374  1.1802  0.2309
 8117SOL    HW235811   1.314   3.993   7.889 -1.3686  1.2304 -2.4807
 8118SOL     OW35812   3.726   1.203  13.467  0.3941 -0.2290 -0.5134
 8118SOL    HW135813   3.649   1.170  13.420 -0.6650 -0.3587  1.2932
 8118SOL    HW235814   3.761   1.130  13.519 -2.7230 -0.2503  1.6082
 8119SOL     OW35815   0.773   2.844   9.073  0.1581  0.2287 -0.0430
 8119SOL    HW135816   0.810   2.920   9.028 -2.4996 -0.1921 -2.9522
 8119SOL    HW235817   0.731   2.875   9.153 -0.8302  0.2551 -0.5683
 8120SOL     OW35818   1.691   3.535   2.157  0.1643 -0.5828 -0.6632
 8120SOL    HW135819   1.648   3.459   2.119  4.4966 -2.1132 -2.5300
 8120SOL    HW235820   1.768   3.490   2.193 -0.4212  0.1531  1.4912
 8121SOL     OW35821   0.090   2.679  10.586 -0.0373  0.0148  0.1764
 8121SOL    HW135822   0.023   2.611  10.594 -1.6273  1.7078  1.2725
 8121SOL    HW235823   0.120   2.671  10.677  2.3329  0.9184 -0.5067
 8122SOL     OW35824   3.354   3.633  10.399  0.3574  0.4254 -0.0936
 8122SOL    HW135825   3.294   3.670  10.333 -1.3938  0.3747  1.4607
 8122SOL    HW235826   3.295   3.572  10.444  0.0827 -0.1519 -1.2243
 8123SOL     OW35827   1.874   2.411   4.206 -0.2312 -0.0144 -0.3435
 8123SOL    HW135828   1.932   2.430   4.132 -0.6254  0.1888 -0.6013
 8123SOL    HW235829   1.882   2.316   4.213  0.4566  0.0692 -0.0433
 8124SOL     OW35830   2.353   0.104  14.609  0.1262  0.0616  0.1511
 8124SOL    HW135831   2.412   0.140  14.675  1.0621 -0.6587 -0.2811
 8124SOL    HW235832   2.353   0.174  14.543 -0.6700 -1.3776 -1.3942
 8125SOL     OW35833   3.995   4.628   7.499 -0.0455  0.2306  0.3115
 8125SOL    HW135834   3.968   4.645   7.589  0.1077 -1.0646  0.6021
 8125SOL    HW235835   3.968   4.536   7.491  0.1707  0.2560 -0.7725
 8126SOL     OW35836   3.385   3.165   4.336 -0.0697 -0.2399  0.1391
 8126SOL    HW135837   3.413   3.219   4.410  1.6959 -0.4904 -0.3406
 8126SOL    HW235838   3.360   3.089   4.389  1.3066 -0.3569  0.6111
 8127SOL     OW35839   2.378   0.594   2.529  0.2342  0.6023 -0.0365
 8127SOL    HW135840   2.375   0.549   2.614  1.1554 -2.7964 -1.7976
 8127SOL    HW235841   2.344   0.519   2.480 -0.7081 -0.2755  1.9814
 8128SOL     OW35842   2.796   4.670   3.221  0.2787 -0.2463  0.5436
 8128SOL    HW135843   2.812   4.635   3.134 -1.1312  0.6577 -0.0799
 8128SOL    HW235844   2.757   4.598   3.271  0.1932 -0.9684 -0.5696
 8129SOL     OW35845   0.662   4.654  14.563  0.0954  0.1093 -0.5079
 8129SOL    HW135846   0.654   4.640  14.469 -0.2028 -0.9551 -0.3253
 8129SOL    HW235847   0.711   4.574  14.584  0.0015  0.3541  0.6486
 8130SOL     OW35848   0.481   3.705  15.304 -0.3476  0.6741  0.4784
 8130SOL    HW135849   0.497   3.611  15.305 -1.5404  0.4979  2.8619
 8130SOL    HW235850   0.518   3.737  15.387 -0.5602  2.1114  0.0301
 8131SOL     OW35851   3.631   1.478  15.622 -0.0925 -0.0812  0.0745
 8131SOL    HW135852   3.571   1.465  15.696 -1.7182  2.9935 -0.7298
 8131SOL    HW235853   3.700   1.413  15.637  1.3461  1.0181 -1.8186
 8132SOL     OW35854   4.151   0.467   4.591  0.6857  0.4842 -0.4720
 8132SOL    HW135855   4.166   0.535   4.525 -3.5835  1.2067 -0.6991
 8132SOL    HW235856   4.182   0.388   4.548 -0.5648  0.1965 -0.8183
 8133SOL     OW35857   3.522   0.864  16.544  0.1680  0.6204  0.1995
 8133SOL    HW135858   3.509   0.931  16.611  2.0588 -0.0644  1.2457
 8133SOL    HW235859   3.618   0.865  16.548  0.1908  2.1007 -0.7456
 8134SOL     OW35860   2.718   4.206  17.109 -0.3090  0.2215 -0.0127
 8134SOL    HW135861   2.749   4.122  17.144  1.1500  0.0658 -1.6812
 8134SOL    HW235862   2.630   4.202  17.146  0.0361 -0.3842  0.7577
 8135SOL     OW35863   1.726   4.442   1.865 -0.2736  0.0949  0.3618
 8135SOL    HW135864   1.696   4.356   1.895 -1.2609 -0.2507 -1.5581
 8135SOL    HW235865   1.655   4.501   1.891  0.5530  0.6241  1.4024
 8136SOL     OW35866   3.834   4.472  10.967  0.0817 -0.1219  0.1213
 8136SOL    HW135867   3.744   4.500  10.983  0.4608  0.1046  1.8151
 8136SOL    HW235868   3.876   4.448  11.049  1.6966  0.0951 -0.6313
 8137SOL     OW35869   3.945   1.343   4.958  0.0206 -0.4626  0.5435
 8137SOL    HW135870   3.947   1.267   5.018 -3.6798 -1.0835 -0.1065
 8137SOL    HW235871   4.032   1.381   4.969 -0.5114  1.0570 -0.7140
 8138SOL     OW35872   3.791   4.030   3.794 -0.0743  0.1417  0.9288
 8138SOL    HW135873   3.795   4.126   3.797 -0.1549  0.1469  0.8760
 8138SOL    HW235874   3.759   4.004   3.880  1.6865 -0.7270  1.3330
 8139SOL     OW35875   4.229   2.649   0.790 -0.4995  0.0094 -0.0980
 8139SOL    HW135876   4.204   2.599   0.712  1.9415 -0.9193 -0.2793
 8139SOL    HW235877   4.165   2.630   0.859 -0.9904  0.7517 -0.3607
 8140SOL     OW35878   4.395   2.720  17.457 -0.4966 -0.6834 -0.2826
 8140SOL    HW135879   4.405   2.629  17.428  2.8206  0.2977 -2.0845
 8140SOL    HW235880   4.488   2.741  17.452 -0.1330 -2.1700  0.1724
 8141SOL     OW35881   0.461   2.341   5.338 -0.4748  0.2610 -0.2494
 8141SOL    HW135882   0.445   2.421   5.388  0.6379  0.4173 -0.1337
 8141SOL    HW235883   0.507   2.280   5.395 -2.4687 -1.0915 -0.1039
 8142SOL     OW35884   2.496   2.518   2.425 -0.2085 -0.6689 -0.0800
 8142SOL    HW135885   2.467   2.545   2.338  0.5287  0.3421 -0.0066
 8142SOL    HW235886   2.425   2.529   2.489  0.6094  1.6386  0.4221
 8143SOL     OW35887   0.202   3.507   7.473  0.1240  0.4156  0.1054
 8143SOL    HW135888   0.112   3.531   7.450  0.2030  3.1866  2.5912
 8143SOL    HW235889   0.186   3.417   7.501  0.8545 -0.0839 -1.1117
 8144SOL     OW35890   0.224   3.210  14.201 -0.3394  0.1753 -0.1942
 8144SOL    HW135891   0.204   3.264  14.278 -2.2618 -0.2508 -0.3952
 8144SOL    HW235892   0.221   3.284  14.141 -0.8081 -0.5107 -1.0165
 8145SOL     OW35893   2.178   1.676   3.717  0.7219  0.0191  0.0875
 8145SOL    HW135894   2.163   1.751   3.775 -3.5436 -0.4461 -0.4270
 8145SOL    HW235895   2.272   1.664   3.732  0.5523 -0.4401  0.7968
 8146SOL     OW35896   1.241   0.747   8.376 -0.5264 -0.2115 -0.3470
 8146SOL    HW135897   1.301   0.767   8.448 -0.4697 -1.5173 -0.0208
 8146SOL    HW235898   1.158   0.732   8.420 -0.0637 -1.1322  0.2263
 8147SOL     OW35899   3.437   2.148   4.504 -0.2078  0.1283  0.4353
 8147SOL    HW135900   3.469   2.077   4.559  0.7739  1.0697  1.0821
 8147SOL    HW235901   3.439   2.218   4.570 -1.8596  3.4743 -3.0714
 8148SOL     OW35902   1.212   3.878   5.216 -0.1783 -0.5966  0.6968
 8148SOL    HW135903   1.270   3.832   5.156 -2.1550  1.1665 -2.5618
 8148SOL    HW235904   1.186   3.809   5.277 -1.8822  1.1589  1.9510
 8149SOL     OW35905   2.542   2.286   1.306 -0.0381  0.2344  0.5045
 8149SOL    HW135906   2.561   2.301   1.213  1.7035 -1.5241  0.5708
 8149SOL    HW235907   2.540   2.190   1.307 -0.6237  0.2618  1.6418
 8150SOL     OW35908   1.049   4.411   2.926 -0.1167  0.3073  0.7015
 8150SOL    HW135909   1.018   4.326   2.956  4.8135 -1.7771 -0.1501
 8150SOL    HW235910   1.120   4.385   2.867  0.8687 -0.5244  2.2353
 8151SOL     OW35911   0.286   1.593   3.730  0.4070  0.4537  0.3090
 8151SOL    HW135912   0.275   1.668   3.673  2.1421  1.7306  1.6632
 8151SOL    HW235913   0.288   1.520   3.667 -1.5070  0.2326  0.5253
 8152SOL     OW35914   2.518   1.429   8.664  0.6818  0.3490  0.0278
 8152SOL    HW135915   2.459   1.480   8.719  1.0967 -0.2645  1.0387
 8152SOL    HW235916   2.567   1.387   8.734  0.5478  0.6898  0.3263
 8153SOL     OW35917   4.602   1.850   0.158 -0.6721 -0.0693  0.2194
 8153SOL    HW135918   4.639   1.922   0.209  0.3078 -0.3794 -0.0529
 8153SOL    HW235919   4.527   1.819   0.209 -1.8609  0.0398 -1.4658
 8154SOL     OW35920   1.809   3.683   4.061 -0.0865 -0.1783  0.1630
 8154SOL    HW135921   1.739   3.652   4.118 -1.3436  0.8403 -0.8272
 8154SOL    HW235922   1.765   3.674   3.976 -0.9182 -0.0907  0.5804
 8155SOL     OW35923   3.138   0.984   6.214 -0.4473  0.2469 -0.7968
 8155SOL    HW135924   3.221   1.014   6.251  0.1451 -2.2775 -0.0855
 8155SOL    HW235925   3.156   0.897   6.178  1.9213  0.5523 -0.3918
 8156SOL     OW35926   3.482   3.966   3.745 -0.2935 -0.6411 -0.4456
 8156SOL    HW135927   3.457   4.053   3.774  0.3209 -0.5084 -0.3145
 8156SOL    HW235928   3.465   3.977   3.651  2.2112 -2.4667 -1.1339
 8157SOL     OW35929   1.144   3.644   5.770  0.2205 -0.2606  0.5255
 8157SOL    HW135930   1.100   3.634   5.686  0.8726 -2.3801  0.4442
 8157SOL    HW235931   1.223   3.685   5.736 -1.1915  0.6727 -1.6327
 8158SOL     OW35932   4.088   0.934  13.385  0.1191 -0.1350 -0.7511
 8158SOL    HW135933   4.060   0.953  13.474  0.7346  1.6546 -0.9247
 8158SOL    HW235934   4.160   0.996  13.375 -0.9461  1.3423  0.8734
 8159SOL     OW35935   3.275   3.799   4.794  0.4966 -0.0066  0.3588
 8159SOL    HW135936   3.205   3.761   4.848 -0.1033  0.6466  0.0512
 8159SOL    HW235937   3.228   3.800   4.710  0.7631 -2.3170  0.1897
 8160SOL     OW35938   3.985   0.316   7.176  0.0750 -0.8005 -0.6531
 8160SOL    HW135939   4.073   0.333   7.144 -0.6728 -0.1726 -2.3380
 8160SOL    HW235940   3.996   0.230   7.218 -1.3059 -0.4435  0.4499
 8161SOL     OW35941   2.400   1.747   4.576 -0.2081 -0.3164 -0.2166
 8161SOL    HW135942   2.474   1.731   4.635  0.5445  0.2142 -1.0328
 8161SOL    HW235943   2.433   1.776   4.491 -3.1806 -1.2305 -1.6953
 8162SOL     OW35944   2.872   2.502   8.720 -0.3737  0.1644 -0.1277
 8162SOL    HW135945   2.908   2.487   8.633  1.6023  1.0123  0.5471
 8162SOL    HW235946   2.941   2.558   8.756  0.7183 -0.7386 -0.8015
 8163SOL     OW35947   1.926   4.720   5.284 -0.4844 -0.3324 -0.3779
 8163SOL    HW135948   1.872   0.077   5.288 -0.2517 -0.0939 -1.8915
 8163SOL    HW235949   2.011   0.039   5.303 -0.6385  0.0949 -0.5931
 8164SOL     OW35950   0.590   1.906  14.623 -0.2962  0.0411  0.4698
 8164SOL    HW135951   0.669   1.931  14.575 -0.5756 -1.8393 -0.9845
 8164SOL    HW235952   0.614   1.921  14.714 -0.4625 -0.0690  0.5305
 8165SOL     OW35953   1.664   1.339  13.747 -0.4775  0.1921  0.5797
 8165SOL    HW135954   1.754   1.307  13.746 -0.3482  0.5777 -0.6135
 8165SOL    HW235955   1.614   1.258  13.754  0.1671 -0.4436 -2.2388
 8166SOL     OW35956   2.320   3.726  16.457  0.1434 -0.0745  0.3231
 8166SOL    HW135957   2.321   3.817  16.427  1.3222 -0.4624 -0.8585
 8166SOL    HW235958   2.415   3.708  16.457  0.3625  1.1109 -1.6448
 8167SOL     OW35959   0.886   1.777   1.143  0.3443 -0.6127  0.0190
 8167SOL    HW135960   0.794   1.804   1.145 -0.1610 -2.2232 -1.0793
 8167SOL    HW235961   0.913   1.776   1.235  0.3264  0.0021  0.0307
 8168SOL     OW35962   3.401   2.962   2.745  0.8200  0.2447  0.2548
 8168SOL    HW135963   3.391   2.942   2.652  1.2531 -1.7379  0.6311
 8168SOL    HW235964   3.491   2.933   2.757 -0.0307 -2.7452 -0.5839
 8169SOL     OW35965   3.531   0.137   2.244  0.0615  0.0206 -0.1552
 8169SOL    HW135966   3.599   0.076   2.273 -0.2820 -0.8852 -1.2567
 8169SOL    HW235967   3.579   0.192   2.181 -1.3380  1.1125 -0.2597
 8170SOL     OW35968   0.096   3.078   3.619  0.5638  0.3750 -0.2823
 8170SOL    HW135969   0.185   3.104   3.599  0.6294 -0.0181 -0.5057
 8170SOL    HW235970   0.114   3.043   3.706 -2.2489  0.0895  0.1933
 8171SOL     OW35971   1.799   4.080   5.082  0.6282 -0.5733  0.3496
 8171SOL    HW135972   1.718   4.070   5.133  0.4505 -0.0197  0.1707
 8171SOL    HW235973   1.768   4.057   4.994  0.8562  0.2077  0.0661
 8172SOL     OW35974   0.607   3.473   6.690 -0.5180 -0.6937  0.4840
 8172SOL    HW135975   0.518   3.500   6.668  0.3780  0.3648 -1.9559
 8172SOL    HW235976   0.634   3.460   6.599  0.1359 -1.9332  0.8619
 8173SOL     OW35977   4.336   4.187   6.353  0.3162  0.0404 -0.5964
 8173SOL    HW135978   4.399   4.117   6.337  0.9742 -0.0129  2.2605
 8173SOL    HW235979   4.381   4.249   6.410  1.4512 -0.4809 -0.9416
 8174SOL     OW35980   0.659   2.000   7.107  0.0251  0.3927 -0.2095
 8174SOL    HW135981   0.740   2.014   7.155  1.4825 -1.8163 -2.0390
 8174SOL    HW235982   0.654   2.075   7.046 -0.4300  0.2594 -0.3417
 8175SOL     OW35983   2.776   0.528   7.868 -0.4302 -0.2305 -0.0284
 8175SOL    HW135984   2.840   0.584   7.913  0.4467 -0.3070 -1.1723
 8175SOL    HW235985   2.825   0.451   7.839 -0.7054  0.1971 -1.6268
 8176SOL     OW35986   4.123   4.361   7.685 -0.2136 -0.2432  0.2181
 8176SOL    HW135987   4.108   4.300   7.757 -2.4053  1.0785  0.9064
 8176SOL    HW235988   4.035   4.398   7.675 -1.2352 -3.1565 -1.7407
 8177SOL     OW35989   0.076   3.680   7.179 -0.1320  1.5062  0.2375
 8177SOL    HW135990   4.709   3.650   7.201  0.4558  0.0370  0.5768
 8177SOL    HW235991   0.068   3.775   7.193  1.9522  1.4191  2.0390
 8178SOL     OW35992   1.686   0.983   8.653  0.5806 -0.7711 -0.1830
 8178SOL    HW135993   1.682   1.072   8.618  0.4727 -0.0710  1.5701
 8178SOL    HW235994   1.775   0.979   8.687  0.5725 -0.0693 -0.0660
 8179SOL     OW35995   1.733   0.364  12.884  0.3378 -0.4062  0.1129
 8179SOL    HW135996   1.639   0.355  12.900  0.4873 -1.6238  0.3439
 8179SOL    HW235997   1.741   0.457  12.904 -2.2797  0.0727 -1.2328
 8180SOL     OW35998   0.199   0.611   5.099  0.4713 -0.3427 -0.0648
 8180SOL    HW135999   0.122   0.666   5.091  0.9508  0.4552  0.8523
 8180SOL    HW236000   0.198   0.563   5.016  0.1427  0.6893 -0.6612
 8181SOL     OW36001   2.676   3.938  10.179  0.4856 -0.4051 -0.0432
 8181SOL    HW136002   2.714   4.018  10.215  0.7793 -0.7406  0.4037
 8181SOL    HW236003   2.719   3.866  10.226  2.1728  1.0785  0.6740
 8182SOL     OW36004   2.104   4.572   9.240 -0.4779 -0.0778 -0.1336
 8182SOL    HW136005   2.103   4.663   9.210 -1.0927  0.3130  1.0372
 8182SOL    HW236006   2.010   4.556   9.251 -0.3881  0.5417  1.5299
 8183SOL     OW36007   1.155   0.840  17.057  0.5974 -0.2890 -0.5672
 8183SOL    HW136008   1.245   0.855  17.084  0.7085  1.3269 -1.8299
 8183SOL    HW236009   1.109   0.856  17.139  0.7695  2.5725 -1.0413
 8184SOL     OW36010   3.983   0.584  11.894  0.1988 -0.3471  0.1377
 8184SOL    HW136011   4.030   0.532  11.958  2.3796 -2.0259 -2.8335
 8184SOL    HW236012   3.893   0.582  11.926 -0.1508 -0.4808 -0.8505
 8185SOL     OW36013   2.325   1.628   1.744 -0.3608  0.1638  0.0303
 8185SOL    HW136014   2.323   1.533   1.734  0.2702 -0.1256  2.6217
 8185SOL    HW236015   2.414   1.662   1.753 -1.0782  1.7091  1.3766
 8186SOL     OW36016   4.117   2.073   6.734 -0.0720 -0.1030 -0.0103
 8186SOL    HW136017   4.172   2.109   6.804 -0.8993  0.4380  0.3535
 8186SOL    HW236018   4.044   2.063   6.795 -1.6840 -0.0986 -1.9506
 8187SOL     OW36019   4.249   3.499   5.545 -0.1482  0.1760 -0.1064
 8187SOL    HW136020   4.336   3.503   5.506  0.1954  1.9655  0.8554
 8187SOL    HW236021   4.231   3.406   5.551  1.7710 -0.1020  0.9381
 8188SOL     OW36022   1.705   0.763   4.390  0.9474  0.1564  0.1295
 8188SOL    HW136023   1.641   0.768   4.319  1.9492  2.2829 -0.6536
 8188SOL    HW236024   1.774   0.826   4.365  0.9623  0.0506 -0.0946
 8189SOL     OW36025   1.978   3.799   0.316  0.4227  0.0522  1.1335
 8189SOL    HW136026   1.973   3.705   0.301  0.2776  0.7165 -3.0523
 8189SOL    HW236027   2.042   3.812   0.246  0.2100 -0.9852  0.7439
 8190SOL     OW36028   4.449   2.604   7.095 -0.3357  0.1716 -0.4790
 8190SOL    HW136029   4.438   2.692   7.061  1.9172  0.4387 -0.5199
 8190SOL    HW236030   4.541   2.591   7.071 -0.6805 -1.2672 -1.0276
 8191SOL     OW36031   2.026   4.636   6.916 -0.3848  0.1312  0.3138
 8191SOL    HW136032   1.939   4.676   6.920 -0.8432 -0.7400 -1.0305
 8191SOL    HW236033   2.047   4.641   7.010 -2.7154  2.2064  0.7290
 8192SOL     OW36034   4.709   0.951   4.529 -0.1110 -0.5762 -0.0094
 8192SOL    HW136035   4.656   0.882   4.489  0.2538  0.4504 -2.2765
 8192SOL    HW236036   4.717   0.918   4.619  0.2160 -1.6438 -0.4339
 8193SOL     OW36037   1.712   4.375  16.797  0.4176 -0.2801  0.5119
 8193SOL    HW136038   1.663   4.320  16.858  0.1551 -0.4147  0.1844
 8193SOL    HW236039   1.665   4.457  16.812  2.3690  0.7082  1.2258
 8194SOL     OW36040   3.890   0.098   5.876 -0.0285 -0.0757  0.2422
 8194SOL    HW136041   3.831   0.083   5.950  1.2931 -0.3418  1.2409
 8194SOL    HW236042   3.836   0.071   5.802  0.6631  1.5263 -0.8476
 8195SOL     OW36043   3.500   0.511   4.223  0.2535  0.3443  0.2644
 8195SOL    HW136044   3.511   0.604   4.243 -0.3428  0.0129  2.1904
 8195SOL    HW236045   3.565   0.472   4.281  0.7117 -0.3785 -0.7335
 8196SOL     OW36046   4.684   2.788   4.084 -0.5930 -0.0020 -0.1730
 8196SOL    HW136047   4.652   2.876   4.064 -0.5500 -0.4858 -2.4225
 8196SOL    HW236048   4.667   2.734   4.007 -0.3913 -2.4112  1.4624
 8197SOL     OW36049   2.730   0.976  11.431 -0.0015  0.5439 -0.2011
 8197SOL    HW136050   2.669   1.034  11.477 -1.2070 -2.0003  1.3617
 8197SOL    HW236051   2.806   1.031  11.410  0.9688 -0.5361  0.4617
 8198SOL     OW36052   3.465   3.363   4.518  0.1286 -0.5593 -0.3292
 8198SOL    HW136053   3.403   3.432   4.541  0.5593  0.1255 -1.1759
 8198SOL    HW236054   3.525   3.375   4.592 -0.2581 -0.8468  0.0223
 8199SOL     OW36055   4.660   4.231  13.208  0.1754 -0.0774 -0.5418
 8199SOL    HW136056   0.031   4.204  13.211  0.3594  0.2230 -3.2568
 8199SOL    HW236057   4.652   4.292  13.134  0.6534  0.0144 -0.5184
 8200SOL     OW36058   2.945   0.269   7.774 -0.1451  0.2342  0.3037
 8200SOL    HW136059   2.914   0.240   7.689 -0.9181  1.2694  0.2241
 8200SOL    HW236060   2.924   0.195   7.831 -1.1420  0.1666 -0.1572
 8201SOL     OW36061   2.157   2.514  16.832 -0.4686  0.1950  0.5313
 8201SOL    HW136062   2.156   2.453  16.758  0.7239  1.9552 -0.9453
 8201SOL    HW236063   2.223   2.582  16.814 -1.4210 -0.2717 -4.7015
 8202SOL     OW36064   2.428   0.250   3.093 -0.4784 -0.1221 -0.4654
 8202SOL    HW136065   2.518   0.259   3.064 -0.8928  2.3767 -1.0061
 8202SOL    HW236066   2.418   0.322   3.156  0.2607 -0.2926 -0.1592
 8203SOL     OW36067   2.871   3.578   8.768  1.0224  0.3365 -0.0236
 8203SOL    HW136068   2.928   3.504   8.748  0.9565 -0.3651  2.3504
 8203SOL    HW236069   2.818   3.562   8.690  1.5764 -1.4000 -0.0455
 8204SOL     OW36070   1.385   2.977  10.828  0.2877 -0.5137 -0.1929
 8204SOL    HW136071   1.459   2.954  10.885 -0.1197  0.5340  0.7701
 8204SOL    HW236072   1.321   2.996  10.896  0.2612 -0.0839 -0.3406
 8205SOL     OW36073   1.181   1.992   3.515 -0.7550 -0.0970  0.3708
 8205SOL    HW136074   1.147   2.005   3.426  1.1464  0.7969 -0.2261
 8205SOL    HW236075   1.153   1.903   3.535  1.8949 -1.3331 -1.4907
 8206SOL     OW36076   1.620   4.359   5.624 -0.7848 -0.3764 -0.1572
 8206SOL    HW136077   1.707   4.381   5.659 -0.3645  1.2553 -2.2343
 8206SOL    HW236078   1.648   4.329   5.537 -1.5833 -3.5936  0.7066
 8207SOL     OW36079   0.163   1.250   3.006  0.4976  0.7410  0.9145
 8207SOL    HW136080   0.150   1.345   3.006 -0.7371  0.5763 -1.2006
 8207SOL    HW236081   0.073   1.228   3.030 -0.1671  0.5665 -1.7304
 8208SOL     OW36082   4.326   3.469   7.406 -0.6723 -0.1205 -0.3153
 8208SOL    HW136083   4.352   3.530   7.475 -1.0969  0.4664 -0.6656
 8208SOL    HW236084   4.234   3.457   7.430 -0.3645 -0.1159  0.8934
 8209SOL     OW36085   0.751   3.734   1.174  0.4022  0.1128  0.1415
 8209SOL    HW136086   0.817   3.709   1.109 -1.5438 -2.2546 -0.9630
 8209SOL    HW236087   0.687   3.768   1.111 -0.5501 -1.1696  0.4246
 8210SOL     OW36088   3.919   3.578   8.380 -0.2495  0.0316 -0.2397
 8210SOL    HW136089   3.839   3.559   8.429  0.1388 -1.2820 -0.1008
 8210SOL    HW236090   3.941   3.491   8.346 -0.8477  0.4411 -1.6598
 8211SOL     OW36091   3.882   3.880  11.983 -0.2339  0.0252 -0.1580
 8211SOL    HW136092   3.870   3.789  11.956 -0.7300 -0.4908  1.8318
 8211SOL    HW236093   3.842   3.869  12.069 -0.0660  0.2415 -0.0528
 8212SOL     OW36094   1.934   0.115   2.531 -0.4121 -0.5926  0.0110
 8212SOL    HW136095   2.030   0.107   2.535 -0.2920  0.5129 -0.5019
 8212SOL    HW236096   1.921   0.028   2.494  1.1532 -0.5744 -0.6016
 8213SOL     OW36097   1.978   4.216   6.642  0.0557  0.2613  0.0326
 8213SOL    HW136098   1.964   4.237   6.735 -0.6915  0.7639 -0.1898
 8213SOL    HW236099   1.906   4.168   6.602 -1.0385  2.0004 -0.1329
 8214SOL     OW36100   1.348   4.492   3.033  0.1667  0.5151 -0.0809
 8214SOL    HW136101   1.351   4.545   2.953  1.5846  0.5966  0.0170
 8214SOL    HW236102   1.262   4.450   3.029 -0.5405  1.6979  2.9076
 8215SOL     OW36103   3.416   1.817  15.220  0.0701 -0.5863 -0.3226
 8215SOL    HW136104   3.366   1.898  15.224  0.0332 -0.6306  0.1092
 8215SOL    HW236105   3.352   1.756  15.182  1.4899 -2.9080  0.9900
 8216SOL     OW36106   3.962   1.707  13.753 -0.1282  0.1216  0.4185
 8216SOL    HW136107   3.869   1.686  13.745 -0.3305  0.4769  1.8259
 8216SOL    HW236108   3.975   1.747  13.667 -2.4626 -0.1189 -0.0331
 8217SOL     OW36109   0.938   1.323   2.182  0.1679  0.2209 -0.0386
 8217SOL    HW136110   0.877   1.300   2.252 -1.9156  0.2059 -1.8632
 8217SOL    HW236111   0.883   1.374   2.123  0.1738 -0.7077 -0.8422
 8218SOL     OW36112   3.818   0.410  12.363 -0.1711 -0.5938  0.6717
 8218SOL    HW136113   3.772   0.351  12.423 -0.1826  0.4801  1.7376
 8218SOL    HW236114   3.910   0.409  12.389 -0.1938 -0.9187  0.7399
 8219SOL     OW36115   2.801   1.159   1.705 -0.0667 -0.1215 -0.5268
 8219SOL    HW136116   2.843   1.118   1.629  1.1253  1.5760 -0.7785
 8219SOL    HW236117   2.710   1.157   1.674 -0.7336  0.5599  1.4118
 8220SOL     OW36118   2.403   4.586   0.730 -0.6325 -0.3524 -0.4789
 8220SOL    HW136119   2.367   4.661   0.683 -0.3815 -0.7880 -1.3647
 8220SOL    HW236120   2.325   4.560   0.778  1.1910 -1.1429  2.0858
 8221SOL     OW36121   0.903   0.976   8.067  0.3912  0.0065  0.0698
 8221SOL    HW136122   0.830   1.037   8.071 -1.0319 -1.7629  0.8274
 8221SOL    HW236123   0.941   0.986   8.154  0.2219  2.5061 -0.1493
 8222SOL     OW36124   0.168   2.643   3.520  0.4613  0.2965 -0.0129
 8222SOL    HW136125   0.093   2.657   3.578 -1.2657 -1.9224 -1.6771
 8222SOL    HW236126   0.130   2.624   3.434 -0.6082  1.2438  0.2491
 8223SOL     OW36127   1.193   4.331   2.709 -0.2291  0.1197 -0.5128
 8223SOL    HW136128   1.187   4.334   2.614 -0.3514  0.2822 -0.4993
 8223SOL    HW236129   1.242   4.249   2.713  0.1850  0.2857 -1.9712
 8224SOL     OW36130   1.934   0.606   8.510  0.0227 -0.0081  0.5134
 8224SOL    HW136131   2.024   0.619   8.538  0.0048  0.3981  0.3845
 8224SOL    HW236132   1.907   0.515   8.527  1.3603 -0.5483 -0.2459
 8225SOL     OW36133   3.160   2.664   5.515  0.6200  0.5456  0.5177
 8225SOL    HW136134   3.085   2.721   5.501  0.6279  0.3485 -0.3054
 8225SOL    HW236135   3.226   2.706   5.570 -0.5821  0.2634  2.1985
 8226SOL     OW36136   3.547   2.268   8.335  0.1036 -0.7341 -0.5844
 8226SOL    HW136137   3.605   2.311   8.399 -0.1346 -1.3235  0.0331
 8226SOL    HW236138   3.561   2.322   8.258  0.0236  1.7039  1.1241
 8227SOL     OW36139   1.423   0.755   1.416 -0.1510 -0.1650  0.0705
 8227SOL    HW136140   1.330   0.774   1.430  0.6826  2.1760  2.3477
 8227SOL    HW236141   1.450   0.832   1.366 -1.1304  0.4655  0.5206
 8228SOL     OW36142   1.109   3.628   3.193 -0.1665 -0.2671 -0.1775
 8228SOL    HW136143   1.117   3.637   3.288 -0.1139  0.8977 -0.2914
 8228SOL    HW236144   1.190   3.581   3.174  0.5081  2.4650 -3.8441
 8229SOL     OW36145   2.624   3.794  15.520 -0.0713  0.0392 -0.6841
 8229SOL    HW136146   2.570   3.864  15.482 -0.1239 -0.3026 -1.2394
 8229SOL    HW236147   2.707   3.842  15.521 -0.1684  0.1965 -0.2747
 8230SOL     OW36148   2.998   0.725   8.483 -0.2852  0.2537  0.2190
 8230SOL    HW136149   2.906   0.701   8.472  0.0768 -1.8793  1.8748
 8230SOL    HW236150   3.028   0.676   8.559 -1.4292 -2.0287 -0.8191
 8231SOL     OW36151   0.628   1.573   5.276  0.1027  0.5253  0.3701
 8231SOL    HW136152   0.590   1.650   5.318  3.4427  2.3022  0.1447
 8231SOL    HW236153   0.722   1.588   5.289  0.2877 -1.0248  0.8300
 8232SOL     OW36154   3.104   4.007  14.085 -0.0581  0.1650  0.3346
 8232SOL    HW136155   3.139   3.923  14.114  0.1926  0.6968  1.5597
 8232SOL    HW236156   3.169   4.068  14.120  0.8188 -1.2407  1.1344
 8233SOL     OW36157   4.319   1.678   9.857  0.1986  0.0420 -0.1954
 8233SOL    HW136158   4.291   1.651   9.769 -1.3386 -2.2382  0.9950
 8233SOL    HW236159   4.251   1.733   9.895 -1.2125  0.0041 -2.6295
 8234SOL     OW36160   2.879   4.191  11.302 -0.2765  0.5917  0.0054
 8234SOL    HW136161   2.876   4.261  11.367 -0.1590  0.6017  0.0008
 8234SOL    HW236162   2.828   4.119  11.340  0.1920 -0.3179 -1.0803
 8235SOL     OW36163   3.741   1.463   5.326  0.2295 -0.5890  0.1433
 8235SOL    HW136164   3.712   1.545   5.365  0.8927 -0.3564  0.1402
 8235SOL    HW236165   3.750   1.498   5.237  3.0992 -0.3471  0.5441
 8236SOL     OW36166   1.433   1.291   2.909  0.5473  0.4107  0.2373
 8236SOL    HW136167   1.466   1.381   2.903  2.3165 -0.1271  1.9118
 8236SOL    HW236168   1.471   1.273   2.995  1.3576 -0.4455 -0.2973
 8237SOL     OW36169   1.729   0.618   1.516  0.5716 -0.0015 -0.0819
 8237SOL    HW136170   1.798   0.566   1.475  2.5070  1.3823  1.4270
 8237SOL    HW236171   1.724   0.695   1.460  2.0969  1.5587  1.9240
 8238SOL     OW36172   3.257   2.689  14.117  0.3620  0.0418  0.8093
 8238SOL    HW136173   3.181   2.737  14.084  0.3641 -0.2339  0.4071
 8238SOL    HW236174   3.320   2.718  14.051  1.8399 -2.2499  1.2319
 8239SOL     OW36175   1.773   2.692  13.638  0.0849  0.2211  0.0840
 8239SOL    HW136176   1.820   2.609  13.625  1.3005  0.6896  1.6096
 8239SOL    HW236177   1.719   2.667  13.713 -0.1270 -0.0523 -0.1545
 8240SOL     OW36178   0.324   3.505   2.165  0.1315 -0.3438  0.7097
 8240SOL    HW136179   0.349   3.546   2.247  0.6062  0.1518  0.3101
 8240SOL    HW236180   0.295   3.580   2.113 -0.3595 -0.9857  0.0519
 8241SOL     OW36181   1.447   2.003   3.573  0.3308  0.0820 -0.1640
 8241SOL    HW136182   1.355   2.006   3.548  0.8452 -0.8252 -2.1810
 8241SOL    HW236183   1.485   1.976   3.489 -0.7344  0.8489 -0.8813
 8242SOL     OW36184   4.414   4.269  13.314 -0.9380 -0.2591  0.4116
 8242SOL    HW136185   4.423   4.330  13.388  1.0543 -1.1133  0.8757
 8242SOL    HW236186   4.505   4.259  13.286 -0.5799 -1.6139  2.0370
 8243SOL     OW36187   3.692   4.259   6.548 -0.0392  0.3479  0.5551
 8243SOL    HW136188   3.652   4.245   6.633  1.6254  0.8209  1.4131
 8243SOL    HW236189   3.783   4.254   6.576  0.2116 -1.4311 -0.6139
 8244SOL     OW36190   0.959   2.394   7.583 -0.1302  0.6063  0.0702
 8244SOL    HW136191   1.052   2.378   7.571  0.1044  3.0330 -1.4391
 8244SOL    HW236192   0.919   2.312   7.612 -2.4548  0.9065 -2.2455
 8245SOL     OW36193   4.315   0.274   2.761  0.4260 -0.7170  0.4537
 8245SOL    HW136194   4.221   0.289   2.758  0.8660  2.1158  0.8176
 8245SOL    HW236195   4.304   0.216   2.836 -0.5259  1.5196  2.0482
 8246SOL     OW36196   0.320   0.508   6.078 -0.0950 -0.0512  0.4409
 8246SOL    HW136197   0.411   0.538   6.073  0.6315 -2.4683 -0.9915
 8246SOL    HW236198   0.282   0.562   6.008  1.4799 -2.4807 -2.3059
 8247SOL     OW36199   3.860   3.431   5.021 -0.4542 -0.5212 -0.5279
 8247SOL    HW136200   3.950   3.407   4.999  0.3221  0.9527  1.0442
 8247SOL    HW236201   3.844   3.397   5.110 -0.5061  0.4136 -0.1852
 8248SOL     OW36202   1.603   0.555   0.837 -0.0251 -0.7182  1.0470
 8248SOL    HW136203   1.599   0.600   0.921 -0.9579 -2.1817  1.7867
 8248SOL    HW236204   1.545   0.605   0.779  2.6255  0.3903 -0.6394
 8249SOL     OW36205   2.796   3.442   5.611 -0.5211 -0.2935 -0.3790
 8249SOL    HW136206   2.741   3.441   5.532 -0.4819 -0.9259 -0.4036
 8249SOL    HW236207   2.842   3.525   5.601  0.1000 -0.4763  0.9777
 8250SOL     OW36208   1.264   3.132   0.847 -0.1895 -0.1618  0.0605
 8250SOL    HW136209   1.276   3.222   0.819  4.3123  0.6246  4.5925
 8250SOL    HW236210   1.172   3.117   0.823 -0.5733  1.2252  0.6866
 8251SOL     OW36211   1.642   1.547  10.557 -0.1235 -0.2071 -0.1531
 8251SOL    HW136212   1.633   1.640  10.540  2.6534  0.2235  0.8157
 8251SOL    HW236213   1.618   1.522  10.468  1.1942 -1.4015 -0.1805
 8252SOL     OW36214   0.278   2.195  16.605  0.0177 -0.2327 -0.0924
 8252SOL    HW136215   0.293   2.227  16.516 -0.3942  0.5639  0.1216
 8252SOL    HW236216   0.212   2.128  16.588  0.9871 -1.0448 -0.6751
 8253SOL     OW36217   3.757   0.014   5.613 -0.0148 -0.3619 -0.0671
 8253SOL    HW136218   3.727   4.650   5.578 -0.8774  0.3830 -1.1385
 8253SOL    HW236219   3.814   0.047   5.544 -0.3669 -0.0342 -0.2046
 8254SOL     OW36220   0.776   1.778   3.152 -0.1563  0.0636 -0.2420
 8254SOL    HW136221   0.780   1.872   3.164 -0.4742  0.0219  0.1624
 8254SOL    HW236222   0.717   1.740   3.218  0.3793  0.6161  0.5591
 8255SOL     OW36223   4.252   0.741   2.023 -0.0469 -0.2564  0.2425
 8255SOL    HW136224   4.317   0.782   1.967 -0.6324 -1.3184 -1.2110
 8255SOL    HW236225   4.304   0.675   2.068 -0.9165 -0.9209  0.2748
 8256SOL     OW36226   2.714   3.811   8.823  0.0503 -0.4978 -0.1069
 8256SOL    HW136227   2.668   3.824   8.740 -1.4474  2.5851  1.2042
 8256SOL    HW236228   2.787   3.752   8.803  1.1246  1.0634 -0.7763
 8257SOL     OW36229   3.367   0.851   3.973 -0.4444  0.0269 -0.1956
 8257SOL    HW136230   3.462   0.840   3.983 -0.5754 -1.4131 -0.5525
 8257SOL    HW236231   3.338   0.874   4.061  3.8854  0.9226  1.0058
 8258SOL     OW36232   3.962   2.807   4.642 -0.1116  0.1242 -0.6343
 8258SOL    HW136233   3.880   2.833   4.684  0.0149 -1.9348  0.8716
 8258SOL    HW236234   4.011   2.800   4.724 -1.8781  3.4575  0.6974
 8259SOL     OW36235   1.060   0.086   8.656 -0.3091 -0.1253  0.3840
 8259SOL    HW136236   0.970   0.064   8.633 -0.6533 -0.1746  1.7982
 8259SOL    HW236237   1.043   0.157   8.718  0.6465  1.4145 -1.1293
 8260SOL     OW36238   2.131   0.506   7.052 -0.1298  0.1287  0.1946
 8260SOL    HW136239   2.099   0.583   7.004  0.5030  1.0081  1.1795
 8260SOL    HW236240   2.098   0.439   6.993 -2.7365  3.0155 -1.6265
 8261SOL     OW36241   3.492   2.444   7.612 -0.4065  0.2912  0.2566
 8261SOL    HW136242   3.425   2.383   7.644 -2.3405  2.3418  0.1682
 8261SOL    HW236243   3.433   2.520   7.604  2.3320  2.1684 -1.9058
 8262SOL     OW36244   4.241   3.652   3.275 -0.6892  0.3789 -0.1668
 8262SOL    HW136245   4.245   3.662   3.180  0.8642  0.5468 -0.0817
 8262SOL    HW236246   4.308   3.715   3.304 -0.6871  0.7194 -0.9136
 8263SOL     OW36247   1.173   2.559   3.217  0.4909  0.1971 -0.7984
 8263SOL    HW136248   1.194   2.521   3.302  1.6304 -2.1593 -2.1178
 8263SOL    HW236249   1.239   2.627   3.230  0.1658  0.4645 -0.5449
 8264SOL     OW36250   0.865   3.982   7.015  0.6896  0.4387 -0.3157
 8264SOL    HW136251   0.895   3.925   7.086  0.7622  1.4721  0.4802
 8264SOL    HW236252   0.940   4.039   6.998  1.4627 -0.5988 -0.4408
 8265SOL     OW36253   0.398   3.873  12.270 -0.8705  0.0738  0.7589
 8265SOL    HW136254   0.485   3.909  12.287 -0.0713 -1.7328  0.4837
 8265SOL    HW236255   0.350   3.949  12.302 -1.0611  0.5055 -0.5417
 8266SOL     OW36256   0.415   1.152  16.195 -0.0136  0.2892 -0.1956
 8266SOL    HW136257   0.499   1.107  16.191 -0.0382  0.3581 -1.5278
 8266SOL    HW236258   0.420   1.184  16.285  3.2231  3.1898 -1.3985
 8267SOL     OW36259   2.530   3.689   3.046  0.4599 -0.1849  0.0085
 8267SOL    HW136260   2.435   3.679   3.056  0.0161  5.0053  1.0698
 8267SOL    HW236261   2.548   3.603   3.009 -0.4110 -1.1825  1.9185
 8268SOL     OW36262   1.370   2.057   1.127 -0.0205  0.1431 -0.5070
 8268SOL    HW136263   1.366   2.080   1.220  1.4576  2.6555 -1.0499
 8268SOL    HW236264   1.281   2.022   1.123 -0.5061  1.4424 -1.0780
 8269SOL     OW36265   4.264   1.319   6.972 -0.4014 -0.2342  0.6950
 8269SOL    HW136266   4.180   1.287   6.938  0.6342 -1.4466 -0.6847
 8269SOL    HW236267   4.282   1.370   6.893  1.5403 -0.6903  0.8636
 8270SOL     OW36268   3.989   3.981  13.351  0.1493 -0.3409 -0.6709
 8270SOL    HW136269   3.955   3.909  13.404  0.6612 -0.6439 -0.7510
 8270SOL    HW236270   4.085   3.976  13.361  0.0502 -2.1085 -0.6714
 8271SOL     OW36271   3.762   0.607   9.723 -0.0241 -0.4056  0.0120
 8271SOL    HW136272   3.851   0.573   9.715  0.4472  0.6108  1.0237
 8271SOL    HW236273   3.722   0.535   9.771 -1.2697 -0.0931 -0.5500
 8272SOL     OW36274   0.223   4.579   1.844 -0.6761 -0.7852  0.0757
 8272SOL    HW136275   0.163   4.632   1.791  2.1864  0.9958 -1.3606
 8272SOL    HW236276   0.165   4.526   1.899 -1.3151 -0.8340 -0.6426
 8273SOL     OW36277   2.636   3.255  15.474 -0.0786  0.4984 -0.1067
 8273SOL    HW136278   2.676   3.341  15.482 -0.9569  0.8113  0.8134
 8273SOL    HW236279   2.665   3.234  15.385 -2.4465 -0.0804 -0.7543
 8274SOL     OW36280   0.670   0.825  13.337  0.3786 -0.2616 -0.6607
 8274SOL    HW136281   0.584   0.785  13.348  0.1099 -0.0204 -1.8888
 8274SOL    HW236282   0.662   0.913  13.374  1.2152 -1.7978  3.1665
 8275SOL     OW36283   4.593   3.367   8.639 -0.0652  0.0058 -0.1225
 8275SOL    HW136284   4.542   3.435   8.683 -0.5279 -1.0183  0.9111
 8275SOL    HW236285   4.680   3.386   8.676  1.7777 -0.1160 -4.4581
 8276SOL     OW36286   1.072   2.660   6.476 -0.4962 -0.2244 -0.1111
 8276SOL    HW136287   1.032   2.724   6.417 -2.1516  1.3659  2.7554
 8276SOL    HW236288   1.070   2.725   6.547 -0.1690  2.3058 -2.4092
 8277SOL     OW36289   2.418   2.369   7.401 -0.2267 -0.5514 -0.1818
 8277SOL    HW136290   2.458   2.453   7.378 -0.7313 -0.5500 -1.0448
 8277SOL    HW236291   2.402   2.385   7.494 -0.0072 -0.1546 -0.2101
 8278SOL     OW36292   3.307   4.054   4.933 -0.1771 -0.0559  0.2941
 8278SOL    HW136293   3.287   3.976   4.882 -2.3287  0.8001 -0.1914
 8278SOL    HW236294   3.250   4.119   4.892  0.6942 -0.0840 -0.9649
 8279SOL     OW36295   1.795   1.603   6.452  0.7199  0.5936  0.4949
 8279SOL    HW136296   1.772   1.538   6.518  2.7323  0.3569  0.9766
 8279SOL    HW236297   1.887   1.606   6.478  0.5564  0.8472  1.0397
 8280SOL     OW36298   0.624   2.735   9.302 -0.1982  0.4115  1.0541
 8280SOL    HW136299   0.682   2.740   9.378  1.1037  2.9292 -0.1042
 8280SOL    HW236300   0.582   2.651   9.318 -0.8824  0.2258 -1.6800
 8281SOL     OW36301   4.373   4.167   5.363 -0.4175  0.3683  0.5330
 8281SOL    HW136302   4.326   4.087   5.342 -0.8274  0.8503 -0.4061
 8281SOL    HW236303   4.304   4.234   5.360 -0.4730  0.1557 -2.6829
 8282SOL     OW36304   0.780   3.304   6.458  0.4306 -0.0701 -0.7743
 8282SOL    HW136305   0.846   3.340   6.517  0.4009  0.8029 -1.2769
 8282SOL    HW236306   0.761   3.213   6.484 -1.2961  0.5573  0.1452
 8283SOL     OW36307   2.485   3.929   9.179 -0.2643 -1.0076  0.0526
 8283SOL    HW136308   2.464   4.016   9.144 -1.6626  0.4881  4.5191
 8283SOL    HW236309   2.398   3.896   9.202 -2.4470  3.0574 -2.3666
 8284SOL     OW36310   0.859   3.314   7.008  0.4738  0.1616 -0.0027
 8284SOL    HW136311   0.770   3.288   7.030  0.2316  0.2261 -0.8810
 8284SOL    HW236312   0.845   3.404   6.979  0.9856 -0.6378 -2.7266
 8285SOL     OW36313   0.346   0.280   5.850 -0.5870 -0.5564 -0.4687
 8285SOL    HW136314   0.418   0.219   5.836 -1.3953 -1.1800 -1.8996
 8285SOL    HW236315   0.369   0.357   5.797  0.5558  1.0697  2.4006
 8286SOL     OW36316   0.102   4.364   6.946 -0.1048 -0.1619  0.2234
 8286SOL    HW136317   0.051   4.371   7.027  0.1352 -1.6987  0.4966
 8286SOL    HW236318   0.181   4.326   6.984 -0.6294  0.1228  1.5945
 8287SOL     OW36319   2.974   2.804  14.052 -0.4535 -0.2481  0.3382
 8287SOL    HW136320   3.000   2.858  14.126  1.3901 -0.6084 -0.0395
 8287SOL    HW236321   2.893   2.848  14.027 -0.0056 -0.2036 -1.0405
 8288SOL     OW36322   1.325   1.885   5.012 -0.1336 -0.2522  0.1770
 8288SOL    HW136323   1.416   1.859   5.003 -0.4703 -1.6865  0.9081
 8288SOL    HW236324   1.321   1.960   5.072  0.3805  0.2335 -0.3960
 8289SOL     OW36325   4.534   2.387   1.343 -0.4708  0.1017 -0.4309
 8289SOL    HW136326   4.453   2.369   1.295 -0.4835  0.1931 -0.4441
 8289SOL    HW236327   4.498   2.409   1.429 -0.4918 -0.5835 -0.2614
 8290SOL     OW36328   0.472   0.658   6.451 -0.1303 -0.3124 -0.1872
 8290SOL    HW136329   0.410   0.728   6.471  2.1397  1.5746  0.2750
 8290SOL    HW236330   0.446   0.588   6.511 -0.4005  0.1962  0.2906
 8291SOL     OW36331   4.615   3.752   7.664 -0.1744  0.0488 -0.2571
 8291SOL    HW136332   4.680   3.722   7.601 -1.5501 -1.3751 -0.9948
 8291SOL    HW236333   4.663   3.729   7.744 -0.9013  0.5011  0.3162
 8292SOL     OW36334   2.602   3.767   1.168  0.5784 -0.0976  0.3203
 8292SOL    HW136335   2.548   3.690   1.186  1.4931 -0.4837  1.5227
 8292SOL    HW236336   2.687   3.724   1.153 -0.5532 -2.9659  2.0262
 8293SOL     OW36337   2.437   2.638   9.559 -0.2790  0.2394  0.2519
 8293SOL    HW136338   2.495   2.606   9.629  1.4019 -0.0908 -1.2921
 8293SOL    HW236339   2.506   2.671   9.501  0.5217  1.9320  2.1657
 8294SOL     OW36340   0.353   3.896   8.457  0.0871 -0.2895 -0.2547
 8294SOL    HW136341   0.422   3.868   8.518 -2.3633 -0.8297  2.2424
 8294SOL    HW236342   0.276   3.851   8.492  0.6576  0.4392  1.9227
 8295SOL     OW36343   0.926   2.272   5.680 -0.6108 -1.2581  0.3465
 8295SOL    HW136344   1.009   2.314   5.656 -1.9362  0.8456 -0.5163
 8295SOL    HW236345   0.870   2.268   5.602  0.0128  2.8895 -0.3570
 8296SOL     OW36346   2.131   3.846   1.345 -0.1360 -0.0749 -0.1042
 8296SOL    HW136347   2.168   3.785   1.282  0.8569 -0.5929  0.9855
 8296SOL    HW236348   2.038   3.840   1.324  0.2547 -1.4953 -1.3360
 8297SOL     OW36349   3.663   3.491  10.059  0.4669  0.0938 -0.4573
 8297SOL    HW136350   3.604   3.452  10.124  0.7367 -0.1974 -0.3861
 8297SOL    HW236351   3.716   3.546  10.116 -0.9906  1.3728 -0.3402
 8298SOL     OW36352   0.528   2.756  16.445  0.2096 -0.0524 -0.0511
 8298SOL    HW136353   0.595   2.793  16.388 -1.5981  0.1065 -2.0813
 8298SOL    HW236354   0.578   2.681  16.477  1.0060  0.2840 -0.4967
 8299SOL     OW36355   3.142   0.442   7.904 -0.4903  0.0498 -0.1084
 8299SOL    HW136356   3.127   0.356   7.943 -0.6407  0.5087  0.8606
 8299SOL    HW236357   3.056   0.460   7.866 -0.8819 -0.6955  0.4041
 8300SOL     OW36358   2.248   1.749  17.194 -0.4275 -0.1201  0.6437
 8300SOL    HW136359   2.247   1.675  17.134 -0.5118 -0.9327  1.6345
 8300SOL    HW236360   2.330   1.732  17.242 -0.2034 -1.0900 -0.0853
 8301SOL     OW36361   0.551   0.489   2.097  0.0291  0.3344  0.2570
 8301SOL    HW136362   0.592   0.573   2.117 -0.0611 -0.0392  1.9743
 8301SOL    HW236363   0.481   0.495   2.162 -1.4575 -0.6124 -1.2714
 8302SOL     OW36364   2.591   3.564  10.898  0.1933  0.7391  0.0943
 8302SOL    HW136365   2.526   3.623  10.936 -0.9199  0.0864 -0.7715
 8302SOL    HW236366   2.561   3.488  10.946  1.8176  0.6062  0.8707
 8303SOL     OW36367   4.154   2.956  10.727 -0.1425  0.0492  0.0196
 8303SOL    HW136368   4.177   2.863  10.733 -0.7383  0.0641  2.4666
 8303SOL    HW236369   4.134   2.960  10.633  1.5896  1.9810 -0.2498
 8304SOL     OW36370   4.484   0.477   4.469  0.3422  0.0294 -0.0139
 8304SOL    HW136371   4.481   0.385   4.494  0.4132  0.2104  0.6456
 8304SOL    HW236372   4.394   0.492   4.442  0.5075  3.5437  1.4495
 8305SOL     OW36373   4.142   1.186   2.784  0.3150  0.6448 -0.8968
 8305SOL    HW136374   4.181   1.233   2.711 -1.4509  1.1864 -1.5001
 8305SOL    HW236375   4.059   1.151   2.752  0.8541 -0.5837 -0.9360
 8306SOL     OW36376   0.125   1.239   8.768  0.8324 -0.3502  0.3417
 8306SOL    HW136377   0.041   1.275   8.740  1.1145  1.1578  1.4605
 8306SOL    HW236378   0.171   1.298   8.827  1.9091  0.4976 -1.3370
 8307SOL     OW36379   0.240   4.354   4.408  0.2418 -0.1780  0.2395
 8307SOL    HW136380   0.298   4.405   4.465 -1.5950  0.7691  1.2748
 8307SOL    HW236381   0.299   4.310   4.347 -0.5587 -0.6441 -0.2013
 8308SOL     OW36382   0.122   3.228   4.889 -0.2127  0.5102 -0.2974
 8308SOL    HW136383   0.115   3.302   4.949  1.5716  2.2728 -2.2458
 8308SOL    HW236384   0.217   3.218   4.887  0.0727  3.2399 -0.3580
 8309SOL     OW36385   0.092   4.577   3.105 -0.1550 -0.4018 -0.2111
 8309SOL    HW136386   0.183   4.551   3.088  0.0980 -0.4928  1.2511
 8309SOL    HW236387   0.092   4.656   3.159  1.8733  1.7850 -3.4045
 8310SOL     OW36388   1.034   2.651   5.653 -0.2793  0.7917  0.7563
 8310SOL    HW136389   1.092   2.661   5.728 -2.0680  1.4044  2.0547
 8310SOL    HW236390   0.968   2.719   5.663 -1.0714  0.3462 -1.4240
 8311SOL     OW36391   0.901   1.871   2.860 -0.4525 -0.0770 -0.2579
 8311SOL    HW136392   0.841   1.816   2.912 -2.2778  1.3435 -0.8763
 8311SOL    HW236393   0.924   1.807   2.793  2.5334  0.5740  0.1523
 8312SOL     OW36394   0.765   4.287  16.051  0.8848  0.6220 -0.2671
 8312SOL    HW136395   0.687   4.340  16.037  1.2724  1.7109  1.7045
 8312SOL    HW236396   0.800   4.331  16.128 -0.0569  1.4662 -0.3168
 8313SOL     OW36397   3.054   4.169   8.425 -0.4713 -0.4001 -0.3045
 8313SOL    HW136398   3.102   4.251   8.437 -6.0845  3.1451 -2.2705
 8313SOL    HW236399   3.091   4.135   8.343  0.2696 -0.1034 -0.0938
 8314SOL     OW36400   1.143   1.044   4.557 -0.2933 -0.0012  0.5704
 8314SOL    HW136401   1.151   1.020   4.650 -3.1895  1.6305  1.2554
 8314SOL    HW236402   1.138   1.139   4.568 -1.5560  0.1153 -1.0880
 8315SOL     OW36403   2.688   4.035  15.039 -0.1758  0.0803 -0.1104
 8315SOL    HW136404   2.669   4.048  14.946 -6.1023  5.3109  1.8688
 8315SOL    HW236405   2.779   4.062  15.051 -0.4558  0.4191  1.2196
 8316SOL     OW36406   3.811   0.125  17.139 -0.2273  0.5672  0.4903
 8316SOL    HW136407   3.749   0.187  17.101 -1.3365 -1.2060 -0.5785
 8316SOL    HW236408   3.827   0.080  17.056  0.7973 -1.1877  1.6549
 8317SOL     OW36409   3.858   1.910   8.418 -0.3427  0.1785  0.3143
 8317SOL    HW136410   3.795   1.940   8.353  0.1430  2.1057  0.7539
 8317SOL    HW236411   3.865   1.987   8.473 -1.5526  1.9486 -2.0245
 8318SOL     OW36412   2.859   3.165   5.581  0.4159  0.1796  0.3184
 8318SOL    HW136413   2.779   3.136   5.624 -1.0468  1.7636 -1.2928
 8318SOL    HW236414   2.844   3.259   5.568  0.1920  0.7089  4.6106
 8319SOL     OW36415   2.899   1.107   8.444  0.0245 -0.2393  0.1437
 8319SOL    HW136416   2.901   1.083   8.536  0.2972  1.3277  0.5586
 8319SOL    HW236417   2.862   1.196   8.438 -0.3856 -0.3362  1.3090
 8320SOL     OW36418   4.015   4.564   3.458 -0.0759  0.0602  0.0711
 8320SOL    HW136419   3.975   4.615   3.387 -0.7493  0.0521  0.4540
 8320SOL    HW236420   4.103   4.602   3.462  0.1955 -0.5082 -0.4329
 8321SOL     OW36421   3.038   2.586   3.348 -0.1882  0.1527  0.3397
 8321SOL    HW136422   3.006   2.605   3.260  0.0982 -0.4551  0.1055
 8321SOL    HW236423   3.112   2.646   3.349 -1.2824  1.5218 -2.2344
 8322SOL     OW36424   4.441   2.882   5.876  0.1452  0.5612 -0.6899
 8322SOL    HW136425   4.366   2.823   5.888 -0.0947  0.3680 -3.0546
 8322SOL    HW236426   4.405   2.953   5.929  1.4022 -0.5130  1.5868
 8323SOL     OW36427   0.196   0.044   2.792  0.0800  0.0362 -0.1588
 8323SOL    HW136428   0.220   0.136   2.806  2.0576 -0.7932  1.8534
 8323SOL    HW236429   0.134   0.021   2.862  0.1674 -2.2935 -0.8851
 8324SOL     OW36430   0.749   4.021   2.857  0.3522 -0.0272  0.2952
 8324SOL    HW136431   0.802   4.099   2.870  0.3260 -0.0921  0.7856
 8324SOL    HW236432   0.770   3.962   2.930  1.2552  0.7778  0.6806
 8325SOL     OW36433   2.634   4.384   1.720  0.0689  0.3471 -0.1145
 8325SOL    HW136434   2.596   4.298   1.737 -0.6538  0.8947  1.0141
 8325SOL    HW236435   2.608   4.398   1.629 -1.7819 -1.3403  0.1430
 8326SOL     OW36436   3.124   4.705   8.307 -0.2037 -0.1317  0.0927
 8326SOL    HW136437   3.037   4.667   8.295 -0.2035  0.2275 -1.0542
 8326SOL    HW236438   3.118   0.065   8.256  0.2926 -0.0932  0.0978
 8327SOL     OW36439   2.628   3.554   4.957 -1.1097  0.5113  0.1910
 8327SOL    HW136440   2.551   3.589   5.000 -2.5649 -3.2073  0.5695
 8327SOL    HW236441   2.661   3.625   4.902  0.7251 -0.7381 -0.3377
 8328SOL     OW36442   2.132   3.601   9.765  0.4550 -0.4374  0.0890
 8328SOL    HW136443   2.102   3.686   9.798  0.3782 -0.0287 -1.0165
 8328SOL    HW236444   2.166   3.556   9.842  1.6237 -1.2331 -0.8783
 8329SOL     OW36445   2.257   1.000   2.021 -0.1976 -0.4684  0.1699
 8329SOL    HW136446   2.308   0.993   1.940 -1.0394  0.9931 -0.4818
 8329SOL    HW236447   2.189   1.056   1.983 -0.6500 -2.1212 -1.4633
 8330SOL     OW36448   4.479   0.606  12.488  0.6246 -0.4462 -0.1950
 8330SOL    HW136449   4.431   0.577  12.566 -1.4274 -0.3789 -1.4238
 8330SOL    HW236450   4.490   0.699  12.507  0.7346 -0.2345 -1.3053
 8331SOL     OW36451   2.266   1.524  17.489  0.4709  0.1176  0.3561
 8331SOL    HW136452   2.314   1.595  17.532 -0.7720  2.0688 -1.5282
 8331SOL    HW236453   2.172   1.541  17.496  0.0916 -2.3070  1.5197
 8332SOL     OW36454   2.596   0.726   8.303  0.2417  0.2369  0.8102
 8332SOL    HW136455   2.677   0.720   8.253 -1.2702 -1.6512 -1.4262
 8332SOL    HW236456   2.622   0.783   8.375  0.1389  1.8872 -0.4809
 8333SOL     OW36457   1.243   2.624   4.033 -0.1996  0.5568  0.0115
 8333SOL    HW136458   1.184   2.631   3.957  0.1741  0.0260 -0.3357
 8333SOL    HW236459   1.267   2.716   4.038  0.1032  0.5705 -1.6781
 8334SOL     OW36460   2.043   3.205  14.773  0.1717 -0.0010 -0.2315
 8334SOL    HW136461   2.138   3.203  14.765 -0.1203 -0.4580 -3.8912
 8334SOL    HW236462   2.036   3.295  14.805  1.5199  0.2241 -0.5824
 8335SOL     OW36463   0.375   0.224   4.255 -0.6560  0.0953  0.5788
 8335SOL    HW136464   0.406   0.133   4.262 -0.6703 -0.2616 -3.8836
 8335SOL    HW236465   0.412   0.254   4.338 -0.8212  0.3443  0.5623
 8336SOL     OW36466   3.313   4.179   7.033 -0.2907  0.6342  0.6467
 8336SOL    HW136467   3.282   4.115   7.096 -0.6869 -0.0426 -0.2310
 8336SOL    HW236468   3.324   4.127   6.954 -0.8394  0.4058  0.7163
 8337SOL     OW36469   1.031   4.572   5.187 -0.4534  0.2668 -0.0648
 8337SOL    HW136470   0.967   4.548   5.254  0.2190 -1.0684  0.0950
 8337SOL    HW236471   1.076   4.654   5.208  0.7814 -0.7966  1.3997
 8338SOL     OW36472   0.462   1.408  11.407  0.0020 -0.1647  0.1262
 8338SOL    HW136473   0.418   1.468  11.347 -0.0703  0.9553  1.2954
 8338SOL    HW236474   0.521   1.368  11.343 -0.5452  1.4181 -1.3561
 8339SOL     OW36475   1.571   0.502  14.426  0.1947  0.2083  0.1531
 8339SOL    HW136476   1.512   0.432  14.395 -2.6816  2.0756  1.3946
 8339SOL    HW236477   1.510   0.574  14.413 -1.0586 -0.7675  0.6198
 8340SOL     OW36478   0.568   2.420   5.110 -0.0963 -0.3920  0.3949
 8340SOL    HW136479   0.528   2.389   5.191  1.4011 -1.6102  0.6840
 8340SOL    HW236480   0.656   2.382   5.109 -0.1885 -0.6118  0.8377
 8341SOL     OW36481   3.076   1.244  13.746 -0.1132  0.2496 -0.1977
 8341SOL    HW136482   3.122   1.317  13.705  1.0794 -0.3735  0.0414
 8341SOL    HW236483   3.075   1.169  13.687 -1.4529 -0.4420  0.6949
 8342SOL     OW36484   3.589   0.879  11.682 -0.4771 -0.1641 -0.4873
 8342SOL    HW136485   3.616   0.787  11.681 -1.4852 -0.5130  2.6315
 8342SOL    HW236486   3.634   0.904  11.763 -0.6074 -4.8789  1.0094
 8343SOL     OW36487   3.844   3.306   0.439 -0.5451  0.1456  0.0365
 8343SOL    HW136488   3.822   3.235   0.378 -1.4503 -1.2573  1.9901
 8343SOL    HW236489   3.756   3.330   0.470 -1.0337  0.2076 -1.3725
 8344SOL     OW36490   1.090   1.694  17.070  0.5189  0.2283  0.2369
 8344SOL    HW136491   1.127   1.607  17.084  1.8786  0.5778 -1.1272
 8344SOL    HW236492   1.157   1.756  17.097  0.3177  0.2292  0.7338
 8345SOL     OW36493   4.413   1.258  13.125  0.1398  0.2732 -0.3180
 8345SOL    HW136494   4.494   1.213  13.151  1.0619  1.3201 -1.4130
 8345SOL    HW236495   4.439   1.346  13.151  0.9503 -0.1626  0.3482
 8346SOL     OW36496   4.630   3.942   8.501  0.5498  0.4079 -0.4091
 8346SOL    HW136497   4.580   4.018   8.471  0.6967  0.6757  0.0146
 8346SOL    HW236498   4.721   3.974   8.503  0.4815  0.6945 -1.5854
 8347SOL     OW36499   2.835   4.667   7.279  0.4200 -0.2896  0.0453
 8347SOL    HW136500   2.757   4.706   7.318 -0.7673  0.9505 -3.6152
 8347SOL    HW236501   2.810   4.575   7.275 -0.8553  0.0475  0.0647
 8348SOL     OW36502   3.796   2.247   8.101  0.4323  0.4155 -0.3710
 8348SOL    HW136503   3.835   2.230   8.015 -1.1730 -4.3059 -0.1588
 8348SOL    HW236504   3.785   2.342   8.101 -0.5061  0.3027 -0.4656
 8349SOL     OW36505   1.201   3.021  11.035 -0.3034 -0.6671 -0.6563
 8349SOL    HW136506   1.161   3.107  11.021  1.2808  0.0990 -0.5185
 8349SOL    HW236507   1.141   2.985  11.101  0.7896  1.1335  1.3138
 8350SOL     OW36508   1.010   0.422  10.783 -0.1904  0.7775 -0.9981
 8350SOL    HW136509   0.943   0.367  10.743  1.2893 -0.3634 -1.8769
 8350SOL    HW236510   1.088   0.394  10.735 -0.6571 -0.5324 -0.9908
 8351SOL     OW36511   4.018   2.112  16.750 -0.4292 -0.7665  0.2863
 8351SOL    HW136512   4.003   2.163  16.831 -1.2172  0.1174 -0.4110
 8351SOL    HW236513   4.053   2.031  16.787  0.8817  0.4166  1.7089
 8352SOL     OW36514   2.691   0.074  10.779 -0.3477  0.0302  0.1468
 8352SOL    HW136515   2.679   0.103  10.689  0.1204 -0.9238 -0.2164
 8352SOL    HW236516   2.597   0.077  10.798 -0.1284  4.7611  0.4943
 8353SOL     OW36517   3.335   4.677   5.087  0.0578  0.0291 -0.0309
 8353SOL    HW136518   3.342   4.583   5.106 -1.1682 -0.0055  0.2696
 8353SOL    HW236519   3.254   4.695   5.135 -0.8525  1.0077 -1.9411
 8354SOL     OW36520   0.481   2.345   4.688  0.0932 -0.0197  0.2588
 8354SOL    HW136521   0.510   2.423   4.640 -1.3393  0.8008  0.7175
 8354SOL    HW236522   0.422   2.309   4.622 -0.7163 -1.4604  1.7874
 8355SOL     OW36523   0.440   4.344   7.305  0.2699  0.0356  0.2671
 8355SOL    HW136524   0.382   4.360   7.380  0.4361 -1.0325  0.6264
 8355SOL    HW236525   0.440   4.435   7.276 -2.5499  1.1209  3.6013
 8356SOL     OW36526   4.583   1.018   4.262  0.0055 -0.6965 -0.6486
 8356SOL    HW136527   4.520   1.056   4.323 -1.0564  2.0164 -3.4738
 8356SOL    HW236528   4.574   1.081   4.191 -2.3416 -0.5500 -0.2023
 8357SOL     OW36529   0.820   0.473  11.539 -0.2571  0.4533  0.4959
 8357SOL    HW136530   0.807   0.444  11.629 -0.4151  0.1888  0.3869
 8357SOL    HW236531   0.893   0.418  11.510 -2.6621 -2.6878  0.4674
 8358SOL     OW36532   1.179   2.887   6.951  0.4250 -0.5731  0.3084
 8358SOL    HW136533   1.207   2.975   6.925 -1.8361  0.2314  0.6696
 8358SOL    HW236534   1.204   2.831   6.877  1.5712 -1.7477  1.5774
 8359SOL     OW36535   4.346   4.094   4.494 -0.3512  0.0185 -0.2453
 8359SOL    HW136536   4.272   4.133   4.539  0.6597 -0.0926  1.5230
 8359SOL    HW236537   4.389   4.164   4.445 -0.1059 -0.4005 -0.6326
 8360SOL     OW36538   1.132   3.169   4.846 -0.1143  0.3193  0.4180
 8360SOL    HW136539   1.124   3.263   4.864 -0.5886  0.1838  0.9110
 8360SOL    HW236540   1.137   3.165   4.750 -1.2649  1.3519  0.3127
 8361SOL     OW36541   2.063   4.551   4.658  0.1428 -0.3285  0.2554
 8361SOL    HW136542   2.013   4.470   4.666 -2.1819  1.1875  1.1164
 8361SOL    HW236543   2.101   4.541   4.571  1.2144 -2.4552  0.9811
 8362SOL     OW36544   1.476   1.222  14.875 -0.1554  0.8816 -0.2927
 8362SOL    HW136545   1.556   1.227  14.822 -0.3017 -0.2746 -0.6190
 8362SOL    HW236546   1.514   1.211  14.962 -0.7063  1.6051  0.0439
 8363SOL     OW36547   0.943   1.603   3.551  0.2029  0.0247 -0.3015
 8363SOL    HW136548   1.015   1.628   3.609  0.1370 -0.6287  0.0708
 8363SOL    HW236549   0.875   1.664   3.580 -0.0792 -1.0252  1.2827
 8364SOL     OW36550   2.998   2.137   6.813 -0.7083 -0.0101  0.1009
 8364SOL    HW136551   2.911   2.176   6.805 -0.5572  0.4555  0.7429
 8364SOL    HW236552   2.971   2.046   6.822 -1.1021  0.3808  2.7390
 8365SOL     OW36553   3.505   3.880   2.642 -0.1750  0.2583  0.5144
 8365SOL    HW136554   3.419   3.910   2.673 -0.5603 -1.1482  0.7763
 8365SOL    HW236555   3.499   3.913   2.553 -0.1585 -0.2727  0.3176
 8366SOL     OW36556   2.625   0.547   1.427  0.3037  0.1162 -0.1815
 8366SOL    HW136557   2.685   0.564   1.355 -0.8060 -1.5480 -1.5099
 8366SOL    HW236558   2.562   0.618   1.413  0.2056  0.1507  0.4565
 8367SOL     OW36559   0.804   2.019   8.413 -0.2343 -0.0783 -0.2484
 8367SOL    HW136560   0.834   1.940   8.367 -0.1919 -1.1395  1.5686
 8367SOL    HW236561   0.747   1.980   8.479  0.4372 -0.9725 -0.1830
 8368SOL     OW36562   3.003   1.374   7.175 -0.0836  0.1847 -0.2375
 8368SOL    HW136563   2.974   1.285   7.194  0.1044  0.2155  0.2074
 8368SOL    HW236564   3.077   1.379   7.235 -0.4850 -0.7260  0.3389
 8369SOL     OW36565   2.435   0.421   2.785 -0.7770 -0.3041 -0.1089
 8369SOL    HW136566   2.517   0.462   2.813 -1.0561  0.4422 -0.3771
 8369SOL    HW236567   2.377   0.446   2.857  0.9728  0.4418  1.0456
 8370SOL     OW36568   0.284   0.241   3.238 -0.4670  0.1598  0.0975
 8370SOL    HW136569   0.355   0.235   3.302 -0.2094  1.4768 -0.0590
 8370SOL    HW236570   0.344   0.228   3.164 -0.4263  0.5857  0.0506
 8371SOL     OW36571   0.975   2.355   4.211  0.0093  0.0833 -0.1495
 8371SOL    HW136572   1.024   2.428   4.248  2.4705  0.3403 -3.9131
 8371SOL    HW236573   0.917   2.366   4.286 -0.5392 -0.4456 -0.4927
 8372SOL     OW36574   3.408   2.422   2.112 -0.1685 -0.7665  0.1303
 8372SOL    HW136575   3.412   2.378   2.197 -0.2784  0.3448  0.7199
 8372SOL    HW236576   3.331   2.381   2.074 -0.0495 -0.7330 -0.1442
 8373SOL     OW36577   3.079   2.708   7.282  0.2974 -0.6006 -0.3883
 8373SOL    HW136578   3.172   2.699   7.258  0.8771 -1.0735  2.0278
 8373SOL    HW236579   3.071   2.803   7.280  0.5005 -0.5735  0.0544
 8374SOL     OW36580   2.836   0.458   1.158 -0.2083 -0.2438 -0.2717
 8374SOL    HW136581   2.892   0.430   1.085 -1.4784  1.7019 -1.9790
 8374SOL    HW236582   2.754   0.421   1.125 -2.0356  2.7520  0.9621
 8375SOL     OW36583   1.817   3.906   4.855  0.1168 -0.3759 -0.4603
 8375SOL    HW136584   1.835   3.961   4.780  2.1304  0.0473  0.3116
 8375SOL    HW236585   1.832   3.815   4.829  0.7967 -0.3491 -0.1645
 8376SOL     OW36586   3.452   2.661  12.159  0.4586  0.4986  0.1596
 8376SOL    HW136587   3.443   2.738  12.102  0.5812 -1.2109 -2.1727
 8376SOL    HW236588   3.525   2.618  12.114 -0.6925 -3.2518  1.9296
 8377SOL     OW36589   2.872   3.473   5.026 -0.4004  0.0219 -0.0267
 8377SOL    HW136590   2.780   3.497   5.023 -0.6206 -0.5613  2.2109
 8377SOL    HW236591   2.866   3.388   4.982  0.0979 -0.6690  1.2442
 8378SOL     OW36592   4.630   4.426  12.440 -0.0944 -0.3731 -0.2706
 8378SOL    HW136593   4.540   4.393  12.434 -0.2218  0.1089 -1.1120
 8378SOL    HW236594   4.643   4.446  12.347 -1.6827  1.1456 -0.1655
 8379SOL     OW36595   3.326   3.622  16.488 -0.4897  0.0560  0.0605
 8379SOL    HW136596   3.268   3.696  16.470 -0.1275  0.1842 -0.5761
 8379SOL    HW236597   3.262   3.552  16.497 -0.7555  0.1056 -1.5497
 8380SOL     OW36598   0.128   2.926  13.733 -0.3237 -0.7890 -0.0613
 8380SOL    HW136599   0.188   2.863  13.772  2.5706  1.5226 -0.8316
 8380SOL    HW236600   0.108   2.981  13.809  1.6646  1.6427 -1.2983
 8381SOL     OW36601   1.858   0.392  13.590 -0.5707  0.2757  0.1711
 8381SOL    HW136602   1.914   0.443  13.648  2.3634 -1.4209 -1.1220
 8381SOL    HW236603   1.805   0.457  13.544 -0.9884 -1.0224 -1.2119
 8382SOL     OW36604   0.186   2.064  12.779  0.2961 -0.8538 -0.1220
 8382SOL    HW136605   0.264   2.112  12.807 -0.1237  0.5143 -1.2445
 8382SOL    HW236606   0.123   2.133  12.800  1.3071  0.5552 -1.6287
 8383SOL     OW36607   3.612   0.559   5.952 -0.1623  0.0070  0.0969
 8383SOL    HW136608   3.621   0.553   6.047  0.4711  1.0007  0.0947
 8383SOL    HW236609   3.575   0.477   5.920 -1.8969  0.1908  1.6402
 8384SOL     OW36610   1.228   1.716  15.547  0.1367 -0.4868 -0.0608
 8384SOL    HW136611   1.275   1.755  15.473  0.4439  0.7014  0.7683
 8384SOL    HW236612   1.298   1.710  15.612 -2.8674  0.2553  3.2205
 8385SOL     OW36613   3.944   2.862   7.508 -0.5550 -0.1748  0.2276
 8385SOL    HW136614   3.961   2.794   7.574 -1.2177 -0.3119  0.2647
 8385SOL    HW236615   4.026   2.863   7.460 -0.1298  0.3243  0.9748
 8386SOL     OW36616   3.830   1.284   0.270 -0.2557  0.3113  0.7149
 8386SOL    HW136617   3.778   1.313   0.345  0.8112  0.7027  1.2991
 8386SOL    HW236618   3.843   1.194   0.301  4.5020  0.1954 -1.7889
 8387SOL     OW36619   3.631   4.159   8.034 -0.0511  0.4764 -0.3527
 8387SOL    HW136620   3.636   4.185   8.126 -0.5463  1.4931 -0.6170
 8387SOL    HW236621   3.684   4.231   8.000  0.8310  0.0235  0.0600
 8388SOL     OW36622   2.497   1.070  11.596 -0.0596 -0.0403  0.8416
 8388SOL    HW136623   2.433   1.023  11.542  0.9508  0.4023 -0.7414
 8388SOL    HW236624   2.449   1.152  11.579  1.0976  0.5197  0.2702
 8389SOL     OW36625   2.425   2.416   7.686 -0.7083  0.1707 -0.4175
 8389SOL    HW136626   2.339   2.452   7.710 -0.7986 -0.4797  0.2513
 8389SOL    HW236627   2.410   2.328   7.721 -1.5771  0.0061 -1.1883
 8390SOL     OW36628   4.132   0.441   1.585 -0.4121  0.5057 -0.0473
 8390SOL    HW136629   4.069   0.466   1.653 -0.7574 -1.4976  0.3592
 8390SOL    HW236630   4.123   0.518   1.528  1.0452  0.9254  0.2915
 8391SOL     OW36631   1.705   2.853  16.879 -0.0052 -0.5355 -0.1666
 8391SOL    HW136632   1.645   2.782  16.854 -0.5501  0.2107 -0.9696
 8391SOL    HW236633   1.791   2.810  16.876 -0.1823 -0.8333 -0.9392
 8392SOL     OW36634   0.969   1.945   4.981  0.6748  0.0746 -0.3209
 8392SOL    HW136635   1.062   1.948   5.004  0.3320  5.1728  0.3791
 8392SOL    HW236636   0.945   1.855   4.999  3.2920 -0.5988 -0.1888
 8393SOL     OW36637   0.917   1.123   4.791 -0.4560 -0.1629  0.7120
 8393SOL    HW136638   1.006   1.127   4.826 -0.1958  0.9076 -0.0467
 8393SOL    HW236639   0.893   1.040   4.831  0.0752 -2.1546 -3.0598
 8394SOL     OW36640   2.409   1.749   0.889  0.5769  0.7340 -0.5019
 8394SOL    HW136641   2.399   1.816   0.957 -0.2339 -0.9443  1.0414
 8394SOL    HW236642   2.396   1.803   0.811  3.5633 -0.6453 -1.9496
 8395SOL     OW36643   3.050   0.968   8.007  0.0522  1.0187  0.3765
 8395SOL    HW136644   3.066   1.006   8.094 -2.6025 -1.3406  1.9085
 8395SOL    HW236645   3.029   0.878   8.031  2.7811  0.6530  1.3327
 8396SOL     OW36646   0.843   0.499  14.369 -0.1770  0.7407 -0.1869
 8396SOL    HW136647   0.926   0.522  14.327  0.6625  1.5014  1.8606
 8396SOL    HW236648   0.876   0.496  14.459  0.3027  0.4721 -0.3732
 8397SOL     OW36649   1.203   2.382   5.528 -0.2887 -0.1832  0.4463
 8397SOL    HW136650   1.294   2.386   5.557 -0.9578 -0.0536  2.5183
 8397SOL    HW236651   1.167   2.470   5.523 -0.9028 -0.4246  0.6094
 8398SOL     OW36652   2.450   1.821  12.798  1.0281  0.7301  0.5938
 8398SOL    HW136653   2.448   1.907  12.756 -4.0275 -0.2338 -1.1518
 8398SOL    HW236654   2.401   1.836  12.878  0.5801 -0.6836  0.5987
 8399SOL     OW36655   4.166   0.606  12.909  0.3932  0.5831 -0.3337
 8399SOL    HW136656   4.119   0.524  12.924  1.3607  0.3075  1.2128
 8399SOL    HW236657   4.116   0.672  12.957  0.1298 -0.8831  1.4262
 8400SOL     OW36658   0.291   4.539   3.724 -0.0024  0.3372 -0.0300
 8400SOL    HW136659   0.306   4.473   3.792 -0.2140  2.4485  2.0933
 8400SOL    HW236660   0.264   4.487   3.648  1.9329  1.2264 -1.3105
 8401SOL     OW36661   4.679   1.099   1.980  0.2955 -0.0161 -0.5182
 8401SOL    HW136662   0.019   1.046   1.928  1.5016  0.7120  0.1619
 8401SOL    HW236663   4.613   1.110   1.911 -0.7535  0.6318  0.6023
 8402SOL     OW36664   1.905   0.144  13.883  0.3360 -0.0858  0.3646
 8402SOL    HW136665   1.882   0.088  13.808 -0.0634  0.8365 -0.1945
 8402SOL    HW236666   1.838   0.125  13.949  0.6852  0.4439  0.8666
 8403SOL     OW36667   0.634   1.711   4.386 -0.5623  0.1043  0.5612
 8403SOL    HW136668   0.713   1.723   4.438 -0.0078 -0.1216 -0.2259
 8403SOL    HW236669   0.600   1.800   4.381  2.2340  1.2001  1.1214
 8404SOL     OW36670   3.428   1.922  17.324  0.1788  1.0863 -0.0362
 8404SOL    HW136671   3.362   1.872  17.372  2.0637 -0.8492  0.5302
 8404SOL    HW236672   3.406   2.014  17.338  0.2839  1.4494 -2.2571
 8405SOL     OW36673   3.057   1.990   8.221 -0.0934  0.0556 -0.2800
 8405SOL    HW136674   3.108   1.909   8.222  0.4762  0.3639 -2.9842
 8405SOL    HW236675   3.090   2.032   8.300  0.9995 -1.4498  0.0788
 8406SOL     OW36676   3.257   0.395   3.461 -0.2268  0.5508 -0.0272
 8406SOL    HW136677   3.165   0.407   3.437 -0.4682 -0.7144  0.2457
 8406SOL    HW236678   3.251   0.309   3.502 -1.8868  0.7816  0.2380
 8407SOL     OW36679   2.563   0.332  11.101 -0.3716 -0.2550  0.0094
 8407SOL    HW136680   2.525   0.263  11.045  3.3788 -2.2271 -0.1241
 8407SOL    HW236681   2.483   0.379  11.122  0.1799  0.0789  1.3813
 8408SOL     OW36682   3.084   4.191   4.819  0.0512 -0.1157  0.8753
 8408SOL    HW136683   2.991   4.203   4.834  0.0402  0.8474  0.0556
 8408SOL    HW236684   3.109   4.239   4.740  0.6206 -0.3436  0.9125
 8409SOL     OW36685   4.295   2.663   5.758 -0.0621  0.2807  0.3672
 8409SOL    HW136686   4.221   2.723   5.753  1.2419  1.8013 -0.6206
 8409SOL    HW236687   4.259   2.584   5.717  0.8319 -0.1897  0.4835
 8410SOL     OW36688   3.980   3.529   5.664 -0.0419  0.2731  0.4001
 8410SOL    HW136689   4.071   3.512   5.642  0.7825  4.0900  0.9053
 8410SOL    HW236690   3.963   3.600   5.601  1.8134 -1.1855 -1.7271
 8411SOL     OW36691   2.004   0.242   8.290  0.0569  0.0624 -0.3206
 8411SOL    HW136692   2.035   0.181   8.223  1.7848  1.2137 -0.5678
 8411SOL    HW236693   1.932   0.196   8.333 -1.1748  3.0326  0.8391
 8412SOL     OW36694   3.918   3.297   5.809 -0.3971 -0.4613 -0.3592
 8412SOL    HW136695   3.953   3.370   5.758  0.6691 -0.1399  0.8233
 8412SOL    HW236696   3.826   3.320   5.804 -0.3842 -0.0104  1.4073
 8413SOL     OW36697   0.873   1.267  14.338  0.0888  0.3849 -0.1327
 8413SOL    HW136698   0.875   1.363  14.338  0.3515  0.3822 -0.8961
 8413SOL    HW236699   0.851   1.245  14.247 -0.2081 -0.1079  0.0602
 8414SOL     OW36700   2.843   0.465   6.753 -0.2589 -0.2065 -0.0629
 8414SOL    HW136701   2.778   0.529   6.723 -0.0875  0.1182  0.2472
 8414SOL    HW236702   2.925   0.509   6.731  0.4958 -3.0760 -2.8396
 8415SOL     OW36703   1.081   0.433   8.125 -0.0797  0.1273  0.6667
 8415SOL    HW136704   1.037   0.508   8.084  2.0932  1.7883  1.3426
 8415SOL    HW236705   1.135   0.485   8.184  2.0703 -1.1968 -0.1484
 8416SOL     OW36706   2.028   3.291   5.140 -0.0998  0.2122 -0.0293
 8416SOL    HW136707   2.110   3.307   5.093 -0.8462 -0.7459 -1.6408
 8416SOL    HW236708   2.044   3.335   5.223 -1.0264  1.3521 -0.4596
 8417SOL     OW36709   3.059   1.305   3.578  0.1425 -0.3755 -0.1284
 8417SOL    HW136710   3.024   1.379   3.528 -0.0708 -0.3038  0.1307
 8417SOL    HW236711   3.041   1.233   3.517 -1.7250 -0.1849  0.1949
 8418SOL     OW36712   1.843   3.088   7.187 -0.0226  0.3230 -0.5760
 8418SOL    HW136713   1.892   3.027   7.242 -0.8010 -1.8187 -2.2618
 8418SOL    HW236714   1.784   3.036   7.133  0.0388 -1.2103  0.8439
 8419SOL     OW36715   2.947   1.528  14.429  0.5476 -0.3980  0.2280
 8419SOL    HW136716   3.008   1.528  14.503 -0.8467  1.4786  1.3967
 8419SOL    HW236717   2.869   1.554  14.480 -0.4401 -0.4667 -1.2437
 8420SOL     OW36718   0.636   3.581   2.213  0.9313 -0.4371  0.2015
 8420SOL    HW136719   0.701   3.628   2.160 -0.1649  1.6074  0.6658
 8420SOL    HW236720   0.572   3.545   2.152  1.7282 -1.6294  0.0761
 8421SOL     OW36721   2.583   2.902   2.891 -0.1879 -0.3524 -0.2326
 8421SOL    HW136722   2.565   2.911   2.798 -1.3528  0.3591  0.0554
 8421SOL    HW236723   2.497   2.875   2.924 -0.4935 -1.5813 -2.0461
 8422SOL     OW36724   3.007   2.681   6.061  0.1562  0.3279 -0.0406
 8422SOL    HW136725   3.033   2.772   6.074 -2.9119  1.2372 -0.1281
 8422SOL    HW236726   2.963   2.692   5.977 -2.1983 -2.7193  0.7804
 8423SOL     OW36727   0.873   0.876  11.218  0.0050  0.1265  0.1991
 8423SOL    HW136728   0.869   0.808  11.150 -0.8032  0.5679 -0.1904
 8423SOL    HW236729   0.860   0.833  11.302  1.0279  0.0638  0.3326
 8424SOL     OW36730   4.296   1.764   8.833  0.2198 -0.3095 -0.2011
 8424SOL    HW136731   4.310   1.680   8.878 -2.0988  0.7353  2.4788
 8424SOL    HW236732   4.382   1.768   8.790  0.8219  1.3513  1.1272
 8425SOL     OW36733   3.065   1.984   3.105  0.9015 -0.3200  0.5243
 8425SOL    HW136734   3.009   1.973   3.181  3.8328  0.0313  2.7600
 8425SOL    HW236735   3.013   2.021   3.034  3.0244 -0.7660 -1.3036
 8426SOL     OW36736   4.251   3.172   5.747  0.8840  0.3724 -0.2494
 8426SOL    HW136737   4.186   3.228   5.705  1.2113 -0.0173 -1.2627
 8426SOL    HW236738   4.302   3.150   5.669  3.1740  1.0662  1.0455
 8427SOL     OW36739   4.499   1.037  14.151 -0.4996 -0.0159  0.0326
 8427SOL    HW136740   4.561   1.109  14.163 -0.1319 -0.5396  1.3081
 8427SOL    HW236741   4.432   1.089  14.107 -2.2879 -1.4561  1.0987
 8428SOL     OW36742   3.355   3.359   9.747 -0.2053 -0.5467 -0.8554
 8428SOL    HW136743   3.398   3.319   9.671 -1.3903  0.6192 -2.1268
 8428SOL    HW236744   3.334   3.287   9.806  0.0902  0.2549  0.2119
 8429SOL     OW36745   1.695   4.404  11.967  0.0923 -0.3438 -0.0469
 8429SOL    HW136746   1.666   4.325  11.921 -1.5491  1.1841 -1.6273
 8429SOL    HW236747   1.782   4.379  11.998  1.1080  2.0963 -0.9186
 8430SOL     OW36748   1.495   1.956   0.187  0.6024  0.6865 -0.4148
 8430SOL    HW136749   1.424   2.016   0.210 -0.3263 -0.7119  0.3234
 8430SOL    HW236750   1.444   1.893   0.136  1.1745 -0.9631  1.0618
 8431SOL     OW36751   2.931   0.416   3.855  0.0325  0.2930 -0.2797
 8431SOL    HW136752   2.977   0.341   3.893  0.0908  1.1203  1.2922
 8431SOL    HW236753   2.842   0.382   3.843  0.0861  0.0994 -0.1187
 8432SOL     OW36754   2.141   1.281  10.184  0.7454  0.3787  0.5088
 8432SOL    HW136755   2.068   1.343  10.175 -0.1882 -0.9780 -1.0657
 8432SOL    HW236756   2.214   1.342  10.192  2.3857 -1.6632  1.0154
 8433SOL     OW36757   1.237   3.830   0.337 -0.3280 -0.1709  0.3812
 8433SOL    HW136758   1.180   3.904   0.317 -1.2485 -1.6327 -2.3820
 8433SOL    HW236759   1.300   3.848   0.267  0.2200  0.4650  1.0418
 8434SOL     OW36760   3.676   0.647   8.157 -0.0522 -0.3324 -0.3066
 8434SOL    HW136761   3.761   0.677   8.126  0.2597 -0.1928  0.6987
 8434SOL    HW236762   3.648   0.731   8.195  0.4259 -0.0977 -0.4773
 8435SOL     OW36763   1.328   0.584  12.800 -0.7744 -0.2884  0.4072
 8435SOL    HW136764   1.236   0.567  12.783 -0.4855 -1.0106 -0.4291
 8435SOL    HW236765   1.360   0.599  12.711 -1.6396 -1.6683 -0.1294
 8436SOL     OW36766   0.573   1.172  15.455  0.1519 -0.4079 -0.2075
 8436SOL    HW136767   0.637   1.177  15.384  0.9622  2.7203  0.7539
 8436SOL    HW236768   0.545   1.262  15.468 -2.3787 -1.7070  3.4890
 8437SOL     OW36769   0.381   2.775   5.964 -0.1005 -0.5226  0.5995
 8437SOL    HW136770   0.329   2.841   6.011 -0.5953 -1.1905  1.0041
 8437SOL    HW236771   0.408   2.828   5.890 -0.8195 -1.6163 -0.4515
 8438SOL     OW36772   3.442   0.138   3.839 -0.1722  0.3764  0.8598
 8438SOL    HW136773   3.534   0.141   3.814 -0.6651 -1.2640 -1.1887
 8438SOL    HW236774   3.448   0.148   3.934  0.7332  1.1282  0.7188
 8439SOL     OW36775   1.403   1.281   4.520 -0.1485 -0.3283  0.3542
 8439SOL    HW136776   1.444   1.202   4.556  0.8030 -0.9000 -2.0091
 8439SOL    HW236777   1.413   1.246   4.431  0.5113 -1.1088  0.7366
 8440SOL     OW36778   3.673   3.276   9.330  0.1298 -0.7684 -0.5531
 8440SOL    HW136779   3.605   3.327   9.285  0.3393  1.0770  1.2734
 8440SOL    HW236780   3.751   3.327   9.308 -0.9378  0.6874 -0.9316
 8441SOL     OW36781   1.923   2.030  15.254  0.0780  0.5745  0.6871
 8441SOL    HW136782   1.968   2.111  15.228 -0.3032  0.2689 -0.9393
 8441SOL    HW236783   1.890   2.001  15.169  1.4514 -1.2596  0.7857
 8442SOL     OW36784   4.600   0.056   2.891  0.6754 -0.2665  0.0405
 8442SOL    HW136785   4.519   0.014   2.918 -0.1800  0.5361 -1.2625
 8442SOL    HW236786   4.612   0.130   2.952  1.2740  0.0977 -0.5128
 8443SOL     OW36787   4.101   4.018   7.975 -0.1938  0.2025  0.2224
 8443SOL    HW136788   4.173   3.980   7.924  0.2675  0.1697  0.8910
 8443SOL    HW236789   4.106   3.989   8.066 -0.2997  1.2892  0.5776
 8444SOL     OW36790   4.426   4.134   1.928  0.5601  0.0121  0.6205
 8444SOL    HW136791   4.514   4.172   1.930  0.3971  0.4949 -1.9211
 8444SOL    HW236792   4.385   4.206   1.976  1.0313  0.9603 -0.4222
 8445SOL     OW36793   4.020   0.099  12.266 -0.4791  0.6631  0.0673
 8445SOL    HW136794   4.085   0.163  12.295  0.6604  0.4678 -2.0473
 8445SOL    HW236795   4.073   0.030  12.226 -0.2803 -0.5858  2.4473
 8446SOL     OW36796   1.821   4.613   5.028  0.1699 -0.1829 -0.6439
 8446SOL    HW136797   1.728   4.593   5.030  0.8852 -3.5962 -1.6590
 8446SOL    HW236798   1.838   4.617   5.122 -0.0452  0.2928 -0.6238
 8447SOL     OW36799   4.509   2.660  11.907 -0.7043 -0.3188  0.6098
 8447SOL    HW136800   4.603   2.649  11.896 -0.7794 -1.9541  1.5410
 8447SOL    HW236801   4.499   2.608  11.987  1.1463 -1.1351  0.3044
 8448SOL     OW36802   3.595   1.693   0.252 -0.4648 -0.2449 -0.3210
 8448SOL    HW136803   3.609   1.608   0.210 -0.8152  0.8208 -2.6213
 8448SOL    HW236804   3.573   1.752   0.180 -1.5067  0.9437  0.9688
 8449SOL     OW36805   2.618   0.754   6.271 -0.1983  0.5772  0.0814
 8449SOL    HW136806   2.713   0.759   6.258 -0.2203 -1.7833 -1.0810
 8449SOL    HW236807   2.591   0.846   6.275  0.9300  0.8912  0.3808
 8450SOL     OW36808   2.028   1.080   2.386 -0.2740  0.0650 -0.3423
 8450SOL    HW136809   2.006   0.987   2.377 -1.1061  0.2173  0.1163
 8450SOL    HW236810   2.114   1.082   2.344  0.3487  2.7377  1.0492
 8451SOL     OW36811   0.000   3.955   1.456 -0.2112 -0.7424 -0.0395
 8451SOL    HW136812   4.642   3.985   1.412 -1.1179 -0.7620  1.5693
 8451SOL    HW236813   4.706   3.999   1.540 -2.1890  0.5974 -1.1112
 8452SOL     OW36814   2.858   1.208   4.979  0.0884 -0.4516 -0.3208
 8452SOL    HW136815   2.807   1.176   5.054  1.9589 -1.3535  0.5650
 8452SOL    HW236816   2.850   1.140   4.913 -1.3078  0.6181 -1.2660
 8453SOL     OW36817   3.219   2.081  17.019  0.0499  0.0859  0.0094
 8453SOL    HW136818   3.299   2.029  17.031  0.7889  0.5040 -2.8980
 8453SOL    HW236819   3.162   2.054  17.090 -2.5189 -1.2778 -2.5485
 8454SOL     OW36820   4.089   4.132   6.507  0.8924 -0.4660  0.3714
 8454SOL    HW136821   4.083   4.224   6.531  0.4080 -0.2009 -0.7444
 8454SOL    HW236822   4.178   4.121   6.475 -0.6722  0.0803 -4.2452
 8455SOL     OW36823   1.187   1.570   9.415 -0.2942 -0.2402 -0.6858
 8455SOL    HW136824   1.180   1.665   9.401 -1.4820 -0.2531 -0.2540
 8455SOL    HW236825   1.281   1.561   9.402 -0.5171 -0.9108 -1.8780
 8456SOL     OW36826   2.785   4.055   4.229 -0.0687  0.4983  0.0123
 8456SOL    HW136827   2.697   4.078   4.198 -0.6844 -0.3373  1.1685
 8456SOL    HW236828   2.817   4.073   4.140  2.8204 -0.3441  0.8727
 8457SOL     OW36829   2.386   1.721   2.068 -0.2950 -0.1544  0.3397
 8457SOL    HW136830   2.463   1.760   2.026 -1.1055  1.4045  0.2886
 8457SOL    HW236831   2.406   1.630   2.090  0.3137 -0.2808 -0.7480
 8458SOL     OW36832   4.248   0.260   5.239 -0.4479 -0.3226  0.5537
 8458SOL    HW136833   4.233   0.303   5.322 -2.4924 -0.7964  0.4205
 8458SOL    HW236834   4.164   0.267   5.193  0.1747 -0.3829 -0.6156
 8459SOL     OW36835   0.668   1.424   2.893 -0.3301 -0.6883 -0.5840
 8459SOL    HW136836   0.576   1.428   2.870 -1.3770 -0.1327  3.7162
 8459SOL    HW236837   0.679   1.510   2.933  0.5546 -0.7782 -0.6206
 8460SOL     OW36838   0.943   3.625   1.005  0.4694 -0.2772  0.2378
 8460SOL    HW136839   0.960   3.606   0.912 -1.2533  0.4787 -0.2271
 8460SOL    HW236840   1.030   3.641   1.042  0.5437  0.5777 -0.3033
 8461SOL     OW36841   0.181   2.190  13.068  0.2344  0.8047 -0.4365
 8461SOL    HW136842   0.105   2.186  13.010 -0.6079 -1.1055  0.8202
 8461SOL    HW236843   0.196   2.285  13.072  2.3611  0.4861 -0.9255
 8462SOL     OW36844   0.971   2.307  14.355 -0.4398  0.0920  0.0638
 8462SOL    HW136845   0.969   2.340  14.265 -1.1875 -1.8720 -0.6351
 8462SOL    HW236846   0.879   2.286  14.370 -0.2071 -1.3078 -0.4667
 8463SOL     OW36847   0.132   2.213   2.298  0.2146  0.2388  0.3472
 8463SOL    HW136848   0.037   2.202   2.299  0.4109 -1.3773  1.9801
 8463SOL    HW236849   0.135   2.243   2.389 -2.3766  0.1879  0.4258
 8464SOL     OW36850   3.405   4.489   1.100 -0.2073  0.4362 -0.2009
 8464SOL    HW136851   3.386   4.485   1.194  1.6443  3.8327  0.3446
 8464SOL    HW236852   3.499   4.480   1.115  0.0742  1.5454 -1.3501
 8465SOL     OW36853   1.937   4.074  11.693  0.5037  0.1646 -0.0963
 8465SOL    HW136854   2.015   4.118  11.658 -0.3701  1.4712 -0.4141
 8465SOL    HW236855   1.871   4.106  11.631  0.9234 -3.1623 -2.2389
 8466SOL     OW36856   3.326   0.637   9.497 -0.1352  0.4188  0.5725
 8466SOL    HW136857   3.298   0.632   9.589 -0.1615  1.0776  0.6049
 8466SOL    HW236858   3.295   0.550   9.475 -2.6397  1.7136 -0.9928
 8467SOL     OW36859   1.173   0.149  10.871 -0.2604 -0.6640 -0.9184
 8467SOL    HW136860   1.191   0.174  10.780  2.0726  0.7964 -0.0404
 8467SOL    HW236861   1.232   0.075  10.880  0.1172 -0.2230  0.2730
 8468SOL     OW36862   4.416   3.213   1.986  0.2340 -0.1492  0.3276
 8468SOL    HW136863   4.499   3.260   1.987  1.3620 -2.1565  0.2533
 8468SOL    HW236864   4.371   3.266   1.921  2.0206  0.5978 -0.3073
 8469SOL     OW36865   4.050   4.288   0.170  0.7253 -0.1621 -0.1025
 8469SOL    HW136866   3.991   4.301   0.096  0.7560 -0.8052 -0.2429
 8469SOL    HW236867   4.016   4.217   0.225  0.7496 -1.2984 -1.5429
 8470SOL     OW36868   1.699   2.107   3.018 -0.0413 -0.0398  0.2956
 8470SOL    HW136869   1.690   2.011   3.015 -1.7523  0.0823  2.1670
 8470SOL    HW236870   1.705   2.130   2.925  0.8983  0.5926  0.5085
 8471SOL     OW36871   1.400   1.212   3.214 -0.0410 -0.5253 -0.5909
 8471SOL    HW136872   1.363   1.134   3.171  0.0238 -0.8683 -0.0181
 8471SOL    HW236873   1.319   1.261   3.206 -0.5843 -1.1477  1.1968
 8472SOL     OW36874   1.996   0.841   7.825 -0.6244  0.4890 -0.3647
 8472SOL    HW136875   2.048   0.804   7.897 -1.3964 -0.1684 -0.1537
 8472SOL    HW236876   1.917   0.788   7.822  0.0707 -0.5145 -0.7700
 8473SOL     OW36877   4.480   1.025  10.070  0.8523  0.7259  0.2088
 8473SOL    HW136878   4.559   1.079  10.061  1.1511 -0.0313 -1.8431
 8473SOL    HW236879   4.471   1.015  10.164  0.3408  0.1803  0.1005
 8474SOL     OW36880   1.720   0.503   2.582 -0.3989 -0.4518  0.3518
 8474SOL    HW136881   1.646   0.563   2.575 -1.4500 -1.7971 -0.0637
 8474SOL    HW236882   1.702   0.442   2.511  1.4372 -0.2479 -0.2861
 8475SOL     OW36883   3.264   1.583   3.510 -0.0129  0.0535  0.1192
 8475SOL    HW136884   3.281   1.495   3.542  3.4193  0.0774 -1.6440
 8475SOL    HW236885   3.319   1.589   3.432 -0.9182 -2.0001 -0.6668
 8476SOL     OW36886   1.170   1.651   5.000 -0.2695 -0.2225  0.4736
 8476SOL    HW136887   1.242   1.588   4.994 -1.4137 -1.6120  1.3977
 8476SOL    HW236888   1.220   1.732   5.002  0.8131 -0.8835 -0.1903
 8477SOL     OW36889   2.753   1.472   3.539  0.1558 -0.3300  0.3854
 8477SOL    HW136890   2.754   1.387   3.495  2.1008 -1.4510  2.6038
 8477SOL    HW236891   2.785   1.443   3.624  2.0744 -0.5345 -0.4044
 8478SOL     OW36892   3.943   3.299  12.984 -0.5817 -0.0231 -0.0775
 8478SOL    HW136893   3.957   3.372  13.044  0.1681  1.0066 -1.4749
 8478SOL    HW236894   3.999   3.237  13.030 -0.1784  0.9606  0.7621
 8479SOL     OW36895   3.376   3.794  12.904  0.2867  0.4978  0.2033
 8479SOL    HW136896   3.421   3.758  12.981 -1.3776 -0.4189  0.7439
 8479SOL    HW236897   3.292   3.758  12.933  0.0246 -0.3997 -1.6651
 8480SOL     OW36898   0.560   1.036  10.789 -0.4323 -0.0547 -0.6747
 8480SOL    HW136899   0.577   1.004  10.878 -1.5845  0.0246 -0.4251
 8480SOL    HW236900   0.647   1.069  10.767 -0.2391  0.8875  1.4576
 8481SOL     OW36901   3.554   1.105  15.305 -0.0605  0.4886  0.1850
 8481SOL    HW136902   3.640   1.143  15.289 -0.3225  1.0958  0.2206
 8481SOL    HW236903   3.545   1.119  15.399  0.0547  0.0793  0.2594
 8482SOL     OW36904   3.331   1.525  15.318 -0.1370 -0.5864 -0.3028
 8482SOL    HW136905   3.373   1.594  15.369  2.5036 -2.2350 -0.2151
 8482SOL    HW236906   3.274   1.578  15.262  0.5704 -1.1035 -1.5084
 8483SOL     OW36907   4.238   2.163   6.963 -0.0350 -0.0592 -0.0277
 8483SOL    HW136908   4.270   2.232   7.022  1.4022  0.6297 -1.6074
 8483SOL    HW236909   4.324   2.125   6.944 -0.0816 -0.6641  0.9579
 8484SOL     OW36910   2.852   1.969   4.039  0.0501 -0.3205  0.4937
 8484SOL    HW136911   2.888   1.963   3.951  0.0207  3.5111  0.2481
 8484SOL    HW236912   2.807   1.884   4.042  2.3052 -1.5045  0.9942
 8485SOL     OW36913   3.432   3.154   5.724 -0.0146  0.0792 -0.0265
 8485SOL    HW136914   3.345   3.146   5.762  1.1670  2.8002  3.1749
 8485SOL    HW236915   3.482   3.077   5.753 -0.1473 -0.8514 -2.2305
 8486SOL     OW36916   1.526   0.428   7.744 -0.4348  0.3741 -0.0215
 8486SOL    HW136917   1.464   0.447   7.674  0.7405  1.3515 -0.7659
 8486SOL    HW236918   1.470   0.423   7.822 -0.2930  0.5062  0.0885
 8487SOL     OW36919   2.729   2.803   1.765  0.7321 -0.3386  0.1260
 8487SOL    HW136920   2.666   2.828   1.832  0.2986 -0.8283 -0.0993
 8487SOL    HW236921   2.693   2.717   1.746 -0.6894  0.3435 -0.2282
 8488SOL     OW36922   3.920   3.347   8.181  0.4731 -0.6789  0.1279
 8488SOL    HW136923   3.825   3.334   8.174  0.5889 -0.3111 -2.0770
 8488SOL    HW236924   3.936   3.336   8.275 -0.6742 -1.7580  0.1979
 8489SOL     OW36925   4.592   3.638  15.817  0.0646 -0.0521 -0.0555
 8489SOL    HW136926   4.573   3.731  15.805  2.5746  0.6234  1.2640
 8489SOL    HW236927   4.506   3.604  15.790 -0.4997  1.6465 -0.3701
 8490SOL     OW36928   0.844   3.369  12.962  0.0059  0.1391 -0.3418
 8490SOL    HW136929   0.806   3.305  12.902  3.5702 -1.0347 -1.3482
 8490SOL    HW236930   0.809   3.336  13.045 -2.1979  2.2794 -0.4078
 8491SOL     OW36931   0.814   1.109   5.083 -0.6332  0.1439  0.3912
 8491SOL    HW136932   0.865   1.038   5.043 -1.5783 -0.3137 -0.0083
 8491SOL    HW236933   0.724   1.098   5.052  0.0178 -2.0531 -0.7464
 8492SOL     OW36934   3.918   0.431   9.248  0.3428 -0.2936  0.2157
 8492SOL    HW136935   3.991   0.389   9.203 -1.8639 -0.1713 -3.5777
 8492SOL    HW236936   3.847   0.372   9.223  1.3358 -1.1446 -0.6037
 8493SOL     OW36937   3.150   3.869   9.328  0.0885  0.2084  0.4098
 8493SOL    HW136938   3.075   3.858   9.388  1.0369 -1.1316  1.3647
 8493SOL    HW236939   3.170   3.782   9.293 -0.0380 -0.2759  1.5291
 8494SOL     OW36940   0.206   1.401  17.550  0.2441  0.2646  0.0423
 8494SOL    HW136941   0.298   1.378  17.533  1.3429  3.3879  1.5342
 8494SOL    HW236942   0.199   1.466  17.480 -0.2643  2.3500  1.9994
 8495SOL     OW36943   2.790   3.844   1.881 -0.4004 -0.0577  0.7356
 8495SOL    HW136944   2.744   3.923   1.909  1.0630  0.5877  1.3247
 8495SOL    HW236945   2.878   3.882   1.888 -0.1117 -0.6066  0.0775
 8496SOL     OW36946   3.695   4.159   3.132  0.3008  0.3684 -0.6418
 8496SOL    HW136947   3.754   4.234   3.144 -0.7745  1.0554  0.3856
 8496SOL    HW236948   3.617   4.210   3.110 -1.9819 -2.0948  1.7432
 8497SOL     OW36949   4.447   3.428   5.970 -0.3520 -0.0031 -0.6464
 8497SOL    HW136950   4.406   3.346   5.998  1.7777 -1.3657 -1.5152
 8497SOL    HW236951   4.497   3.399   5.894 -0.4996  1.0534 -1.1461
 8498SOL     OW36952   1.877   3.781  16.394 -0.4545 -0.5929 -0.4575
 8498SOL    HW136953   1.824   3.745  16.464 -1.1654  0.8578 -0.2348
 8498SOL    HW236954   1.857   3.874  16.404 -0.3383 -0.4934 -1.1346
 8499SOL     OW36955   3.521   1.619   0.529  1.0490  0.1186  0.1796
 8499SOL    HW136956   3.531   1.677   0.454  2.2573 -1.7380 -1.1017
 8499SOL    HW236957   3.439   1.650   0.566  1.8013 -0.5774  2.4316
 8500SOL     OW36958   4.183   2.709  11.864  0.2628  0.0925 -0.2121
 8500SOL    HW136959   4.088   2.711  11.858  0.2519  0.9012  0.2114
 8500SOL    HW236960   4.208   2.622  11.832 -0.8491 -0.0634 -0.6634
 8501SOL     OW36961   3.933   4.577   2.751 -0.4884 -0.1746 -0.2282
 8501SOL    HW136962   3.995   4.520   2.707  1.2365  2.1728 -0.8443
 8501SOL    HW236963   3.945   4.655   2.697 -0.9186  0.4729  0.5947
 8502SOL     OW36964   3.762   1.359   8.083  0.0173  0.1094  0.7795
 8502SOL    HW136965   3.682   1.330   8.038  1.0128  0.7171 -1.3761
 8502SOL    HW236966   3.752   1.440   8.034 -0.1545  0.3242  1.1771
 8503SOL     OW36967   2.768   0.044  13.148 -0.0883  0.1259  0.3990
 8503SOL    HW136968   2.859   0.036  13.178  0.4123  1.0455 -0.8603
 8503SOL    HW236969   2.774   0.022  13.055 -0.4622 -0.8904  0.6216
 8504SOL     OW36970   3.312   3.629   0.284  0.0353 -0.2390 -0.1799
 8504SOL    HW136971   3.402   3.595   0.281  0.5372  1.1579 -1.2066
 8504SOL    HW236972   3.262   3.569   0.338  0.2852 -0.2993 -0.0150
 8505SOL     OW36973   0.938   2.539  11.504 -0.2116  0.5211  0.0404
 8505SOL    HW136974   0.960   2.612  11.563  0.5643  0.7144 -0.4925
 8505SOL    HW236975   0.846   2.527  11.528 -0.3823 -1.3049 -1.6425
 8506SOL     OW36976   1.570   2.315  13.780  0.4229 -0.3282  0.3141
 8506SOL    HW136977   1.578   2.405  13.810  1.2717  0.2434 -1.6352
 8506SOL    HW236978   1.533   2.291  13.865  0.8999  2.7866  1.3758
 8507SOL     OW36979   1.292   4.608   2.432 -0.2811 -0.2397 -0.0802
 8507SOL    HW136980   1.268   4.520   2.460 -0.8866 -0.5121 -1.4293
 8507SOL    HW236981   1.270   4.598   2.339  0.4212  0.1967 -0.2982
 8508SOL     OW36982   4.115   0.742   0.164  0.3466  0.5101 -0.1105
 8508SOL    HW136983   4.121   0.776   0.254 -1.8851 -2.0642  0.9950
 8508SOL    HW236984   4.174   0.667   0.161 -0.7269 -0.3497  0.4000
 8509SOL     OW36985   2.645   2.206  14.725  0.2638 -0.1309 -0.2771
 8509SOL    HW136986   2.568   2.151  14.739  1.9546 -2.9992 -2.1220
 8509SOL    HW236987   2.663   2.189  14.633  3.0248 -0.8670  0.3900
 8510SOL     OW36988   1.605   4.011  11.031  0.3565 -0.1422 -0.0060
 8510SOL    HW136989   1.616   4.029  10.938 -4.0298 -0.8802 -0.6563
 8510SOL    HW236990   1.520   3.966  11.031  0.0214  0.5008 -0.0783
 8511SOL     OW36991   3.698   1.295   8.596 -0.1588 -0.1358  0.0765
 8511SOL    HW136992   3.766   1.361   8.607  0.9499 -1.0235 -1.5017
 8511SOL    HW236993   3.626   1.350   8.564 -0.4800 -0.8222 -0.3837
 8512SOL     OW36994   2.681   0.970  10.043 -0.0591 -0.1049 -0.0272
 8512SOL    HW136995   2.606   1.028  10.034  0.8007  0.9208 -0.6345
 8512SOL    HW236996   2.636   0.892  10.076  0.5119  0.2489  1.5845
 8513SOL     OW36997   1.676   1.980   6.684 -0.2043 -0.0772  0.5329
 8513SOL    HW136998   1.665   1.906   6.744  0.4331  0.4693  1.3178
 8513SOL    HW236999   1.656   1.938   6.600  1.8447  3.7997 -1.9144
 8514SOL     OW37000   3.387   0.064   7.534 -0.0733  0.0180 -0.0999
 8514SOL    HW137001   3.426   0.150   7.548  0.3929 -0.0621 -0.8984
 8514SOL    HW237002   3.351   0.050   7.621 -1.1530  0.4424 -0.4805
 8515SOL     OW37003   1.590   3.365  11.876  0.8370  0.0735 -0.3182
 8515SOL    HW137004   1.528   3.302  11.841  0.0434 -0.0827  1.3833
 8515SOL    HW237005   1.564   3.370  11.968  0.9083 -0.4053 -0.2721
 8516SOL     OW37006   4.018   1.915   3.977 -0.5762 -0.0547 -0.0238
 8516SOL    HW137007   3.929   1.886   3.959 -0.3514 -0.7953  0.0696
 8516SOL    HW237008   3.993   2.004   4.004  0.1371 -0.0951  0.7656
 8517SOL     OW37009   3.746   0.909  10.293  0.4418 -0.1630 -0.3079
 8517SOL    HW137010   3.815   0.874  10.349 -0.1928 -1.4216 -0.3262
 8517SOL    HW237011   3.758   0.849  10.220  0.4763 -0.0246 -0.4160
 8518SOL     OW37012   1.015   3.175  12.624 -0.4836 -0.1895  0.0251
 8518SOL    HW137013   1.059   3.149  12.543  2.5607  1.4628  1.1401
 8518SOL    HW237014   0.937   3.122  12.642  0.5690 -2.3758 -1.8363
 8519SOL     OW37015   0.799   4.274  16.780  0.7137  0.1844  0.3902
 8519SOL    HW137016   0.731   4.207  16.786  1.6108 -0.7218  0.4593
 8519SOL    HW237017   0.858   4.253  16.852 -0.2412 -0.1235  1.0813
 8520SOL     OW37018   4.353   0.245  10.390 -0.0338  0.8262  0.1241
 8520SOL    HW137019   4.402   0.257  10.471  1.5901 -3.2094 -0.2861
 8520SOL    HW237020   4.426   0.257  10.330  0.9497 -0.6226  1.0436
 8521SOL     OW37021   2.087   0.171   4.042  0.2421  0.0525 -0.0394
 8521SOL    HW137022   2.091   0.137   4.131  1.4967 -0.7439 -0.4010
 8521SOL    HW237023   2.083   0.090   3.991  0.8032 -0.8816  1.4047
 8522SOL     OW37024   4.715   2.517   1.620  0.1424  0.0990 -0.1800
 8522SOL    HW137025   4.666   2.435   1.619 -0.4595  0.4487  1.8053
 8522SOL    HW237026   4.643   2.580   1.626  0.7429  1.1810 -3.9290
 8523SOL     OW37027   2.139   3.673   4.267 -0.3992 -0.8977  0.0195
 8523SOL    HW137028   2.130   3.754   4.217 -1.6682 -0.5981  0.7120
 8523SOL    HW237029   2.096   3.683   4.352 -1.4843  1.1094 -0.7770
 8524SOL     OW37030   3.741   2.234  13.884 -0.0558  0.0484  0.0295
 8524SOL    HW137031   3.783   2.285  13.953 -0.5604  0.5483 -0.0285
 8524SOL    HW237032   3.680   2.183  13.937 -0.9415  0.6388 -0.4209
 8525SOL     OW37033   0.566   2.070   7.497  0.9025  0.4960  0.3125
 8525SOL    HW137034   0.503   2.142   7.491  0.7315  0.3814  0.7140
 8525SOL    HW237035   0.652   2.112   7.503  0.6573  1.0196  0.1738
 8526SOL     OW37036   4.547   1.014   9.480 -0.1088 -0.0896  0.7932
 8526SOL    HW137037   4.611   0.968   9.425  1.8830  1.9630  1.3999
 8526SOL    HW237038   4.586   1.010   9.568  0.3733 -1.3088  0.5282
 8527SOL     OW37039   4.576   4.050   0.971 -0.7338  0.1579  0.3125
 8527SOL    HW137040   4.625   4.003   0.904 -1.2680  0.6033 -0.3981
 8527SOL    HW237041   4.577   4.133   0.922  0.6430  0.3070  0.6013
 8528SOL     OW37042   4.589   1.846  10.454 -0.3939  0.1601  0.5145
 8528SOL    HW137043   4.574   1.939  10.473 -2.2662  0.3027 -1.6400
 8528SOL    HW237044   4.650   1.828  10.525 -1.5878  0.5319  1.6382
 8529SOL     OW37045   1.235   0.882   0.530  0.0098 -0.7306 -0.8018
 8529SOL    HW137046   1.142   0.900   0.544  0.4449 -0.5813  1.8545
 8529SOL    HW237047   1.252   0.802   0.579 -0.5754  0.0242  0.6129
 8530SOL     OW37048   3.957   1.239   2.377 -0.2369 -0.4690 -0.2281
 8530SOL    HW137049   3.873   1.262   2.337 -0.9706 -1.8119  0.5054
 8530SOL    HW237050   3.997   1.326   2.371 -2.0122  0.4345  0.9269
 8531SOL     OW37051   2.833   2.411  10.028  0.6456 -0.1553 -0.3883
 8531SOL    HW137052   2.769   2.442   9.964  1.0817  1.3482 -0.0922
 8531SOL    HW237053   2.781   2.388  10.105 -0.7547  0.8895 -1.0445
 8532SOL     OW37054   0.998   1.066   8.581 -0.3467 -0.3138 -0.1327
 8532SOL    HW137055   0.944   1.145   8.580  0.7874  0.4046 -3.6140
 8532SOL    HW237056   1.077   1.107   8.616 -0.2579 -2.3999  2.0916
 8533SOL     OW37057   0.273   2.496  16.385 -0.0175 -0.4073  0.3783
 8533SOL    HW137058   0.233   2.413  16.360 -3.0072  0.3959  2.5569
 8533SOL    HW237059   0.324   2.522  16.308  2.3958 -0.2305  2.0443
 8534SOL     OW37060   1.607   4.639   7.122 -0.4324 -0.5404 -0.3768
 8534SOL    HW137061   1.540   4.627   7.055  0.3637 -0.3772 -1.1955
 8534SOL    HW237062   1.551   4.645   7.200  0.3700 -0.5756  0.1911
 8535SOL     OW37063   0.487   0.733  15.269 -0.2904  0.1399 -0.0046
 8535SOL    HW137064   0.502   0.727  15.175 -3.6344  0.3797 -0.5418
 8535SOL    HW237065   0.393   0.742  15.280 -0.2026 -0.3038  1.1771
 8536SOL     OW37066   0.849   1.286   3.573  0.0500 -0.0701 -0.3386
 8536SOL    HW137067   0.916   1.228   3.608 -1.2453 -1.2307  0.2236
 8536SOL    HW237068   0.890   1.372   3.583  0.2350 -0.1637 -0.2982
 8537SOL     OW37069   1.954   1.888  11.366 -0.3988  0.1354 -0.1210
 8537SOL    HW137070   1.895   1.963  11.368  0.9026  1.1257  1.2432
 8537SOL    HW237071   2.033   1.913  11.414 -0.8013 -1.2308  1.2575
 8538SOL     OW37072   1.585   3.516   7.124  0.1615 -0.3562  0.5355
 8538SOL    HW137073   1.540   3.454   7.067  1.1452  0.5323 -1.2296
 8538SOL    HW237074   1.576   3.605   7.090  4.2338  0.1940  0.8243
 8539SOL     OW37075   0.232   1.241   6.877  0.2300  0.0777  0.3066
 8539SOL    HW137076   0.241   1.249   6.783 -0.6152  0.2911  0.2480
 8539SOL    HW237077   0.210   1.330   6.905  0.6717  0.7299 -1.4513
 8540SOL     OW37078   0.630   0.599  16.628  0.9487 -1.4745 -0.5385
 8540SOL    HW137079   0.674   0.684  16.629 -0.1251 -0.9334  3.2752
 8540SOL    HW237080   0.624   0.581  16.722 -1.5980  1.6061 -0.1220
 8541SOL     OW37081   0.522   0.522  12.382  0.4107  0.0275 -0.1454
 8541SOL    HW137082   0.452   0.468  12.346  0.2943  0.9021 -1.2113
 8541SOL    HW237083   0.473   0.576  12.444  0.0151 -1.4559  0.8348
 8542SOL     OW37084   1.624   4.336  10.336  0.5081 -0.4147 -0.1603
 8542SOL    HW137085   1.530   4.347  10.351  0.3500  0.7386 -1.9138
 8542SOL    HW237086   1.639   4.260  10.392  0.2921 -1.2541 -1.2273
 8543SOL     OW37087   1.618   1.815   2.938 -0.3918  0.1051  0.4105
 8543SOL    HW137088   1.556   1.834   3.008  1.5007  1.0875  1.8389
 8543SOL    HW237089   1.655   1.729   2.958  1.6422  0.6631 -0.9247
 8544SOL     OW37090   2.851   3.590  16.151 -0.1923  0.1941  0.5210
 8544SOL    HW137091   2.851   3.615  16.243  0.4814 -2.1240  1.1565
 8544SOL    HW237092   2.758   3.600  16.130  0.1023  1.0648 -0.3490
 8545SOL     OW37093   0.085   1.177   6.065  0.1097  0.1370 -0.2020
 8545SOL    HW137094   0.010   1.190   6.007 -0.1979  0.9077  0.3732
 8545SOL    HW237095   0.137   1.248   6.027 -1.9483  1.0212 -1.3397
 8546SOL     OW37096   0.385   3.529   4.359 -0.3421  0.6212  0.2278
 8546SOL    HW137097   0.454   3.465   4.377  0.0516  0.8582 -0.4541
 8546SOL    HW237098   0.413   3.580   4.283  2.4271 -0.3961  0.5857
 8547SOL     OW37099   3.091   4.555   6.591  0.2913 -0.1335  0.5455
 8547SOL    HW137100   3.074   4.630   6.533  0.0985  0.0128  0.7909
 8547SOL    HW237101   3.145   4.591   6.661 -1.5821  1.6092  1.0754
 8548SOL     OW37102   2.549   1.358  11.354  0.1010  0.1158  0.0362
 8548SOL    HW137103   2.572   1.290  11.292  0.8401 -0.4813  0.9719
 8548SOL    HW237104   2.501   1.415  11.294 -0.2510  0.1681  0.3705
 8549SOL     OW37105   2.806   1.789   9.675 -0.0045 -0.5185  0.3634
 8549SOL    HW137106   2.789   1.879   9.702  2.1535  0.0839 -0.3061
 8549SOL    HW237107   2.879   1.759   9.730 -0.7992 -2.6374  0.2706
 8550SOL     OW37108   1.092   4.125   8.371 -0.4456  0.1467 -0.5131
 8550SOL    HW137109   1.176   4.080   8.376 -0.8152 -0.3018  1.5914
 8550SOL    HW237110   1.125   4.214   8.361  1.9413 -0.2577  3.5465
 8551SOL     OW37111   0.717   0.133  10.668 -0.4907 -0.2813 -0.3200
 8551SOL    HW137112   0.758   0.118  10.583  3.3381 -2.4161  1.8506
 8551SOL    HW237113   0.627   0.149  10.641 -0.6341  0.0350  0.3340
 8552SOL     OW37114   1.891   2.030   2.009  0.3869 -0.0657 -0.1144
 8552SOL    HW137115   1.851   2.022   1.922 -0.0288 -1.2465  0.1884
 8552SOL    HW237116   1.981   2.058   1.990  0.9873 -0.7318  1.7788
 8553SOL     OW37117   3.806   1.648   3.174  0.1462  0.1919 -0.0230
 8553SOL    HW137118   3.845   1.725   3.134 -1.1154  0.7174 -0.2433
 8553SOL    HW237119   3.758   1.684   3.249 -0.9345  1.1032 -1.1625
 8554SOL     OW37120   0.399   3.826  15.076  0.3675  0.2839  0.1437
 8554SOL    HW137121   0.372   3.904  15.125  1.2054 -0.3466  1.5842
 8554SOL    HW237122   0.413   3.769  15.151  1.4000  2.0860  1.2990
 8555SOL     OW37123   1.188   4.238   2.162  0.3067 -0.1629  0.1600
 8555SOL    HW137124   1.139   4.219   2.082 -0.1261  2.5212 -0.2395
 8555SOL    HW237125   1.221   4.152   2.186  0.3652  0.1187  1.0750
 8556SOL     OW37126   2.192   3.662   5.872  0.5655  0.2044 -0.6190
 8556SOL    HW137127   2.143   3.642   5.951  1.9739  1.1855  0.4959
 8556SOL    HW237128   2.245   3.736   5.901  0.1688  0.9865 -1.8820
 8557SOL     OW37129   4.366   0.506  14.574  0.1786  0.0113 -0.5214
 8557SOL    HW137130   4.438   0.452  14.542 -0.0897  1.5373 -3.6642
 8557SOL    HW237131   4.404   0.582  14.529 -0.1970 -0.4861 -1.6723
 8558SOL     OW37132   3.919   3.504   4.217  0.6799 -0.7279 -0.5886
 8558SOL    HW137133   3.851   3.557   4.175  0.7295 -0.0853  0.1410
 8558SOL    HW237134   3.998   3.519   4.164 -0.1492  3.1271 -0.7522
 8559SOL     OW37135   4.059   0.138   3.394 -0.5870 -0.8311 -0.0055
 8559SOL    HW137136   4.048   0.215   3.450  2.4049 -0.2656 -0.2035
 8559SOL    HW237137   4.007   0.173   3.323 -1.2408 -1.8788 -0.0408
 8560SOL     OW37138   2.393   0.713   1.354  0.5970  0.0554  0.5887
 8560SOL    HW137139   2.312   0.725   1.404  1.3526 -0.0310  1.8082
 8560SOL    HW237140   2.368   0.741   1.266 -2.8744 -2.9763  0.5908
 8561SOL     OW37141   0.177   1.727  11.122 -0.5030 -0.2418 -0.2374
 8561SOL    HW137142   0.137   1.656  11.071  0.9289 -0.1663 -1.4583
 8561SOL    HW237143   0.257   1.681  11.145 -0.5633 -0.3325 -0.2069
 8562SOL     OW37144   2.464   0.821   4.773 -0.3244 -0.9724  0.1704
 8562SOL    HW137145   2.414   0.743   4.797  0.2394 -1.3157  0.2305
 8562SOL    HW237146   2.473   0.813   4.678 -0.8571  0.0619  0.0337
 8563SOL     OW37147   4.162   1.251   5.420  0.8283  0.2464 -0.2855
 8563SOL    HW137148   4.083   1.301   5.401  1.2002  0.8395 -0.2773
 8563SOL    HW237149   4.148   1.237   5.513  0.1880 -1.1739 -0.5979
 8564SOL     OW37150   2.313   1.010   4.056 -0.2243  0.2277  0.0275
 8564SOL    HW137151   2.268   0.942   4.006 -1.1473  0.7295  0.1633
 8564SOL    HW237152   2.241   1.073   4.068 -1.5020 -1.1750 -0.2820
 8565SOL     OW37153   4.201   3.426   7.159 -0.2637 -0.3697  0.2751
 8565SOL    HW137154   4.248   3.486   7.100  0.4001 -3.9350 -2.8075
 8565SOL    HW237155   4.254   3.422   7.239 -0.8266 -1.0731  0.6139
 8566SOL     OW37156   1.744   1.832   0.767  0.2997 -0.9947 -0.4672
 8566SOL    HW137157   1.683   1.765   0.797 -0.7064  0.0007 -0.2841
 8566SOL    HW237158   1.720   1.831   0.674  0.4290  1.4838 -0.5301
 8567SOL     OW37159   0.247   3.017   7.927  0.2694  0.4872 -0.1026
 8567SOL    HW137160   0.204   3.070   7.994  1.5697  0.5839  0.6586
 8567SOL    HW237161   0.257   3.076   7.853 -1.0770 -0.3240 -0.9278
 8568SOL     OW37162   0.027   2.838   8.024  0.3762 -0.1209  0.3351
 8568SOL    HW137163   0.078   2.877   7.953 -1.1278 -1.3509 -1.4125
 8568SOL    HW237164   0.045   2.899   8.096 -0.4450  0.1657  0.3016
 8569SOL     OW37165   3.068   0.560   8.692 -0.0784 -0.1507 -0.7169
 8569SOL    HW137166   3.035   0.532   8.777  0.7188  0.1493 -0.3122
 8569SOL    HW237167   3.159   0.583   8.710  0.1747 -0.5390 -1.5160
 8570SOL     OW37168   1.869   1.081   5.266  0.2996  0.3736 -0.2109
 8570SOL    HW137169   1.793   1.024   5.272  1.1443 -0.6194  1.0506
 8570SOL    HW237170   1.855   1.128   5.184  2.9797  0.1447 -0.8218
 8571SOL     OW37171   2.072   1.634   1.351  0.0157 -0.3875 -0.0507
 8571SOL    HW137172   2.048   1.589   1.270 -0.2283 -1.0273  0.3749
 8571SOL    HW237173   2.157   1.678   1.342  0.9928 -2.1779  0.3815
 8572SOL     OW37174   3.957   0.662   6.924 -0.2836  0.4297 -0.0179
 8572SOL    HW137175   4.008   0.723   6.977  0.0806  0.9009 -0.9213
 8572SOL    HW237176   3.889   0.624   6.980 -1.7501  0.9702 -1.4379
 8573SOL     OW37177   1.931   0.980   7.098  0.1997  0.1471 -0.4508
 8573SOL    HW137178   1.996   1.005   7.164 -0.2173 -1.1356  0.4441
 8573SOL    HW237179   1.856   1.031   7.128  1.0535  1.1902 -0.0468
 8574SOL     OW37180   0.084   1.216   6.629 -0.1927 -0.3061 -0.0990
 8574SOL    HW137181   0.093   1.186   6.538 -0.6786  1.9015 -0.8944
 8574SOL    HW237182   0.038   1.299   6.618 -1.2745 -1.5434 -4.8977
 8575SOL     OW37183   0.379   3.235   4.996  0.2946  0.1763  0.2103
 8575SOL    HW137184   0.385   3.269   4.907 -1.7721  2.3603  0.8759
 8575SOL    HW237185   0.407   3.314   5.043 -1.1146  0.6971  0.1732
 8576SOL     OW37186   3.608   2.547   2.716  0.0903  0.5326 -0.1244
 8576SOL    HW137187   3.695   2.507   2.717 -0.1887  0.0426  2.4920
 8576SOL    HW237188   3.551   2.475   2.687  0.7167 -0.4753  1.1549
 8577SOL     OW37189   0.461   2.239   8.303  0.1397 -0.0590 -0.1707
 8577SOL    HW137190   0.366   2.232   8.301  0.0111  1.2884  1.1255
 8577SOL    HW237191   0.469   2.247   8.208 -1.2808 -0.7452 -0.3445
 8578SOL     OW37192   4.639   3.983  11.061 -0.1447 -0.6066 -0.6752
 8578SOL    HW137193   4.631   4.076  11.037  1.5238 -0.4858 -0.7850
 8578SOL    HW237194   4.667   3.994  11.152  0.7151 -2.7643 -0.6855
 8579SOL     OW37195   1.750   0.863   4.896 -0.0381 -0.4042  0.0358
 8579SOL    HW137196   1.720   0.953   4.909 -3.2716 -1.4619  0.0150
 8579SOL    HW237197   1.790   0.883   4.811  0.3047 -0.2321  0.2401
 8580SOL     OW37198   4.658   3.579   4.347  0.4213 -0.0294  0.0303
 8580SOL    HW137199   0.004   3.604   4.410 -0.5069 -0.3275  1.1246
 8580SOL    HW237200   4.584   3.581   4.407 -1.1586  2.0245 -1.9764
 8581SOL     OW37201   0.512   0.686   7.295  0.3612  0.0763  0.3920
 8581SOL    HW137202   0.481   0.774   7.318  0.2742 -0.0350  0.6974
 8581SOL    HW237203   0.587   0.713   7.242 -0.3047 -1.0178 -1.1069
 8582SOL     OW37204   0.597   3.756   8.634 -0.5132  0.3362  0.1668
 8582SOL    HW137205   0.666   3.819   8.655 -0.8067  1.8051 -3.2711
 8582SOL    HW237206   0.522   3.786   8.685  0.2728  4.6717 -1.2277
 8583SOL     OW37207   1.303   2.153  10.102 -0.3513 -0.0068  0.2386
 8583SOL    HW137208   1.290   2.179  10.194  0.2355 -0.1291  0.3540
 8583SOL    HW237209   1.377   2.093  10.104 -0.2834  0.0696 -0.0390
 8584SOL     OW37210   3.300   2.712   6.261  0.1337 -0.1508  0.1600
 8584SOL    HW137211   3.353   2.672   6.192  1.9609  1.6900  0.5050
 8584SOL    HW237212   3.248   2.639   6.295  1.2359 -0.5044  1.1053
 8585SOL     OW37213   4.098   4.697   4.447 -0.0973 -0.3249 -0.5192
 8585SOL    HW137214   4.149   4.627   4.488 -1.7437 -1.0992  0.2025
 8585SOL    HW237215   4.048   4.654   4.377  1.4756 -6.0757  1.8641
 8586SOL     OW37216   1.722   0.271   3.909  0.5445  0.1298 -0.3124
 8586SOL    HW137217   1.669   0.236   3.838 -1.1257 -0.4968  1.2389
 8586SOL    HW237218   1.785   0.323   3.858 -1.8012  1.8807 -1.4233
 8587SOL     OW37219   1.296   4.494   2.130 -0.1753  0.1639 -0.0860
 8587SOL    HW137220   1.268   4.405   2.148  0.1473 -0.0255 -0.5347
 8587SOL    HW237221   1.388   4.476   2.111  0.1807  3.0586 -1.1710
 8588SOL     OW37222   2.972   3.256   4.623 -0.1262  0.1856  0.3943
 8588SOL    HW137223   2.969   3.201   4.545  2.3661 -1.0687  1.1830
 8588SOL    HW237224   2.896   3.311   4.608 -0.6409 -0.4675  0.6263
 8589SOL     OW37225   1.403   2.279  15.312 -0.0355  0.1373  0.1392
 8589SOL    HW137226   1.407   2.344  15.382  1.3176 -0.9162  1.0275
 8589SOL    HW237227   1.408   2.338  15.236 -1.2071  0.6628  0.4677
 8590SOL     OW37228   2.998   1.200  11.402  0.4473  0.3193  0.4429
 8590SOL    HW137229   3.038   1.287  11.407  1.4809 -0.1236 -0.1962
 8590SOL    HW237230   2.948   1.196  11.483 -1.4216  0.4635 -0.7127
 8591SOL     OW37231   0.289   4.313   9.462 -0.4548  0.9107  0.2361
 8591SOL    HW137232   0.347   4.300   9.386  1.6903 -2.5842  2.4943
 8591SOL    HW237233   0.336   4.280   9.539 -0.4018 -2.8953 -1.4589
 8592SOL     OW37234   4.361   2.932   3.800  0.3731  0.2100 -0.8338
 8592SOL    HW137235   4.444   2.912   3.756  1.0634  1.6880 -0.2039
 8592SOL    HW237236   4.368   3.025   3.824  2.3409 -0.4717  1.1145
 8593SOL     OW37237   1.597   0.497   2.135 -0.2127  0.2004 -0.0921
 8593SOL    HW137238   1.692   0.500   2.145 -0.4231  2.6769  1.0742
 8593SOL    HW237239   1.573   0.424   2.192  0.4879 -0.3984 -0.5554
 8594SOL     OW37240   1.805   0.268   5.258 -0.1679 -0.5266 -0.2471
 8594SOL    HW137241   1.714   0.251   5.283 -0.4476 -1.6960 -2.0883
 8594SOL    HW237242   1.797   0.286   5.165  3.7950 -1.7344 -0.7950
 8595SOL     OW37243   3.794   4.502   3.688  0.3601  0.8786  0.3608
 8595SOL    HW137244   3.740   4.534   3.615 -0.1768 -1.9798 -0.5124
 8595SOL    HW237245   3.857   4.572   3.699  1.1447  0.7443 -3.2388
 8596SOL     OW37246   2.614   1.927  17.072 -0.2111 -0.3238 -0.0540
 8596SOL    HW137247   2.663   1.985  17.014  1.0924 -0.1280  1.2259
 8596SOL    HW237248   2.571   1.868  17.010 -2.7372  0.9812  0.4649
 8597SOL     OW37249   1.468   4.621   1.496  0.0275 -0.0913  0.7723
 8597SOL    HW137250   1.498   4.705   1.531 -0.6020  0.4281  0.0403
 8597SOL    HW237251   1.415   4.653   1.424  1.0490  2.1910  1.0378
 8598SOL     OW37252   3.860   0.885   5.099  0.3583  0.0549 -0.3700
 8598SOL    HW137253   3.857   0.799   5.057 -0.5962  0.2382 -0.6777
 8598SOL    HW237254   3.844   0.859   5.189  1.2931 -1.8932 -0.7595
 8599SOL     OW37255   4.271   1.514   8.575 -0.0491 -0.6788  0.2660
 8599SOL    HW137256   4.349   1.514   8.520 -0.2662 -1.3767 -0.0488
 8599SOL    HW237257   4.272   1.424   8.609 -0.1180 -1.1828 -1.0376
 8600SOL     OW37258   0.685   0.488   7.773  0.2794  0.4257 -0.3092
 8600SOL    HW137259   0.635   0.560   7.812 -2.2575 -1.8850  0.6345
 8600SOL    HW237260   0.652   0.505   7.685 -1.4515  1.1927  0.4916
 8601SOL     OW37261   0.154   0.368   5.635 -0.3439 -0.0401 -0.2586
 8601SOL    HW137262   0.192   0.311   5.703  0.6694  1.2013  0.2141
 8601SOL    HW237263   0.230   0.422   5.614  0.5623 -0.9993  0.5474
 8602SOL     OW37264   4.008   4.126   1.946  0.4349  0.0746  0.0935
 8602SOL    HW137265   4.051   4.205   1.913  0.3350  0.8431  1.7429
 8602SOL    HW237266   3.913   4.141   1.941  0.2482 -0.6799  1.3235
 8603SOL     OW37267   1.056   3.575  15.582 -0.0706 -0.2966 -0.3257
 8603SOL    HW137268   1.090   3.493  15.618  2.1059  1.0014  0.5706
 8603SOL    HW237269   1.008   3.545  15.505  0.8566  2.0443 -1.7876
 8604SOL     OW37270   0.639   2.863   3.041 -0.2201 -0.2890 -0.2284
 8604SOL    HW137271   0.628   2.783   2.989  1.1922  0.2705 -1.3968
 8604SOL    HW237272   0.573   2.917   2.998  1.2604  0.2734 -1.8019
 8605SOL     OW37273   0.189   3.116   2.254  0.2171  0.2492  0.6347
 8605SOL    HW137274   0.103   3.100   2.291 -1.0282  2.7599 -1.1643
 8605SOL    HW237275   0.209   3.193   2.307 -0.9694  1.8659 -1.2562
 8606SOL     OW37276   1.245   0.600   4.022  0.6522 -0.5928 -0.1011
 8606SOL    HW137277   1.151   0.584   4.026  0.2858  0.9743 -2.7601
 8606SOL    HW237278   1.257   0.594   3.927 -1.8518 -2.7688 -0.2626
 8607SOL     OW37279   0.835   4.247   2.506 -0.2045 -0.0737 -0.0359
 8607SOL    HW137280   0.900   4.284   2.447 -1.9310  3.5331  0.3177
 8607SOL    HW237281   0.821   4.315   2.572 -3.9177  0.4525 -1.3294
 8608SOL     OW37282   4.513   1.612   1.261  0.2298  0.3594 -0.1664
 8608SOL    HW137283   4.528   1.623   1.167  1.4606 -1.5837 -0.2009
 8608SOL    HW237284   4.509   1.707   1.276  1.0017  0.5047 -0.8780
 8609SOL     OW37285   1.885   3.903  15.291 -0.2167 -0.4338 -0.0529
 8609SOL    HW137286   1.845   3.952  15.363  1.7818 -0.1582  0.8608
 8609SOL    HW237287   1.972   3.943  15.287 -0.5083  0.1856 -0.3347
 8610SOL     OW37288   2.142   3.930   7.726 -0.0459  0.3620  0.8813
 8610SOL    HW137289   2.120   3.863   7.661  1.2716  1.7229 -0.9704
 8610SOL    HW237290   2.065   3.987   7.739  0.8024  2.2838 -2.4341
 8611SOL     OW37291   4.474   0.044   7.899 -0.0671 -0.3285  0.9823
 8611SOL    HW137292   4.508   0.133   7.907  0.3201 -0.5421  1.7772
 8611SOL    HW237293   4.403   0.059   7.837  1.3022 -1.8966 -0.9616
 8612SOL     OW37294   0.507   1.196   5.603  0.3337 -0.5276  1.1473
 8612SOL    HW137295   0.489   1.145   5.524 -1.6908  1.3292  0.4314
 8612SOL    HW237296   0.572   1.262   5.579 -2.2734  2.2883  1.9410
 8613SOL     OW37297   0.741   1.921   3.428 -1.0191  0.3683  0.0068
 8613SOL    HW137298   0.728   1.892   3.518  1.6404 -0.8965 -0.0202
 8613SOL    HW237299   0.789   2.001   3.446  0.5664 -0.4183 -0.7977
 8614SOL     OW37300   2.964   2.433   3.547  0.2119  0.1365 -0.0375
 8614SOL    HW137301   3.009   2.495   3.491 -1.0034 -0.6249 -1.8428
 8614SOL    HW237302   2.935   2.492   3.617 -1.4478 -1.7472  0.8749
 8615SOL     OW37303   0.830   1.777   9.137  0.1712  0.0008 -0.4505
 8615SOL    HW137304   0.818   1.730   9.219  2.0198 -0.2893 -0.3429
 8615SOL    HW237305   0.857   1.711   9.073 -0.6555 -1.8686  1.1479
 8616SOL     OW37306   0.645   0.056   5.256  0.1379  0.1436 -0.5953
 8616SOL    HW137307   0.600   0.071   5.339 -1.7826  1.0707 -1.7806
 8616SOL    HW237308   0.580   0.093   5.195  0.5827  1.9337  0.0049
 8617SOL     OW37309   1.990   3.903  14.886 -0.0728  0.2092  0.4756
 8617SOL    HW137310   1.939   3.823  14.901  0.7819 -0.7780 -1.9541
 8617SOL    HW237311   2.083   3.881  14.885  0.1164  1.1101 -1.3508
 8618SOL     OW37312   2.003   1.707   4.599 -0.4551  0.0886 -0.2336
 8618SOL    HW137313   2.034   1.660   4.676 -1.2332  2.8011  1.7330
 8618SOL    HW237314   1.909   1.699   4.614 -0.6628  2.3707 -0.4119
 8619SOL     OW37315   2.156   2.383  17.422 -0.0121 -0.1936  0.4603
 8619SOL    HW137316   2.185   2.455  17.366 -0.0207 -0.2727  0.3518
 8619SOL    HW237317   2.181   2.415  17.508  0.2587 -0.4130  0.4631
 8620SOL     OW37318   3.449   4.621   3.245  0.0019 -0.5062  0.2939
 8620SOL    HW137319   3.422   4.530   3.260  0.2183 -0.6307 -0.0658
 8620SOL    HW237320   3.479   4.618   3.154 -0.4402 -1.3357  0.1761
 8621SOL     OW37321   2.839   3.064  13.934 -0.7492  0.0056 -0.4364
 8621SOL    HW137322   2.855   3.086  14.026 -0.5390 -1.7830 -0.0555
 8621SOL    HW237323   2.774   2.994  13.936  1.2173 -1.8221 -0.3495
 8622SOL     OW37324   1.098   2.167   3.945 -0.5469  0.3853  0.1835
 8622SOL    HW137325   1.055   2.252   3.933 -0.6907  0.4562  1.2183
 8622SOL    HW237326   1.169   2.202   3.998 -1.4264  0.6541  1.1939
 8623SOL     OW37327   1.345   0.504   7.926  0.6878  0.7683  0.9230
 8623SOL    HW137328   1.368   0.510   8.019  1.1869 -1.0374  0.9160
 8623SOL    HW237329   1.268   0.449   7.938  0.8124  0.6552  1.2149
 8624SOL     OW37330   3.895   4.399   7.015 -0.8773  0.2168 -0.2146
 8624SOL    HW137331   3.955   4.455   7.063 -0.8930  1.8299 -2.0794
 8624SOL    HW237332   3.834   4.469   6.991  0.0233  0.9307 -0.3993
 8625SOL     OW37333   3.128   2.330  17.019  0.4482 -0.1857 -0.1147
 8625SOL    HW137334   3.151   2.238  17.030  1.7451  0.1595  0.0740
 8625SOL    HW237335   3.162   2.364  17.102  0.7920  1.0449 -0.7524
 8626SOL     OW37336   4.471   1.154   3.379  0.0314 -0.0579  0.1682
 8626SOL    HW137337   4.542   1.218   3.385  1.1731 -1.2086 -1.0373
 8626SOL    HW237338   4.505   1.097   3.309  0.2942 -0.9956  1.0550
 8627SOL     OW37339   4.358   2.060  12.423  0.0856 -0.1486  0.0462
 8627SOL    HW137340   4.426   2.104  12.473  0.2607 -2.2346  1.6398
 8627SOL    HW237341   4.280   2.115  12.430 -0.0061  0.1132 -3.0130
 8628SOL     OW37342   0.564   1.504   1.711  0.4115 -0.6628 -0.5563
 8628SOL    HW137343   0.511   1.564   1.764 -0.5535 -1.2805 -0.8207
 8628SOL    HW237344   0.635   1.558   1.677  0.5655  0.4447  1.5532
 8629SOL     OW37345   2.477   2.994   8.571 -0.8425 -0.1072  0.4104
 8629SOL    HW137346   2.517   3.080   8.554 -2.0827  0.4081  0.1138
 8629SOL    HW237347   2.530   2.926   8.529 -0.4001  0.7355 -0.3966
 8630SOL     OW37348   0.249   0.709   3.262 -0.4621 -0.0344 -0.2091
 8630SOL    HW137349   0.329   0.751   3.230  1.2553 -3.1732 -0.0531
 8630SOL    HW237350   0.189   0.711   3.187  1.1726  0.5532 -1.5001
 8631SOL     OW37351   4.108   3.234   5.518 -0.3391  0.0481 -0.2918
 8631SOL    HW137352   4.068   3.162   5.565  0.8343  0.7506  1.7725
 8631SOL    HW237353   4.067   3.209   5.435 -2.7374  0.9340  0.6570
 8632SOL     OW37354   0.312   2.101   5.561 -0.2127  0.6301  0.0212
 8632SOL    HW137355   0.293   2.009   5.581 -2.0495  1.3023  1.4459
 8632SOL    HW237356   0.407   2.092   5.551 -0.2453  0.5922 -0.2502
 8633SOL     OW37357   3.949   4.544  17.600  0.2211 -0.0721  0.0086
 8633SOL    HW137358   3.933   4.608  17.670 -2.2025 -0.7670  0.1022
 8633SOL    HW237359   3.994   4.592  17.531 -2.4310  1.7400 -0.4831
 8634SOL     OW37360   4.578   3.655  12.253 -0.8627  0.2357  0.4558
 8634SOL    HW137361   4.529   3.617  12.325 -2.4558 -0.1552 -0.8247
 8634SOL    HW237362   4.658   3.605  12.269 -0.4646  1.0236  0.9197
 8635SOL     OW37363   1.642   3.574   9.469  0.2881 -0.4769 -0.4398
 8635SOL    HW137364   1.679   3.525   9.543 -0.1876  1.5771  1.1465
 8635SOL    HW237365   1.716   3.622   9.433 -1.4926  1.1316 -1.9275
 8636SOL     OW37366   3.655   3.665   8.312  0.0850 -0.1415 -0.0246
 8636SOL    HW137367   3.622   3.618   8.389  0.6774  0.1634  0.4149
 8636SOL    HW237368   3.604   3.615   8.248 -0.8945 -3.2033  3.1334
 8637SOL     OW37369   3.402   3.433  12.896 -0.0847  0.1955  0.1421
 8637SOL    HW137370   3.483   3.439  12.845 -0.1692  1.2291  0.1269
 8637SOL    HW237371   3.333   3.485  12.856  1.3320  0.9094 -1.3671
 8638SOL     OW37372   2.485   2.562   2.814  0.2520  0.2089 -0.3341
 8638SOL    HW137373   2.487   2.545   2.908  0.1831  0.8837 -0.2078
 8638SOL    HW237374   2.551   2.497   2.791 -1.1204 -2.0360  2.1587
 8639SOL     OW37375   0.706   2.461   6.914  0.3917  0.0818  0.3057
 8639SOL    HW137376   0.656   2.379   6.919 -0.9390  1.0400  2.6163
 8639SOL    HW237377   0.793   2.432   6.885 -0.1250 -1.7165  0.5299
 8640SOL     OW37378   2.774   4.239   3.761 -0.7261 -0.0636 -0.1512
 8640SOL    HW137379   2.762   4.235   3.666  0.6134 -0.1949 -0.3180
 8640SOL    HW237380   2.822   4.322   3.762  0.9901 -1.0550 -0.8202
 8641SOL     OW37381   1.420   1.047  16.898  0.5907  0.1161  0.7891
 8641SOL    HW137382   1.505   1.007  16.883  0.6043  0.3176  0.3423
 8641SOL    HW237383   1.392   1.047  16.807 -1.9860 -1.7986  1.5600
 8642SOL     OW37384   2.175   2.795   6.012 -0.3623  0.4266 -0.1235
 8642SOL    HW137385   2.088   2.833   6.002 -0.4196 -0.0884 -1.6254
 8642SOL    HW237386   2.207   2.806   5.922 -0.4862 -0.5857 -0.2877
 8643SOL     OW37387   1.436   0.712   5.318  0.0394  0.0741  0.2339
 8643SOL    HW137388   1.410   0.800   5.346 -2.0026 -0.7612  1.0142
 8643SOL    HW237389   1.378   0.684   5.248  0.4896 -0.3602  0.0371
 8644SOL     OW37390   4.203   2.454   2.002 -0.3581 -0.8701 -0.0410
 8644SOL    HW137391   4.180   2.526   1.944  0.5004  0.0027  0.7041
 8644SOL    HW237392   4.298   2.463   1.999 -0.4096  0.0519  1.2171
 8645SOL     OW37393   3.394   1.300   5.646  0.1839 -0.3578 -0.3625
 8645SOL    HW137394   3.467   1.318   5.706 -0.5216  0.3134  0.3162
 8645SOL    HW237395   3.405   1.379   5.593 -1.3687 -1.1696 -1.8775
 8646SOL     OW37396   2.628   1.948   6.440 -0.3169  0.7961 -0.9530
 8646SOL    HW137397   2.593   2.020   6.492  1.0659  1.5952 -1.1378
 8646SOL    HW237398   2.695   1.918   6.501 -1.2935  1.2895  0.3652
 8647SOL     OW37399   1.889   2.205   8.542  0.1307 -0.0304 -0.2819
 8647SOL    HW137400   1.933   2.290   8.541  2.8650 -1.4457  2.2324
 8647SOL    HW237401   1.814   2.232   8.487  0.2064  0.0030 -0.3684
 8648SOL     OW37402   0.382   3.775  16.011 -0.2447  0.2975  0.2693
 8648SOL    HW137403   0.388   3.764  16.106  0.1876  4.0888  0.6826
 8648SOL    HW237404   0.302   3.828  16.012  0.2016  0.9651  1.3414
 8649SOL     OW37405   1.492   3.387   9.345  0.1919  0.1383  0.1841
 8649SOL    HW137406   1.460   3.355   9.430  0.3889  1.5446  0.7949
 8649SOL    HW237407   1.567   3.445   9.363 -0.2740  0.4305  1.2126
 8650SOL     OW37408   2.372   3.511  10.638 -1.2631  0.1997  0.0744
 8650SOL    HW137409   2.319   3.499  10.717 -3.3192 -1.4510 -1.5454
 8650SOL    HW237410   2.306   3.505  10.569 -0.0762 -1.5088 -0.9335
 8651SOL     OW37411   3.847   0.687   5.298 -0.1274 -0.0844 -0.0450
 8651SOL    HW137412   3.890   0.612   5.256  0.9948  0.7749 -0.4376
 8651SOL    HW237413   3.803   0.640   5.369  0.3485  1.0028  0.9485
 8652SOL     OW37414   0.633   3.817   4.903 -0.3404  0.1220 -0.2033
 8652SOL    HW137415   0.675   3.734   4.880  0.5584  0.5529 -0.0879
 8652SOL    HW237416   0.574   3.781   4.969 -0.2064  1.6761  0.7576
 8653SOL     OW37417   3.501   1.743   9.851 -0.3038  0.0335 -0.1875
 8653SOL    HW137418   3.544   1.671   9.897  0.9268  1.7340  1.3569
 8653SOL    HW237419   3.537   1.721   9.765  0.1193 -0.9077  0.2359
 8654SOL     OW37420   1.209   2.975   8.652 -0.4667 -0.0971 -0.1543
 8654SOL    HW137421   1.160   3.053   8.679 -0.6078 -0.0209 -0.6293
 8654SOL    HW237422   1.238   2.998   8.563  1.5632 -1.4323  0.1667
 8655SOL     OW37423   2.555   2.096  11.100 -0.4621  0.3001  0.5770
 8655SOL    HW137424   2.509   2.062  11.177  0.4131 -0.4056  0.7875
 8655SOL    HW237425   2.554   2.013  11.052  1.8493  1.3300 -1.2656
 8656SOL     OW37426   3.392   0.419   2.605  0.8178  0.3560  0.1974
 8656SOL    HW137427   3.452   0.475   2.556 -0.9197  1.5580 -0.5810
 8656SOL    HW237428   3.341   0.489   2.645 -1.6568 -0.8938 -0.7856
 8657SOL     OW37429   4.082   3.962   3.592 -0.2557  0.5206 -0.3005
 8657SOL    HW137430   4.003   3.911   3.577 -0.8376  0.7761  1.9062
 8657SOL    HW237431   4.088   4.006   3.506  2.3754  1.4617  0.3615
 8658SOL     OW37432   1.096   2.397   3.683  0.5139  0.0978 -0.0993
 8658SOL    HW137433   1.029   2.328   3.687 -1.8577  2.4247  0.7047
 8658SOL    HW237434   1.086   2.427   3.774 -0.3248  0.0327 -0.1715
 8659SOL     OW37435   2.695   1.472   4.291 -0.1673 -0.3240 -0.4877
 8659SOL    HW137436   2.684   1.437   4.380 -2.3878  1.2398 -0.1401
 8659SOL    HW237437   2.729   1.396   4.245  0.8612 -0.0477 -0.1772
 8660SOL     OW37438   1.468   1.819   5.302 -0.0202 -0.0871  0.5460
 8660SOL    HW137439   1.512   1.879   5.362  1.1373 -0.4753  0.0930
 8660SOL    HW237440   1.414   1.873   5.244  0.2539  0.5593  0.8958
 8661SOL     OW37441   1.158   4.642   7.174  0.2168  0.2123 -0.9270
 8661SOL    HW137442   1.082   4.619   7.121  1.6282  1.2906 -3.4177
 8661SOL    HW237443   1.122   4.653   7.262  2.2506 -0.6616  0.0069
 8662SOL     OW37444   0.470   2.032   2.145  1.1694 -0.5374 -0.2528
 8662SOL    HW137445   0.489   2.125   2.132  0.0374 -0.1041  1.1640
 8662SOL    HW237446   0.490   1.987   2.063 -0.8552  1.4354 -1.8465
 8663SOL     OW37447   1.200   0.329  10.070 -0.2708  0.2931 -0.0771
 8663SOL    HW137448   1.279   0.381  10.088 -0.1365  0.2270 -0.4693
 8663SOL    HW237449   1.231   0.245  10.035  0.2529  0.5853 -0.3214
 8664SOL     OW37450   3.929   0.049   0.069 -0.2798  0.0529 -0.0807
 8664SOL    HW137451   4.023   0.051   0.051 -0.7922 -0.4067 -2.7734
 8664SOL    HW237452   3.908   0.142   0.079  1.9629  0.5021  0.3352
 8665SOL     OW37453   1.555   4.412   9.081 -0.1775  0.1145  0.3479
 8665SOL    HW137454   1.542   4.448   8.993 -2.0176 -1.1141  0.1211
 8665SOL    HW237455   1.621   4.475   9.112 -0.5814 -0.3282  2.0767
 8666SOL     OW37456   4.443   0.189   9.347 -0.5925  0.1791  0.6375
 8666SOL    HW137457   4.393   0.250   9.401  2.0628  1.5477  1.5584
 8666SOL    HW237458   4.372   0.140   9.306 -0.7000 -0.0408  1.0845
 8667SOL     OW37459   0.227   1.621   2.644  0.7604  0.4139 -0.5638
 8667SOL    HW137460   0.315   1.657   2.652  1.6548 -1.5515 -1.4470
 8667SOL    HW237461   0.167   1.690   2.670  0.5727  1.0480 -2.7264
 8668SOL     OW37462   1.147   2.894   3.180  0.0401  0.2010 -0.3846
 8668SOL    HW137463   1.129   2.817   3.233 -0.8724  0.5457 -0.1883
 8668SOL    HW237464   1.155   2.861   3.091 -1.8540 -1.9053  0.2375
 8669SOL     OW37465   1.284   0.366   2.096  0.1056  0.8603  0.3127
 8669SOL    HW137466   1.315   0.310   2.025  0.0884 -0.1008  1.0638
 8669SOL    HW237467   1.343   0.351   2.170  0.0709 -0.6800  0.0227
 8670SOL     OW37468   2.536   0.300   5.153 -0.0438  0.0663  0.5779
 8670SOL    HW137469   2.462   0.317   5.213  0.9367 -0.5697  1.9586
 8670SOL    HW237470   2.548   0.207   5.171  0.0602  0.0659  0.5017
 8671SOL     OW37471   1.261   1.917  16.037  0.0979 -0.1699  0.1447
 8671SOL    HW137472   1.223   1.995  15.996 -1.4898 -1.3169 -0.5725
 8671SOL    HW237473   1.182   1.872  16.068 -1.1387  0.7789 -1.6035
 8672SOL     OW37474   1.119   2.120   6.356 -0.2181  0.1497  0.3009
 8672SOL    HW137475   1.211   2.110   6.333 -0.9280 -0.2334 -2.4127
 8672SOL    HW237476   1.103   2.210   6.325 -0.8230  0.1823  0.7117
 8673SOL     OW37477   0.929   0.635   3.642  0.4383 -0.4377  0.1901
 8673SOL    HW137478   0.856   0.596   3.689  0.6956  0.1889  1.0893
 8673SOL    HW237479   0.967   0.667   3.724 -0.6392 -2.0354  1.2954
 8674SOL     OW37480   3.315   1.835   0.493 -0.1983  0.1327  0.1207
 8674SOL    HW137481   3.281   1.877   0.572 -2.3825 -1.0824 -0.1825
 8674SOL    HW237482   3.233   1.815   0.447 -1.0070  1.9626  0.7774
 8675SOL     OW37483   0.867   1.585   7.018 -0.2453 -0.1212  0.0983
 8675SOL    HW137484   0.798   1.537   7.063  2.0317 -0.6419  2.9830
 8675SOL    HW237485   0.866   1.558   6.926  0.0850 -0.3943  0.1803
 8676SOL     OW37486   1.701   0.114   2.199  0.4578  0.2488 -0.0513
 8676SOL    HW137487   1.735   0.025   2.193  1.1030  0.4764  0.1727
 8676SOL    HW237488   1.744   0.159   2.126 -0.3091 -0.3159 -0.8477
 8677SOL     OW37489   3.101   2.184   3.662 -0.5403  0.1598  0.3043
 8677SOL    HW137490   3.018   2.224   3.637 -1.6849 -1.1436  1.9743
 8677SOL    HW237491   3.123   2.135   3.583  3.3814  1.5954  0.5033
 8678SOL     OW37492   3.994   3.069   3.830  0.9074  0.2080 -0.0301
 8678SOL    HW137493   4.042   3.032   3.755 -0.4156  2.7644 -2.1362
 8678SOL    HW237494   3.985   2.980   3.866  3.2136 -0.2177 -0.4906
 8679SOL     OW37495   0.249   4.245   1.490 -0.7670  0.2585 -0.4879
 8679SOL    HW137496   0.198   4.191   1.429 -2.3269  2.6663 -1.3326
 8679SOL    HW237497   0.187   4.317   1.506 -0.0306  0.8788 -0.4575
 8680SOL     OW37498   2.292   0.298   9.816 -0.4151  0.0581  0.1474
 8680SOL    HW137499   2.358   0.286   9.883  1.5560 -0.8254 -1.9516
 8680SOL    HW237500   2.306   0.218   9.765  1.2038  0.6276 -0.2917
 8681SOL     OW37501   1.452   3.854   8.826  0.6586 -0.2327  0.2272
 8681SOL    HW137502   1.490   3.802   8.755 -1.9032  1.5719 -2.4419
 8681SOL    HW237503   1.523   3.849   8.891  2.6207  0.0116 -1.8807
 8682SOL     OW37504   1.522   2.969   7.151  0.6840 -0.6355 -0.7750
 8682SOL    HW137505   1.459   2.913   7.105 -1.5045  0.7214  0.5371
 8682SOL    HW237506   1.580   2.905   7.191  0.9939 -0.2882 -0.6686
 8683SOL     OW37507   0.198   2.650   6.699  0.1833  0.1325 -0.1733
 8683SOL    HW137508   0.233   2.584   6.639 -0.2096  1.1797 -1.5406
 8683SOL    HW237509   0.154   2.592   6.762  0.3553 -0.1102 -0.2793
 8684SOL     OW37510   1.638   0.722  12.724 -0.0523  0.0253  0.3753
 8684SOL    HW137511   1.549   0.710  12.692 -0.5064  1.1139  1.2412
 8684SOL    HW237512   1.694   0.665  12.670  2.1829  2.1987  0.3858
 8685SOL     OW37513   2.351   2.354   0.943 -0.1362  0.0235 -0.3312
 8685SOL    HW137514   2.282   2.289   0.954 -0.0242 -0.1680 -0.7567
 8685SOL    HW237515   2.307   2.436   0.964 -0.5797 -0.7527  1.7182
 8686SOL     OW37516   3.038   1.281   1.413  0.1551  0.2042  0.2140
 8686SOL    HW137517   3.115   1.305   1.464  0.6500 -0.4194 -0.2259
 8686SOL    HW237518   3.024   1.354   1.352 -2.3573 -1.7924 -1.6204
 8687SOL     OW37519   2.037   1.283  16.681  0.3977  0.2062 -0.4939
 8687SOL    HW137520   1.963   1.299  16.622  0.1204 -2.1382 -0.7855
 8687SOL    HW237521   2.050   1.189  16.671  2.4981  0.2948  1.4661
 8688SOL     OW37522   0.602   1.559   4.073  0.1753  0.2554 -0.0018
 8688SOL    HW137523   0.520   1.540   4.118  1.0352 -1.6836  0.7358
 8688SOL    HW237524   0.650   1.619   4.129 -1.2789 -0.2185  1.7642
 8689SOL     OW37525   2.921   2.398   2.070  0.8294 -0.3846  0.0247
 8689SOL    HW137526   2.991   2.367   2.127  1.1247  0.2071 -0.0121
 8689SOL    HW237527   2.898   2.318   2.023 -0.6931 -1.2661  2.2885
 8690SOL     OW37528   0.401   4.012  15.545  0.0544 -0.4840 -0.2272
 8690SOL    HW137529   0.434   4.076  15.608 -1.4570  1.8034 -1.7241
 8690SOL    HW237530   0.467   3.945  15.559 -0.5151 -0.6028  1.8560
 8691SOL     OW37531   4.180   1.765   3.813 -0.0964  0.5647 -0.0524
 8691SOL    HW137532   4.127   1.705   3.761 -0.1343  1.7718 -1.3912
 8691SOL    HW237533   4.113   1.814   3.859 -0.8401  0.6735 -1.2461
 8692SOL     OW37534   2.458   0.978  11.841 -0.6176 -0.4492  0.2535
 8692SOL    HW137535   2.465   1.018  11.754 -0.3491 -0.1622  0.4068
 8692SOL    HW237536   2.498   0.898  11.808  0.9442 -0.6705  2.7131
 8693SOL     OW37537   1.310   2.940   9.216 -0.0011  0.5116 -0.4864
 8693SOL    HW137538   1.403   2.924   9.230 -0.5884  0.0172  2.8241
 8693SOL    HW237539   1.270   2.860   9.251  0.2571  0.6309  0.0858
 8694SOL     OW37540   0.966   1.327   4.624 -0.0593 -0.0152  0.0184
 8694SOL    HW137541   0.954   1.247   4.676  2.0088 -1.4297 -1.7073
 8694SOL    HW237542   0.883   1.375   4.631  0.3538  0.6681  0.2637
 8695SOL     OW37543   0.775   2.730   2.426 -0.0275 -0.5264 -0.2102
 8695SOL    HW137544   0.832   2.697   2.356  0.9654  0.6657  0.0338
 8695SOL    HW237545   0.693   2.719   2.378 -0.1644  0.3332 -0.1751
 8696SOL     OW37546   2.170   0.704   6.822 -0.0356  0.5014  0.6126
 8696SOL    HW137547   2.091   0.721   6.771 -1.2983  0.3218  2.5468
 8696SOL    HW237548   2.167   0.787   6.869  1.1128  1.8522 -1.6442
 8697SOL     OW37549   2.580   3.676   9.051  0.1216 -0.1698 -0.5789
 8697SOL    HW137550   2.545   3.757   9.088  4.4829  1.2174  0.5104
 8697SOL    HW237551   2.641   3.708   8.984 -0.1912  0.8641 -0.3738
 8698SOL     OW37552   0.582   0.761  11.355  0.0108 -0.6404 -0.2405
 8698SOL    HW137553   0.515   0.722  11.410  1.6784  0.5836  2.6542
 8698SOL    HW237554   0.536   0.832  11.310  0.4489 -0.8478 -1.0104
 8699SOL     OW37555   1.499   4.407   8.476  0.2753  0.5819  0.0462
 8699SOL    HW137556   1.554   4.381   8.550 -0.3431  0.8091  0.5753
 8699SOL    HW237557   1.407   4.389   8.494  0.0637  1.1271 -0.4895
 8700SOL     OW37558   3.325   4.390   1.936  0.1208  0.3472  0.3576
 8700SOL    HW137559   3.383   4.413   1.865  0.4416 -1.1837  0.1250
 8700SOL    HW237560   3.368   4.435   2.009 -1.3464 -0.2560  1.5982
 8701SOL     OW37561   3.586   3.748  10.512 -0.2538  0.2358 -0.3993
 8701SOL    HW137562   3.510   3.695  10.488  0.1626 -0.1453 -0.8475
 8701SOL    HW237563   3.564   3.838  10.487 -0.8535  0.3251  0.4211
 8702SOL     OW37564   0.753   0.674   1.711 -0.7950  0.3722  0.3272
 8702SOL    HW137565   0.706   0.591   1.716  1.2562 -0.7228  1.4071
 8702SOL    HW237566   0.787   0.671   1.801  0.7692  0.7516 -0.2576
 8703SOL     OW37567   0.791   2.288   9.750  0.0954 -0.7501  0.1449
 8703SOL    HW137568   0.701   2.267   9.723  0.1297 -0.9196  0.1588
 8703SOL    HW237569   0.819   2.204   9.787 -0.2266 -0.5916  0.7496
 8704SOL     OW37570   0.463   0.760  17.141  0.1465 -0.8917 -0.0135
 8704SOL    HW137571   0.527   0.807  17.195 -0.2092 -0.0163 -0.3421
 8704SOL    HW237572   0.389   0.739  17.198  0.7263 -0.7868  0.7803
 8705SOL     OW37573   4.419   2.047   1.830  0.1440 -0.4238 -0.1700
 8705SOL    HW137574   4.464   1.967   1.859  2.9778  1.2588  0.0283
 8705SOL    HW237575   4.437   2.106   1.903 -2.3101  2.4492 -1.9110
 8706SOL     OW37576   3.386   3.274  14.580 -0.2339  0.4360 -0.0789
 8706SOL    HW137577   3.475   3.241  14.567 -0.3331 -0.6651  2.1325
 8706SOL    HW237578   3.400   3.367  14.563  0.6433  0.7233  2.1841
 8707SOL     OW37579   0.711   1.108  16.249  0.0600 -0.5404  0.0191
 8707SOL    HW137580   0.801   1.098  16.280  0.0697  0.7752  0.4134
 8707SOL    HW237581   0.664   1.114  16.332 -0.6379  3.0827 -0.6188
 8708SOL     OW37582   2.359   2.978   5.692 -0.1000 -0.1055 -0.1278
 8708SOL    HW137583   2.275   2.998   5.651 -1.4683 -0.8127  2.3171
 8708SOL    HW237584   2.343   2.887   5.717  0.0113 -0.3011 -0.7674
 8709SOL     OW37585   4.300   0.889   3.952  0.3855 -0.1789  0.3446
 8709SOL    HW137586   4.205   0.898   3.955  0.5052  1.6160 -1.4287
 8709SOL    HW237587   4.316   0.812   3.897 -5.0252 -1.1038  0.1365
 8710SOL     OW37588   3.547   0.003   1.397 -0.2147 -0.0996  0.1615
 8710SOL    HW137589   3.459   4.700   1.367  0.0564 -1.5329  0.5162
 8710SOL    HW237590   3.585   0.063   1.333 -2.2149  1.5957  0.5507
 8711SOL     OW37591   0.771   3.697   9.271 -0.2013  0.3678  0.2972
 8711SOL    HW137592   0.765   3.655   9.185 -2.0141  0.1313  0.5557
 8711SOL    HW237593   0.862   3.726   9.271  0.0017 -0.2420 -0.7180
 8712SOL     OW37594   3.734   1.328   7.607 -0.1003  0.4629 -0.5539
 8712SOL    HW137595   3.751   1.400   7.668  1.8347  0.0181 -0.5538
 8712SOL    HW237596   3.687   1.372   7.537 -1.2399 -1.3714 -0.9517
 8713SOL     OW37597   4.666   0.213  16.552  0.9190 -0.1464 -0.5539
 8713SOL    HW137598   0.032   0.188  16.520  1.2851 -1.5463  1.4935
 8713SOL    HW237599   4.630   0.272  16.486 -0.9706 -1.0026 -0.2970
 8714SOL     OW37600   3.607   0.239   2.618 -0.1632 -0.3197 -0.3265
 8714SOL    HW137601   3.663   0.259   2.543 -0.6998  1.3715 -0.2711
 8714SOL    HW237602   3.563   0.322   2.636 -1.4836 -1.4913  1.8180
 8715SOL     OW37603   1.561   1.548   7.522 -0.0863 -0.3013 -0.5095
 8715SOL    HW137604   1.559   1.501   7.605 -1.5904 -0.7449 -0.8026
 8715SOL    HW237605   1.471   1.543   7.489  0.0044 -2.7553 -0.3997
 8716SOL     OW37606   3.689   0.133   3.699  0.2306 -0.2400  0.2201
 8716SOL    HW137607   3.755   0.134   3.768 -2.5534 -0.5183  2.8824
 8716SOL    HW237608   3.715   0.215   3.657  1.9218 -0.0656  1.6276
 8717SOL     OW37609   1.628   2.942   2.221 -0.3342  0.2177 -0.3625
 8717SOL    HW137610   1.691   2.981   2.281  2.5452  0.7281 -3.6711
 8717SOL    HW237611   1.590   2.861   2.257  0.3260  1.4487  3.0545
 8718SOL     OW37612   0.836   1.030   6.060  0.0858 -0.5304 -0.3040
 8718SOL    HW137613   0.774   1.052   5.991  1.2703  1.2680 -0.7933
 8718SOL    HW237614   0.795   0.952   6.098 -0.1630 -0.0007  0.5118
 8719SOL     OW37615   0.131   0.901  11.294  0.5811  0.0018 -0.3025
 8719SOL    HW137616   0.119   0.923  11.201 -1.3702 -1.4923 -0.4153
 8719SOL    HW237617   0.082   0.819  11.288 -0.0345  0.3190  0.3539
 8720SOL     OW37618   3.068   0.615   3.729 -0.2042  0.2804  0.1566
 8720SOL    HW137619   3.011   0.664   3.670  1.7736  1.3636 -0.8298
 8720SOL    HW237620   3.016   0.555   3.784 -1.4359  1.8157  0.6838
 8721SOL     OW37621   1.979   4.716   3.837  0.1660 -0.7247  0.1238
 8721SOL    HW137622   1.897   4.688   3.876 -0.3863  0.6293 -0.0426
 8721SOL    HW237623   2.016   4.631   3.813  1.7891 -0.2043  0.7505
 8722SOL     OW37624   2.678   2.841   0.415 -0.3475 -0.2259  0.0457
 8722SOL    HW137625   2.759   2.791   0.421 -0.0078  0.1237 -1.9742
 8722SOL    HW237626   2.616   2.771   0.437 -1.8393  0.6782 -1.3503
 8723SOL     OW37627   3.483   4.029   4.381  0.2760  0.5976  0.4084
 8723SOL    HW137628   3.483   3.934   4.374 -0.3593  0.6458 -0.2801
 8723SOL    HW237629   3.517   4.044   4.469 -0.8778 -0.4247  1.0245
 8724SOL     OW37630   0.702   1.946   5.737 -0.4668 -0.2695  0.1864
 8724SOL    HW137631   0.784   1.957   5.689 -0.6760 -0.5641 -0.2460
 8724SOL    HW237632   0.721   1.862   5.779  2.0585 -0.7844 -2.0168
 8725SOL     OW37633   2.366   3.969   4.972  0.4278 -0.1861  0.1097
 8725SOL    HW137634   2.394   4.039   5.031  2.5124  0.4918 -1.6730
 8725SOL    HW237635   2.271   3.976   4.977  0.4819  1.1337 -0.5513
 8726SOL     OW37636   3.174   2.658   4.845  0.1336 -0.3597  0.0236
 8726SOL    HW137637   3.094   2.709   4.840 -0.0330 -0.5472  0.7263
 8726SOL    HW237638   3.177   2.619   4.933 -0.0071 -1.4971 -0.4822
 8727SOL     OW37639   1.920   2.758   6.969 -0.5851  0.3215  0.4010
 8727SOL    HW137640   1.942   2.706   7.046  0.2341  2.1200  1.3658
 8727SOL    HW237641   1.944   2.692   6.904 -1.4557 -0.3250  0.7323
 8728SOL     OW37642   1.166   0.637   0.047  0.5766  0.4288 -0.3632
 8728SOL    HW137643   1.183   0.563   0.105  0.2335 -1.5782 -2.8324
 8728SOL    HW237644   1.129   0.700   0.109 -1.1945 -1.6171  0.6472
 8729SOL     OW37645   4.705   0.998   7.440 -0.0136 -0.1514  0.0002
 8729SOL    HW137646   4.658   0.997   7.356 -3.0967 -1.1814  1.7470
 8729SOL    HW237647   0.019   1.086   7.435 -0.5768  0.1477  1.3632
 8730SOL     OW37648   1.588   0.370   5.606 -0.3932  0.7434 -0.0227
 8730SOL    HW137649   1.622   0.352   5.518 -0.4420 -2.4620  0.6068
 8730SOL    HW237650   1.616   0.460   5.623 -0.4980  0.5620  1.0628
 8731SOL     OW37651   2.601   1.260   3.322  0.3521 -0.0938  0.4118
 8731SOL    HW137652   2.526   1.313   3.295  1.2748 -0.1648 -2.2971
 8731SOL    HW237653   2.669   1.290   3.261  0.8792 -0.5220  0.7803
 8732SOL     OW37654   2.713   1.574  14.557 -0.3358 -0.5593 -0.2073
 8732SOL    HW137655   2.694   1.660  14.595  2.7282  0.4002 -0.7874
 8732SOL    HW237656   2.643   1.530  14.605 -0.4930 -1.5406 -1.3461
 8733SOL     OW37657   0.551   1.904   8.266 -0.2242 -0.0785 -0.5141
 8733SOL    HW137658   0.551   1.847   8.342  0.6978 -0.7965 -1.0507
 8733SOL    HW237659   0.646   1.916   8.275 -0.2839  0.5187 -0.6309
 8734SOL     OW37660   3.522   1.649  15.470 -0.2077 -0.3131  0.7510
 8734SOL    HW137661   3.576   1.589  15.522  3.0483  2.0829  0.1622
 8734SOL    HW237662   3.573   1.668  15.391  0.7908 -1.2673  1.1695
 8735SOL     OW37663   3.415   2.588   7.987 -0.1393 -0.3347 -0.0533
 8735SOL    HW137664   3.340   2.531   7.969 -2.3028  1.8382  1.9623
 8735SOL    HW237665   3.480   2.551   7.927  0.3289 -2.1178  1.5457
 8736SOL     OW37666   2.910   2.400  15.381  0.1538 -0.4668 -0.0500
 8736SOL    HW137667   2.878   2.322  15.428 -1.1142 -0.0908 -0.3025
 8736SOL    HW237668   2.902   2.467  15.449 -0.2149 -1.5850  1.0139
 8737SOL     OW37669   2.823   2.561   3.819 -0.8487 -0.3566  0.3278
 8737SOL    HW137670   2.828   2.628   3.887  1.0748 -1.6022  1.4047
 8737SOL    HW237671   2.819   2.484   3.875 -0.2302  0.7951  1.9465
 8738SOL     OW37672   4.512   2.650   3.119  0.4939 -0.2705 -0.3014
 8738SOL    HW137673   4.437   2.599   3.151 -0.7076  2.6847  1.5594
 8738SOL    HW237674   4.525   2.615   3.031 -2.3567  2.0267 -1.6525
 8739SOL     OW37675   2.141   3.483   7.180  0.0403  0.8126  0.6195
 8739SOL    HW137676   2.139   3.457   7.088  1.3339  1.6571  0.3557
 8739SOL    HW237677   2.216   3.543   7.177  1.8984 -1.7057 -2.0885
 8740SOL     OW37678   0.730   2.790   8.620  0.2520  0.2527  0.5754
 8740SOL    HW137679   0.673   2.774   8.545  0.7446  0.3844  0.1699
 8740SOL    HW237680   0.749   2.881   8.600 -1.0974  0.7024  1.3416
 8741SOL     OW37681   4.673   0.096  12.658  0.5124  0.1706  0.4287
 8741SOL    HW137682   4.716   0.155  12.595  0.2993 -0.1482 -0.0142
 8741SOL    HW237683   0.031   0.060  12.698  0.8783 -0.1436 -0.5647
 8742SOL     OW37684   3.891   3.743   6.835 -0.6432 -0.0455  0.6959
 8742SOL    HW137685   3.803   3.779   6.846 -0.5141  0.4380  0.1403
 8742SOL    HW237686   3.927   3.770   6.919 -0.4241 -0.6621  0.8034
 8743SOL     OW37687   0.828   0.092  10.409  0.2666  0.4263  0.6805
 8743SOL    HW137688   0.862   0.003  10.393  1.1750  0.9843 -0.5080
 8743SOL    HW237689   0.894   0.146  10.365  0.1408 -1.2623 -1.5760
 8744SOL     OW37690   0.185   2.024   6.312 -0.0097 -0.2198 -0.8010
 8744SOL    HW137691   0.213   2.116   6.318  1.5909 -0.7502 -0.3797
 8744SOL    HW237692   0.191   2.007   6.406  0.7600  0.4814 -0.7230
 8745SOL     OW37693   1.443   2.352   2.717 -0.2658  0.1176 -0.2526
 8745SOL    HW137694   1.409   2.263   2.701  0.5970 -0.8757  3.5352
 8745SOL    HW237695   1.505   2.340   2.789  0.7331  0.5399 -1.0371
 8746SOL     OW37696   4.358   4.634  15.345 -0.4293 -0.5930  0.4208
 8746SOL    HW137697   4.282   4.690  15.353  2.0685  2.7712  0.4639
 8746SOL    HW237698   4.412   4.687  15.287 -1.9342 -0.7223 -1.0924
 8747SOL     OW37699   0.194   1.316  16.177  0.3478 -0.4661  0.2892
 8747SOL    HW137700   0.182   1.366  16.258 -0.8234 -1.5187  0.7534
 8747SOL    HW237701   0.260   1.249  16.193  0.5145  0.1300  2.0590
 8748SOL     OW37702   3.474   0.982  15.052 -0.1418  0.8637  0.3959
 8748SOL    HW137703   3.561   0.949  15.030 -0.4091 -0.1875  0.9041
 8748SOL    HW237704   3.469   1.000  15.146  1.2234  1.7205  0.2994
 8749SOL     OW37705   4.377   3.253   3.649 -0.0770 -0.3679 -0.1616
 8749SOL    HW137706   4.300   3.307   3.629 -0.3298 -0.8002 -0.3607
 8749SOL    HW237707   4.447   3.312   3.620 -0.8530  0.1740 -0.9406
 8750SOL     OW37708   3.786   0.534  14.567  0.3141 -0.5090  0.1777
 8750SOL    HW137709   3.727   0.459  14.574  0.8352 -1.0722 -1.6884
 8750SOL    HW237710   3.816   0.529  14.476 -1.7105  0.4335 -0.5471
 8751SOL     OW37711   3.746   1.970   8.168 -0.6076 -0.0369 -0.1470
 8751SOL    HW137712   3.731   2.061   8.143  0.2186 -0.1619 -1.0950
 8751SOL    HW237713   3.787   1.942   8.086  0.7973  2.0222 -0.1532
 8752SOL     OW37714   1.750   0.218   1.405  0.1175 -0.3908  0.1024
 8752SOL    HW137715   1.717   0.165   1.333  1.8269 -0.2733 -0.7657
 8752SOL    HW237716   1.665   0.250   1.433 -0.3876 -0.2261 -1.6187
 8753SOL     OW37717   1.773   3.798   7.034  0.9485  0.2828 -0.3590
 8753SOL    HW137718   1.778   3.745   7.113 -0.1861  1.1026  0.2602
 8753SOL    HW237719   1.746   3.735   6.967  0.4835  1.2252 -1.0588
 8754SOL     OW37720   0.095   3.374   2.037 -0.0532  0.6581  0.1597
 8754SOL    HW137721   0.176   3.397   2.083  0.7029 -1.9986  0.1354
 8754SOL    HW237722   0.037   3.446   2.065  1.7123  1.3745  2.0039
 8755SOL     OW37723   2.987   0.625  17.306  0.0915 -0.3513 -0.3526
 8755SOL    HW137724   3.002   0.707  17.353  0.4281 -2.0300  2.3857
 8755SOL    HW237725   3.020   0.645  17.218  0.1049  0.9947 -0.0386
 8756SOL     OW37726   3.954   0.662   3.908 -0.0079  0.0333  0.5944
 8756SOL    HW137727   3.947   0.663   4.003 -1.2511 -0.7878  0.5094
 8756SOL    HW237728   3.975   0.755   3.904  0.1193 -0.0756 -1.8352
 8757SOL     OW37729   1.077   2.182   2.164  0.2783  0.2540  0.2209
 8757SOL    HW137730   1.128   2.241   2.220  1.4580  0.9410 -1.5711
 8757SOL    HW237731   1.101   2.096   2.199 -0.4824 -0.6890 -1.6207
 8758SOL     OW37732   1.504   1.109   9.893  0.0586  0.1230 -0.8020
 8758SOL    HW137733   1.534   1.072   9.810 -0.4809  2.0177 -1.8467
 8758SOL    HW237734   1.486   1.202   9.880  0.1210  0.3344  0.5719
 8759SOL     OW37735   1.160   3.668   1.164  0.0129 -0.0256 -0.1776
 8759SOL    HW137736   1.110   3.687   1.244  2.1077 -1.1377  1.3816
 8759SOL    HW237737   1.220   3.597   1.186  1.1155  1.1867  0.7315
 8760SOL     OW37738   4.626   4.097   5.405  0.1684 -0.4980 -0.3129
 8760SOL    HW137739   4.543   4.121   5.365  0.1781  0.9797  0.5524
 8760SOL    HW237740   4.612   4.012   5.447  1.0376 -0.2189  0.5577
 8761SOL     OW37741   0.010   2.393  17.260  0.4518  0.2787  0.3744
 8761SOL    HW137742   4.665   2.346  17.311  1.6488 -1.8596 -0.0519
 8761SOL    HW237743   0.021   2.463  17.325  2.2597 -0.2774  0.6698
 8762SOL     OW37744   2.576   0.959   1.138  0.2887  0.2772  0.0161
 8762SOL    HW137745   2.497   0.908   1.117 -0.2657  1.5285 -0.8965
 8762SOL    HW237746   2.646   0.904   1.102  0.1190  1.5364 -2.2547
 8763SOL     OW37747   0.001   2.913  11.956  0.0624 -0.2379  0.5883
 8763SOL    HW137748   4.678   2.900  12.040 -0.7213  3.8861  0.8124
 8763SOL    HW237749   0.009   2.821  11.933 -1.9282 -0.3085  0.1806
 8764SOL     OW37750   0.283   3.197   7.690  0.1231  0.5975  0.7619
 8764SOL    HW137751   0.238   3.251   7.754 -1.7639 -1.5924  1.2790
 8764SOL    HW237752   0.221   3.200   7.616  0.2563  0.1106  0.6315
 8765SOL     OW37753   1.652   3.510   2.971 -0.7756 -0.1396  0.0836
 8765SOL    HW137754   1.666   3.567   2.895 -2.0343 -0.0808 -0.1003
 8765SOL    HW237755   1.591   3.563   3.022  0.9893  2.1374 -0.1797
 8766SOL     OW37756   2.093   3.940   1.829  0.0791  0.0515  0.6413
 8766SOL    HW137757   2.150   3.879   1.877  0.9906  0.6828  0.3405
 8766SOL    HW237758   2.044   3.876   1.778 -1.4157  1.0304  0.8429
 8767SOL     OW37759   1.286   0.514   0.298  0.1636  0.6513 -0.2101
 8767SOL    HW137760   1.287   0.503   0.393 -0.4752 -0.0519 -0.2898
 8767SOL    HW237761   1.309   0.607   0.289  2.0412  0.3486  1.3320
 8768SOL     OW37762   3.279   0.873   6.820  0.3335  0.1636 -0.0572
 8768SOL    HW137763   3.316   0.798   6.866  3.4184  1.4534 -0.4523
 8768SOL    HW237764   3.199   0.890   6.869  0.9581  1.6658  0.4306
 8769SOL     OW37765   2.705   4.135   7.312 -0.1094 -0.1053  0.7220
 8769SOL    HW137766   2.620   4.126   7.356 -1.2774  0.1924 -1.4489
 8769SOL    HW237767   2.714   4.053   7.263  1.3179  0.0339  0.7531
 8770SOL     OW37768   0.679   2.701   5.313 -0.6310  0.3090  0.4557
 8770SOL    HW137769   0.672   2.796   5.328 -0.3896  0.1155  1.7947
 8770SOL    HW237770   0.642   2.708   5.225  0.1874 -0.1339  0.0739
 8771SOL     OW37771   1.186   0.578   4.691 -0.3704  0.3568  0.0305
 8771SOL    HW137772   1.171   0.638   4.764 -1.2028 -0.3478  0.4488
 8771SOL    HW237773   1.109   0.594   4.637  0.5520  1.8552 -0.8260
 8772SOL     OW37774   0.242   1.375   8.359 -0.5618  0.0427 -0.3147
 8772SOL    HW137775   0.239   1.415   8.446  2.0505 -1.1768  0.3091
 8772SOL    HW237776   0.180   1.429   8.310 -0.4726  0.1886 -0.2655
 8773SOL     OW37777   0.766   3.936   6.724  0.4347  0.3224  0.0449
 8773SOL    HW137778   0.841   3.885   6.754  0.5218  0.2592 -0.2820
 8773SOL    HW237779   0.750   3.996   6.797  2.5857  0.4585  0.4034
 8774SOL     OW37780   2.791   1.021   6.507  0.1653  0.6047 -0.2754
 8774SOL    HW137781   2.883   1.047   6.510  0.2274  0.6299 -1.9190
 8774SOL    HW237782   2.772   1.019   6.600 -3.3320 -0.3815 -1.0041
 8775SOL     OW37783   2.115   3.496   1.986 -0.2230 -0.4132 -0.4115
 8775SOL    HW137784   2.191   3.460   2.032 -1.9907 -3.9036 -0.1928
 8775SOL    HW237785   2.135   3.589   1.971  1.2701 -0.4431  1.4095
 8776SOL     OW37786   1.317   0.957   5.410 -0.2463 -0.0931  0.1047
 8776SOL    HW137787   1.224   0.937   5.402 -0.1055  0.5330 -2.9020
 8776SOL    HW237788   1.312   1.045   5.449 -2.1702 -0.4209  0.5939
 8777SOL     OW37789   2.365   1.080  10.705  0.3982  0.0171  0.3053
 8777SOL    HW137790   2.352   1.144  10.635 -0.0057 -0.2687  0.1188
 8777SOL    HW237791   2.304   1.010  10.680 -0.4881  0.1438  2.0757
 8778SOL     OW37792   3.963   2.773   7.236 -0.0934 -0.2517  0.0155
 8778SOL    HW137793   3.913   2.781   7.317 -1.1455 -0.9465 -0.5767
 8778SOL    HW237794   3.906   2.820   7.175  0.1774  0.4610  0.3135
 8779SOL     OW37795   4.546   2.620   3.897  0.1700  0.4178 -0.0543
 8779SOL    HW137796   4.503   2.612   3.812  1.0172  1.5286 -0.5930
 8779SOL    HW237797   4.534   2.528   3.918 -2.9825  1.0470  0.8760
 8780SOL     OW37798   1.086   0.313   4.761  0.2741  0.0003 -1.1180
 8780SOL    HW137799   1.006   0.360   4.783  0.3664  0.2940 -1.4114
 8780SOL    HW237800   1.139   0.386   4.729 -2.1511  2.0667 -0.4170
 8781SOL     OW37801   0.581   0.571   6.047  1.0050 -0.6125  0.3165
 8781SOL    HW137802   0.665   0.531   6.028  0.4819 -0.2882 -2.6629
 8781SOL    HW237803   0.609   0.662   6.044  0.3667 -0.3769  1.6547
 8782SOL     OW37804   4.542   2.507   2.894 -0.1861  0.0443  0.3240
 8782SOL    HW137805   4.600   2.502   2.818  0.7229 -0.4492  1.0382
 8782SOL    HW237806   4.472   2.454   2.855  0.8792 -2.0853  1.2542
 8783SOL     OW37807   2.882   0.025  14.364  0.1685  0.7321  0.6215
 8783SOL    HW137808   2.935   4.681  14.316  1.0644  0.6048  1.7990
 8783SOL    HW237809   2.793   0.008  14.331  0.5506 -2.1789  1.0979
 8784SOL     OW37810   3.741   3.014   6.624 -0.0062 -0.7107  0.0433
 8784SOL    HW137811   3.705   3.088   6.574 -0.9950  0.0125  1.8207
 8784SOL    HW237812   3.834   3.013   6.602  0.0097 -0.3779  0.0873
 8785SOL     OW37813   3.535   2.360   6.677  0.1914 -0.0641 -0.0435
 8785SOL    HW137814   3.476   2.403   6.616 -1.1220  0.3389  1.5094
 8785SOL    HW237815   3.545   2.422   6.749  0.7690  0.9228 -0.9716
 8786SOL     OW37816   1.388   1.495   5.942 -0.4658  0.3855 -0.2681
 8786SOL    HW137817   1.466   1.526   5.896  0.0782  0.5116  0.7356
 8786SOL    HW237818   1.400   1.400   5.938  2.2520  0.5863  2.8651
 8787SOL     OW37819   3.081   4.372   6.215  0.0088 -0.7817 -0.4029
 8787SOL    HW137820   3.065   4.362   6.309  0.0214  0.3525 -0.2754
 8787SOL    HW237821   3.155   4.312   6.206 -0.7750 -2.0522  1.6780
 8788SOL     OW37822   4.203   3.580   9.188  0.0471 -0.6686  0.0752
 8788SOL    HW137823   4.277   3.546   9.238  0.5972  3.2634  1.9275
 8788SOL    HW237824   4.200   3.520   9.113  0.0980 -2.9044  1.8603
 8789SOL     OW37825   3.322   0.116  10.729 -0.3454  0.1243 -0.5297
 8789SOL    HW137826   3.305   0.114  10.824 -0.9822  0.4059 -0.6385
 8789SOL    HW237827   3.314   0.025  10.702 -1.0131  0.1068 -0.2919
 8790SOL     OW37828   3.916   4.698   2.148  0.4173  0.3094 -0.5320
 8790SOL    HW137829   3.964   4.617   2.134 -0.6463  0.2391 -3.6868
 8790SOL    HW237830   3.859   4.700   2.072  0.9256  0.8026 -0.9003
 8791SOL     OW37831   0.497   3.049   5.624  0.2894 -0.9382 -0.1642
 8791SOL    HW137832   0.518   3.142   5.633 -0.9181 -0.6675 -0.1052
 8791SOL    HW237833   0.498   3.020   5.715 -0.9186 -0.3404  0.0409
 8792SOL     OW37834   3.156   3.403   3.533  0.1743 -0.3853 -0.5016
 8792SOL    HW137835   3.105   3.362   3.603  4.2034 -0.9816  2.0481
 8792SOL    HW237836   3.100   3.410   3.455  1.1029 -3.1308 -1.4152
 8793SOL     OW37837   2.078   1.567   7.996  0.2772  0.8323  0.1704
 8793SOL    HW137838   2.148   1.617   8.037  0.0314  0.7914  0.6456
 8793SOL    HW237839   2.093   1.482   8.037 -1.2003 -0.2440 -1.5509
 8794SOL     OW37840   0.383   2.614   9.079 -0.7123  0.7016 -0.0217
 8794SOL    HW137841   0.447   2.564   9.029  0.3264  0.9391  1.0538
 8794SOL    HW237842   0.397   2.702   9.043 -2.3465  1.3182  0.8603
 8795SOL     OW37843   3.259   3.495   2.700  0.0294 -0.7072  0.1313
 8795SOL    HW137844   3.294   3.410   2.673  0.3413 -0.5310 -0.0208
 8795SOL    HW237845   3.328   3.543   2.746  1.9143 -0.4074 -3.0698
 8796SOL     OW37846   2.758   1.198   4.212 -0.1247 -0.1143 -0.2891
 8796SOL    HW137847   2.676   1.168   4.171 -0.2410 -0.8252  0.4670
 8796SOL    HW237848   2.824   1.132   4.190  0.6463  0.8433 -0.8518
 8797SOL     OW37849   2.765   4.517   2.286 -0.5250 -0.0733 -0.2070
 8797SOL    HW137850   2.729   4.592   2.239  1.4918  0.1585 -1.3852
 8797SOL    HW237851   2.834   4.491   2.226 -1.1158  0.0410 -0.9349
 8798SOL     OW37852   3.926   2.742   6.453  0.0704  0.1987  0.1467
 8798SOL    HW137853   3.940   2.687   6.376 -0.7747 -0.5917  0.5508
 8798SOL    HW237854   3.989   2.812   6.438  0.8716 -0.8144 -1.1882
 8799SOL     OW37855   4.211   0.663  11.759 -0.2773  0.3816 -0.2387
 8799SOL    HW137856   4.284   0.614  11.794  0.8121  0.6495 -2.1203
 8799SOL    HW237857   4.139   0.616  11.801  1.6760 -0.0079  2.5905
 8800SOL     OW37858   2.881   1.333  10.998 -0.4313  0.0599  0.0236
 8800SOL    HW137859   2.954   1.374  10.951  1.0306 -0.5666  1.7162
 8800SOL    HW237860   2.878   1.375  11.084  1.8874  0.2932  0.0066
 8801SOL     OW37861   2.092   2.420   5.548  0.5760 -0.6505 -0.3483
 8801SOL    HW137862   2.052   2.333   5.550 -1.6727  0.3556 -1.6478
 8801SOL    HW237863   2.023   2.469   5.592  1.6069  0.2781  0.2245
 8802SOL     OW37864   1.013   4.176   1.552 -0.1801 -0.4004 -0.5274
 8802SOL    HW137865   0.942   4.215   1.604  1.2512 -0.0533  1.1476
 8802SOL    HW237866   1.091   4.196   1.603  0.1132 -1.0787 -0.7076
 8803SOL     OW37867   0.926   1.994   3.808  0.4365 -0.1697  0.4352
 8803SOL    HW137868   0.986   2.049   3.858  1.1096  0.5184 -1.1517
 8803SOL    HW237869   0.903   2.052   3.736 -2.8450 -0.1507  1.4665
 8804SOL     OW37870   1.759   2.790   5.855  0.2715  0.7336 -0.7461
 8804SOL    HW137871   1.838   2.845   5.849  1.7392 -1.0934  1.6787
 8804SOL    HW237872   1.714   2.810   5.774 -0.4807 -0.2275 -0.5731
 8805SOL     OW37873   1.376   1.239   6.992 -0.2205 -0.2028  0.2838
 8805SOL    HW137874   1.314   1.178   7.031  0.8414 -0.2328  1.9173
 8805SOL    HW237875   1.310   1.306   6.970  0.3994 -0.9813 -3.9513
 8806SOL     OW37876   1.708   3.620   8.253  0.0518  0.4687 -0.0897
 8806SOL    HW137877   1.689   3.670   8.332  0.2848 -0.6909  0.6992
 8806SOL    HW237878   1.784   3.567   8.277 -0.9352 -0.5393  0.8161
 8807SOL     OW37879   0.857   0.007   5.614 -0.5503 -0.2678 -0.0914
 8807SOL    HW137880   0.893   4.698   5.698  0.9651 -2.9373 -1.6961
 8807SOL    HW237881   0.779   4.674   5.622 -1.4772  1.0072 -0.6586
 8808SOL     OW37882   1.076   4.456   9.012  0.0766  0.1810 -0.1947
 8808SOL    HW137883   1.123   4.433   9.092 -0.6980  0.3541  0.3073
 8808SOL    HW237884   1.092   4.376   8.960 -3.3955 -0.2863 -0.5369
 8809SOL     OW37885   0.000   0.471   4.297  0.0625 -0.2383 -0.1303
 8809SOL    HW137886   4.673   0.402   4.341  0.8490  0.6221  2.0749
 8809SOL    HW237887   0.051   0.411   4.243  1.0991 -0.5648  1.2175
 8810SOL     OW37888   0.550   1.348   7.981  0.1160  0.8232 -0.4195
 8810SOL    HW137889   0.553   1.387   8.068 -0.4965  0.4519 -0.2252
 8810SOL    HW237890   0.580   1.421   7.927  0.4313  1.1691  0.2265
 8811SOL     OW37891   2.807   2.638  10.476 -0.4190  0.2566 -0.2886
 8811SOL    HW137892   2.817   2.627  10.571  1.4706  1.0787 -0.3728
 8811SOL    HW237893   2.770   2.552  10.458 -1.8732  0.8854 -0.2949
 8812SOL     OW37894   4.101   2.631   8.563 -0.4617 -0.1599 -0.3516
 8812SOL    HW137895   4.162   2.674   8.624  0.3030  0.1665 -1.3540
 8812SOL    HW237896   4.110   2.539   8.588 -2.3469  0.2967  1.9762
 8813SOL     OW37897   1.588   1.323   3.747  0.1920 -0.2412  0.7549
 8813SOL    HW137898   1.666   1.372   3.773 -0.4047  0.8533  0.4533
 8813SOL    HW237899   1.518   1.355   3.804  0.2318 -0.7224  1.0782
 8814SOL     OW37900   0.753   1.348  15.112  0.1220 -0.6240 -0.0816
 8814SOL    HW137901   0.838   1.347  15.069 -0.5141 -1.4557 -1.3282
 8814SOL    HW237902   0.735   1.442  15.108 -2.5757 -1.1568 -1.0347
 8815SOL     OW37903   2.229   4.015   6.338  0.3194  0.2450 -0.0699
 8815SOL    HW137904   2.247   3.989   6.428  0.9320  0.4228 -0.1420
 8815SOL    HW237905   2.145   4.056   6.355 -0.1934 -0.9906  0.4239
 8816SOL     OW37906   3.613   1.687   7.519 -0.1650 -0.5036  0.0297
 8816SOL    HW137907   3.657   1.652   7.596 -2.4314 -0.6381  1.2546
 8816SOL    HW237908   3.575   1.607   7.482  2.0980 -0.5043 -2.3104
 8817SOL     OW37909   0.669   3.989   9.894  0.6895 -0.7657  0.0016
 8817SOL    HW137910   0.683   4.079   9.866 -1.8009  0.1701  1.8198
 8817SOL    HW237911   0.720   3.985   9.975  0.1478  0.0776  0.3847
 8818SOL     OW37912   2.539   3.179   2.175 -0.0698 -0.5406 -0.4131
 8818SOL    HW137913   2.462   3.220   2.135  1.0547  2.0018 -0.0167
 8818SOL    HW237914   2.564   3.116   2.108  0.0136  0.1845 -1.0673
 8819SOL     OW37915   3.182   0.966   5.620  0.3687  0.5327 -0.3900
 8819SOL    HW137916   3.245   1.016   5.569  2.8742 -1.3799  0.8206
 8819SOL    HW237917   3.142   0.915   5.550  1.5907 -0.6375 -0.2301
 8820SOL     OW37918   2.093   0.041  12.703  0.2928 -0.3765 -0.0268
 8820SOL    HW137919   2.059   0.131  12.699  0.9628 -0.2452 -2.4950
 8820SOL    HW237920   2.042   4.717  12.636  0.3985 -0.2815 -0.1722
 8821SOL     OW37921   1.305   3.874  14.888  0.1131  0.1116 -0.1068
 8821SOL    HW137922   1.379   3.928  14.918 -0.1344 -0.0457  0.7902
 8821SOL    HW237923   1.237   3.941  14.899 -0.9819 -1.2240  1.1878
 8822SOL     OW37924   2.871   1.929   3.763 -0.4003 -0.8195  0.1030
 8822SOL    HW137925   2.810   1.939   3.691  1.6952  0.1553 -1.5509
 8822SOL    HW237926   2.942   1.882   3.719  0.3898  0.0865  0.4093
 8823SOL     OW37927   2.940   1.462  11.252  0.1074  0.4098  0.1240
 8823SOL    HW137928   3.033   1.445  11.244 -0.0099 -1.0962  2.0290
 8823SOL    HW237929   2.931   1.502  11.339  0.2991  0.1284  0.2724
 8824SOL     OW37930   1.636   2.703   6.923 -0.4061  0.3449 -0.2782
 8824SOL    HW137931   1.731   2.714   6.931 -0.3588 -0.0330 -0.3018
 8824SOL    HW237932   1.609   2.699   7.015  0.3091  1.4091 -0.0124
 8825SOL     OW37933   4.294   1.718   6.333 -0.1495  0.1557  0.2729
 8825SOL    HW137934   4.204   1.705   6.302  0.2551 -2.5684  0.2983
 8825SOL    HW237935   4.276   1.761   6.417  1.4190  0.2043  0.5697
 8826SOL     OW37936   3.476   3.353  11.624 -0.1586 -0.3666 -0.0234
 8826SOL    HW137937   3.494   3.262  11.648  0.2052  0.0240  1.2095
 8826SOL    HW237938   3.516   3.350  11.537 -1.3028  0.0003 -0.5630
 8827SOL     OW37939   4.003   3.539  11.950  0.3381 -0.9823 -0.4219
 8827SOL    HW137940   3.909   3.548  11.936 -0.0967 -1.7791  1.9795
 8827SOL    HW237941   3.995   3.541  12.045 -1.3705 -0.7880 -0.5750
 8828SOL     OW37942   3.659   2.191   7.844  0.0430 -0.4263 -0.6445
 8828SOL    HW137943   3.650   2.096   7.840 -0.6376 -0.3485 -0.9233
 8828SOL    HW237944   3.732   2.201   7.782  0.9393 -0.4717  0.4089
 8829SOL     OW37945   1.861   3.558  16.180 -0.1313 -0.2150 -0.1395
 8829SOL    HW137946   1.893   3.471  16.202  1.1664  0.5997  1.2551
 8829SOL    HW237947   1.943   3.604  16.201 -0.6338  0.4919  0.2488
 8830SOL     OW37948   3.069   2.284   6.557 -0.2517  0.3446  0.5538
 8830SOL    HW137949   3.063   2.247   6.646 -3.2864  1.0847  0.6424
 8830SOL    HW237950   2.996   2.239   6.514 -1.0575  1.4013  0.8190
 8831SOL     OW37951   1.050   3.716   7.751  0.2970 -0.6143  0.1294
 8831SOL    HW137952   1.134   3.707   7.795  0.3365 -1.5257 -0.1346
 8831SOL    HW237953   1.010   3.630   7.764 -0.2164 -0.0796  1.9909
 8832SOL     OW37954   1.978   4.323   5.101  0.2279  0.0621  0.1244
 8832SOL    HW137955   1.938   4.368   5.176 -0.4668 -0.0703 -0.1602
 8832SOL    HW237956   1.918   4.251   5.079  1.0339 -0.6071  0.0915
 8833SOL     OW37957   3.437   3.201   1.415 -0.2452 -0.4486 -0.0201
 8833SOL    HW137958   3.438   3.150   1.334 -2.4324  0.2152 -0.4446
 8833SOL    HW237959   3.358   3.253   1.399  1.3810  1.4693 -1.8849
 8834SOL     OW37960   2.576   0.069   6.628 -0.2286  0.3500  0.1488
 8834SOL    HW137961   2.510   0.121   6.674 -0.3127  0.7934 -0.4774
 8834SOL    HW237962   2.656   0.118   6.649 -0.6898  1.0927  0.1772
 8835SOL     OW37963   0.947   3.837  10.637  0.4448 -0.1963  0.4571
 8835SOL    HW137964   0.872   3.791  10.675  0.8764 -1.9029 -0.7399
 8835SOL    HW237965   0.936   3.927  10.668  0.7085  0.9484 -2.7026
 8836SOL     OW37966   4.229   2.793   7.457  0.5322  0.0998 -0.0726
 8836SOL    HW137967   4.306   2.797   7.401 -0.9992 -3.7477 -2.4614
 8836SOL    HW237968   4.265   2.740   7.528 -0.1945 -2.3069 -1.5159
 8837SOL     OW37969   3.965   1.785  11.400  0.1119 -0.1320  0.2983
 8837SOL    HW137970   4.004   1.727  11.466 -1.8417 -1.4086  0.3382
 8837SOL    HW237971   3.951   1.859  11.459 -0.8220 -0.9642  1.1286
 8838SOL     OW37972   4.010   1.665  14.491 -0.3627  0.4068 -0.4377
 8838SOL    HW137973   4.089   1.627  14.529  0.6367  1.3669 -1.5609
 8838SOL    HW237974   3.980   1.585  14.447 -0.7637 -0.6116  1.6425
 8839SOL     OW37975   4.158   0.653   9.938  0.5502 -0.4093 -0.5558
 8839SOL    HW137976   4.180   0.561   9.955  1.4634 -0.0434  0.2543
 8839SOL    HW237977   4.247   0.685   9.952  0.0640  0.2379  1.0370
 8840SOL     OW37978   2.892   2.556  14.098  0.5370  0.3374 -0.1125
 8840SOL    HW137979   2.945   2.636  14.098 -0.5592  1.0761  1.5550
 8840SOL    HW237980   2.856   2.575  14.011  2.6705  0.6670 -0.9203
 8841SOL     OW37981   4.023   2.274  12.149 -0.4784  0.2322 -0.3411
 8841SOL    HW137982   4.084   2.283  12.076  0.3686 -2.2081  0.0903
 8841SOL    HW237983   3.943   2.267  12.096 -0.5201 -1.1915 -0.0993
 8842SOL     OW37984   2.874   4.118   3.480 -0.3496  0.4610  0.5021
 8842SOL    HW137985   2.847   4.210   3.477 -0.9297  0.2749  0.0656
 8842SOL    HW237986   2.956   4.138   3.526 -0.9064  2.5664  0.6133
 8843SOL     OW37987   3.361   2.034   5.391 -0.2617 -0.1684  0.1794
 8843SOL    HW137988   3.280   1.984   5.381  1.0367 -2.6087  1.8326
 8843SOL    HW237989   3.366   2.060   5.483 -0.8054 -0.5984  0.3310
 8844SOL     OW37990   0.994   3.363   3.358  0.0675  0.8514  0.4594
 8844SOL    HW137991   1.057   3.374   3.429  0.3238  1.6956  0.0957
 8844SOL    HW237992   1.044   3.308   3.298  1.2879  0.4687  1.8336
 8845SOL     OW37993   4.143   0.801   5.329 -0.3029  0.0822 -0.3529
 8845SOL    HW137994   4.219   0.822   5.274 -0.0521  0.1247  0.0100
 8845SOL    HW237995   4.111   0.722   5.286  1.2970 -1.2882  0.9754
 8846SOL     OW37996   0.502   3.693   4.190 -0.0524 -0.3091 -0.1667
 8846SOL    HW137997   0.542   3.647   4.116 -0.3767 -2.1667  0.8090
 8846SOL    HW237998   0.581   3.701   4.243 -0.7845  1.0691  0.7173
 8847SOL     OW37999   0.292   2.099   3.467 -0.1172  0.4027  0.4547
 8847SOL    HW138000   0.266   2.023   3.415 -0.0466  1.2439 -0.7985
 8847SOL    HW238001   0.262   2.168   3.409  0.9982  0.7307  0.2612
 8848SOL     OW38002   0.721   4.306   7.429  0.0200 -0.6787 -0.2037
 8848SOL    HW138003   0.656   4.298   7.359 -0.5842 -1.6313  0.4640
 8848SOL    HW238004   0.658   4.326   7.498 -1.3670  1.5936 -2.1317
 8849SOL     OW38005   0.299   4.347   9.982 -0.2812 -0.4536  0.4065
 8849SOL    HW138006   0.291   4.253   9.966  1.6808 -0.5661  0.1275
 8849SOL    HW238007   0.226   4.367  10.041 -0.0501  0.6859  0.3045
 8850SOL     OW38008   3.359   3.064   1.181  0.3330 -0.4302 -0.3787
 8850SOL    HW138009   3.284   3.051   1.239 -0.5584  1.5871 -1.0750
 8850SOL    HW238010   3.318   3.120   1.115  1.0361  0.3176 -0.1934
 8851SOL     OW38011   3.631   2.144   3.902 -0.4800  0.1817  0.6730
 8851SOL    HW138012   3.686   2.101   3.837  1.7669  1.8515  1.4717
 8851SOL    HW238013   3.682   2.225   3.911  0.3659 -0.2803  0.0737
 8852SOL     OW38014   2.433   2.068  12.615  0.0986  0.2497 -0.0901
 8852SOL    HW138015   2.458   2.158  12.634 -0.1389  0.3133 -0.0839
 8852SOL    HW238016   2.440   2.087  12.521 -2.0552  2.6535  0.2239
 8853SOL     OW38017   0.080   0.860  11.654  0.0558 -0.0475 -0.1750
 8853SOL    HW138018   0.069   0.838  11.746 -2.9865  1.3762 -0.2055
 8853SOL    HW238019   0.039   0.779  11.622  0.2991 -0.5703  0.8337
 8854SOL     OW38020   2.158   0.342   2.410 -0.0802 -0.4649 -0.2260
 8854SOL    HW138021   2.190   0.254   2.427 -1.1099 -0.5069  1.4966
 8854SOL    HW238022   2.136   0.366   2.500 -2.3297 -1.0716 -0.6175
 8855SOL     OW38023   4.442   1.502   1.551 -0.4284 -0.1707 -0.5253
 8855SOL    HW138024   4.419   1.565   1.620  1.9876 -2.3181  2.2628
 8855SOL    HW238025   4.506   1.446   1.595  0.4511 -0.6818 -2.4550
 8856SOL     OW38026   1.684   3.161   7.852 -0.1963  0.2666  0.9313
 8856SOL    HW138027   1.684   3.179   7.758  0.1286  2.9597  1.4462
 8856SOL    HW238028   1.674   3.254   7.874 -0.1201  0.1055  1.6386
 8857SOL     OW38029   0.331   2.206  13.774 -0.3160 -0.0796  0.1166
 8857SOL    HW138030   0.335   2.232  13.682 -1.0833 -0.7389 -0.1028
 8857SOL    HW238031   0.374   2.122  13.763  0.3180  0.0586  1.5327
 8858SOL     OW38032   4.001   2.548   6.281 -0.1218 -0.0863  0.5181
 8858SOL    HW138033   4.076   2.573   6.227 -0.4271 -1.7225 -0.6269
 8858SOL    HW238034   4.044   2.500   6.352  1.6133  1.6017  0.6273
 8859SOL     OW38035   1.219   0.758   3.091  0.0222 -0.0530 -0.2234
 8859SOL    HW138036   1.163   0.765   3.013  0.3554  0.4730 -0.4233
 8859SOL    HW238037   1.161   0.769   3.166  2.0544  3.1141  0.9037
 8860SOL     OW38038   1.294   3.051  15.911  0.4969 -0.3955  0.4008
 8860SOL    HW138039   1.363   3.037  15.976 -0.4284  0.7362  1.6360
 8860SOL    HW238040   1.243   3.121  15.953  1.0259 -0.4754  1.1767
 8861SOL     OW38041   1.619   0.873   5.632 -0.1174  0.0170 -0.1802
 8861SOL    HW138042   1.708   0.862   5.598  0.2782 -0.6936  1.1294
 8861SOL    HW238043   1.641   0.867   5.724 -1.3189 -1.4716  0.0085
 8862SOL     OW38044   2.879   2.423   4.061 -0.0635 -0.2793 -0.3309
 8862SOL    HW138045   2.955   2.474   4.088  0.2717 -1.0636  0.1876
 8862SOL    HW238046   2.912   2.346   4.015 -0.8108 -0.0576 -1.2328
 8863SOL     OW38047   1.273   1.598   0.874 -0.1689 -0.3351  0.2181
 8863SOL    HW138048   1.271   1.627   0.783  3.9442  0.6246  0.4186
 8863SOL    HW238049   1.185   1.618   0.904  1.6224  1.5486  4.3507
 8864SOL     OW38050   3.749   2.317   5.606  0.4353 -0.0241 -0.4576
 8864SOL    HW138051   3.776   2.300   5.696 -1.7166  0.6092  0.3346
 8864SOL    HW238052   3.698   2.399   5.605 -2.9183 -2.0845 -0.6367
 8865SOL     OW38053   3.721   2.094   1.560  0.1666 -0.5713  0.4302
 8865SOL    HW138054   3.734   2.133   1.646 -3.3415  0.7179  0.3622
 8865SOL    HW238055   3.811   2.069   1.539  0.7627  0.4645  1.8206
 8866SOL     OW38056   3.062   1.171   3.913 -0.2052 -0.2298 -0.2420
 8866SOL    HW138057   3.099   1.183   4.000  0.5858 -1.8031 -0.3587
 8866SOL    HW238058   3.062   1.075   3.909  0.3480 -0.3310  2.1532
 8867SOL     OW38059   2.219   0.643   7.506 -0.2185  0.2932 -0.3907
 8867SOL    HW138060   2.175   0.720   7.469  3.0715  2.0340 -0.6525
 8867SOL    HW238061   2.289   0.642   7.442 -0.8374 -0.3334 -1.0522
 8868SOL     OW38062   0.325   3.625   2.412  0.2318 -0.3192  0.3142
 8868SOL    HW138063   0.261   3.693   2.431 -0.9483 -1.4576  0.4654
 8868SOL    HW238064   0.409   3.670   2.422  0.2480 -0.4917  0.9621
 8869SOL     OW38065   3.909   1.155   8.739 -0.3816  0.2123  0.0942
 8869SOL    HW138066   3.906   1.085   8.675 -0.9481  0.2753  0.0567
 8869SOL    HW238067   3.856   1.219   8.691 -1.0950 -1.6347 -1.5477
 8870SOL     OW38068   2.744   4.337   3.485  0.1887 -0.5011  0.8091
 8870SOL    HW138069   2.719   4.378   3.401 -1.1116 -1.4917  0.7096
 8870SOL    HW238070   2.749   4.417   3.537 -1.7909  0.7400 -0.8731
 8871SOL     OW38071   4.185   3.441   3.636  0.3917 -0.4117 -0.3273
 8871SOL    HW138072   4.095   3.411   3.622 -0.6953  2.1564  1.2568
 8871SOL    HW238073   4.172   3.519   3.690 -0.5633 -1.5950  1.1318
 8872SOL     OW38074   3.192   2.413   5.468 -0.5371  0.0150  0.5494
 8872SOL    HW138075   3.166   2.504   5.483  0.1820  0.3761 -0.3827
 8872SOL    HW238076   3.275   2.419   5.421 -1.4922  1.0879 -1.0273
 8873SOL     OW38077   1.946   1.708  17.033 -0.8933  0.0030 -0.3467
 8873SOL    HW138078   1.946   1.619  16.998  0.1784  0.0801 -0.5467
 8873SOL    HW238079   1.894   1.691  17.112 -0.6188 -1.8681 -0.5628
 8874SOL     OW38080   1.274   1.862   6.343  0.2315  0.5213  0.2204
 8874SOL    HW138081   1.192   1.826   6.377  0.4487  1.7588  2.0388
 8874SOL    HW238082   1.313   1.785   6.301 -0.9532  0.5938 -1.0124
 8875SOL     OW38083   4.395   1.207  16.005  0.0752 -0.0650 -0.1763
 8875SOL    HW138084   4.485   1.223  15.976 -0.8281  0.5953 -2.6702
 8875SOL    HW238085   4.364   1.170  15.922 -2.4731  0.3190  0.6152
 8876SOL     OW38086   1.447   1.356  12.382  0.0911  0.0580  0.2804
 8876SOL    HW138087   1.500   1.341  12.460 -0.9746 -1.3987  0.7060
 8876SOL    HW238088   1.521   1.371  12.323  0.1400  1.1497  0.6065
 8877SOL     OW38089   0.770   4.495   1.305  0.2914  0.4227  0.4915
 8877SOL    HW138090   0.785   4.519   1.214 -0.2407 -0.4545  0.1667
 8877SOL    HW238091   0.699   4.553   1.333 -0.0569 -0.1114  0.7235
 8878SOL     OW38092   1.036   3.249  11.054 -0.1936  0.2175  0.2960
 8878SOL    HW138093   0.985   3.221  11.130  0.2772 -0.9199  0.1895
 8878SOL    HW238094   0.978   3.313  11.011 -0.4140 -0.7175 -0.8146
 8879SOL     OW38095   3.479   1.105   6.604  0.6306 -0.6857  0.2976
 8879SOL    HW138096   3.514   1.070   6.522  0.7097 -1.5021  0.6871
 8879SOL    HW238097   3.510   1.044   6.670  0.5032 -0.1255  0.8770
 8880SOL     OW38098   4.196   4.403   7.294  0.0738 -0.1373  0.4839
 8880SOL    HW138099   4.288   4.419   7.315 -0.0099 -1.8427  2.1987
 8880SOL    HW238100   4.170   4.478   7.241  0.3023 -1.3156 -1.2803
 8881SOL     OW38101   3.172   2.488   5.892 -0.3853  0.2643 -0.4762
 8881SOL    HW138102   3.131   2.568   5.862 -0.9830  0.5111  1.0089
 8881SOL    HW238103   3.104   2.421   5.881 -0.9821  0.3876  2.4798
 8882SOL     OW38104   2.294   2.497   2.594  0.1505  0.3285  0.3556
 8882SOL    HW138105   2.321   2.547   2.671  1.3313  0.6334 -0.2494
 8882SOL    HW238106   2.202   2.519   2.578  1.1283  4.9727  0.8924
 8883SOL     OW38107   0.226   0.902  15.943  0.1068 -0.9311 -0.1431
 8883SOL    HW138108   0.290   0.973  15.933 -1.1769  0.3834  0.9802
 8883SOL    HW238109   0.242   0.851  15.864 -0.0336 -2.2793  0.6888
 8884SOL     OW38110   0.914   1.697   5.086 -0.2951  0.1680 -0.7407
 8884SOL    HW138111   0.885   1.606   5.088 -0.2547  0.1667 -0.2078
 8884SOL    HW238112   1.007   1.681   5.070 -0.2297  0.9417 -1.1338
 8885SOL     OW38113   2.175   4.295   3.612 -0.5288  0.1288  0.4787
 8885SOL    HW138114   2.250   4.251   3.571 -1.0832  0.1355 -0.5272
 8885SOL    HW238115   2.110   4.231   3.583  1.4672 -1.5606 -0.3686
 8886SOL     OW38116   1.810   2.586   7.709  0.1414 -0.2646 -0.2010
 8886SOL    HW138117   1.718   2.594   7.734 -0.0533 -1.3615 -0.5766
 8886SOL    HW238118   1.853   2.564   7.792 -0.8165  0.0804  0.3911
 8887SOL     OW38119   2.632   3.281   3.458  0.2251  0.5448 -0.0972
 8887SOL    HW138120   2.621   3.187   3.445  2.4444  0.1414  0.9118
 8887SOL    HW238121   2.617   3.288   3.552  1.4578  2.2115 -0.0208
 8888SOL     OW38122   2.808   1.164  13.519  0.2297  0.4240 -0.2731
 8888SOL    HW138123   2.714   1.148  13.507  0.1796 -0.4834  1.2577
 8888SOL    HW238124   2.807   1.225  13.593  1.5280  0.7193 -0.5100
 8889SOL     OW38125   1.630   4.420  17.131  0.0985 -0.1773  0.0607
 8889SOL    HW138126   1.664   4.509  17.120  0.2346 -0.4273 -1.4927
 8889SOL    HW238127   1.700   4.384  17.185 -1.1364  0.2281  1.9478
 8890SOL     OW38128   4.176   3.901   6.057  0.0576 -0.7421 -0.1350
 8890SOL    HW138129   4.122   3.870   6.130 -0.3944  0.0933 -0.1196
 8890SOL    HW238130   4.239   3.828   6.057 -0.0017 -0.7993  0.8881
 8891SOL     OW38131   3.565   3.446   2.711 -0.2349  0.0645 -0.1480
 8891SOL    HW138132   3.532   3.521   2.760  0.3881 -0.9072  1.7364
 8891SOL    HW238133   3.590   3.493   2.631 -1.0297 -0.1907 -0.5462
 8892SOL     OW38134   3.058   3.336   5.994  0.1356  0.1567  0.2734
 8892SOL    HW138135   3.093   3.390   5.924  0.8847 -2.0640 -1.0656
 8892SOL    HW238136   3.111   3.363   6.069 -1.8005  1.1848  1.2782
 8893SOL     OW38137   2.544   0.155   4.777 -0.0363 -0.0739  0.5462
 8893SOL    HW138138   2.496   0.224   4.822 -2.3774 -1.4525  0.1279
 8893SOL    HW238139   2.626   0.204   4.770 -0.2094  0.1534  0.1095
 8894SOL     OW38140   4.525   2.349   8.194  0.2678 -0.2810 -0.1865
 8894SOL    HW138141   4.601   2.353   8.137  0.1084  2.3118 -0.1837
 8894SOL    HW238142   4.467   2.300   8.135 -0.5240  1.6123 -0.9722
 8895SOL     OW38143   4.667   1.919   3.437  0.6356 -0.1221 -0.7081
 8895SOL    HW138144   4.648   1.826   3.432  0.2548 -0.0328 -0.9078
 8895SOL    HW238145   0.005   1.940   3.364  1.3018  0.9396  0.1237
 8896SOL     OW38146   3.236   1.918   6.574  0.4033 -0.3154  0.3264
 8896SOL    HW138147   3.144   1.914   6.600  0.0075 -0.6927 -1.1312
 8896SOL    HW238148   3.252   1.825   6.590  0.5471 -0.4730 -0.7260
 8897SOL     OW38149   1.905   2.051  12.777 -0.2589 -0.4176  0.0764
 8897SOL    HW138150   1.959   2.119  12.737 -2.0118  0.4391 -0.8154
 8897SOL    HW238151   1.972   1.983  12.787  0.8273  0.2741 -2.4810
 8898SOL     OW38152   1.963   2.770   9.432  0.0063 -0.3149  0.5340
 8898SOL    HW138153   2.038   2.830   9.433 -1.4230  1.4776 -0.9661
 8898SOL    HW238154   2.014   2.689   9.437 -0.3236 -0.5730 -0.3427
 8899SOL     OW38155   2.225   4.712   5.975 -0.1669  0.0537 -0.1805
 8899SOL    HW138156   2.228   4.688   6.068 -1.2122 -0.0727 -0.1858
 8899SOL    HW238157   2.317   4.701   5.948 -0.5269 -3.1295 -0.1499
 8900SOL     OW38158   2.016   0.080   1.339  0.0563  0.2098 -0.2967
 8900SOL    HW138159   1.931   0.118   1.358  0.4496  0.1024  1.6174
 8900SOL    HW238160   2.016   4.714   1.379  2.7312 -0.4409 -1.7124
 8901SOL     OW38161   2.441   3.101   4.960  0.0448 -0.8623 -0.0250
 8901SOL    HW138162   2.463   3.051   5.038  0.9444 -0.8262 -0.2604
 8901SOL    HW238163   2.372   3.049   4.918 -1.9153  0.2512  1.7910
 8902SOL     OW38164   3.581   1.049   8.657 -0.0591  0.0966  0.0951
 8902SOL    HW138165   3.529   1.088   8.727  0.6120 -0.4908  0.9145
 8902SOL    HW238166   3.622   1.129   8.623 -1.8679  0.9979 -0.0102
 8903SOL     OW38167   0.534   1.915   1.919 -0.1598  0.0326 -0.1839
 8903SOL    HW138168   0.473   1.972   1.874  0.3749 -1.2731 -2.5951
 8903SOL    HW238169   0.493   1.830   1.905  0.8325 -0.5695  0.5151
 8904SOL     OW38170   1.702   2.063   1.510 -0.7297  0.3415 -0.4796
 8904SOL    HW138171   1.740   2.148   1.486  0.0984  0.2859  0.6658
 8904SOL    HW238172   1.609   2.079   1.493 -0.9596 -0.2162  0.2589
 8905SOL     OW38173   0.978   4.633   6.953  0.2178  0.0656  0.4560
 8905SOL    HW138174   1.007   4.628   6.861  0.1719 -1.2460  0.5200
 8905SOL    HW238175   0.931   4.551   6.962  1.3146 -0.3843  1.9604
 8906SOL     OW38176   4.624   2.983   5.684 -0.2518  0.2434  0.7056
 8906SOL    HW138177   4.582   2.960   5.767 -0.6095 -4.6487 -0.8550
 8906SOL    HW238178   4.623   2.896   5.644  1.5720  1.2847 -1.6137
 8907SOL     OW38179   2.926   3.972   8.171 -0.9406 -0.2846  0.2666
 8907SOL    HW138180   3.017   3.949   8.153 -0.6250  1.8913 -0.8785
 8907SOL    HW238181   2.904   4.034   8.101 -0.5751 -0.5797 -0.1087
 8908SOL     OW38182   4.362   3.104   8.256  0.0935  0.3908  0.5613
 8908SOL    HW138183   4.323   3.053   8.327 -2.3216 -0.7745 -1.6091
 8908SOL    HW238184   4.449   3.114   8.295  0.5160  2.2477 -0.8792
 8909SOL     OW38185   1.786   2.129   7.225  0.1716  0.7670  0.5590
 8909SOL    HW138186   1.836   2.103   7.302 -0.6439 -1.4167  0.3509
 8909SOL    HW238187   1.830   2.212   7.210  0.1524  1.0207  1.9074
 8910SOL     OW38188   0.390   1.670   1.884  0.2206  0.0499 -0.1112
 8910SOL    HW138189   0.372   1.588   1.931  0.3641 -1.2804 -2.3773
 8910SOL    HW238190   0.322   1.663   1.817 -0.1287 -2.6306  0.5343
 8911SOL     OW38191   0.559   4.380   6.123  0.0854 -0.0069  0.0901
 8911SOL    HW138192   0.598   4.311   6.175  1.9300  0.3462 -0.8173
 8911SOL    HW238193   0.548   4.339   6.037  0.7981  0.4571 -0.2233
 8912SOL     OW38194   3.591   0.766   4.338  0.2397  0.0643  0.5621
 8912SOL    HW138195   3.622   0.841   4.389  0.8505 -0.2427  0.6382
 8912SOL    HW238196   3.513   0.749   4.392 -0.0922  0.1028  0.0963
 8913SOL     OW38197   0.302   1.417   0.114  0.1091  0.1451  0.2998
 8913SOL    HW138198   0.264   1.424   0.026  2.0783  0.4442 -0.5311
 8913SOL    HW238199   0.377   1.475   0.098  0.3416  0.7178  3.5723
 8914SOL     OW38200   2.995   1.564  11.497 -0.1302 -0.7878  0.1664
 8914SOL    HW138201   3.035   1.650  11.506  0.5454 -1.1508  0.5680
 8914SOL    HW238202   3.040   1.516  11.566  2.8509  1.2100 -0.4046
 8915SOL     OW38203   1.083   1.697  14.966 -0.0902  0.5802  0.0747
 8915SOL    HW138204   1.092   1.661  15.055 -1.2654 -1.5486 -0.6616
 8915SOL    HW238205   1.000   1.742  14.980  0.7923  2.2505 -0.0328
 8916SOL     OW38206   4.695   3.110  17.547  0.1102 -0.0051  0.2890
 8916SOL    HW138207   0.014   3.103  17.633 -1.4003 -3.2376  0.7150
 8916SOL    HW238208   0.054   3.132  17.499  1.2531 -1.5295  1.5091
 8917SOL     OW38209   4.389   2.498   2.494  0.3465  0.1512  0.2346
 8917SOL    HW138210   4.315   2.463   2.444  3.3629 -2.0979 -2.6882
 8917SOL    HW238211   4.451   2.498   2.421 -1.1365  1.0673 -1.0382
 8918SOL     OW38212   2.224   3.164   6.946  0.0737  0.4170  0.0498
 8918SOL    HW138213   2.245   3.241   6.894 -1.7846  0.0669 -1.2289
 8918SOL    HW238214   2.310   3.130   6.969 -0.2756  1.3322  2.7727
 8919SOL     OW38215   4.326   1.798  14.478 -0.4182  0.7547 -0.2574
 8919SOL    HW138216   4.287   1.715  14.504  0.2300  0.4968 -0.1081
 8919SOL    HW238217   4.416   1.769  14.463 -0.3713  0.4247  0.7126
 8920SOL     OW38218   0.434   0.498   4.673 -0.0048  0.0110 -0.1144
 8920SOL    HW138219   0.492   0.424   4.653 -0.5281 -0.0218 -1.5592
 8920SOL    HW238220   0.459   0.551   4.597  1.8417 -0.9886 -0.2162
 8921SOL     OW38221   4.273   3.981   0.503  0.6427 -0.2721  0.3065
 8921SOL    HW138222   4.277   3.888   0.478 -0.6605 -0.3390  0.3573
 8921SOL    HW238223   4.180   3.993   0.522  0.2922 -2.9014  0.2625
 8922SOL     OW38224   4.175   2.471   5.161  0.4511  0.1098  0.2660
 8922SOL    HW138225   4.177   2.461   5.066  0.4805 -1.5395  0.4493
 8922SOL    HW238226   4.244   2.536   5.171 -0.9784  1.4363  1.5381
 8923SOL     OW38227   1.771   2.553   5.478  0.4066  0.2051 -0.1686
 8923SOL    HW138228   1.816   2.614   5.420 -1.1082  1.2636 -0.2325
 8923SOL    HW238229   1.827   2.567   5.554  2.1239 -0.7719 -1.2556
 8924SOL     OW38230   3.031   2.691  15.910  0.3318 -0.3931  0.0243
 8924SOL    HW138231   2.990   2.768  15.870  1.3425 -0.7231 -1.6573
 8924SOL    HW238232   3.013   2.615  15.854 -1.0315 -1.2258  1.5879
 8925SOL     OW38233   4.647   0.784   6.177  0.3530  0.2197 -0.3168
 8925SOL    HW138234   4.645   0.801   6.271  0.9005 -0.5070 -0.1652
 8925SOL    HW238235   4.554   0.782   6.157  0.5205  1.4866 -1.1527
 8926SOL     OW38236   1.102   3.822  11.800  0.4897  0.2971 -0.6176
 8926SOL    HW138237   1.108   3.731  11.773  3.3459  1.4483 -3.7277
 8926SOL    HW238238   1.045   3.858  11.733  0.0996 -2.4953 -1.7734
 8927SOL     OW38239   0.890   4.666  12.441  0.0325  0.5209  0.0041
 8927SOL    HW138240   0.843   4.588  12.413 -0.3712  1.4075 -1.7425
 8927SOL    HW238241   0.967   4.664  12.384  0.6841 -0.9271  0.9318
 8928SOL     OW38242   0.017   3.376  17.123 -0.1674  0.4882 -0.3694
 8928SOL    HW138243   4.716   3.287  17.097  0.0294  0.4331 -0.3542
 8928SOL    HW238244   0.007   3.367  17.218 -1.5797  1.1345 -0.4677
 8929SOL     OW38245   1.433   1.935   3.095 -0.0270 -0.0024  0.1540
 8929SOL    HW138246   1.413   2.028   3.083  0.4021  0.2117  1.0955
 8929SOL    HW238247   1.344   1.906   3.074  0.1462  0.1795 -0.8093
 8930SOL     OW38248   2.731   0.207  12.407 -0.0395  0.2788 -0.1669
 8930SOL    HW138249   2.795   0.136  12.399  1.5894  1.6848  0.5486
 8930SOL    HW238250   2.647   0.161  12.400  0.7193 -1.1732  0.3828
 8931SOL     OW38251   0.055   3.089   8.146  0.3144  0.1005 -0.6389
 8931SOL    HW138252   0.147   3.094   8.171 -0.2798  1.5751  1.3054
 8931SOL    HW238253   0.022   3.174   8.175 -1.0767 -0.4459 -0.6423
 8932SOL     OW38254   4.362   3.700   5.179 -0.2029  0.9781 -0.5450
 8932SOL    HW138255   4.285   3.659   5.219  0.2175  0.7123 -0.0056
 8932SOL    HW238256   4.417   3.697   5.257  0.5904 -0.0101 -1.1318
 8933SOL     OW38257   0.141   2.416   7.246  0.2711  0.1809 -0.2086
 8933SOL    HW138258   0.214   2.474   7.225 -0.2019 -0.3067 -3.1615
 8933SOL    HW238259   0.163   2.330   7.209  2.0174  0.2540  0.6555
 8934SOL     OW38260   2.939   2.988   7.031 -0.2498 -0.1225  0.4940
 8934SOL    HW138261   2.844   2.979   7.042  0.1045 -3.4444  0.8049
 8934SOL    HW238262   2.948   3.021   6.941 -1.1701 -0.8591  0.1320
 8935SOL     OW38263   2.744   1.958   3.532  0.0249 -0.1019 -0.4531
 8935SOL    HW138264   2.777   2.045   3.512 -1.6725  0.5523 -0.4281
 8935SOL    HW238265   2.655   1.972   3.500  0.3505  1.5500 -0.6163
 8936SOL     OW38266   2.982   3.294   7.718 -0.1261 -0.0839 -0.0618
 8936SOL    HW138267   2.988   3.214   7.666 -0.8127 -0.9951  1.2786
 8936SOL    HW238268   2.942   3.260   7.798 -0.1039 -0.8683 -0.3809
 8937SOL     OW38269   0.107   3.803   3.239 -0.1479 -0.4075  0.0135
 8937SOL    HW138270   0.140   3.885   3.275 -0.8921 -0.3545  0.5740
 8937SOL    HW238271   0.014   3.815   3.219  0.1197  0.7933 -0.5014
 8938SOL     OW38272   1.839   3.953   6.738  0.0418  0.2659  0.0929
 8938SOL    HW138273   1.773   3.884   6.746  0.4385 -0.2072 -0.7177
 8938SOL    HW238274   1.888   3.920   6.663 -1.0358  1.0035 -0.9261
 8939SOL     OW38275   4.343   0.948  13.910  0.4856 -0.1896  0.5125
 8939SOL    HW138276   4.339   0.962  13.816  2.1139 -0.4626  0.3900
 8939SOL    HW238277   4.263   0.981  13.951  0.4841  0.3667  0.0516
 8940SOL     OW38278   2.022   3.729   4.994  0.1731  0.3895  0.1650
 8940SOL    HW138279   2.080   3.690   5.060  0.8846 -0.5831 -1.0574
 8940SOL    HW238280   2.053   3.820   4.994 -1.3329  0.8998  0.9915
 8941SOL     OW38281   2.348   3.456   3.793 -0.1364 -0.0864  0.1492
 8941SOL    HW138282   2.313   3.513   3.862 -0.4375 -2.2175  1.7267
 8941SOL    HW238283   2.363   3.521   3.724  1.5675 -0.0607  0.5319
 8942SOL     OW38284   0.532   0.939  12.806  0.3159  0.2638 -0.2452
 8942SOL    HW138285   0.558   0.946  12.714 -0.2133 -0.8958 -0.4905
 8942SOL    HW238286   0.496   1.027  12.816  0.6984  0.4264 -0.3054
 8943SOL     OW38287   0.697   2.193   4.783  0.1510 -0.1420  0.0516
 8943SOL    HW138288   0.649   2.153   4.856  1.0147 -0.8194  0.2364
 8943SOL    HW238289   0.629   2.256   4.758  0.9082  1.0977  1.0605
 8944SOL     OW38290   1.890   1.314   3.383 -0.4143  0.0658  0.7842
 8944SOL    HW138291   1.830   1.289   3.312  0.4244 -1.4636  0.6198
 8944SOL    HW238292   1.918   1.228   3.414  2.0885  1.0492  1.2232
 8945SOL     OW38293   0.742   4.107  15.857 -0.1644 -0.0387 -0.1764
 8945SOL    HW138294   0.679   4.151  15.800  0.6840  0.4467 -0.7387
 8945SOL    HW238295   0.769   4.187  15.902  0.3637 -1.2147  1.5602
 8946SOL     OW38296   3.844   0.330   3.902 -0.1279  0.1996  0.0237
 8946SOL    HW138297   3.794   0.406   3.874 -1.3446 -0.3019  0.8468
 8946SOL    HW238298   3.832   0.318   3.996 -0.9701 -2.4267 -0.4070
 8947SOL     OW38299   1.085   3.968   2.101 -0.6899  0.4541 -0.0950
 8947SOL    HW138300   1.027   3.999   2.171 -0.0161 -1.2190  1.2129
 8947SOL    HW238301   1.172   3.965   2.142 -0.1603  2.0303 -1.1172
 8948SOL     OW38302   0.490   4.661   2.858 -0.2415 -0.4702 -0.2770
 8948SOL    HW138303   0.491   0.002   2.785  2.0493  1.3110  1.2790
 8948SOL    HW238304   0.540   4.589   2.819  2.3790  0.9922  0.3549
 8949SOL     OW38305   2.324   3.434   6.204 -0.4014 -0.0906  0.9790
 8949SOL    HW138306   2.229   3.434   6.207 -0.3805  1.1685  1.6894
 8949SOL    HW238307   2.341   3.350   6.248 -0.7010 -1.4987 -1.6258
 8950SOL     OW38308   4.647   4.227  15.402 -0.1431  0.4174  0.2882
 8950SOL    HW138309   0.018   4.215  15.427 -0.6687 -1.9325  1.0861
 8950SOL    HW238310   4.613   4.282  15.472  2.0983  0.7740  1.1175
 8951SOL     OW38311   1.322   0.844   4.448 -0.1936  0.1938  0.0553
 8951SOL    HW138312   1.295   0.856   4.357  1.6403  1.5902 -0.3113
 8951SOL    HW238313   1.263   0.905   4.492  0.6416  0.8505  0.2779
 8952SOL     OW38314   4.287   2.738   8.761 -0.0072 -0.2571 -0.2014
 8952SOL    HW138315   4.325   2.825   8.772 -1.8316  0.4808  0.2957
 8952SOL    HW238316   4.235   2.724   8.840  1.5457  1.6209  1.1353
 8953SOL     OW38317   2.211   1.545   4.508 -0.0309  0.4510 -0.2208
 8953SOL    HW138318   2.274   1.616   4.522 -0.5394  0.6275  1.2056
 8953SOL    HW238319   2.140   1.605   4.532  0.5317  0.6364  1.0079
 8954SOL     OW38320   2.813   2.939   9.471  0.1383 -0.0618  0.1893
 8954SOL    HW138321   2.814   2.968   9.562  0.4105 -1.3212  0.5889
 8954SOL    HW238322   2.862   2.857   9.468 -2.3629 -1.5557  0.2884
 8955SOL     OW38323   2.866   2.467   6.231 -0.1089 -0.5525  0.0201
 8955SOL    HW138324   2.875   2.522   6.309  2.6219 -0.1431 -0.5950
 8955SOL    HW238325   2.919   2.523   6.175  0.2705 -1.8867 -0.9531
 8956SOL     OW38326   4.082   1.891  15.362 -0.0538  0.2088 -0.0440
 8956SOL    HW138327   3.998   1.929  15.389 -0.4398  1.4296 -2.9712
 8956SOL    HW238328   4.128   1.973  15.347  2.1750 -0.6734  2.0026
 8957SOL     OW38329   1.671   1.291  12.553  0.1301  0.2378  0.1235
 8957SOL    HW138330   1.695   1.384  12.552 -0.1097  0.2899 -0.5503
 8957SOL    HW238331   1.725   1.253  12.485 -0.1652 -0.9164  0.5393
 8958SOL     OW38332   3.654   4.557   8.540 -0.2780 -0.2175  0.4975
 8958SOL    HW138333   3.736   4.525   8.502 -0.5848 -1.2745  0.7411
 8958SOL    HW238334   3.642   4.640   8.495 -0.8891 -0.2135  0.6703
 8959SOL     OW38335   0.319   3.532   9.873  0.4449 -0.2367  0.4417
 8959SOL    HW138336   0.322   3.436   9.884 -0.2287 -0.4427 -1.1532
 8959SOL    HW238337   0.402   3.559   9.835  0.0097  0.4627  0.0018
 8960SOL     OW38338   3.756   4.612   5.300  0.1569  0.4677 -0.0318
 8960SOL    HW138339   3.685   4.671   5.325 -1.1037 -0.9390 -0.2898
 8960SOL    HW238340   3.728   4.605   5.209  2.3537  2.2427 -0.8469
 8961SOL     OW38341   1.522   0.896   0.494  0.0881  0.3067  0.5417
 8961SOL    HW138342   1.433   0.928   0.511  0.8159  2.3216  0.5751
 8961SOL    HW238343   1.585   0.947   0.545 -0.0649  2.4229 -1.3755
 8962SOL     OW38344   1.142   4.679   2.652  0.0612  0.6814 -0.0225
 8962SOL    HW138345   1.198   4.685   2.575 -0.2657  3.6826 -0.0152
 8962SOL    HW238346   1.068   4.627   2.620  1.3766 -0.7634 -0.7519
 8963SOL     OW38347   1.112   1.285   7.891 -0.2055  0.4508 -0.4163
 8963SOL    HW138348   1.091   1.345   7.963 -0.8553  0.5911 -0.7203
 8963SOL    HW238349   1.157   1.218   7.942  0.7760  1.0561 -0.4696
 8964SOL     OW38350   2.319   1.974  16.792  0.3288 -0.4858  0.1673
 8964SOL    HW138351   2.277   2.006  16.871  0.6738 -0.7370  0.4501
 8964SOL    HW238352   2.369   1.899  16.824 -0.1347  0.1041  2.2207
 8965SOL     OW38353   2.941   3.670   5.605 -0.1501  0.1650  1.0723
 8965SOL    HW138354   2.977   3.700   5.522  0.3576  0.2382  1.3203
 8965SOL    HW238355   2.881   3.745   5.610  3.7294  3.3375  0.0447
 8966SOL     OW38356   3.419   0.764   1.578  0.3736 -0.3005 -0.2753
 8966SOL    HW138357   3.378   0.717   1.506  1.7810 -1.3650 -0.3771
 8966SOL    HW238358   3.349   0.745   1.640 -0.5810  0.8232 -1.0226
 8967SOL     OW38359   4.046   3.537   7.464 -0.6851  0.3685 -0.1629
 8967SOL    HW138360   4.033   3.621   7.507  0.5808  1.0410 -1.0688
 8967SOL    HW238361   3.998   3.470   7.512  1.0682 -0.3510  0.5963
 8968SOL     OW38362   0.319   2.672   6.276  0.0070 -0.1803 -0.5563
 8968SOL    HW138363   0.349   2.759   6.303  1.5895 -1.0436  0.4661
 8968SOL    HW238364   0.237   2.669   6.326 -0.2242 -1.2833 -1.0064
 8969SOL     OW38365   2.659   0.646   2.434 -0.2157 -0.3958  0.0479
 8969SOL    HW138366   2.584   0.652   2.494  0.4789  1.7488  0.6946
 8969SOL    HW238367   2.684   0.555   2.450 -0.7682 -0.2612  1.7311
 8970SOL     OW38368   0.224   1.955   6.561  0.0484 -0.6585  0.0057
 8970SOL    HW138369   0.164   1.956   6.635 -0.6257 -1.0829 -0.5354
 8970SOL    HW238370   0.268   1.871   6.563 -0.3961 -0.9652 -2.3768
 8971SOL     OW38371   2.639   4.540   6.557  0.3193 -0.1707 -0.0557
 8971SOL    HW138372   2.687   4.519   6.637  1.7602  0.0911 -0.8604
 8971SOL    HW238373   2.624   4.634   6.569  2.0814  0.0945  0.0975
 8972SOL     OW38374   3.275   4.641   3.465 -0.2614  0.5550  0.5344
 8972SOL    HW138375   3.187   4.607   3.450  0.1519 -0.8398  1.2527
 8972SOL    HW238376   3.315   4.629   3.379  0.0694 -2.2347  1.0867
 8973SOL     OW38377   3.245   2.590   3.095  0.1984 -0.3007 -0.0361
 8973SOL    HW138378   3.317   2.540   3.056  0.5940 -0.7731  1.2690
 8973SOL    HW238379   3.286   2.658   3.150 -0.7287  0.2026  0.0243
 8974SOL     OW38380   4.150   1.776  12.926 -0.0944 -0.5466  0.1753
 8974SOL    HW138381   4.200   1.723  12.864 -0.2773  1.9639 -2.1072
 8974SOL    HW238382   4.150   1.710  12.995  0.0044 -2.7356 -1.9174
 8975SOL     OW38383   1.849   1.715   8.018 -0.2967 -0.1123  0.1786
 8975SOL    HW138384   1.920   1.652   8.032  0.2870  0.6209  0.5215
 8975SOL    HW238385   1.895   1.798   8.027 -1.5663  0.6105 -0.0425
 8976SOL     OW38386   1.747   1.257   5.707  0.5880 -0.7358  0.5160
 8976SOL    HW138387   1.727   1.309   5.785  0.0904  2.4268 -1.7367
 8976SOL    HW238388   1.836   1.227   5.728  0.4876  0.9448  3.3930
 8977SOL     OW38389   1.096   4.592   3.971  0.2080  0.0010  0.1080
 8977SOL    HW138390   1.072   4.521   3.912  0.0490 -0.7099  1.0243
 8977SOL    HW238391   1.172   4.549   4.009  0.1367 -0.0684  0.1736
 8978SOL     OW38392   2.883   0.131   8.093 -0.5272  0.1353 -0.0489
 8978SOL    HW138393   2.830   0.132   8.014  3.1717 -0.7856 -2.5609
 8978SOL    HW238394   2.887   0.035   8.093  0.9477  0.1841 -1.8513
 8979SOL     OW38395   0.360   2.785   6.978 -0.0676 -0.0112 -0.2516
 8979SOL    HW138396   0.444   2.821   6.949  0.0191  0.5143  0.6722
 8979SOL    HW238397   0.333   2.756   6.891  1.1627  0.6125 -0.8577
 8980SOL     OW38398   3.547   2.558  11.427  0.3095 -0.4126  0.3072
 8980SOL    HW138399   3.621   2.529  11.373  0.9681  0.3289  0.8014
 8980SOL    HW238400   3.575   2.648  11.447 -1.0039 -0.2512  1.4242
 8981SOL     OW38401   2.253   4.717   8.491 -0.2017  0.0436 -0.3672
 8981SOL    HW138402   2.323   4.653   8.505 -0.9387 -0.4059  1.3161
 8981SOL    HW238403   2.180   4.656   8.500  0.2812 -0.4109  0.4774
 8982SOL     OW38404   2.943   3.238   8.559 -0.6146  0.0372  0.4664
 8982SOL    HW138405   2.995   3.192   8.494 -3.1150 -0.3467 -1.2836
 8982SOL    HW238406   3.001   3.308   8.588 -0.6108  0.9948 -1.9052
 8983SOL     OW38407   3.514   0.933   7.210 -0.5938 -0.4347  0.2656
 8983SOL    HW138408   3.584   0.870   7.223 -0.9733 -1.3762 -2.2833
 8983SOL    HW238409   3.439   0.877   7.190  1.1746 -2.1476 -1.6944
 8984SOL     OW38410   0.142   2.965   0.445  0.0445  0.1246  0.3207
 8984SOL    HW138411   0.072   2.911   0.483  0.0148  0.9117  1.3720
 8984SOL    HW238412   0.196   2.901   0.398  0.3785  1.4995 -1.1558
 8985SOL     OW38413   1.254   2.722  15.360  0.6500 -0.1227 -0.0942
 8985SOL    HW138414   1.166   2.722  15.322  1.4251 -1.4944 -1.9215
 8985SOL    HW238415   1.276   2.631  15.378  1.3053 -0.0206 -0.3939
 8986SOL     OW38416   1.445   3.164   4.939  0.2994 -0.1163  0.7153
 8986SOL    HW138417   1.351   3.151   4.927 -0.0239  1.1940  1.8658
 8986SOL    HW238418   1.456   3.136   5.030 -0.9240 -1.1690  0.5428
 8987SOL     OW38419   1.208   4.582   1.737  0.2133 -0.8282  0.9338
 8987SOL    HW138420   1.245   4.538   1.661 -0.6294 -0.5869  0.3896
 8987SOL    HW238421   1.115   4.585   1.715 -0.0817  1.1187  2.4262
 8988SOL     OW38422   0.231   3.159   0.192 -0.1369  0.7195 -0.2393
 8988SOL    HW138423   0.324   3.180   0.199 -0.1124  0.3954  0.4425
 8988SOL    HW238424   0.237   3.080   0.138 -0.6863  0.9199 -0.5980
 8989SOL     OW38425   0.248   0.169   6.331  0.5695 -0.0122  0.2731
 8989SOL    HW138426   0.214   0.172   6.242  0.8737  0.3433  0.1684
 8989SOL    HW238427   0.340   0.193   6.320 -0.0128  1.5011 -1.2327
 8990SOL     OW38428   0.152   4.342   2.789  0.5658  0.6967  0.0360
 8990SOL    HW138429   0.156   4.279   2.717  1.8913  1.7523 -0.8293
 8990SOL    HW238430   0.237   4.383   2.770  1.4228 -0.7609  0.6677
 8991SOL     OW38431   3.812   2.421   3.208  0.0439 -0.2674 -0.1517
 8991SOL    HW138432   3.839   2.390   3.122 -0.5294  1.6015 -1.0057
 8991SOL    HW238433   3.877   2.491   3.209  0.9169 -1.0971  0.7466
 8992SOL     OW38434   4.080   1.639   5.352  0.0267 -0.1573  0.6262
 8992SOL    HW138435   4.006   1.699   5.357  1.4562  1.4243  2.5751
 8992SOL    HW238436   4.084   1.636   5.256  0.4263 -0.5536  0.6550
 8993SOL     OW38437   3.804   4.202   6.047 -0.1855  0.0838  0.3179
 8993SOL    HW138438   3.748   4.232   5.975 -0.9037  0.6420  1.1046
 8993SOL    HW238439   3.823   4.113   6.019  2.8872  1.3448 -1.5716
 8994SOL     OW38440   3.173   2.334   3.196 -0.1643  0.2011 -0.6163
 8994SOL    HW138441   3.144   2.425   3.199  2.6033  1.0232  0.9149
 8994SOL    HW238442   3.195   2.329   3.103 -0.2924 -0.9974 -0.5755
 8995SOL     OW38443   2.887   1.300   0.305 -0.4167 -0.3191 -0.9565
 8995SOL    HW138444   2.964   1.352   0.331 -1.2852  0.8344 -0.7004
 8995SOL    HW238445   2.929   1.213   0.304  2.1835  0.8743  1.8222
 8996SOL     OW38446   3.877   1.495  15.884 -0.7137 -0.2310 -0.0260
 8996SOL    HW138447   3.882   1.558  15.957 -2.8140 -0.5243  0.3598
 8996SOL    HW238448   3.798   1.443  15.897 -0.1230 -0.9332  0.7548
 8997SOL     OW38449   4.148   2.173  15.267 -0.3826 -0.2719 -0.1964
 8997SOL    HW138450   4.159   2.198  15.359 -0.5268  0.7225 -0.4502
 8997SOL    HW238451   4.085   2.237  15.237  1.1477  2.0744  1.5679
 8998SOL     OW38452   0.827   2.129   4.118 -0.0803 -0.0411 -0.2139
 8998SOL    HW138453   0.886   2.202   4.137 -0.2788  0.1577 -0.3672
 8998SOL    HW238454   0.841   2.076   4.197 -0.0720 -0.9237 -0.7991
 8999SOL     OW38455   1.591   1.849   2.386 -0.0014 -0.3972  0.5601
 8999SOL    HW138456   1.526   1.909   2.350 -1.6992 -1.0354  2.5559
 8999SOL    HW238457   1.651   1.836   2.313  0.3973  1.8793  0.4919
 9000SOL     OW38458   3.417   0.506  14.888 -0.2990 -0.2105 -0.7777
 9000SOL    HW138459   3.359   0.431  14.905 -0.0589  0.4666  3.0871
 9000SOL    HW238460   3.479   0.490  14.959 -0.8577  2.1666  0.2408
 9001SOL     OW38461   3.982   1.263   8.370  0.2277  0.5457 -0.0053
 9001SOL    HW138462   3.917   1.197   8.395  1.5914 -0.3846  1.0275
 9001SOL    HW238463   3.962   1.322   8.443 -3.0698 -1.4525  0.7424
 9002SOL     OW38464   2.707   4.189   6.337  0.2446  0.2155 -0.0963
 9002SOL    HW138465   2.616   4.192   6.308 -0.0122  0.1314  0.7080
 9002SOL    HW238466   2.723   4.281   6.317 -0.0648 -0.2083 -2.2698
 9003SOL     OW38467   0.190   1.462  16.404  0.3058 -0.4828 -0.2958
 9003SOL    HW138468   0.100   1.491  16.393  0.7071  0.4298 -1.1805
 9003SOL    HW238469   0.189   1.423  16.491 -0.9743  0.2964  0.0376
 9004SOL     OW38470   3.984   2.306   3.032 -0.0365  0.5238  0.5589
 9004SOL    HW138471   4.069   2.269   3.057  0.2194  0.2198 -0.8028
 9004SOL    HW238472   3.978   2.304   2.937 -1.9426  3.5030  0.6013
 9005SOL     OW38473   0.799   2.714   6.872 -0.4872  0.0530 -0.0864
 9005SOL    HW138474   0.833   2.761   6.949  2.1567  2.0809 -2.4665
 9005SOL    HW238475   0.787   2.629   6.913 -3.4342  0.4374 -0.1896
 9006SOL     OW38476   0.639   3.553   5.657  0.0896  0.4664 -0.1906
 9006SOL    HW138477   0.712   3.570   5.716  1.6504  0.8327 -2.2161
 9006SOL    HW238478   0.566   3.577   5.714  0.8657 -1.8002  1.7509
 9007SOL     OW38479   3.006   0.851  11.364 -0.2577  0.1184 -0.0120
 9007SOL    HW138480   3.065   0.776  11.363 -0.1887  0.1757 -0.2223
 9007SOL    HW238481   2.940   0.805  11.416  0.4788 -0.3786  0.4954
 9008SOL     OW38482   0.433   1.286   7.293 -0.6232 -0.4115 -0.3418
 9008SOL    HW138483   0.415   1.241   7.375  1.0950  0.6366  0.6024
 9008SOL    HW238484   0.367   1.238   7.242 -0.9341 -1.9293  1.5084
 9009SOL     OW38485   3.750   0.534   1.320 -0.0635 -0.3632 -0.2207
 9009SOL    HW138486   3.682   0.535   1.252 -1.4879 -0.9418  1.2054
 9009SOL    HW238487   3.741   0.621   1.360  0.7745 -0.7664  0.8382
 9010SOL     OW38488   1.828   1.152   8.950 -0.0815 -0.3668 -0.2511
 9010SOL    HW138489   1.803   1.188   8.865  1.0476 -1.0889 -0.8900
 9010SOL    HW238490   1.740   1.131   8.980 -1.1354  1.1666 -2.3341
 9011SOL     OW38491   4.208   2.431  11.853 -0.1870 -0.6389  0.2592
 9011SOL    HW138492   4.181   2.344  11.823  1.3224 -1.2300  0.6016
 9011SOL    HW238493   4.303   2.421  11.860 -0.0154  0.1082 -1.1456
 9012SOL     OW38494   0.672   1.354   1.355  0.3261  0.1731  0.2344
 9012SOL    HW138495   0.756   1.360   1.401 -0.2517  0.6241  1.2391
 9012SOL    HW238496   0.610   1.377   1.424  0.9557  2.6695 -0.0183
 9013SOL     OW38497   4.552   0.494   9.992  0.0860 -0.0844  0.2860
 9013SOL    HW138498   4.600   0.411   9.998  0.7377  0.2784  0.0915
 9013SOL    HW238499   4.465   0.457  10.005 -1.2311  2.7870 -0.4639
 9014SOL     OW38500   2.477   4.162   1.742  0.9404  0.3908  0.1761
 9014SOL    HW138501   2.381   4.165   1.736  0.9072 -2.5455 -0.9018
 9014SOL    HW238502   2.500   4.150   1.649  0.4393 -3.5837  0.5645
 9015SOL     OW38503   0.075   3.585   6.115 -0.0657  0.1414  0.3690
 9015SOL    HW138504   0.113   3.580   6.027 -0.4419  0.3766  0.1926
 9015SOL    HW238505   0.154   3.563   6.164 -0.8836  0.7959  1.9797
 9016SOL     OW38506   1.654   2.519   5.056  0.0211  0.0979 -0.4866
 9016SOL    HW138507   1.691   2.517   4.968 -2.3095  1.2086 -1.4720
 9016SOL    HW238508   1.569   2.555   5.033 -1.8489 -0.9782  4.7090
 9017SOL     OW38509   1.713   4.385   2.511  0.3870 -0.0976 -0.4202
 9017SOL    HW138510   1.713   4.421   2.599 -2.1777  0.1442 -0.5296
 9017SOL    HW238511   1.697   4.463   2.458  0.1496 -0.8139 -1.4089
 9018SOL     OW38512   4.142   3.290  13.991  0.0160  0.0906  0.1790
 9018SOL    HW138513   4.140   3.214  13.932  1.6474 -0.2068  0.5079
 9018SOL    HW238514   4.184   3.244  14.064 -0.9842 -1.7368 -0.4036
 9019SOL     OW38515   2.778   4.116  12.501 -0.0009  0.1091  0.0350
 9019SOL    HW138516   2.763   4.036  12.451  0.4526 -0.8047  1.3815
 9019SOL    HW238517   2.872   4.117  12.518 -0.1472 -1.7568  0.9075
 9020SOL     OW38518   0.025   2.955   3.385  0.2889 -0.4028 -0.0478
 9020SOL    HW138519   0.034   3.027   3.322 -0.6293  0.8754  1.2633
 9020SOL    HW238520   0.076   2.977   3.463 -2.1081  1.2945  1.0455
 9021SOL     OW38521   3.991   2.924   1.881  0.0052 -0.3539 -0.7185
 9021SOL    HW138522   3.999   3.011   1.920  0.1419  0.0697 -1.6897
 9021SOL    HW238523   3.980   2.948   1.789 -1.6507  3.3409  0.4440
 9022SOL     OW38524   2.212   3.051   4.533  0.4808  0.4517  0.2531
 9022SOL    HW138525   2.117   3.040   4.526  0.6844 -1.1799  0.1000
 9022SOL    HW238526   2.237   2.980   4.474 -2.4251 -1.5336  1.4173
 9023SOL     OW38527   1.997   0.897  13.054 -0.9082 -0.1291 -0.3932
 9023SOL    HW138528   2.021   0.858  12.970 -2.2541  1.9526 -1.7432
 9023SOL    HW238529   2.001   0.992  13.043  3.6905 -0.0950  1.2951
 9024SOL     OW38530   1.920   3.692   2.070  0.4554 -0.7684 -0.0809
 9024SOL    HW138531   1.846   3.672   2.127 -0.5473  0.6147 -0.8910
 9024SOL    HW238532   1.950   3.606   2.042  0.6713 -1.5651  2.6230
 9025SOL     OW38533   2.093   0.324   9.384  0.2633  0.1104 -0.0698
 9025SOL    HW138534   2.008   0.318   9.428  0.9180 -1.8662  0.9724
 9025SOL    HW238535   2.140   0.257   9.434  0.0816  0.2948  0.3515
 9026SOL     OW38536   2.491   1.219   3.559  0.1571 -0.1813  0.6558
 9026SOL    HW138537   2.547   1.214   3.482 -0.1625 -0.7357  0.4602
 9026SOL    HW238538   2.524   1.286   3.619  1.7012 -0.9151  0.6231
 9027SOL     OW38539   0.457   3.084   7.151  0.0241  0.1159  0.6044
 9027SOL    HW138540   0.431   3.014   7.211  0.5334 -0.8435 -0.2877
 9027SOL    HW238541   0.377   3.134   7.135  0.1189  0.2181  0.4506
 9028SOL     OW38542   4.277   0.043   5.081 -0.3559 -0.1176  0.1262
 9028SOL    HW138543   4.198   0.040   5.026 -0.7212 -1.3153  0.7294
 9028SOL    HW238544   4.257   0.119   5.136  0.4884 -0.3081  0.6954
 9029SOL     OW38545   2.458   2.487  16.681  0.9231 -0.8379  0.1532
 9029SOL    HW138546   2.420   2.572  16.703  3.3814  0.2839  0.0384
 9029SOL    HW238547   2.501   2.472  16.766  0.8108 -0.8877  0.2008
 9030SOL     OW38548   1.449   1.600   1.114  0.3930  0.4230  0.7840
 9030SOL    HW138549   1.379   1.652   1.076  1.7344  1.3985 -0.3634
 9030SOL    HW238550   1.421   1.510   1.099 -3.3399  1.6471  0.3141
 9031SOL     OW38551   2.657   4.545   8.113  0.9086  0.1626 -0.2574
 9031SOL    HW138552   2.664   4.636   8.085  3.0721 -0.4962 -1.8714
 9031SOL    HW238553   2.743   4.524   8.151  1.1726  2.7662  0.5858
 9032SOL     OW38554   1.796   0.186   7.345 -0.4396 -0.1636  0.1785
 9032SOL    HW138555   1.743   0.108   7.358 -0.6816 -0.0646 -0.2017
 9032SOL    HW238556   1.737   0.260   7.360 -0.9526 -0.0326 -2.3427
 9033SOL     OW38557   1.271   3.466   4.119 -0.4938 -0.1096 -0.4700
 9033SOL    HW138558   1.331   3.520   4.069  2.6555 -2.5679  0.6476
 9033SOL    HW238559   1.250   3.404   4.049  2.1890 -1.5553 -0.0030
 9034SOL     OW38560   4.185   3.517   6.711  0.2570 -0.0156  0.0727
 9034SOL    HW138561   4.191   3.533   6.616 -2.2280 -1.4334 -0.3140
 9034SOL    HW238562   4.170   3.608   6.737  1.1348 -0.0033  0.5484
 9035SOL     OW38563   0.627   2.027   8.636 -0.6921  0.3870 -0.0546
 9035SOL    HW138564   0.577   2.102   8.668  2.0656  1.9087  0.6480
 9035SOL    HW238565   0.632   1.979   8.718  0.5456  0.6699  0.0337
 9036SOL     OW38566   3.352   3.864   8.581 -0.0122 -0.0689 -0.3972
 9036SOL    HW138567   3.359   3.874   8.676 -1.7659 -1.3363 -0.1383
 9036SOL    HW238568   3.375   3.772   8.568  0.6571  0.4938 -3.0630
 9037SOL     OW38569   0.265   0.950   7.229 -0.0522 -0.0879 -0.4082
 9037SOL    HW138570   0.209   0.872   7.230 -0.3744  0.1573  1.5394
 9037SOL    HW238571   0.207   1.021   7.203  3.1244  3.0381  1.0794
 9038SOL     OW38572   3.600   0.619  13.319  0.2868  0.6918  0.3225
 9038SOL    HW138573   3.511   0.654  13.321  1.6253  4.1860 -0.2367
 9038SOL    HW238574   3.578   0.529  13.295  0.5146  1.0014 -1.0767
 9039SOL     OW38575   0.048   2.511   5.074  0.7036 -0.5190 -0.1265
 9039SOL    HW138576   0.074   2.424   5.104  0.5061 -0.1125  1.1962
 9039SOL    HW238577   0.014   2.487   4.987  1.9064 -1.6165 -0.3013
 9040SOL     OW38578   1.472   2.997   9.563 -0.7073 -0.0556  0.1781
 9040SOL    HW138579   1.524   2.935   9.614  2.2206  0.9986 -1.5531
 9040SOL    HW238580   1.505   3.081   9.594 -1.2192  0.4107 -0.5507
 9041SOL     OW38581   3.795   1.654   8.080 -0.4329 -0.1791  0.6686
 9041SOL    HW138582   3.803   1.687   7.990  1.3444  0.8284  1.2007
 9041SOL    HW238583   3.883   1.663   8.115 -0.6617  0.4259  1.0757
 9042SOL     OW38584   4.261   3.022  17.394  0.1093  0.7009  0.2402
 9042SOL    HW138585   4.345   3.054  17.425  0.8900 -1.2584  0.0930
 9042SOL    HW238586   4.210   3.103  17.388 -0.1135  0.5448  0.0353
 9043SOL     OW38587   3.833   0.852   8.035 -0.0198  0.5109 -0.5561
 9043SOL    HW138588   3.841   0.796   7.958 -1.1284 -0.5101  0.0642
 9043SOL    HW238589   3.892   0.925   8.019  0.4902  0.1066 -0.5030
 9044SOL     OW38590   0.717   3.497   6.245 -0.3093 -0.0182  0.0413
 9044SOL    HW138591   0.668   3.486   6.164  1.8059 -1.0359 -1.1016
 9044SOL    HW238592   0.710   3.410   6.283 -1.8822  0.2189  0.2907
 9045SOL     OW38593   3.847   1.679   0.407  0.1529 -0.6087  0.5449
 9045SOL    HW138594   3.774   1.695   0.347  0.7192 -1.3231 -0.3347
 9045SOL    HW238595   3.924   1.692   0.352 -0.1349 -1.0075  0.0503
 9046SOL     OW38596   1.261   0.961   8.214  0.6639 -0.4970  0.0942
 9046SOL    HW138597   1.281   0.896   8.282  2.3270  0.7277  0.7514
 9046SOL    HW238598   1.175   0.996   8.237  0.5338  0.0641 -1.2491
 9047SOL     OW38599   0.695   2.302   3.787  0.3921 -0.2785  0.3453
 9047SOL    HW138600   0.641   2.252   3.725 -1.2916 -0.3621  1.8633
 9047SOL    HW238601   0.715   2.379   3.734  0.0224 -0.3011  0.1758
 9048SOL     OW38602   2.724   2.396  10.455  0.6714 -0.4688  0.0210
 9048SOL    HW138603   2.702   2.352  10.372 -2.6727 -2.0830  1.7713
 9048SOL    HW238604   2.816   2.373  10.471  0.6948  1.2693  2.3554
 9049SOL     OW38605   4.469   0.359   6.533  0.1472 -0.5928 -0.5085
 9049SOL    HW138606   4.517   0.404   6.464  0.2889  1.6767  1.0591
 9049SOL    HW238607   4.420   0.301   6.475  1.4939 -2.1538 -0.0753
 9050SOL     OW38608   0.128   3.385   6.511 -0.1400  0.2214  0.0491
 9050SOL    HW138609   0.136   3.458   6.572 -0.1027 -1.2636  1.8037
 9050SOL    HW238610   0.181   3.409   6.435 -2.4048 -0.3140 -1.6963
 9051SOL     OW38611   0.979   0.293   2.108  0.9309 -0.4229 -0.4608
 9051SOL    HW138612   0.926   0.270   2.032  1.2842  2.6345 -1.6184
 9051SOL    HW238613   1.065   0.315   2.072 -0.3885 -2.1168 -4.6656
 9052SOL     OW38614   2.968   3.543   8.010  0.2500  0.3577 -0.0743
 9052SOL    HW138615   3.050   3.507   8.045 -0.4664 -1.6941 -0.4915
 9052SOL    HW238616   2.903   3.479   8.038  0.4798  0.5373  0.8545
 9053SOL     OW38617   1.033   0.479   2.771  0.2361 -0.6351  0.4184
 9053SOL    HW138618   0.981   0.476   2.691  0.7893  0.8837  0.0162
 9053SOL    HW238619   1.078   0.395   2.763 -1.6944 -1.6406 -0.1144
 9054SOL     OW38620   0.887   2.011   4.390 -0.3623  0.2803 -0.1288
 9054SOL    HW138621   0.976   2.046   4.385 -0.7934  1.0717 -2.0838
 9054SOL    HW238622   0.866   2.029   4.482 -2.1551 -0.7654 -0.3343
 9055SOL     OW38623   3.798   2.445   2.247  0.6095  0.5366 -0.6983
 9055SOL    HW138624   3.718   2.415   2.290  3.5100 -4.7748  0.9658
 9055SOL    HW238625   3.817   2.510   2.315  1.7744 -0.9078  0.3692
 9056SOL     OW38626   4.219   3.759   2.290 -0.3926 -0.2097 -0.0376
 9056SOL    HW138627   4.213   3.663   2.289  0.0044 -0.2352  0.0422
 9056SOL    HW238628   4.230   3.786   2.199 -1.8077 -0.8358 -0.4008
 9057SOL     OW38629   2.224   0.426   5.887 -0.5973  0.0303  0.1463
 9057SOL    HW138630   2.165   0.364   5.930 -0.5382  0.0414  0.2427
 9057SOL    HW238631   2.172   0.501   5.856 -0.6473 -0.6844 -1.4665
 9058SOL     OW38632   1.102   4.669   1.994  0.0239  0.3128 -0.2088
 9058SOL    HW138633   1.113   4.653   1.901  0.8323 -0.7507  0.0738
 9058SOL    HW238634   1.173   4.612   2.025 -1.2539 -1.0370  0.2011
 9059SOL     OW38635   0.506   4.302   1.446 -0.0780  0.5048  0.7280
 9059SOL    HW138636   0.498   4.352   1.365  1.0997 -0.1105  0.2337
 9059SOL    HW238637   0.416   4.279   1.466  0.9282 -2.6889  1.5566
 9060SOL     OW38638   4.336   3.210   9.167  0.0805 -0.1812 -0.5115
 9060SOL    HW138639   4.390   3.289   9.175  0.4054 -0.6071  1.4343
 9060SOL    HW238640   4.385   3.131   9.189  1.8958  0.3960 -2.4297
 9061SOL     OW38641   1.065   0.028   7.432 -0.0879 -0.0824  0.2885
 9061SOL    HW138642   1.023   0.067   7.509  1.5555 -0.0563  1.1612
 9061SOL    HW238643   1.074   4.658   7.461  1.2017  0.8039  2.6274
 9062SOL     OW38644   3.225   4.382   2.463 -0.2967  0.4759 -0.5175
 9062SOL    HW138645   3.139   4.422   2.474 -0.7020 -0.1286 -1.4756
 9062SOL    HW238646   3.219   4.294   2.501  0.1132  1.6562  2.2659
 9063SOL     OW38647   1.570   2.131  14.308 -0.3249 -0.1097 -0.0592
 9063SOL    HW138648   1.583   2.217  14.270  0.8741  0.0873  0.7580
 9063SOL    HW238649   1.580   2.150  14.401 -1.8835 -0.7577  0.2405
 9064SOL     OW38650   0.966   3.410   5.431 -0.1152  0.2625  0.3761
 9064SOL    HW138651   1.022   3.340   5.396  1.0230  1.0038  0.7178
 9064SOL    HW238652   0.884   3.375   5.395 -0.1630  1.6210 -0.8171
 9065SOL     OW38653   2.797   2.554   4.981 -0.2155  0.0841 -0.3020
 9065SOL    HW138654   2.750   2.571   4.899  0.8936  2.2597 -0.4975
 9065SOL    HW238655   2.745   2.598   5.049  0.0449  1.7225 -1.1565
 9066SOL     OW38656   3.506   2.514   5.578  0.4933 -0.7345 -0.5147
 9066SOL    HW138657   3.460   2.501   5.496 -2.9072 -1.1665  1.4690
 9066SOL    HW238658   3.517   2.609   5.572  0.4924 -0.6384  0.9657
 9067SOL     OW38659   0.558   3.609   1.496  0.0733 -0.3131 -0.3076
 9067SOL    HW138660   0.620   3.542   1.525  0.6355  0.3054 -0.0849
 9067SOL    HW238661   0.624   3.675   1.474  0.1477 -0.5647 -0.8433
 9068SOL     OW38662   0.779   0.295   0.048 -0.1825  0.5959 -0.1246
 9068SOL    HW138663   0.810   0.293  17.644 -0.0938  1.2502 -0.1136
 9068SOL    HW238664   0.726   0.219   0.069  1.2003 -1.0469 -2.6114
 9069SOL     OW38665   0.804   2.187   7.397 -0.1160  0.1849  0.0857
 9069SOL    HW138666   0.837   2.108   7.355 -0.5773 -0.3359  0.7025
 9069SOL    HW238667   0.823   2.167   7.488 -0.0078  0.7686  0.1898
 9070SOL     OW38668   4.719   2.718   7.125  0.2542  0.7382 -0.4286
 9070SOL    HW138669   0.007   2.780   7.052  0.9006 -0.2576 -1.2076
 9070SOL    HW238670   0.029   2.772   7.197 -1.2886  2.5753 -1.1410
 9071SOL     OW38671   1.269   0.715  14.679 -0.8176 -0.1083 -0.5261
 9071SOL    HW138672   1.326   0.689  14.752  0.2953  0.4845 -1.1926
 9071SOL    HW238673   1.205   0.647  14.699  1.6134 -1.6200  2.0663
 9072SOL     OW38674   0.318   2.493   3.285  0.7381  0.1788 -0.8765
 9072SOL    HW138675   0.262   2.424   3.248 -0.5850  0.3897  0.7420
 9072SOL    HW238676   0.331   2.557   3.215 -0.2182  1.3207 -0.0018
 9073SOL     OW38677   4.080   0.105   7.334  0.1099  0.0817 -1.1809
 9073SOL    HW138678   4.167   0.113   7.374 -1.1489 -1.0462  1.7009
 9073SOL    HW238679   4.041   0.040   7.392 -1.0634  2.5344  0.7327
 9074SOL     OW38680   2.978   1.211   1.895  0.1568  0.7174  0.0770
 9074SOL    HW138681   2.931   1.167   1.824  1.7290  1.3913 -1.3682
 9074SOL    HW238682   3.026   1.285   1.858  0.1701 -0.1467 -1.5962
 9075SOL     OW38683   3.290   0.623   2.728  0.5031  0.4363  0.0514
 9075SOL    HW138684   3.213   0.648   2.778 -0.9287  0.5294 -2.2026
 9075SOL    HW238685   3.338   0.601   2.808 -0.6220  2.9961  1.4213
 9076SOL     OW38686   4.715   0.183  15.279 -0.4421  0.4758 -0.0467
 9076SOL    HW138687   4.673   0.122  15.340 -0.0212 -0.2378 -0.4792
 9076SOL    HW238688   4.648   0.251  15.277 -0.0006  0.9035 -0.2101
 9077SOL     OW38689   0.871   1.214   7.377  0.1330  0.2956 -0.5303
 9077SOL    HW138690   0.825   1.298   7.383  1.9129  1.2660 -0.5822
 9077SOL    HW238691   0.812   1.161   7.431  3.5166 -1.8185  1.0665
 9078SOL     OW38692   0.178   1.171   4.971 -0.1943 -0.4132 -0.2145
 9078SOL    HW138693   0.253   1.195   4.916  0.4662  0.0278  0.8900
 9078SOL    HW238694   0.224   1.108   5.026 -0.0819 -0.0376  0.1180
 9079SOL     OW38695   0.153   3.766   1.317  0.1364  0.3056 -0.8474
 9079SOL    HW138696   0.120   3.845   1.359 -0.1854 -1.2274  1.8071
 9079SOL    HW238697   0.066   3.726   1.306 -0.1568  1.1005 -1.3587
 9080SOL     OW38698   4.027   4.537  16.204 -0.2647 -0.2606  0.0836
 9080SOL    HW138699   3.959   4.602  16.186  0.6299  0.5256 -0.4772
 9080SOL    HW238700   4.001   4.459  16.155 -0.2097 -0.2888  0.0990
 9081SOL     OW38701   0.574   1.231   2.594 -0.4204 -0.3374  0.3621
 9081SOL    HW138702   0.493   1.181   2.583 -0.8389  0.4884 -0.2978
 9081SOL    HW238703   0.577   1.249   2.688 -0.7144  0.3915  0.2292
 9082SOL     OW38704   3.154   4.015   6.467  0.0431  0.4035 -0.2016
 9082SOL    HW138705   3.223   3.951   6.488  1.1074  1.3221 -0.9153
 9082SOL    HW238706   3.133   4.055   6.551 -1.0070  1.9713 -1.2191
 9083SOL     OW38707   1.727   0.305   0.888 -0.0586  0.0237 -0.4416
 9083SOL    HW138708   1.691   0.388   0.855  1.0133  0.3653 -0.7355
 9083SOL    HW238709   1.810   0.318   0.934 -0.7337 -1.8484  1.3149
 9084SOL     OW38710   1.420   0.555   7.527 -0.3978  0.1547  0.5746
 9084SOL    HW138711   1.337   0.602   7.526  0.8201  2.3114  1.2392
 9084SOL    HW238712   1.489   0.621   7.532  0.2647 -0.6209  1.7481
 9085SOL     OW38713   0.359   0.648  13.662 -0.0466  0.3062 -0.5029
 9085SOL    HW138714   0.265   0.650  13.683 -0.0709 -1.7868 -0.4601
 9085SOL    HW238715   0.399   0.606  13.737  0.4605  1.3433 -0.1864
 9086SOL     OW38716   2.462   4.651   9.854 -0.0772  0.0986 -0.1517
 9086SOL    HW138717   2.450   4.712   9.926  2.1384 -0.9910  1.1435
 9086SOL    HW238718   2.555   4.633   9.869  0.2293  1.4224 -0.4654
 9087SOL     OW38719   3.811   2.987   5.009 -1.1224 -0.0250  0.7728
 9087SOL    HW138720   3.895   3.031   4.995 -0.2910 -2.2380 -1.3342
 9087SOL    HW238721   3.770   3.068   5.039 -0.3006  0.3007  1.0322
 9088SOL     OW38722   1.386   2.929   1.015 -0.0171 -0.5167 -0.1047
 9088SOL    HW138723   1.336   2.996   0.967 -0.5547 -0.2037  0.8966
 9088SOL    HW238724   1.312   2.875   1.042 -2.2789  2.1973 -0.8453
 9089SOL     OW38725   2.626   2.780   8.482  0.5375 -0.1372 -0.6203
 9089SOL    HW138726   2.695   2.795   8.546  0.6235 -0.6848 -0.5843
 9089SOL    HW238727   2.636   2.686   8.465  0.1573 -0.5018  1.1856
 9090SOL     OW38728   1.223   1.174   5.135 -0.8205  0.8513 -0.6367
 9090SOL    HW138729   1.203   1.101   5.193  1.1848  0.4603 -0.4400
 9090SOL    HW238730   1.308   1.195   5.174  1.0640 -0.6184 -3.8638
 9091SOL     OW38731   0.353   2.205  16.885 -0.5851 -0.1621  0.1192
 9091SOL    HW138732   0.351   2.210  16.789  0.3793  0.2585  0.1234
 9091SOL    HW238733   0.408   2.283  16.891 -0.3848 -0.1311 -2.1415
 9092SOL     OW38734   0.160   3.826   2.519  0.1491  0.6472 -0.3740
 9092SOL    HW138735   0.101   3.805   2.591  0.6421 -1.5148 -0.6045
 9092SOL    HW238736   0.097   3.823   2.447 -0.7775  1.9999  0.3729
 9093SOL     OW38737   1.556   3.526  12.423  0.4791  0.4505 -0.1115
 9093SOL    HW138738   1.647   3.551  12.409  0.8804 -0.8153  0.2813
 9093SOL    HW238739   1.577   3.459  12.487 -3.3390 -1.2184 -0.6190
 9094SOL     OW38740   3.834   3.490   8.760 -0.5973 -0.0425 -0.5554
 9094SOL    HW138741   3.810   3.412   8.809  0.9795 -1.3115 -1.8187
 9094SOL    HW238742   3.832   3.551   8.834 -1.7601 -0.3094 -0.3595
 9095SOL     OW38743   3.970   1.450  14.340  0.4809 -0.5136 -0.1397
 9095SOL    HW138744   3.977   1.403  14.257  2.3326  1.2293 -0.9642
 9095SOL    HW238745   3.943   1.383  14.403 -1.3442 -1.1135 -1.5996
 9096SOL     OW38746   3.269   4.620   3.871 -0.2256  0.1662  0.6759
 9096SOL    HW138747   3.337   4.685   3.852  0.6785 -0.8280  0.5049
 9096SOL    HW238748   3.264   4.634   3.965 -0.8655  0.5839  0.5839
 9097SOL     OW38749   4.270   2.252   4.127  0.4433 -0.7103  0.1391
 9097SOL    HW138750   4.180   2.223   4.114  0.3064  1.0279 -2.8302
 9097SOL    HW238751   4.271   2.348   4.130  0.5074 -0.6576 -1.4146
 9098SOL     OW38752   2.403   1.403   3.194  0.1244 -0.0453  0.2012
 9098SOL    HW138753   2.401   1.356   3.111 -0.2567  0.0859  0.1384
 9098SOL    HW238754   2.309   1.398   3.206 -0.1593  0.2670 -1.9152
 9099SOL     OW38755   0.669   0.800  12.521  0.1494  0.2895 -0.2241
 9099SOL    HW138756   0.601   0.800  12.453 -0.7007 -1.6195  0.6412
 9099SOL    HW238757   0.694   0.891  12.538 -2.1110  0.9228 -0.2929
 9100SOL     OW38758   3.387   1.950   3.442 -0.3441 -0.5421 -0.1115
 9100SOL    HW138759   3.437   1.962   3.523 -2.2323 -0.9157  1.1118
 9100SOL    HW238760   3.318   2.017   3.451  0.9268  0.8629 -0.8545
 9101SOL     OW38761   0.970   0.706   5.227 -0.1823 -0.2669 -0.0333
 9101SOL    HW138762   0.896   0.696   5.167 -0.1408  0.4771 -0.2155
 9101SOL    HW238763   0.976   0.615   5.255  1.9510 -0.2189 -0.3396
 9102SOL     OW38764   1.211   0.354   7.355 -0.3961  0.2000 -0.3126
 9102SOL    HW138765   1.143   0.419   7.334 -2.7822 -2.9579 -2.3244
 9102SOL    HW238766   1.287   0.372   7.300 -1.9229 -0.3453 -2.6147
 9103SOL     OW38767   3.802   4.472  13.429 -0.5012  0.7662  0.4748
 9103SOL    HW138768   3.740   4.414  13.473 -1.9681  0.5187 -1.9306
 9103SOL    HW238769   3.757   4.487  13.346  1.0568 -1.5856 -0.8143
 9104SOL     OW38770   0.826   1.428   5.825 -0.1920  0.6790  1.1186
 9104SOL    HW138771   0.731   1.434   5.832 -0.6092 -3.0676 -1.4817
 9104SOL    HW238772   0.837   1.504   5.768  0.3836 -1.3893 -1.5066
 9105SOL     OW38773   0.125   3.678   4.492 -0.2303 -0.5205 -0.3544
 9105SOL    HW138774   0.219   3.694   4.481  0.4376 -3.7311  0.7895
 9105SOL    HW238775   0.104   3.723   4.574  0.8772 -1.3982  0.4080
 9106SOL     OW38776   0.490   4.658   8.915  0.5441 -0.0388 -0.7745
 9106SOL    HW138777   0.404   4.617   8.913 -0.0168  1.1809 -1.4119
 9106SOL    HW238778   0.506   4.675   8.822  2.6004 -0.0607 -0.4264
 9107SOL     OW38779   2.083   3.777  11.430 -0.9206  0.3031 -0.1244
 9107SOL    HW138780   2.017   3.732  11.483 -3.5894  2.1776 -1.8443
 9107SOL    HW238781   2.139   3.700  11.436 -0.3300  0.7072 -0.5330
 9108SOL     OW38782   2.054   3.337  10.747  0.4496 -0.6097  0.1686
 9108SOL    HW138783   2.090   3.423  10.768  1.1474 -0.4554 -1.7114
 9108SOL    HW238784   2.136   3.287  10.746 -0.3787 -1.9539 -0.2052
 9109SOL     OW38785   3.920   1.458  11.878  0.9353 -0.7444 -0.6473
 9109SOL    HW138786   3.863   1.485  11.950  2.7001 -0.5298  0.6448
 9109SOL    HW238787   3.995   1.517  11.884  1.2445 -1.1815 -0.2427
 9110SOL     OW38788   3.154   0.651   9.056  0.0049 -0.1154 -0.0396
 9110SOL    HW138789   3.233   0.599   9.073  0.7697  0.4214 -1.8999
 9110SOL    HW238790   3.190   0.739   9.039  0.3189  0.0275  1.3107
 9111SOL     OW38791   0.290   2.017   5.225 -0.3882 -0.2129  0.0106
 9111SOL    HW138792   0.282   2.059   5.310  2.6003  0.4336 -0.0211
 9111SOL    HW238793   0.199   2.009   5.195 -0.4616  3.0850 -0.6606
 9112SOL     OW38794   1.660   0.192   1.148  0.2338 -0.4184  0.3887
 9112SOL    HW138795   1.694   0.265   1.096  2.1063 -0.8962  0.9564
 9112SOL    HW238796   1.567   0.215   1.148  0.0687 -1.0840  0.5119
 9113SOL     OW38797   4.024   2.397  16.632 -0.1495 -0.5067 -0.4445
 9113SOL    HW138798   3.948   2.378  16.577 -1.8588 -2.5758  2.6056
 9113SOL    HW238799   4.042   2.307  16.661 -1.5044  0.5256  3.6173
 9114SOL     OW38800   2.243   0.738   6.105  0.0982 -0.2052 -0.3933
 9114SOL    HW138801   2.194   0.708   6.029 -1.3822 -1.6471  1.1088
 9114SOL    HW238802   2.307   0.668   6.117  1.4588  1.5011  2.2736
 9115SOL     OW38803   1.843   1.398   1.328  0.4466 -0.1904  0.0228
 9115SOL    HW138804   1.852   1.466   1.261 -2.8874  0.9681  0.7499
 9115SOL    HW238805   1.750   1.380   1.336  0.2154  0.5205 -1.0882
 9116SOL     OW38806   2.481   4.548   8.502  0.0572 -0.0205  0.2863
 9116SOL    HW138807   2.514   4.636   8.484  1.0850 -0.4492  0.0609
 9116SOL    HW238808   2.516   4.536   8.590 -1.2986  0.4899  0.8943
 9117SOL     OW38809   0.354   0.538   5.615 -0.6685 -0.2140  0.4878
 9117SOL    HW138810   0.358   0.629   5.645 -3.2646  0.4937 -1.3142
 9117SOL    HW238811   0.444   0.519   5.643 -0.2708  2.7157  1.1842
 9118SOL     OW38812   1.345   4.114   5.009 -0.4697  0.5495  0.3614
 9118SOL    HW138813   1.384   4.040   4.962 -0.2117  0.7781  0.2100
 9118SOL    HW238814   1.409   4.183   4.992 -1.2695  0.9810 -0.9771
 9119SOL     OW38815   1.984   2.323   2.330  0.1765  0.0277 -0.7015
 9119SOL    HW138816   1.912   2.386   2.337  0.6152  0.6672 -1.9535
 9119SOL    HW238817   2.047   2.376   2.281  1.1968 -1.0811 -0.5992
 9120SOL     OW38818   1.110   0.536  14.821 -0.0829  0.5029  0.7877
 9120SOL    HW138819   1.034   0.543  14.763  1.5609 -1.0532 -1.5653
 9120SOL    HW238820   1.060   0.531  14.902  0.2974 -1.7130  0.8823
 9121SOL     OW38821   4.265   3.299   6.836  0.6896 -0.1504  0.2307
 9121SOL    HW138822   4.185   3.249   6.854  1.7312 -0.4493  4.0374
 9121SOL    HW238823   4.244   3.365   6.770  1.6886 -1.5362 -1.4808
 9122SOL     OW38824   3.864   4.028   7.261  0.2243  0.1694 -0.3778
 9122SOL    HW138825   3.863   4.034   7.165  0.4348  0.4655 -0.3593
 9122SOL    HW238826   3.948   4.072   7.273  0.4409 -1.0190  2.4158
 9123SOL     OW38827   3.119   2.096   9.970  0.4292 -0.2212  0.2439
 9123SOL    HW138828   3.040   2.054   9.938  2.5030 -2.6670 -1.6350
 9123SOL    HW238829   3.131   2.164   9.903  0.6104  0.8675  1.3967
 9124SOL     OW38830   3.457   4.559   8.234 -0.1968 -0.2475  0.0083
 9124SOL    HW138831   3.452   4.641   8.283  0.5408 -0.8785  1.1413
 9124SOL    HW238832   3.373   4.527   8.266 -0.8073  1.5443  0.2139
 9125SOL     OW38833   1.176   2.860   5.340  0.3203 -0.5667 -0.2680
 9125SOL    HW138834   1.147   2.779   5.382 -1.6109 -0.2075 -0.9092
 9125SOL    HW238835   1.152   2.853   5.248  0.3913  0.5029 -0.3731
 9126SOL     OW38836   1.228   1.999   5.262 -0.2686  0.5655 -0.4652
 9126SOL    HW138837   1.188   2.062   5.322  2.9394  1.2855  0.9196
 9126SOL    HW238838   1.187   1.919   5.295  1.9606 -0.9981 -1.5416
 9127SOL     OW38839   0.267   2.392   5.617 -0.5750 -0.2100  0.5382
 9127SOL    HW138840   0.260   2.450   5.693 -1.8844 -1.8072  1.6578
 9127SOL    HW238841   0.335   2.432   5.563  1.6086 -2.2340  1.7804
 9128SOL     OW38842   2.184   2.480   5.864  0.5499 -0.4147  0.3481
 9128SOL    HW138843   2.223   2.413   5.920 -0.6948 -2.5477 -1.3044
 9128SOL    HW238844   2.209   2.455   5.774  2.2160 -0.1848  0.7414
 9129SOL     OW38845   1.674   1.619   6.838  0.3461 -0.2311  0.4834
 9129SOL    HW138846   1.651   1.710   6.859 -0.3149 -0.5814  1.2800
 9129SOL    HW238847   1.766   1.625   6.864  0.4959 -1.7213  0.2830
 9130SOL     OW38848   4.101   1.180   6.001  0.1748  0.2922  0.3066
 9130SOL    HW138849   4.176   1.211   6.051  0.0280 -1.0089  1.3280
 9130SOL    HW238850   4.105   1.086   6.018  2.0051  0.4588  0.8311
 9131SOL     OW38851   3.477   0.957   7.995  0.2238 -0.1668 -0.0459
 9131SOL    HW138852   3.413   1.024   7.971 -0.7033 -0.8850  0.4455
 9131SOL    HW238853   3.504   0.920   7.911  1.8994  1.2168 -0.1040
 9132SOL     OW38854   2.707   1.807   3.046 -0.5186 -0.3779  0.7997
 9132SOL    HW138855   2.649   1.742   3.085 -0.5260  0.4005  2.0753
 9132SOL    HW238856   2.702   1.881   3.106 -5.0198  0.4660 -0.6300
 9133SOL     OW38857   3.126   0.560   5.862  0.2316  0.0884 -0.3631
 9133SOL    HW138858   3.187   0.490   5.882  0.6829  0.6047  0.0519
 9133SOL    HW238859   3.039   0.521   5.876 -0.5580  0.8814 -3.1013
 9134SOL     OW38860   1.185   4.440   4.625  0.2465 -0.0174  0.4255
 9134SOL    HW138861   1.219   4.458   4.712 -0.8108 -0.2147  0.8844
 9134SOL    HW238862   1.233   4.358   4.615  1.0616  0.4121  0.7953
 9135SOL     OW38863   2.912   0.178   7.533  0.0886  0.3214  0.0728
 9135SOL    HW138864   2.941   0.087   7.543  1.0849  0.7516  1.1316
 9135SOL    HW238865   2.988   0.210   7.483 -0.3511 -0.0647 -0.8451
 9136SOL     OW38866   2.973   2.578   3.084  0.3361  0.6190  0.6945
 9136SOL    HW138867   3.055   2.621   3.060  0.2003 -0.3710 -1.5176
 9136SOL    HW238868   2.901   2.625   3.041 -2.0192 -2.7178  0.9840
 9137SOL     OW38869   3.686   0.233   5.343 -0.4262 -0.2101  0.0736
 9137SOL    HW138870   3.621   0.303   5.343 -2.4415 -2.0619  1.0718
 9137SOL    HW238871   3.637   0.152   5.324  0.7938 -0.9209 -0.0324
 9138SOL     OW38872   0.855   3.609   5.803 -0.7332  0.0901  0.3720
 9138SOL    HW138873   0.844   3.612   5.898  0.4051  1.8954  0.4420
 9138SOL    HW238874   0.950   3.621   5.802 -0.9648  2.0547  2.4493
 9139SOL     OW38875   3.859   4.646   1.764  0.4861  0.1688 -0.5013
 9139SOL    HW138876   3.816   4.681   1.686 -0.8808 -1.0405 -0.2827
 9139SOL    HW238877   3.946   4.686   1.761  0.6434 -0.1923 -0.8402
 9140SOL     OW38878   3.060   4.629   1.723 -0.1232  0.3286 -0.3460
 9140SOL    HW138879   3.067   0.003   1.737  2.7023  0.0701  0.0142
 9140SOL    HW238880   2.965   4.620   1.730 -0.0655  0.0465  0.0191
 9141SOL     OW38881   0.052   2.265   6.692 -0.5260 -0.3631  0.3116
 9141SOL    HW138882   4.719   2.189   6.717  0.6884 -0.5270  2.4130
 9141SOL    HW238883   0.124   2.256   6.754  0.1880  2.4078 -0.1318
 9142SOL     OW38884   1.433   4.240  15.772  0.0294  1.1122  0.4998
 9142SOL    HW138885   1.408   4.150  15.794  0.1459  0.8480 -0.4440
 9142SOL    HW238886   1.434   4.250  15.677 -0.1826 -0.5157  0.3246
 9143SOL     OW38887   3.813   1.052   8.416  0.1348  0.1728  0.3897
 9143SOL    HW138888   3.830   0.994   8.491  1.1587 -1.7506 -1.3232
 9143SOL    HW238889   3.803   0.991   8.343 -0.8088  1.6917 -0.7435
 9144SOL     OW38890   2.287   4.385   9.140  0.1655  0.4181  0.2292
 9144SOL    HW138891   2.333   4.455   9.092  1.9082 -1.1155 -0.3591
 9144SOL    HW238892   2.232   4.439   9.196 -0.6176 -1.3273  1.1338
 9145SOL     OW38893   3.539   3.743   4.635  0.2457  0.2602  0.8431
 9145SOL    HW138894   3.457   3.728   4.683 -0.4821  1.0889 -0.1399
 9145SOL    HW238895   3.603   3.744   4.707 -0.4510  0.6525  1.4615
 9146SOL     OW38896   2.816   0.404  10.789  0.0036  0.6834  0.0591
 9146SOL    HW138897   2.727   0.411  10.754  0.3593  0.3578 -0.9198
 9146SOL    HW238898   2.843   0.317  10.759 -1.8947  0.6740 -1.5945
 9147SOL     OW38899   2.536   3.522  16.138  0.5040  0.0149 -0.0009
 9147SOL    HW138900   2.530   3.611  16.102 -1.7103  0.5754  1.6949
 9147SOL    HW238901   2.452   3.485  16.111  0.9522 -0.8905 -0.1524
 9148SOL     OW38902   1.934   2.365  14.628 -0.2856  0.1137  0.8622
 9148SOL    HW138903   1.961   2.393  14.716  1.4491 -0.6235  0.5704
 9148SOL    HW238904   1.849   2.323  14.641 -0.7508  1.1399  1.1583
 9149SOL     OW38905   2.127   2.736   8.453  0.8969 -0.2789 -0.2903
 9149SOL    HW138906   2.160   2.753   8.541  0.6131 -1.1325 -0.0131
 9149SOL    HW238907   2.034   2.740   8.474  0.7035 -0.9334 -0.9943
 9150SOL     OW38908   3.784   0.900   9.991  0.6846  0.0401  0.8800
 9150SOL    HW138909   3.875   0.922  10.012  0.7858  0.5880 -0.1660
 9150SOL    HW238910   3.806   0.837   9.923 -1.9757  0.8389 -0.7227
 9151SOL     OW38911   2.734   0.484   8.474  0.4119  0.1893  0.4258
 9151SOL    HW138912   2.787   0.443   8.405 -1.7966 -1.4373 -0.3012
 9151SOL    HW238913   2.646   0.460   8.446  0.3315  0.4971  0.4122
 9152SOL     OW38914   0.936   1.940  13.137 -0.2264  0.0245  0.0100
 9152SOL    HW138915   0.956   2.015  13.192 -2.6932  0.8920 -0.2979
 9152SOL    HW238916   1.027   1.915  13.117  0.3029  3.0222 -1.3256
 9153SOL     OW38917   3.338   4.074  14.727 -0.4903 -0.1859  0.2389
 9153SOL    HW138918   3.262   4.103  14.778 -0.6730 -0.0241 -0.1292
 9153SOL    HW238919   3.305   4.110  14.645 -0.4031  1.3110  0.8609
 9154SOL     OW38920   0.915   1.010  13.173 -0.6314 -0.1011 -0.1810
 9154SOL    HW138921   0.989   1.036  13.117 -1.5866  0.4276 -1.1818
 9154SOL    HW238922   0.864   0.986  13.096  2.6051 -0.9451 -2.0603
 9155SOL     OW38923   2.076   1.491   9.024  0.7467 -0.1586 -0.5237
 9155SOL    HW138924   2.090   1.396   9.030  0.5760 -0.0985  0.8518
 9155SOL    HW238925   2.050   1.507   8.933  0.2170 -2.1921 -0.7503
 9156SOL     OW38926   4.558   2.214  12.549  0.1781 -0.1307  0.6025
 9156SOL    HW138927   4.549   2.169  12.634  1.0128 -0.2967  0.6025
 9156SOL    HW238928   4.504   2.292  12.561  0.3823  0.1868 -0.5865
 9157SOL     OW38929   2.830   3.629   1.117 -0.2708 -0.4029  0.1057
 9157SOL    HW138930   2.862   3.606   1.030  0.7807  0.2191  0.3316
 9157SOL    HW238931   2.912   3.661   1.153 -0.5812  0.6467 -0.1338
 9158SOL     OW38932   1.450   4.263   5.331 -0.2499 -0.2693 -0.0342
 9158SOL    HW138933   1.357   4.244   5.318 -0.6096  1.8527 -0.5911
 9158SOL    HW238934   1.449   4.333   5.397 -0.6148  0.3350 -0.6801
 9159SOL     OW38935   1.281   2.875  13.466 -0.3452 -0.0357 -0.0274
 9159SOL    HW138936   1.357   2.838  13.422 -0.5994 -0.4147 -0.1506
 9159SOL    HW238937   1.316   2.905  13.549 -1.3495 -1.7815  1.0303
 9160SOL     OW38938   3.939   2.770  13.728  0.1212  0.2899 -0.1484
 9160SOL    HW138939   3.974   2.752  13.815  1.9272  1.4527 -0.6412
 9160SOL    HW238940   3.980   2.708  13.668  1.6574  1.0023  0.1787
 9161SOL     OW38941   1.811   3.167   9.520  0.7978 -0.0175 -0.1236
 9161SOL    HW138942   1.809   3.142   9.428 -0.8742  1.1566 -0.4111
 9161SOL    HW238943   1.783   3.088   9.567 -0.2790  0.9503  0.8687
 9162SOL     OW38944   0.651   4.027   2.287 -0.2243 -0.0694 -0.2148
 9162SOL    HW138945   0.716   4.007   2.354  1.5481  0.4886 -1.8017
 9162SOL    HW238946   0.569   4.038   2.336  0.0718 -1.2493  0.5400
 9163SOL     OW38947   1.117   1.780   5.368  0.3764  0.7745 -0.6844
 9163SOL    HW138948   1.039   1.725   5.373 -0.0626  1.3511 -1.2830
 9163SOL    HW238949   1.159   1.757   5.451 -0.7097  0.0697 -0.3265
 9164SOL     OW38950   2.503   1.398   9.137  0.1009 -0.4428 -0.8623
 9164SOL    HW138951   2.494   1.476   9.191  1.4119 -1.8638  1.4451
 9164SOL    HW238952   2.453   1.330   9.182 -1.4946  1.9702  0.9979
 9165SOL     OW38953   1.720   4.571   4.441  0.5048 -0.0111 -0.3255
 9165SOL    HW138954   1.631   4.585   4.410  0.0169  0.2533  1.1955
 9165SOL    HW238955   1.743   4.664   4.448 -2.7323  0.7205  0.5086
 9166SOL     OW38956   0.607   3.970   9.296  1.3445 -0.1924  0.4709
 9166SOL    HW138957   0.521   3.945   9.262  1.0129  1.4661  0.0617
 9166SOL    HW238958   0.638   3.906   9.360 -2.4488 -0.7889  1.6761
 9167SOL     OW38959   2.608   1.564   3.128  0.3254  0.1417  0.0959
 9167SOL    HW138960   2.658   1.484   3.112 -0.7927 -0.1666 -1.7936
 9167SOL    HW238961   2.524   1.526   3.153  0.6037 -1.5978 -1.6814
 9168SOL     OW38962   3.552   4.200  16.107 -0.6028  0.3591 -0.2939
 9168SOL    HW138963   3.561   4.278  16.052 -0.7914 -1.1271 -2.4644
 9168SOL    HW238964   3.628   4.193  16.164  1.0554  0.2936 -2.5071
 9169SOL     OW38965   3.532   4.333   1.763 -0.6490 -0.3120 -1.1721
 9169SOL    HW138966   3.479   4.266   1.720 -1.5200 -1.5014  1.7319
 9169SOL    HW238967   3.550   4.387   1.687 -0.5960  0.4017 -0.6560
 9170SOL     OW38968   0.572   1.720  15.758 -0.1327  0.1245 -0.4313
 9170SOL    HW138969   0.539   1.635  15.729  0.0680 -0.6004  1.4752
 9170SOL    HW238970   0.651   1.724  15.703  0.1360  1.7508  0.0744
 9171SOL     OW38971   1.235   1.159   8.660 -0.0325 -0.0123  0.3781
 9171SOL    HW138972   1.280   1.243   8.661 -1.3748  0.7197  0.1602
 9171SOL    HW238973   1.299   1.112   8.713  0.4585 -0.4345 -0.5775
 9172SOL     OW38974   3.068   1.768   3.570 -0.8015 -0.2070  0.2665
 9172SOL    HW138975   3.062   1.735   3.659  1.0593 -2.5515 -0.4554
 9172SOL    HW238976   3.136   1.708   3.539 -0.0153  1.3597 -1.0104
 9173SOL     OW38977   1.904   0.349  10.450 -0.4030  0.2280 -0.0282
 9173SOL    HW138978   1.837   0.288  10.420  0.5439 -0.4432 -0.7946
 9173SOL    HW238979   1.920   0.378  10.360  0.5865 -1.5002 -0.4095
 9174SOL     OW38980   0.415   3.131   5.333 -0.1222  0.1823  0.0427
 9174SOL    HW138981   0.418   3.063   5.401  1.0230 -0.1832 -0.3668
 9174SOL    HW238982   0.426   3.092   5.246 -2.1746 -0.0635 -0.1060
 9175SOL     OW38983   2.722   3.989  16.917 -0.5755  0.9550 -0.1942
 9175SOL    HW138984   2.651   3.983  16.853 -0.9124  1.3428  0.1392
 9175SOL    HW238985   2.713   4.081  16.942  1.2602  0.8933  0.6868
 9176SOL     OW38986   3.380   4.366   4.895 -0.4367 -0.1207  0.2324
 9176SOL    HW138987   3.474   4.363   4.915 -0.2753 -2.8066 -0.9545
 9176SOL    HW238988   3.381   4.350   4.801 -0.6627 -1.3517  0.4440
 9177SOL     OW38989   0.044   0.964   8.069 -0.9990 -0.4049  0.7187
 9177SOL    HW138990   0.069   0.926   7.984 -1.0549  0.9208  0.1150
 9177SOL    HW238991   0.084   0.903   8.132 -1.8599 -1.2086  0.4927
 9178SOL     OW38992   1.446   1.034   8.786 -0.0139 -0.6853  0.3595
 9178SOL    HW138993   1.514   0.986   8.739  0.8899  2.1588 -1.2281
 9178SOL    HW238994   1.496   1.080   8.853 -1.3759  0.4888  0.5554
 9179SOL     OW38995   0.126   1.933  10.885  0.6442  0.4872  0.2820
 9179SOL    HW138996   0.047   1.947  10.832  0.0665 -1.3604  0.6637
 9179SOL    HW238997   0.096   1.885  10.962 -0.6091  0.8833  0.0499
 9180SOL     OW38998   0.208   3.506  15.506 -0.2741 -0.1142 -0.2909
 9180SOL    HW138999   0.294   3.545  15.521  0.7037 -2.2609 -0.2252
 9180SOL    HW239000   0.234   3.417  15.482  0.7642 -0.2531  1.3058
 9181SOL     OW39001   4.631   4.672   6.049  0.1273 -0.0404  0.4039
 9181SOL    HW139002   4.538   4.654   6.039 -0.0864  0.3301  1.6695
 9181SOL    HW239003   4.653   4.624   6.129  0.7237 -0.1839  0.1521
 9182SOL     OW39004   1.028   1.987  12.739  0.0166 -0.0621  0.9119
 9182SOL    HW139005   0.998   2.075  12.760 -0.4903  0.3864 -1.6474
 9182SOL    HW239006   1.053   1.987  12.646 -0.6159 -2.1448  0.7241
 9183SOL     OW39007   4.309   3.203   5.997  0.4701  0.2419  0.3192
 9183SOL    HW139008   4.220   3.172   6.016 -0.1822 -0.0511 -3.1820
 9183SOL    HW239009   4.307   3.197   5.901  1.7868  1.7387  0.2018
 9184SOL     OW39010   0.651   2.979   5.942 -0.1076 -0.3283 -0.3295
 9184SOL    HW139011   0.692   2.894   5.925  0.1567 -0.2650  0.0002
 9184SOL    HW239012   0.605   2.954   6.022  0.7937  0.1255  0.3272
 9185SOL     OW39013   3.868   2.042  12.972 -0.2942 -0.2533 -0.4672
 9185SOL    HW139014   3.801   2.052  13.039 -0.0725 -0.5261 -0.2079
 9185SOL    HW239015   3.933   1.999  13.028 -1.3181 -1.4422 -0.1820
 9186SOL     OW39016   2.750   2.034  12.526 -0.1028 -0.4129 -0.3733
 9186SOL    HW139017   2.680   1.970  12.516 -1.9332  1.4902  0.3892
 9186SOL    HW239018   2.764   2.050  12.432  3.1723  0.0351  0.1850
 9187SOL     OW39019   0.692   3.061   6.544  0.0098  0.0837  0.0244
 9187SOL    HW139020   0.629   3.012   6.492  0.0634  1.8266 -1.6661
 9187SOL    HW239021   0.630   3.087   6.612 -0.1615 -0.7967  0.2086
 9188SOL     OW39022   4.192   0.812  17.089 -0.0626  0.5828 -0.2794
 9188SOL    HW139023   4.208   0.889  17.144 -0.0507  0.6999 -0.4445
 9188SOL    HW239024   4.154   0.857  17.012 -0.3488  0.2922 -0.3094
 9189SOL     OW39025   2.569   1.360   3.791  0.2320 -0.1247  0.2983
 9189SOL    HW139026   2.659   1.332   3.778  0.4454  0.6464  0.1253
 9189SOL    HW239027   2.533   1.291   3.847 -1.3908  0.0774 -0.4848
 9190SOL     OW39028   3.097   2.679  13.188 -0.1432  0.3300  0.8593
 9190SOL    HW139029   3.141   2.747  13.136 -0.2656  1.1256  1.8001
 9190SOL    HW239030   3.161   2.610  13.203 -1.1116  0.0181  3.4678
 9191SOL     OW39031   2.104   0.424   6.476  0.3354 -0.1568 -0.3351
 9191SOL    HW139032   2.060   0.506   6.453  0.2827  0.0226  0.3983
 9191SOL    HW239033   2.035   0.372   6.516  1.6502 -1.7104 -0.0870
 9192SOL     OW39034   4.302   1.084   3.627  0.2816  0.1340  0.4806
 9192SOL    HW139035   4.374   1.092   3.564  0.6712  1.6753  1.1226
 9192SOL    HW239036   4.238   1.029   3.581  1.2890 -0.6299 -0.0106
 9193SOL     OW39037   2.620   4.456  11.218 -0.4373  0.1694 -0.4026
 9193SOL    HW139038   2.590   4.413  11.298  1.7172 -1.1339 -0.2921
 9193SOL    HW239039   2.562   4.405  11.161 -1.6148  0.7343  0.2791
 9194SOL     OW39040   0.508   2.547   4.471 -0.0074  0.2030 -0.1548
 9194SOL    HW139041   0.500   2.603   4.548 -1.8249  1.7908 -1.5009
 9194SOL    HW239042   0.431   2.565   4.417 -0.3051 -0.4259  0.0603
 9195SOL     OW39043   3.464   2.842   1.040  0.3504  0.1883  0.3448
 9195SOL    HW139044   3.432   2.918   1.090 -0.2506 -0.8967  1.6164
 9195SOL    HW239045   3.417   2.767   1.075 -2.9137  2.5502  0.9836
 9196SOL     OW39046   4.461   3.980   7.680  0.2561 -0.1708  0.2208
 9196SOL    HW139047   4.529   3.917   7.654 -0.7761 -0.4706 -1.7631
 9196SOL    HW239048   4.436   4.013   7.593 -0.5466 -0.8573  0.2001
 9197SOL     OW39049   0.089   4.331   7.833 -0.0534 -0.0809  0.0205
 9197SOL    HW139050   0.103   4.287   7.750  1.3402 -0.1905  0.3125
 9197SOL    HW239051   0.006   4.290   7.858 -1.6405  2.3397 -1.2937
 9198SOL     OW39052   2.085   3.031   2.105 -0.2556  0.3117 -0.2456
 9198SOL    HW139053   2.147   2.960   2.091 -1.7825 -1.6996  3.2610
 9198SOL    HW239054   2.005   2.992   2.069 -1.6761  0.7970  2.4452
 9199SOL     OW39055   4.480   4.245   3.134 -0.2051  0.2196  0.0917
 9199SOL    HW139056   4.565   4.206   3.155 -1.3555 -2.2053  0.2430
 9199SOL    HW239057   4.512   4.309   3.071  1.2058 -0.7511 -0.1929
 9200SOL     OW39058   3.988   0.712   4.188 -0.0715  0.5323  0.6795
 9200SOL    HW139059   4.013   0.804   4.175 -0.5730  0.6179  0.3077
 9200SOL    HW239060   3.952   0.700   4.276  0.4868  0.9216  0.9615
 9201SOL     OW39061   0.994   0.315  10.238 -0.5653 -0.0634  0.1795
 9201SOL    HW139062   1.061   0.253  10.266  0.8901  0.7010 -1.6365
 9201SOL    HW239063   1.030   0.331  10.151 -0.3074 -0.8843  0.1375
 9202SOL     OW39064   1.447   2.768   1.858  0.5104  0.1068  0.0411
 9202SOL    HW139065   1.451   2.854   1.901  0.5834 -0.2835  0.8024
 9202SOL    HW239066   1.541   2.748   1.861  0.5552  0.8024  2.8726
 9203SOL     OW39067   0.057   2.526   6.930  0.5459 -0.3116  0.4051
 9203SOL    HW139068   0.029   2.552   7.018 -0.6590  0.1298 -0.1121
 9203SOL    HW239069   0.116   2.453   6.950 -1.3752 -1.6973  1.0021
 9204SOL     OW39070   1.335   3.833   2.058 -0.3538  0.2481  0.1797
 9204SOL    HW139071   1.352   3.773   1.986  2.0137  0.3205  0.6859
 9204SOL    HW239072   1.406   3.896   2.048  1.3930 -1.8307 -0.4774
 9205SOL     OW39073   1.233   2.460   3.454 -0.1608  0.0359  0.1638
 9205SOL    HW139074   1.310   2.403   3.458 -0.1220  0.2076  1.5688
 9205SOL    HW239075   1.200   2.437   3.540 -2.3947  0.5716 -0.5614
 9206SOL     OW39076   2.794   1.447   1.364 -0.3271 -0.2521 -0.7869
 9206SOL    HW139077   2.741   1.440   1.443 -0.5767  0.0046 -0.9338
 9206SOL    HW239078   2.823   1.355   1.361 -0.2155 -0.2098 -1.0206
 9207SOL     OW39079   4.591   3.601   9.143 -0.9431  0.5772  0.0624
 9207SOL    HW139080   4.517   3.575   9.088 -0.9069  0.6792 -0.0339
 9207SOL    HW239081   4.653   3.529   9.136 -1.8784 -0.0628 -1.6821
 9208SOL     OW39082   1.186   1.408  12.481  0.0845  0.8069  0.5973
 9208SOL    HW139083   1.275   1.373  12.471 -0.9468 -1.5982 -0.3196
 9208SOL    HW239084   1.195   1.502  12.494  0.2888  0.7897  0.5826
 9209SOL     OW39085   0.708   0.729   4.058  0.0195 -0.6912 -0.4213
 9209SOL    HW139086   0.672   0.659   4.113  2.3897 -1.1849  0.5175
 9209SOL    HW239087   0.661   0.801   4.099  3.8354  0.3335  2.1646
 9210SOL     OW39088   4.597   1.412   5.343 -0.0438 -0.4363  0.9027
 9210SOL    HW139089   4.629   1.471   5.276 -1.3180  0.4202  1.0413
 9210SOL    HW239090   4.511   1.385   5.309 -0.3574  0.8555  0.6597
 9211SOL     OW39091   3.429   2.213   8.625 -0.2994 -0.1870 -0.3593
 9211SOL    HW139092   3.522   2.206   8.642 -0.6250 -0.1555  1.4561
 9211SOL    HW239093   3.407   2.302   8.654  2.1256  0.4422 -0.4994
 9212SOL     OW39094   0.768   3.941  16.090 -0.0671  0.5454  0.5054
 9212SOL    HW139095   0.853   3.981  16.109  0.4361 -0.9314  1.3842
 9212SOL    HW239096   0.748   3.986  16.008  1.1560 -0.2804 -0.2560
 9213SOL     OW39097   3.483   3.328   6.612 -0.1402  0.0928  0.1566
 9213SOL    HW139098   3.485   3.285   6.697 -0.8966 -0.4923 -0.1256
 9213SOL    HW239099   3.556   3.292   6.561 -1.3450 -0.0279 -1.4831
 9214SOL     OW39100   3.334   0.175   2.507 -0.1305 -0.2106  0.1108
 9214SOL    HW139101   3.325   0.257   2.557  0.5350 -0.7066  1.0441
 9214SOL    HW239102   3.429   0.170   2.508 -0.0131  1.9380 -0.4545
 9215SOL     OW39103   0.822   2.406   2.371 -0.0947  0.1714  0.1077
 9215SOL    HW139104   0.805   2.378   2.281  1.3133  2.0276 -0.7510
 9215SOL    HW239105   0.872   2.487   2.356 -0.2639  0.0979 -0.8191
 9216SOL     OW39106   0.155   3.476   5.005  0.7866 -0.1528 -0.1685
 9216SOL    HW139107   0.126   3.539   5.071  0.5190  1.1368 -1.5154
 9216SOL    HW239108   0.105   3.504   4.928  1.5500  0.2206 -0.5226
 9217SOL     OW39109   4.191   3.991   3.844  0.2628  0.3546 -0.8345
 9217SOL    HW139110   4.138   3.933   3.898 -0.7799  0.5404 -1.6514
 9217SOL    HW239111   4.149   3.973   3.759  2.7716  0.1666 -2.0217
 9218SOL     OW39112   0.859   2.047   2.375 -0.2833  0.1381  0.0161
 9218SOL    HW139113   0.873   1.975   2.313 -0.6786  1.5710 -1.7176
 9218SOL    HW239114   0.801   2.105   2.326 -0.9309 -1.2629 -0.8609
 9219SOL     OW39115   3.422   3.869  15.869 -0.5551  0.2830 -0.5854
 9219SOL    HW139116   3.506   3.876  15.914 -0.5836 -1.1208 -0.3326
 9219SOL    HW239117   3.346   3.873  15.927 -1.0891  1.1553 -1.3348
 9220SOL     OW39118   2.017   4.197   9.773  0.0596 -0.4813  0.5626
 9220SOL    HW139119   2.001   4.274   9.828  0.1029 -1.0399  1.3617
 9220SOL    HW239120   1.989   4.131   9.836  3.4320 -0.7389  1.7900
 9221SOL     OW39121   2.743   0.575   0.837 -0.1433 -0.0391  0.3553
 9221SOL    HW139122   2.651   0.559   0.819 -0.5039  0.5927  1.6036
 9221SOL    HW239123   2.767   0.551   0.748  2.4002  1.5164  0.6241
 9222SOL     OW39124   3.484   3.440  10.274 -0.0556 -0.3500  0.3743
 9222SOL    HW139125   3.459   3.526  10.308  1.2388  0.8401 -1.7133
 9222SOL    HW239126   3.414   3.396  10.322  0.0961 -1.2268 -0.2099
 9223SOL     OW39127   4.050   0.310   5.042 -0.5296 -0.1292 -0.2566
 9223SOL    HW139128   4.120   0.313   4.978 -1.1198  0.4780 -0.8772
 9223SOL    HW239129   4.003   0.231   5.015  0.4236 -0.4964 -0.8227
 9224SOL     OW39130   0.366   4.510   4.602  0.7034  0.0901 -0.0864
 9224SOL    HW139131   0.359   4.439   4.665 -2.2778  0.5722  0.1042
 9224SOL    HW239132   0.298   4.565   4.641  1.9672  2.5254 -1.3315
 9225SOL     OW39133   1.496   2.600   5.693  0.0983 -0.0041  0.2806
 9225SOL    HW139134   1.537   2.671   5.643 -0.0881 -0.1902 -0.1411
 9225SOL    HW239135   1.477   2.529   5.632 -0.4176 -0.4057  0.9126
 9226SOL     OW39136   2.245   1.062  11.455  0.6363 -0.1976 -0.1447
 9226SOL    HW139137   2.222   1.124  11.385 -1.2676 -0.6974  0.0197
 9226SOL    HW239138   2.227   1.121  11.529 -0.9388 -1.0673  0.1677
 9227SOL     OW39139   3.500   2.910   7.232  0.1353 -0.7200  0.3710
 9227SOL    HW139140   3.547   2.894   7.151  1.3344 -0.5563  1.0431
 9227SOL    HW239141   3.426   2.965   7.204 -0.4484 -2.4426 -1.5196
 9228SOL     OW39142   0.254   4.306  15.300 -0.0728  0.4357  0.1460
 9228SOL    HW139143   0.175   4.316  15.247  0.5592  3.2846 -0.2212
 9228SOL    HW239144   0.287   4.394  15.283  0.0370  0.4677  0.5398
 9229SOL     OW39145   0.940   3.771   6.399  0.2424 -0.3064  0.1746
 9229SOL    HW139146   1.018   3.807   6.356 -0.3256  0.4899 -0.1792
 9229SOL    HW239147   0.974   3.681   6.398  1.6789  0.2284  1.6393
 9230SOL     OW39148   4.165   3.010   6.521  0.4023  0.2584  0.0905
 9230SOL    HW139149   4.108   3.085   6.533 -0.3675 -0.5358  1.3478
 9230SOL    HW239150   4.221   3.002   6.598  0.5925 -2.0939 -0.2814
 9231SOL     OW39151   1.140   0.779   1.478 -0.1168  0.0673  0.5387
 9231SOL    HW139152   1.149   0.805   1.569  1.5526  1.7484 -0.1045
 9231SOL    HW239153   1.105   0.863   1.449  2.4294  0.3515 -1.7864
 9232SOL     OW39154   0.539   4.578  17.247 -0.0491 -0.4198 -0.0302
 9232SOL    HW139155   0.575   4.652  17.296 -0.6947 -1.1949  1.6278
 9232SOL    HW239156   0.557   4.610  17.159 -0.1047  0.4947  0.2928
 9233SOL     OW39157   2.779   4.593   8.779  0.3658  0.0253  0.7489
 9233SOL    HW139158   2.690   4.617   8.803 -0.2108  0.5535 -1.8959
 9233SOL    HW239159   2.819   4.676   8.807 -0.6899  1.1298 -0.9881
 9234SOL     OW39160   0.626   4.143  13.023  0.1508  0.0512 -0.4507
 9234SOL    HW139161   0.652   4.214  12.964 -1.5884  1.5297  0.5600
 9234SOL    HW239162   0.699   4.090  12.993  1.2940  0.0024  2.4043
 9235SOL     OW39163   2.543   3.654   6.664 -0.1249 -0.3972 -0.4698
 9235SOL    HW139164   2.550   3.559   6.655 -0.1717 -0.2743 -1.8796
 9235SOL    HW239165   2.524   3.678   6.573  1.8692  1.7370 -0.3227
 9236SOL     OW39166   2.916   0.831  10.058 -0.4549  0.1628 -0.7191
 9236SOL    HW139167   2.854   0.903  10.063  0.4968  0.8831  0.4608
 9236SOL    HW239168   2.993   0.862  10.105  1.3324 -1.8923 -2.2755
 9237SOL     OW39169   1.269   2.851  15.694  0.0801 -0.0153  0.7284
 9237SOL    HW139170   1.359   2.829  15.670 -0.0650 -1.0566  1.1549
 9237SOL    HW239171   1.275   2.905  15.773 -1.8292 -0.4601  1.1876
 9238SOL     OW39172   2.056   4.383   6.260  0.5287 -0.1373 -0.0442
 9238SOL    HW139173   2.083   4.342   6.178  0.5982 -1.4308  0.6216
 9238SOL    HW239174   2.082   4.474   6.246 -0.9233  0.4202  0.8546
 9239SOL     OW39175   4.673   4.191  17.673  0.2832 -0.0515 -0.0088
 9239SOL    HW139176   4.709   4.182  17.585  0.3119  0.9976 -0.1127
 9239SOL    HW239177   0.029   4.197   0.043 -0.0030 -0.2410  0.4046
 9240SOL     OW39178   1.277   2.850  11.783 -0.3221 -0.3158 -0.4407
 9240SOL    HW139179   1.286   2.846  11.878  1.8274  2.5611 -0.5303
 9240SOL    HW239180   1.328   2.776  11.750  0.5320 -0.3364  0.9168
 9241SOL     OW39181   1.966   1.344   6.693 -0.5331 -0.0896  0.5610
 9241SOL    HW139182   1.999   1.326   6.781  1.9776  0.4755 -0.2499
 9241SOL    HW239183   1.893   1.285   6.673  1.2355 -2.3516  0.7366
 9242SOL     OW39184   2.333   1.215   3.019  0.5648  0.1235  0.1058
 9242SOL    HW139185   2.362   1.142   3.074 -2.3590 -0.0774  1.3768
 9242SOL    HW239186   2.238   1.197   3.016  0.0235  2.7929  1.5642
 9243SOL     OW39187   1.398   4.087   7.155 -0.0737  0.5140 -0.0134
 9243SOL    HW139188   1.458   4.124   7.089  1.0454 -1.4409 -0.0753
 9243SOL    HW239189   1.328   4.149   7.133  0.5222  1.5399  0.9731
 9244SOL     OW39190   2.549   0.590  11.408  0.2220 -0.0409  0.3555
 9244SOL    HW139191   2.628   0.627  11.368 -0.3452  0.4521 -0.3045
 9244SOL    HW239192   2.571   0.498  11.425  0.8786  0.0358 -0.0407
 9245SOL     OW39193   3.703   1.938   7.517 -0.0709  0.0765  0.4291
 9245SOL    HW139194   3.622   1.973   7.480  0.8183  1.7748  0.0623
 9245SOL    HW239195   3.679   1.846   7.516 -0.6970  0.2207  1.2903
 9246SOL     OW39196   2.312   3.957   6.573  0.4397 -0.1703 -0.0473
 9246SOL    HW139197   2.387   3.950   6.631  0.5316 -0.7197 -0.2392
 9246SOL    HW239198   2.251   3.988   6.640 -0.7094 -1.6832 -0.4007
 9247SOL     OW39199   0.430   0.676   3.000 -0.5279  0.4521  0.2983
 9247SOL    HW139200   0.436   0.771   3.015 -0.5869  0.5546 -0.3195
 9247SOL    HW239201   0.497   0.651   3.064 -2.3784 -2.1712  1.2227
 9248SOL     OW39202   1.481   4.017  12.951 -0.2536  0.1625 -0.1141
 9248SOL    HW139203   1.503   3.985  12.864  2.2588 -1.8333  1.2577
 9248SOL    HW239204   1.561   4.064  12.976 -0.1512  0.6338 -1.3286
 9249SOL     OW39205   1.775   3.408   6.363  0.5787  0.9892 -0.4981
 9249SOL    HW139206   1.756   3.346   6.434 -1.9599 -0.0878 -2.1263
 9249SOL    HW239207   1.724   3.379   6.287 -2.4101 -1.0238  2.2565
 9250SOL     OW39208   4.501   0.623   2.046 -0.0111  0.2039  0.6409
 9250SOL    HW139209   4.569   0.559   2.027  1.8371  2.5712 -0.6441
 9250SOL    HW239210   4.528   0.703   2.000 -2.0339  1.4244  1.5453
 9251SOL     OW39211   2.238   3.549  10.878  0.0490 -0.4966 -0.3196
 9251SOL    HW139212   2.179   3.523  10.949  1.4364 -2.3093  0.1719
 9251SOL    HW239213   2.287   3.615  10.927 -0.7167  0.3630 -0.7277
 9252SOL     OW39214   1.368   3.821   4.599  0.2841 -0.0321  0.2090
 9252SOL    HW139215   1.345   3.756   4.666  1.7586 -0.7651  0.0200
 9252SOL    HW239216   1.284   3.828   4.554 -1.4996 -1.4970  3.3147
 9253SOL     OW39217   0.384   2.792   8.171  0.2317  0.8651 -0.4276
 9253SOL    HW139218   0.351   2.836   8.093  0.1371 -0.8352 -1.3373
 9253SOL    HW239219   0.432   2.714   8.143 -1.2537 -0.2767  0.2217
 9254SOL     OW39220   2.963   1.119   6.840 -0.3418  0.4489  0.2133
 9254SOL    HW139221   3.057   1.131   6.852 -0.4760  1.6647  0.0698
 9254SOL    HW239222   2.936   1.210   6.854  1.0816  0.9351 -0.1899
 9255SOL     OW39223   4.211   1.540   4.707  0.3955  0.2282  0.0324
 9255SOL    HW139224   4.220   1.624   4.750 -2.5219  0.2150  0.6618
 9255SOL    HW239225   4.245   1.573   4.624 -1.3049 -1.5824 -1.4145
 9256SOL     OW39226   1.823   0.372   9.503  0.4206 -0.6320 -0.1767
 9256SOL    HW139227   1.858   0.361   9.591 -0.4386  0.9600  0.3835
 9256SOL    HW239228   1.749   0.312   9.496  0.1588 -0.1459 -1.5433
 9257SOL     OW39229   0.551   2.108  16.320 -0.0150 -0.7877 -0.2145
 9257SOL    HW139230   0.458   2.131  16.325  0.1836 -0.1782  0.8301
 9257SOL    HW239231   0.588   2.195  16.307 -2.4885  0.1981 -0.5967
 9258SOL     OW39232   3.647   3.773  13.620 -0.1427  0.6082  0.3347
 9258SOL    HW139233   3.586   3.844  13.600 -0.5310  0.2512  0.2629
 9258SOL    HW239234   3.619   3.747  13.707 -0.0564  0.5552  0.3473
 9259SOL     OW39235   3.273   1.491   4.679  0.3155  0.3676 -0.2448
 9259SOL    HW139236   3.338   1.499   4.749  0.8433 -0.2394 -0.6620
 9259SOL    HW239237   3.196   1.531   4.720  0.0489  0.8886 -1.2672
 9260SOL     OW39238   4.695   2.446   3.329 -0.5082  0.2147 -0.1146
 9260SOL    HW139239   4.617   2.400   3.299  0.4657 -0.9773 -0.8408
 9260SOL    HW239240   4.664   2.535   3.340 -1.1638 -0.0964  0.5383
 9261SOL     OW39241   1.045   0.370   6.360  0.0083  0.3399 -0.0772
 9261SOL    HW139242   0.996   0.363   6.441 -2.8082 -0.0368 -1.8051
 9261SOL    HW239243   1.084   0.457   6.366  1.4993 -0.3856  0.8184
 9262SOL     OW39244   1.010   4.413   3.753 -0.1263 -0.2630 -0.0330
 9262SOL    HW139245   0.925   4.439   3.717 -1.2755 -1.1112  2.0827
 9262SOL    HW239246   1.046   4.348   3.692  2.8386 -0.6144  2.1032
 9263SOL     OW39247   0.366   3.590   6.657  0.1852 -0.3940  0.0166
 9263SOL    HW139248   0.275   3.617   6.643  0.8252  0.6794 -2.2214
 9263SOL    HW239249   0.399   3.669   6.699 -0.9549  0.6439 -1.0141
 9264SOL     OW39250   3.270   0.304   8.400  0.5175 -0.4583 -0.1215
 9264SOL    HW139251   3.183   0.280   8.432  0.4434  0.1896  0.1721
 9264SOL    HW239252   3.250   0.394   8.372 -0.7690 -0.9413 -0.7542
 9265SOL     OW39253   0.303   2.510   1.926  0.2930  0.3380 -0.0283
 9265SOL    HW139254   0.379   2.460   1.897  0.0271 -0.0236 -0.1038
 9265SOL    HW239255   0.318   2.596   1.887 -0.1765  0.5450  0.2466
 9266SOL     OW39256   3.652   0.621   5.683  0.5249 -0.1386  0.8135
 9266SOL    HW139257   3.585   0.570   5.729  0.3719 -0.8403 -0.1941
 9266SOL    HW239258   3.701   0.551   5.639 -1.8637 -2.2513  1.4805
 9267SOL     OW39259   0.566   0.003   3.332 -0.2106 -0.2749 -0.0101
 9267SOL    HW139260   0.533   0.091   3.351 -0.3979 -0.3383 -0.0439
 9267SOL    HW239261   0.517   4.715   3.251  2.0200  0.9817 -1.4980
 9268SOL     OW39262   0.908   3.862   5.629 -0.0925  0.4416  0.4592
 9268SOL    HW139263   0.830   3.849   5.575 -0.5259 -1.7493  1.6336
 9268SOL    HW239264   0.967   3.793   5.599  0.8441  1.3280  0.2685
 9269SOL     OW39265   2.716   2.419   2.790  0.0313 -0.0181 -0.0270
 9269SOL    HW139266   2.782   2.375   2.843  1.1034  0.9584 -0.5499
 9269SOL    HW239267   2.769   2.480   2.740 -0.3974 -0.2585 -0.7746
 9270SOL     OW39268   4.599   1.435   2.491  0.2819  0.2380  0.2087
 9270SOL    HW139269   4.689   1.420   2.461 -0.2253 -0.2685 -1.0595
 9270SOL    HW239270   4.569   1.346   2.509 -0.6742  0.4309 -0.4337
 9271SOL     OW39271   4.102   3.500   1.956  0.2669  0.6943 -0.4561
 9271SOL    HW139272   4.164   3.446   1.907 -1.9201 -1.8617 -0.3880
 9271SOL    HW239273   4.053   3.543   1.886 -0.6248  0.7904  0.2332
 9272SOL     OW39274   3.182   0.190   4.283 -0.1727 -0.0257 -0.3090
 9272SOL    HW139275   3.133   0.236   4.352 -1.4802 -0.3873 -1.0083
 9272SOL    HW239276   3.221   0.123   4.339 -0.3161  0.4359  0.3571
 9273SOL     OW39277   1.081   4.039   9.969 -0.0198  0.4955 -0.0345
 9273SOL    HW139278   1.066   4.097   9.895 -1.5350 -0.0092 -0.1455
 9273SOL    HW239279   0.991   4.025  10.001 -0.8760  1.2544 -2.1110
 9274SOL     OW39280   2.972   0.125   2.331 -0.7717  0.3678 -0.2950
 9274SOL    HW139281   2.999   0.101   2.420  1.1229  0.6259 -0.8062
 9274SOL    HW239282   2.893   0.073   2.312 -0.7052  0.3700 -0.5756
 9275SOL     OW39283   3.020   2.886  16.105 -0.4782 -0.2797  0.1930
 9275SOL    HW139284   3.104   2.847  16.131  0.1679  1.1457  0.2264
 9275SOL    HW239285   3.010   2.841  16.021  0.2728  0.1411 -0.1191
 9276SOL     OW39286   4.575   3.724  17.084 -0.3298 -0.6875  0.0552
 9276SOL    HW139287   4.519   3.791  17.121 -0.9148 -0.5017 -1.1751
 9276SOL    HW239288   4.553   3.738  16.992 -0.9333  1.3133  0.5232
 9277SOL     OW39289   2.633   1.365   7.774 -0.5775 -0.0502 -0.2222
 9277SOL    HW139290   2.580   1.441   7.798  0.8286  0.5807  0.8563
 9277SOL    HW239291   2.599   1.290   7.823 -0.2528 -1.3540 -2.0005
 9278SOL     OW39292   1.057   2.075   2.550  0.0332  0.4964 -0.5005
 9278SOL    HW139293   0.989   2.089   2.484  0.1143  0.3333 -0.6195
 9278SOL    HW239294   1.129   2.127   2.514  0.3317 -0.4223 -1.2221
 9279SOL     OW39295   4.361   2.722  14.841  0.7352 -0.2494 -0.0641
 9279SOL    HW139296   4.301   2.794  14.824  2.1202  0.9624  0.1651
 9279SOL    HW239297   4.333   2.657  14.776 -0.7154  0.2551  0.0628
 9280SOL     OW39298   1.431   3.751   5.094 -0.2146  0.4423 -0.0746
 9280SOL    HW139299   1.393   3.666   5.070  0.1229  0.0817  0.6574
 9280SOL    HW239300   1.508   3.730   5.147 -0.8268 -0.1152  0.5981
 9281SOL     OW39301   1.398   3.786   5.708  0.6964  0.5206  0.2142
 9281SOL    HW139302   1.349   3.866   5.689  1.7715  1.3670  0.9742
 9281SOL    HW239303   1.437   3.797   5.794  2.9208  0.7930 -0.8241
 9282SOL     OW39304   2.634   2.841   0.136 -0.1666  0.4528  0.2352
 9282SOL    HW139305   2.712   2.882   0.099 -1.1799  2.0763 -0.1304
 9282SOL    HW239306   2.661   2.855   0.227  0.6634  1.4766 -0.1697
 9283SOL     OW39307   2.967   3.648   5.261 -0.4910 -0.1869 -0.1749
 9283SOL    HW139308   2.878   3.682   5.263 -0.8544 -1.3680  3.1655
 9283SOL    HW239309   2.943   3.557   5.245  1.9567 -0.8177 -0.2769
 9284SOL     OW39310   4.451   3.878  13.212 -0.1046 -0.8022 -0.0141
 9284SOL    HW139311   4.420   3.919  13.131 -0.5164 -0.6898  0.2027
 9284SOL    HW239312   4.391   3.918  13.274 -0.7606 -1.4182 -0.2515
 9285SOL     OW39313   3.925   1.980   7.953 -0.2370  0.1718  0.0260
 9285SOL    HW139314   3.918   1.901   7.899  0.2634  1.7219 -2.3135
 9285SOL    HW239315   3.930   2.045   7.882  1.2963 -0.5528 -0.5337
 9286SOL     OW39316   4.019   4.688   5.275  0.1451  0.0684 -0.4962
 9286SOL    HW139317   3.932   0.006   5.271  0.1520  0.1066 -0.3019
 9286SOL    HW239318   4.016   4.606   5.226 -0.4233  0.2572 -0.7784
 9287SOL     OW39319   3.887   4.260   4.135 -0.0844  0.0617  0.0750
 9287SOL    HW139320   3.884   4.258   4.040  0.9392 -1.3594  0.0710
 9287SOL    HW239321   3.794   4.267   4.154  0.2486  1.0105  1.3489
 9288SOL     OW39322   2.940   3.279  14.909 -0.2296 -0.5438  0.1318
 9288SOL    HW139323   3.016   3.302  14.855 -0.3469 -2.4707 -0.8739
 9288SOL    HW239324   2.866   3.276  14.848 -0.2376  1.6663  0.0500
 9289SOL     OW39325   2.175   1.261  11.286 -0.0998  0.3384  0.1543
 9289SOL    HW139326   2.180   1.279  11.192  0.1278  0.8791  0.2687
 9289SOL    HW239327   2.215   1.339  11.324 -0.3348 -0.2978  1.6991
 9290SOL     OW39328   0.818   1.863  10.959  0.8311 -0.1790  0.1508
 9290SOL    HW139329   0.785   1.798  10.897  0.4946  0.4318 -0.2988
 9290SOL    HW239330   0.762   1.938  10.942 -1.1684 -1.2216  2.0966
 9291SOL     OW39331   0.080   0.283  11.611  0.3156 -0.1849 -0.1737
 9291SOL    HW139332   0.167   0.322  11.601 -0.6135  2.0925  0.6537
 9291SOL    HW239333   0.104   0.193  11.634  1.3233  0.0667 -0.2281
 9292SOL     OW39334   0.626   0.622   2.793  0.0864  0.3398  0.7458
 9292SOL    HW139335   0.683   0.578   2.857 -0.9748 -0.8176  0.8994
 9292SOL    HW239336   0.554   0.655   2.847 -0.7716 -0.5583  0.1484
 9293SOL     OW39337   2.478   2.221  16.788 -0.3345  0.1356  0.1658
 9293SOL    HW139338   2.452   2.287  16.723  1.2917  0.3679 -0.2506
 9293SOL    HW239339   2.415   2.150  16.780  0.0373 -0.3294  1.3759
 9294SOL     OW39340   1.772   1.144   8.168 -0.1193  0.0075 -0.2174
 9294SOL    HW139341   1.733   1.066   8.207  0.4535 -0.0615  0.2101
 9294SOL    HW239342   1.692   1.182   8.130 -0.7648  0.4099  1.5250
 9295SOL     OW39343   0.508   1.520  12.159  0.6376 -0.1787  0.6054
 9295SOL    HW139344   0.530   1.491  12.071  2.4869  1.9275  0.3641
 9295SOL    HW239345   0.412   1.520  12.162  0.5869 -2.9663 -1.3103
 9296SOL     OW39346   4.197   4.323   4.093  0.3752 -0.0054 -0.2985
 9296SOL    HW139347   4.129   4.387   4.114  1.4301  1.2043 -0.4996
 9296SOL    HW239348   4.198   4.325   3.997 -2.1066 -2.5048 -0.3632
 9297SOL     OW39349   1.007   3.366   1.745 -0.3995 -0.1449  0.0428
 9297SOL    HW139350   1.005   3.443   1.803 -0.2851  0.9276 -1.3693
 9297SOL    HW239351   0.986   3.294   1.805  1.4220 -0.0421  0.8161
 9298SOL     OW39352   1.227   4.308   7.086 -0.2080  0.2170 -0.0719
 9298SOL    HW139353   1.187   4.273   7.006 -0.9770  1.1551 -0.1051
 9298SOL    HW239354   1.153   4.294   7.144 -0.0400  1.5302  0.4578
 9299SOL     OW39355   2.219   4.024  12.810  0.0993  0.3028 -0.2942
 9299SOL    HW139356   2.211   4.039  12.716 -1.9475 -0.7697 -0.2930
 9299SOL    HW239357   2.250   3.934  12.813 -3.2423 -0.8881 -1.8305
 9300SOL     OW39358   0.534   2.787   5.712 -0.2216 -0.2717  0.0098
 9300SOL    HW139359   0.554   2.702   5.752  0.2413 -0.5463 -0.7825
 9300SOL    HW239360   0.611   2.809   5.659 -0.3718  0.6057  0.1668
 9301SOL     OW39361   0.260   2.482   7.884  0.1635 -0.4124  0.2901
 9301SOL    HW139362   0.315   2.560   7.871  1.3594 -1.5404 -1.4265
 9301SOL    HW239363   0.334   2.424   7.904  0.7103 -0.1189 -0.9006
 9302SOL     OW39364   3.491   1.470   4.375  0.7843 -0.2556 -0.0586
 9302SOL    HW139365   3.504   1.431   4.288 -0.5696 -1.4299  0.2702
 9302SOL    HW239366   3.585   1.477   4.394 -0.3997  1.7106  4.9278
 9303SOL     OW39367   0.398   3.106   1.114  1.0311 -0.2635 -0.5730
 9303SOL    HW139368   0.311   3.093   1.154  0.5657 -0.1009 -1.5243
 9303SOL    HW239369   0.435   3.173   1.170  0.4850 -1.3392  1.0820
 9304SOL     OW39370   3.938   1.392   9.381  0.4174 -0.3187  0.2846
 9304SOL    HW139371   3.938   1.316   9.323  0.5114  0.0194 -0.1587
 9304SOL    HW239372   3.904   1.341   9.455 -1.9952 -0.7609 -1.0902
 9305SOL     OW39373   2.799   4.203   5.296  0.4690  0.3006  0.1969
 9305SOL    HW139374   2.748   4.125   5.275 -1.7630  1.8411 -0.1418
 9305SOL    HW239375   2.887   4.191   5.259  1.6045  1.8147  2.4126
 9306SOL     OW39376   1.691   2.410   1.108 -0.1740 -0.1206  0.4910
 9306SOL    HW139377   1.770   2.423   1.161  0.2016  1.4871 -0.4657
 9306SOL    HW239378   1.679   2.315   1.101 -1.1837  0.1007 -0.7288
 9307SOL     OW39379   0.407   3.378   5.411 -0.5867  0.0937  0.3675
 9307SOL    HW139380   0.410   3.284   5.393  2.2802  0.7708 -2.7159
 9307SOL    HW239381   0.351   3.420   5.345 -1.8889 -0.7168  0.9562
 9308SOL     OW39382   1.874   0.846   2.843  0.3971  0.0332 -0.1657
 9308SOL    HW139383   1.799   0.851   2.783  0.4194  1.6625 -0.0756
 9308SOL    HW239384   1.831   0.801   2.915 -0.0442  0.8485  0.0825
 9309SOL     OW39385   4.498   1.474   5.014  0.4271 -0.3486  0.4097
 9309SOL    HW139386   4.509   1.508   4.925  1.1644 -4.1075 -0.9482
 9309SOL    HW239387   4.574   1.514   5.056  1.4261 -0.3075 -1.3962
 9310SOL     OW39388   3.103   0.126  17.637  0.0153  0.4132 -0.4197
 9310SOL    HW139389   3.080   0.155   0.039 -0.8327 -2.2517  0.2286
 9310SOL    HW239390   3.084   0.033  17.640  0.1406  0.4623  1.9421
 9311SOL     OW39391   1.387   2.809   6.460 -0.8714  0.2808 -0.1339
 9311SOL    HW139392   1.414   2.856   6.539  1.1221  0.3610 -0.8561
 9311SOL    HW239393   1.436   2.728   6.475  0.5732  1.7434  3.1703
 9312SOL     OW39394   0.169   4.519   6.732 -0.4335 -0.2303 -0.2873
 9312SOL    HW139395   0.227   4.463   6.681  1.3795 -0.7746  2.3866
 9312SOL    HW239396   0.145   4.469   6.810 -0.4102 -0.3033 -0.3269
 9313SOL     OW39397   0.242   3.559  11.988 -0.0356  0.2444 -0.3548
 9313SOL    HW139398   0.269   3.477  11.946  1.5845 -0.0289  1.2645
 9313SOL    HW239399   0.148   3.554  11.970 -0.1071  0.3611 -0.0080
 9314SOL     OW39400   0.551   3.942   6.326  0.2776 -0.3646 -0.2883
 9314SOL    HW139401   0.613   4.013   6.311 -0.1861 -0.1901 -1.3667
 9314SOL    HW239402   0.593   3.889   6.394  0.6007 -2.0218 -1.7776
 9315SOL     OW39403   1.756   3.990   7.264  0.2720 -0.3417 -0.3068
 9315SOL    HW139404   1.771   4.084   7.252 -0.2486 -0.1793  0.3356
 9315SOL    HW239405   1.744   3.963   7.173 -1.2327 -0.9740  0.0870
 9316SOL     OW39406   1.378   1.027   5.732 -0.2054  0.1374  0.2043
 9316SOL    HW139407   1.338   0.957   5.680  0.8946 -0.5975  0.3310
 9316SOL    HW239408   1.464   1.036   5.691 -0.4533 -0.6777 -0.5050
 9317SOL     OW39409   0.454   3.772   7.395  0.6750  0.0247  0.2604
 9317SOL    HW139410   0.479   3.861   7.370  4.5754 -1.0716  0.2398
 9317SOL    HW239411   0.530   3.728   7.356  1.1783  1.1113 -0.0101
 9318SOL     OW39412   4.581   4.038   7.411 -0.1186 -0.2033 -0.5462
 9318SOL    HW139413   4.542   3.971   7.355 -3.3051  0.5090  0.7813
 9318SOL    HW239414   4.522   4.112   7.394  0.9562  1.2701  2.1699
 9319SOL     OW39415   2.867   1.973   2.884 -0.0568 -0.2376  0.0992
 9319SOL    HW139416   2.857   1.890   2.931  0.3884 -1.1460 -1.3819
 9319SOL    HW239417   2.783   2.016   2.898  0.2085  0.3467 -0.1079
 9320SOL     OW39418   2.215   2.568   7.487  0.4996 -0.0506  0.3014
 9320SOL    HW139419   2.190   2.557   7.578 -0.9375 -0.3766 -0.1212
 9320SOL    HW239420   2.128   2.546   7.452  0.9386  0.6278 -1.2496
 9321SOL     OW39421   1.479   4.223   2.452 -0.2684  0.0651 -0.4513
 9321SOL    HW139422   1.552   4.283   2.470 -0.5619  0.3758 -0.3135
 9321SOL    HW239423   1.531   4.142   2.448  0.9095  0.7950  0.0967
 9322SOL     OW39424   0.777   2.650   3.905  0.0972 -0.5362  0.5962
 9322SOL    HW139425   0.683   2.634   3.897  0.3267 -1.7182  0.3360
 9322SOL    HW239426   0.801   2.649   3.813 -0.3112 -0.6678  0.4911
 9323SOL     OW39427   2.354   2.811  14.030  0.1899  0.2939  0.2165
 9323SOL    HW139428   2.351   2.895  14.076  0.0246  1.1508 -1.3453
 9323SOL    HW239429   2.362   2.838  13.938  0.6616  1.2290  0.5348
 9324SOL     OW39430   0.280   2.442  13.908  0.3810  0.3158  0.8177
 9324SOL    HW139431   0.184   2.435  13.907  0.3836  0.1892  1.4519
 9324SOL    HW239432   0.312   2.358  13.875 -0.7596 -0.9219  2.8096
 9325SOL     OW39433   0.852   2.333   6.502 -0.3255  0.7985  0.0147
 9325SOL    HW139434   0.881   2.424   6.498 -1.0768  1.1287  2.0636
 9325SOL    HW239435   0.758   2.338   6.519 -0.4052 -0.5751 -0.0825
 9326SOL     OW39436   3.848   1.505   5.739 -0.2345  0.3102  0.5161
 9326SOL    HW139437   3.801   1.582   5.706 -0.8346  0.1281  0.9395
 9326SOL    HW239438   3.929   1.537   5.778  1.6497 -3.7795 -0.0027
 9327SOL     OW39439   3.255   4.618   4.130 -0.6803 -0.5254 -0.5113
 9327SOL    HW139440   3.281   4.655   4.215 -0.6960  2.7657 -1.9509
 9327SOL    HW239441   3.161   4.613   4.150 -1.1652  0.5186 -2.5185
 9328SOL     OW39442   3.863   4.026  11.193  0.0759  0.0608 -0.3097
 9328SOL    HW139443   3.782   4.065  11.225 -0.4541  0.0118 -1.5629
 9328SOL    HW239444   3.861   4.062  11.104 -0.6785 -1.1508 -0.7875
 9329SOL     OW39445   3.757   3.060  11.503 -0.6300  0.1416 -0.3894
 9329SOL    HW139446   3.743   3.149  11.469 -1.6870 -0.2889 -1.0603
 9329SOL    HW239447   3.850   3.048  11.483 -0.9753 -4.0732  0.6219
 9330SOL     OW39448   3.955   3.295   8.421  1.0333  0.0900  0.4891
 9330SOL    HW139449   4.032   3.323   8.471  0.0419 -0.4167  2.3193
 9330SOL    HW239450   3.938   3.207   8.455  3.3938 -1.3638 -2.1183
 9331SOL     OW39451   2.440   2.333   6.444 -0.6369 -0.2437 -0.2154
 9331SOL    HW139452   2.429   2.261   6.383  0.4578 -0.0006 -0.6843
 9331SOL    HW239453   2.348   2.353   6.463 -1.4985 -0.1365 -4.5495
 9332SOL     OW39454   1.008   0.400  13.281 -0.2650  0.5895 -0.5166
 9332SOL    HW139455   0.972   0.477  13.324  1.8578  2.3248 -1.8745
 9332SOL    HW239456   0.925   0.352  13.278  0.4968 -0.6202 -2.1756
 9333SOL     OW39457   0.412   0.188  10.966 -0.1075 -0.1877 -0.8913
 9333SOL    HW139458   0.456   0.105  10.988  1.7409  0.4286 -2.2849
 9333SOL    HW239459   0.350   0.181  11.038  1.7150 -0.3382  0.6800
 9334SOL     OW39460   2.250   0.586   4.762  0.4337  0.3810 -0.6215
 9334SOL    HW139461   2.158   0.595   4.740  0.1859 -3.2178 -1.0551
 9334SOL    HW239462   2.268   0.492   4.750  1.4766  0.2291  2.1482
 9335SOL     OW39463   1.952   4.094  14.717  0.2112  0.7412  0.7721
 9335SOL    HW139464   1.860   4.076  14.699  0.0655  0.5251  1.7501
 9335SOL    HW239465   1.965   4.019  14.774  0.5734 -0.7263 -1.2323
 9336SOL     OW39466   0.165   3.143   3.214  0.0395 -0.6803  0.0959
 9336SOL    HW139467   0.141   3.221   3.165  0.8070 -0.2076  0.4735
 9336SOL    HW239468   0.260   3.152   3.209 -0.1050  1.5697  1.5077
 9337SOL     OW39469   4.036   2.674   1.805  0.0973 -0.3725 -0.0992
 9337SOL    HW139470   4.004   2.738   1.868 -1.4339  0.4102 -1.6792
 9337SOL    HW239471   3.968   2.607   1.812  0.2341 -0.3978  1.0430
 9338SOL     OW39472   4.614   0.634   9.269 -0.4379  0.9300 -0.0525
 9338SOL    HW139473   4.610   0.555   9.215 -0.5954  1.6753 -1.1239
 9338SOL    HW239474   4.544   0.684   9.227 -2.1122 -0.5865  0.8900
 9339SOL     OW39475   0.383   3.861   3.865  0.0745  0.3840  0.1421
 9339SOL    HW139476   0.326   3.932   3.834 -0.0074 -0.3246 -1.3037
 9339SOL    HW239477   0.337   3.781   3.838 -1.2658  0.7276  1.4162
 9340SOL     OW39478   1.915   0.711   7.043 -0.4640 -1.0177 -0.1289
 9340SOL    HW139479   1.876   0.695   7.130 -0.2609 -1.6105 -0.1512
 9340SOL    HW239480   1.925   0.806   7.045  0.7551 -1.1772  1.1787
 9341SOL     OW39481   2.913   3.768   7.694 -0.5201  0.2259 -0.2757
 9341SOL    HW139482   2.970   3.695   7.719 -2.6540 -0.5947  2.1863
 9341SOL    HW239483   2.947   3.841   7.745  2.4844 -0.2655 -1.5831
 9342SOL     OW39484   3.908   1.078  11.943 -0.1240  0.0081  0.5482
 9342SOL    HW139485   3.920   1.147  12.009  2.4245  2.3878 -2.3639
 9342SOL    HW239486   3.827   1.039  11.976 -1.1126  1.6980  0.1520
 9343SOL     OW39487   0.389   0.940   6.241  0.2460 -0.1204  1.1383
 9343SOL    HW139488   0.384   0.930   6.336  1.4535  1.1995  1.3400
 9343SOL    HW239489   0.302   0.930   6.202  0.5221 -0.0374  0.5084
 9344SOL     OW39490   2.068   3.737  16.212 -0.4743  0.3641  0.3003
 9344SOL    HW139491   1.989   3.762  16.259 -1.2831 -1.1438 -0.2675
 9344SOL    HW239492   2.139   3.759  16.272  0.3870  1.2335 -1.0471
 9345SOL     OW39493   0.588   2.827   8.355  0.4359  0.3187 -0.1773
 9345SOL    HW139494   0.506   2.792   8.320 -0.0629 -0.3626  1.6764
 9345SOL    HW239495   0.650   2.762   8.322 -0.4402  0.0147 -1.2194
 9346SOL     OW39496   1.942   2.954   5.235 -0.1327  0.0799  0.0841
 9346SOL    HW139497   2.033   2.972   5.212 -0.0337  2.2674  2.2490
 9346SOL    HW239498   1.890   3.026   5.199 -2.5594 -2.2711 -1.0791
 9347SOL     OW39499   0.368   3.955  16.931  0.2669  0.1408 -0.5920
 9347SOL    HW139500   0.391   3.985  17.019 -0.3054 -0.6242 -0.1813
 9347SOL    HW239501   0.298   4.015  16.906  1.0569  0.3455 -2.3275
 9348SOL     OW39502   0.820   0.635  13.204 -0.1381  0.1117  0.0798
 9348SOL    HW139503   0.802   0.656  13.112 -1.6319 -0.2117  0.3068
 9348SOL    HW239504   0.785   0.709  13.254 -0.4476 -1.0121  1.5065
 9349SOL     OW39505   2.206   3.874   0.585 -0.1845  0.0991 -0.0372
 9349SOL    HW139506   2.201   3.969   0.593 -1.8130  0.0717 -0.8234
 9349SOL    HW239507   2.250   3.870   0.500 -0.0485 -0.7938  0.0772
 9350SOL     OW39508   3.402   1.517   5.490 -0.0772 -0.4664 -0.0434
 9350SOL    HW139509   3.445   1.598   5.461 -1.7962  0.5252  0.1826
 9350SOL    HW239510   3.348   1.504   5.413  2.7037 -2.7970 -1.5737
 9351SOL     OW39511   0.703   1.914   8.925  0.3042 -0.5975 -0.4407
 9351SOL    HW139512   0.676   1.828   8.892 -1.8592  0.9074 -2.5419
 9351SOL    HW239513   0.717   1.885   9.016  0.0346 -2.3541 -0.9495
 9352SOL     OW39514   1.205   1.029   7.084 -0.0821 -0.1521  0.1189
 9352SOL    HW139515   1.176   1.003   7.172 -0.9364  2.0485  0.5055
 9352SOL    HW239516   1.152   0.978   7.024 -0.2433  0.3241 -0.1481
 9353SOL     OW39517   2.936   2.992   2.947 -0.1128 -0.3544  0.2892
 9353SOL    HW139518   2.886   2.944   3.013 -0.6275  1.9232  1.5243
 9353SOL    HW239519   2.994   2.930   2.902  2.0072  1.7227  0.1520
 9354SOL     OW39520   4.436   3.177   3.897 -0.5178  0.0013 -0.2821
 9354SOL    HW139521   4.401   3.205   3.812  0.0030 -1.6284 -1.0240
 9354SOL    HW239522   4.435   3.254   3.953 -1.0707  0.6778 -1.2179
 9355SOL     OW39523   1.730   0.863   1.383  0.6623  0.3901  0.3932
 9355SOL    HW139524   1.657   0.925   1.381 -0.4851 -0.9824 -0.1261
 9355SOL    HW239525   1.786   0.905   1.318  0.8553 -0.3061  0.1130
 9356SOL     OW39526   2.519   4.443   4.118  0.2669  0.5436  0.4345
 9356SOL    HW139527   2.527   4.428   4.213  0.5746  0.7145  0.4361
 9356SOL    HW239528   2.570   4.523   4.109 -0.9088  1.0661 -1.3400
 9357SOL     OW39529   4.329   2.128  11.308 -0.1186 -0.5301 -0.3712
 9357SOL    HW139530   4.254   2.144  11.365 -0.6066 -1.8979 -0.6258
 9357SOL    HW239531   4.370   2.054  11.352 -0.7633  0.6723  2.2550
 9358SOL     OW39532   2.341   4.353   3.943  0.3726 -0.1958  0.3007
 9358SOL    HW139533   2.413   4.307   3.900  1.8409  0.6909  1.8282
 9358SOL    HW239534   2.394   4.388   4.016 -1.8414  1.8500  0.9398
 9359SOL     OW39535   4.125   4.172   2.489  0.6884  0.1240  0.5962
 9359SOL    HW139536   4.031   4.167   2.471  0.7418  0.8740  0.1005
 9359SOL    HW239537   4.141   4.081   2.514 -0.9501  0.3789  2.6056
 9360SOL     OW39538   2.189   2.375   6.650  0.0722  0.2301  0.2869
 9360SOL    HW139539   2.132   2.316   6.700 -0.9455 -0.3405 -1.5850
 9360SOL    HW239540   2.143   2.390   6.568  1.4684  0.9135 -0.3755
 9361SOL     OW39541   4.160   1.091  13.133 -0.2813  0.2122  0.3273
 9361SOL    HW139542   4.241   1.142  13.138  0.1324 -0.4630  0.4062
 9361SOL    HW239543   4.193   1.013  13.089  1.8639  1.4566 -0.2660
 9362SOL     OW39544   0.131   0.546   6.323  0.0212  0.1727 -0.7159
 9362SOL    HW139545   0.164   0.489   6.393 -0.5387 -1.2069 -1.5791
 9362SOL    HW239546   0.202   0.534   6.260  2.1428  1.0998  1.4887
 9363SOL     OW39547   0.604   3.242   7.023  0.3467 -0.0156 -0.0761
 9363SOL    HW139548   0.530   3.298   6.996  0.8752  0.7655  0.0945
 9363SOL    HW239549   0.553   3.170   7.060 -0.7556  0.6247 -0.3200
 9364SOL     OW39550   0.842   3.859   0.628  0.0391 -0.0459  0.2880
 9364SOL    HW139551   0.826   3.768   0.652 -1.9826  0.3800  0.5324
 9364SOL    HW239552   0.926   3.876   0.671 -0.2554  0.6149  0.6071
 9365SOL     OW39553   3.839   3.891   4.138  0.3034  0.1585 -0.0778
 9365SOL    HW139554   3.765   3.945   4.109 -0.6835 -1.4925 -0.6636
 9365SOL    HW239555   3.846   3.919   4.229 -0.3099 -0.3255  0.1211
 9366SOL     OW39556   4.431   1.359   0.926 -0.1962  0.3939  0.4330
 9366SOL    HW139557   4.435   1.447   0.891  1.3830 -0.1601 -0.7299
 9366SOL    HW239558   4.399   1.328   0.841  0.9804 -1.6567  0.7445
 9367SOL     OW39559   4.356   4.504   5.125 -0.0142  0.5086 -1.0142
 9367SOL    HW139560   4.330   4.596   5.130  2.5588  1.1097  1.0247
 9367SOL    HW239561   4.319   4.456   5.199  2.3476  1.4696  0.7769
 9368SOL     OW39562   3.829   0.864   0.797  0.2837  0.1328 -0.3184
 9368SOL    HW139563   3.897   0.818   0.747  0.2605  1.2029 -1.3274
 9368SOL    HW239564   3.804   0.935   0.737  0.5598 -0.1314 -0.7504
 9369SOL     OW39565   4.219   1.659   4.461 -0.6462 -0.3761 -0.4998
 9369SOL    HW139566   4.154   1.593   4.436 -2.3579  0.9097  0.6237
 9369SOL    HW239567   4.170   1.739   4.445 -2.5933 -1.7384 -1.3388
 9370SOL     OW39568   3.582   4.555   7.365 -0.0353 -0.6686 -0.3931
 9370SOL    HW139569   3.622   4.469   7.376 -1.8117 -1.7768 -2.7494
 9370SOL    HW239570   3.507   4.541   7.423 -0.7941 -2.0767 -1.7067
 9371SOL     OW39571   2.509   2.083  13.413  0.6844 -0.4764  0.1570
 9371SOL    HW139572   2.590   2.052  13.452  0.6173  0.3823  1.0052
 9371SOL    HW239573   2.458   2.102  13.492 -0.4588  0.6704 -0.8404
 9372SOL     OW39574   0.697   3.564  12.085 -0.5573 -0.1447 -0.7867
 9372SOL    HW139575   0.617   3.618  12.086 -1.2365 -1.1328 -1.5317
 9372SOL    HW239576   0.760   3.636  12.097 -1.1769  0.1961  0.4497
 9373SOL     OW39577   0.590   1.729   7.257 -0.0222  0.2607 -0.1094
 9373SOL    HW139578   0.613   1.798   7.195 -0.1483  0.5169  0.1286
 9373SOL    HW239579   0.609   1.652   7.203 -0.3866  1.6795 -2.2478
 9374SOL     OW39580   2.482   1.986  17.308  0.4631 -0.0647  0.3739
 9374SOL    HW139581   2.543   1.913  17.299 -0.8199 -1.1280  0.1699
 9374SOL    HW239582   2.437   1.983  17.223  1.2944 -1.0858 -0.0277
 9375SOL     OW39583   0.915   1.532   6.721 -0.6901 -0.1172 -0.7860
 9375SOL    HW139584   0.994   1.586   6.708  0.0694 -1.4920 -1.9069
 9375SOL    HW239585   0.858   1.570   6.654 -1.8984 -1.2309 -0.3772
 9376SOL     OW39586   1.767   3.808   8.012 -0.9296  0.5832 -0.5673
 9376SOL    HW139587   1.772   3.891   8.058 -0.9161  0.6821 -0.7470
 9376SOL    HW239588   1.730   3.752   8.080 -0.5569 -0.4782 -1.2410
 9377SOL     OW39589   0.960   3.318   3.988  0.2232  0.0403 -0.0230
 9377SOL    HW139590   1.051   3.317   3.960  0.2103 -0.0581 -0.0610
 9377SOL    HW239591   0.915   3.321   3.903  0.6013  2.8473 -0.1346
 9378SOL     OW39592   1.018   2.916   8.422 -0.4489  0.0550  0.3591
 9378SOL    HW139593   0.997   2.842   8.479 -0.3485  0.0730  0.4189
 9378SOL    HW239594   1.103   2.943   8.455 -0.3905  1.3150 -0.7753
 9379SOL     OW39595   1.869   4.014   7.641  0.2535  0.5526 -0.2287
 9379SOL    HW139596   1.890   4.040   7.731 -1.4364 -0.1024  0.3560
 9379SOL    HW239597   1.873   4.097   7.595 -1.8336  0.7771 -0.0237
 9380SOL     OW39598   4.232   2.039   4.899  0.2558 -0.3277  0.5546
 9380SOL    HW139599   4.222   2.031   4.994 -0.4674 -2.0125  0.3351
 9380SOL    HW239600   4.155   2.090   4.874 -0.6656 -0.0898  3.8722
 9381SOL     OW39601   4.263   4.141  11.813  0.0927  0.0080 -0.0089
 9381SOL    HW139602   4.329   4.158  11.880  0.4767 -1.9241  0.1024
 9381SOL    HW239603   4.225   4.056  11.834  1.1011 -1.2183 -3.0535
 9382SOL     OW39604   3.008   3.541   6.340  0.3592 -0.1408  0.3542
 9382SOL    HW139605   3.000   3.636   6.336 -0.2487 -0.2839 -2.1469
 9382SOL    HW239606   3.081   3.522   6.280 -0.5096 -1.6421 -0.2281
 9383SOL     OW39607   3.052   4.312   6.496  0.7599 -0.4446  0.7815
 9383SOL    HW139608   2.964   4.290   6.524 -0.5595  2.0042 -1.3483
 9383SOL    HW239609   3.082   4.384   6.552  0.6683 -0.3935  0.7643
 9384SOL     OW39610   2.315   2.609  14.340  0.7028 -0.2687  0.3533
 9384SOL    HW139611   2.261   2.623  14.262  0.6444  1.6013  0.7186
 9384SOL    HW239612   2.267   2.544  14.390 -0.7782  0.5383  0.0113
 9385SOL     OW39613   3.083   2.825   2.000 -0.0234  0.1393 -0.4434
 9385SOL    HW139614   3.020   2.850   1.933 -0.5670  0.4377  0.1837
 9385SOL    HW239615   3.116   2.739   1.974  0.2361  0.2262 -0.4069
 9386SOL     OW39616   0.257   1.996   4.348 -0.1162 -0.1034  0.6672
 9386SOL    HW139617   0.186   1.942   4.383  0.2731  0.2264  1.9733
 9386SOL    HW239618   0.316   2.018   4.420 -2.2498 -0.2419  2.4636
 9387SOL     OW39619   0.909   3.270   2.805 -0.6546  0.3749 -0.0832
 9387SOL    HW139620   0.899   3.181   2.838  4.8055 -0.5440 -1.0266
 9387SOL    HW239621   0.974   3.312   2.861 -0.1972 -0.6033  0.1244
 9388SOL     OW39622   1.817   1.563   3.512 -0.5835  0.2144  0.4450
 9388SOL    HW139623   1.822   1.476   3.472  0.5357 -0.5873  2.3857
 9388SOL    HW239624   1.737   1.547   3.563 -2.1482  0.9102 -1.7466
 9389SOL     OW39625   4.674   0.180   9.480  0.3575 -0.2642 -0.2578
 9389SOL    HW139626   4.676   0.274   9.498  1.0256 -0.6964  1.8995
 9389SOL    HW239627   4.583   0.181   9.453  0.8369  1.0158 -1.8135
 9390SOL     OW39628   1.681   1.797   1.544  0.3203  0.0269 -0.6605
 9390SOL    HW139629   1.631   1.795   1.462 -0.7826  0.5784 -0.0121
 9390SOL    HW239630   1.694   1.892   1.542 -0.3720  0.1428 -0.0238
 9391SOL     OW39631   4.611   1.188   2.977 -0.1308  0.4116  0.0959
 9391SOL    HW139632   4.562   1.266   2.949  1.3317  1.9168  1.7201
 9391SOL    HW239633   4.568   1.125   2.919  3.2338  1.1267 -3.1693
 9392SOL     OW39634   2.089   3.815   3.932 -0.0328 -0.3644 -0.0434
 9392SOL    HW139635   2.044   3.814   4.017  0.6930 -2.9031  0.3109
 9392SOL    HW239636   2.067   3.900   3.893 -0.3162 -1.2539 -1.7917
 9393SOL     OW39637   1.648   2.183   5.884  0.2970 -0.1215 -0.3672
 9393SOL    HW139638   1.641   2.277   5.905 -0.2881 -0.4933  1.1214
 9393SOL    HW239639   1.713   2.187   5.814  1.4174  1.3629  0.7463
 9394SOL     OW39640   0.073   4.303  15.098  0.1791  0.2034  0.6288
 9394SOL    HW139641   4.703   4.330  15.089  0.5714  0.9088 -1.1537
 9394SOL    HW239642   0.070   4.226  15.041  2.4259 -1.3275  2.5530
 9395SOL     OW39643   3.956   1.920  16.155  0.0069 -0.0918 -0.0234
 9395SOL    HW139644   3.939   2.003  16.111  3.3225  0.2608 -0.6662
 9395SOL    HW239645   3.912   1.942  16.237 -0.1863 -1.6950  0.3101
 9396SOL     OW39646   3.465   3.788   9.359  0.3505  0.4616  0.3802
 9396SOL    HW139647   3.441   3.867   9.311 -0.7267 -0.2210 -0.2097
 9396SOL    HW239648   3.390   3.779   9.419  0.0371  0.1262 -0.0567
 9397SOL     OW39649   0.697   4.011   9.627 -0.1148  0.0727  0.1381
 9397SOL    HW139650   0.772   3.955   9.608  0.1126  0.8988 -1.3859
 9397SOL    HW239651   0.674   3.990   9.717  0.0369  2.0755  0.6529
 9398SOL     OW39652   0.103   0.162   4.412 -0.4999 -0.0120 -0.7831
 9398SOL    HW139653   0.077   0.083   4.365 -1.8708 -0.9144  1.4899
 9398SOL    HW239654   0.122   0.209   4.331  0.0104  1.7039  0.3338
 9399SOL     OW39655   3.261   1.253   6.586  0.2926  0.1342  0.5219
 9399SOL    HW139656   3.344   1.206   6.575  1.3239  1.8202  1.2207
 9399SOL    HW239657   3.242   1.226   6.675 -0.1913 -0.2996  0.2895
 9400SOL     OW39658   1.497   1.621   7.242 -0.1691  0.2958 -0.6324
 9400SOL    HW139659   1.513   1.533   7.209  0.1283  0.9235 -2.1761
 9400SOL    HW239660   1.401   1.616   7.241 -0.2655  2.2083 -1.4961
 9401SOL     OW39661   3.164   0.880  10.821 -0.2047 -0.0472 -0.3186
 9401SOL    HW139662   3.212   0.851  10.898  0.8501 -0.9870 -1.3147
 9401SOL    HW239663   3.196   0.817  10.756  2.0192  0.1615  0.5902
 9402SOL     OW39664   0.622   1.053   5.844  0.5516 -0.0749 -0.8221
 9402SOL    HW139665   0.547   1.093   5.800 -0.4824 -0.1572  0.8423
 9402SOL    HW239666   0.689   1.114   5.814 -0.8803  1.6048 -0.6127
 9403SOL     OW39667   3.011   0.621   3.074 -0.2534  0.3404 -0.4803
 9403SOL    HW139668   3.102   0.592   3.059  0.5599  0.6387  3.9329
 9403SOL    HW239669   2.961   0.580   3.004  0.5215  0.0531 -0.8751
 9404SOL     OW39670   3.821   1.585   9.250 -0.5844  0.2806  0.0558
 9404SOL    HW139671   3.853   1.516   9.308  1.9776 -2.0863 -4.1578
 9404SOL    HW239672   3.742   1.614   9.297  0.2864  1.5725  0.7245
 9405SOL     OW39673   4.147   3.684  11.748  0.1776 -0.2273  0.3655
 9405SOL    HW139674   4.119   3.614  11.808 -0.1532  0.2640  0.7774
 9405SOL    HW239675   4.204   3.638  11.686  0.5525 -0.0854  0.6102
 9406SOL     OW39676   3.896   1.155   9.234  0.7639 -0.0425 -0.0810
 9406SOL    HW139677   3.944   1.082   9.273 -1.6519 -0.3822  2.2953
 9406SOL    HW239678   3.874   1.114   9.150 -0.8910  1.8447 -0.5719
 9407SOL     OW39679   0.125   0.464   3.308  1.2081 -0.5084  0.3680
 9407SOL    HW139680   0.173   0.546   3.305 -0.8969  0.6955 -0.5853
 9407SOL    HW239681   0.191   0.401   3.281 -1.9500 -3.2026 -1.0923
 9408SOL     OW39682   4.169   0.375   5.470  0.4121 -0.1995  0.0596
 9408SOL    HW139683   4.106   0.380   5.542  0.5556 -0.0369  0.1737
 9408SOL    HW239684   4.230   0.438   5.508 -0.2473 -1.0328  2.4774
 9409SOL     OW39685   4.720   2.702  14.947  0.2021  0.0487 -0.4708
 9409SOL    HW139686   4.678   2.616  14.949  3.2931 -1.4340  1.1935
 9409SOL    HW239687   0.090   2.674  14.945  0.5551  1.1953 -0.8250
 9410SOL     OW39688   3.028   1.050   2.447 -0.2209  0.0966 -0.2715
 9410SOL    HW139689   3.111   1.008   2.423  0.4372  1.4023 -0.2852
 9410SOL    HW239690   2.960   0.984   2.433  0.8425 -0.6620 -1.8838
 9411SOL     OW39691   2.771   1.931   1.025 -0.0132  0.5035 -0.2978
 9411SOL    HW139692   2.715   1.982   0.966 -1.3092 -1.8295 -1.0702
 9411SOL    HW239693   2.800   1.999   1.085  1.4168 -1.2502  0.9691
 9412SOL     OW39694   4.523   2.053   3.783 -0.4366 -0.1076  0.0435
 9412SOL    HW139695   4.539   2.079   3.692  1.8517  0.3133  0.5838
 9412SOL    HW239696   4.431   2.072   3.803 -0.1146  0.5572  0.8840
 9413SOL     OW39697   1.455   1.714   4.650  0.6153  0.2926 -0.1604
 9413SOL    HW139698   1.444   1.751   4.563 -1.9006  1.8358  0.7879
 9413SOL    HW239699   1.387   1.761   4.699  1.2796  0.7845  0.2981
 9414SOL     OW39700   0.407   0.890   7.666 -0.6522  0.7626  0.0910
 9414SOL    HW139701   0.389   0.962   7.606  1.4580  0.3917 -0.9523
 9414SOL    HW239702   0.339   0.916   7.729 -2.1212 -2.9923  0.0447
 9415SOL     OW39703   2.467   1.432   2.066 -0.5656  0.0613  0.0925
 9415SOL    HW139704   2.546   1.427   2.120 -0.5254 -0.2476  0.0069
 9415SOL    HW239705   2.505   1.404   1.983  0.3815  0.1614  0.4876
 9416SOL     OW39706   3.514   1.500   4.816  0.0077 -0.4535  0.6258
 9416SOL    HW139707   3.467   1.530   4.894 -1.0891 -0.4085 -0.0503
 9416SOL    HW239708   3.520   1.407   4.837 -0.2220 -1.2188 -2.5859
 9417SOL     OW39709   0.584   2.789   1.883 -0.6676 -0.0624 -0.6118
 9417SOL    HW139710   0.563   2.842   1.960  1.0778 -2.3662  1.4129
 9417SOL    HW239711   0.628   2.711   1.916  1.1120  1.6420  1.0010
 9418SOL     OW39712   3.123   2.010   3.460 -0.4669 -0.1513 -0.3575
 9418SOL    HW139713   3.071   1.968   3.391 -3.6319  0.5841  1.5911
 9418SOL    HW239714   3.155   1.924   3.487 -0.6577 -0.1827 -0.2365
 9419SOL     OW39715   1.233   1.534   2.121 -0.5549 -0.2515  0.0891
 9419SOL    HW139716   1.266   1.446   2.141  0.0562  0.3196  1.6100
 9419SOL    HW239717   1.196   1.557   2.206  2.6338  0.8579  1.1718
 9420SOL     OW39718   2.857   3.177   5.927 -0.7821 -0.0353  0.3213
 9420SOL    HW139719   2.915   3.129   5.868  2.6952  2.8291  1.3912
 9420SOL    HW239720   2.925   3.242   5.945  0.6424 -2.3173  3.2032
 9421SOL     OW39721   4.222   0.342   9.569 -0.5797 -0.3045 -0.1866
 9421SOL    HW139722   4.203   0.435   9.579  0.0248  0.0026 -1.8629
 9421SOL    HW239723   4.305   0.337   9.617 -0.0391 -0.5092 -1.1408
 9422SOL     OW39724   2.872   4.476   3.722 -0.3232  0.2055 -0.0639
 9422SOL    HW139725   2.874   4.532   3.645 -1.1013  1.8528  1.1070
 9422SOL    HW239726   2.857   4.539   3.793  1.5496 -0.4504  0.9083
 9423SOL     OW39727   2.958   4.525   2.070 -0.3638 -0.5710  0.3265
 9423SOL    HW139728   2.945   4.531   1.976 -0.1552  0.7715  0.3803
 9423SOL    HW239729   3.021   4.453   2.080  0.0240 -0.0585  1.6711
 9424SOL     OW39730   0.526   3.811   6.707  0.2643  0.1303  0.0407
 9424SOL    HW139731   0.549   3.762   6.628 -1.0752 -0.1338 -0.1798
 9424SOL    HW239732   0.607   3.862   6.720 -0.4169  1.0658  0.6648
 9425SOL     OW39733   1.779   2.052   8.716 -0.1254 -0.1494  0.3413
 9425SOL    HW139734   1.822   2.075   8.798 -0.7481  0.1339  0.5860
 9425SOL    HW239735   1.830   2.091   8.644 -0.4462 -2.1570 -0.9666
 9426SOL     OW39736   1.703   2.094   0.078 -0.2887 -0.4089  0.2641
 9426SOL    HW139737   1.680   2.172   0.130  0.1972 -0.7612  1.0155
 9426SOL    HW239738   1.631   2.040   0.109  0.1597 -2.2331 -1.9198
 9427SOL     OW39739   0.489   1.782   8.510 -1.2549  0.3129 -0.1039
 9427SOL    HW139740   0.410   1.729   8.520 -1.7861  1.3276  1.0682
 9427SOL    HW239741   0.458   1.851   8.569 -0.8393  1.4636 -1.2147
 9428SOL     OW39742   0.904   0.450   2.538 -0.0094  0.3582  0.3235
 9428SOL    HW139743   0.826   0.462   2.483  1.0700  1.7359 -0.8845
 9428SOL    HW239744   0.958   0.384   2.497 -2.3890  0.4933 -3.0291
 9429SOL     OW39745   0.173   4.613   4.372 -0.6273  0.4240 -0.1897
 9429SOL    HW139746   0.205   4.622   4.461  1.4376 -1.5213 -0.7216
 9429SOL    HW239747   0.191   4.520   4.364  1.5918  0.7115  1.4001
 9430SOL     OW39748   4.260   1.050   7.644  0.6865 -0.1591 -0.0683
 9430SOL    HW139749   4.290   1.137   7.617  0.8656 -0.4274 -0.7358
 9430SOL    HW239750   4.180   1.072   7.692  0.4296 -2.2769  0.4847
 9431SOL     OW39751   3.806   0.734   9.076 -0.0121  0.0650  0.4584
 9431SOL    HW139752   3.842   0.811   9.032  0.6297 -1.4703 -1.7686
 9431SOL    HW239753   3.716   0.760   9.091  0.5628  1.7027  0.9825
 9432SOL     OW39754   3.773   3.402  13.622 -0.2942  0.6162 -0.4044
 9432SOL    HW139755   3.736   3.340  13.685 -0.8760  4.0250  2.6415
 9432SOL    HW239756   3.712   3.399  13.549 -2.0508 -0.1951  1.0944
 9433SOL     OW39757   1.109   4.475   3.242  0.1968  0.3772 -0.7030
 9433SOL    HW139758   1.074   4.564   3.235 -0.5602  0.3003  2.0831
 9433SOL    HW239759   1.195   4.484   3.200  0.5591  0.9757  0.1437
 9434SOL     OW39760   4.609   4.564   3.388  0.0084 -0.2950  0.3057
 9434SOL    HW139761   4.663   4.565   3.309  0.6109 -0.4592  0.7152
 9434SOL    HW239762   4.625   4.657   3.405 -2.4689  0.5956 -2.0645
 9435SOL     OW39763   0.455   0.919   3.126 -0.1684  0.4698  0.3221
 9435SOL    HW139764   0.502   0.907   3.209 -1.6254 -1.5795  0.8349
 9435SOL    HW239765   0.454   1.015   3.126 -0.1776  0.4692 -0.0120
 9436SOL     OW39766   0.203   3.618  15.248  0.2575  0.3862 -0.4159
 9436SOL    HW139767   0.184   3.568  15.327 -1.5813 -0.1002 -1.1807
 9436SOL    HW239768   0.192   3.707  15.281 -0.4854  0.1487 -0.0428
 9437SOL     OW39769   1.443   0.123   2.888  0.7844 -0.2213  0.2140
 9437SOL    HW139770   1.460   0.084   2.975  1.0218 -1.4484 -0.3748
 9437SOL    HW239771   1.450   0.217   2.905 -1.1631  0.4676 -2.7948
 9438SOL     OW39772   1.179   0.869  12.373  0.3078  0.2732 -0.6908
 9438SOL    HW139773   1.200   0.833  12.459  0.5062  2.6176  0.2365
 9438SOL    HW239774   1.246   0.935  12.355  1.9208 -0.6381  2.0102
 9439SOL     OW39775   4.090   3.094   6.941  0.0439  0.1045  0.2066
 9439SOL    HW139776   4.074   3.044   6.861  0.0816  0.3839  0.0242
 9439SOL    HW239777   4.117   3.018   6.993 -0.4396 -0.3374 -0.1893
 9440SOL     OW39778   4.145   3.555   2.550 -0.1822 -0.0013 -0.1467
 9440SOL    HW139779   4.163   3.461   2.560  0.9563  0.0237 -2.0370
 9440SOL    HW239780   4.073   3.550   2.488  0.0183 -1.0594 -0.3081
 9441SOL     OW39781   2.686   0.592  15.724 -0.0199 -0.7756 -0.5378
 9441SOL    HW139782   2.646   0.614  15.640 -0.2900  0.7266 -0.0287
 9441SOL    HW239783   2.770   0.560  15.691  0.6151 -0.3769  0.6695
 9442SOL     OW39784   2.900   0.058   2.646 -0.3347  0.3525  0.3106
 9442SOL    HW139785   2.844   4.705   2.626  0.7313  0.4211 -2.8788
 9442SOL    HW239786   2.988   0.020   2.654  0.3291  2.0734  1.3909
 9443SOL     OW39787   4.490   0.070   8.580 -0.2828 -0.6101  0.3968
 9443SOL    HW139788   4.447   0.045   8.498  0.2473  0.9186 -0.3367
 9443SOL    HW239789   4.415   0.057   8.638  0.7281  1.1011  2.0817
 9444SOL     OW39790   2.360   1.348   2.790  0.1609 -0.4595 -0.4284
 9444SOL    HW139791   2.339   1.287   2.719  1.5695  0.0429 -1.2710
 9444SOL    HW239792   2.334   1.291   2.862 -0.8435  0.0155 -0.4008
 9445SOL     OW39793   2.941   0.339  17.252  0.1730 -0.4572 -0.6259
 9445SOL    HW139794   2.967   0.430  17.265  0.7367 -0.3963 -2.1626
 9445SOL    HW239795   2.974   0.319  17.164  3.2700 -2.8466  1.0432
 9446SOL     OW39796   2.188   1.229   1.269  0.1186 -0.8093  0.1730
 9446SOL    HW139797   2.180   1.135   1.252 -1.3654 -0.5027 -0.8879
 9446SOL    HW239798   2.123   1.258   1.204  0.2557  2.0138  1.3274
 9447SOL     OW39799   3.816   0.204   9.086 -0.6187  0.3599 -0.2604
 9447SOL    HW139800   3.867   0.184   9.007  1.6967 -0.4227  1.4382
 9447SOL    HW239801   3.729   0.187   9.050 -1.2193  1.4861  0.6631
 9448SOL     OW39802   0.052   1.960   2.192 -0.2570 -0.0188  0.1224
 9448SOL    HW139803   0.048   1.946   2.097 -0.1718 -3.4785  0.6520
 9448SOL    HW239804   4.698   2.014   2.214 -0.7389 -1.6107  2.3480
 9449SOL     OW39805   2.802   2.863  15.061  0.0871  0.1219  0.0675
 9449SOL    HW139806   2.728   2.922  15.075  0.4823  0.7882 -0.5932
 9449SOL    HW239807   2.798   2.849  14.967  0.5167  0.0810  0.0532
 9450SOL     OW39808   2.701   2.175   6.846 -0.0323  0.3249  0.4219
 9450SOL    HW139809   2.610   2.178   6.818 -0.2645 -1.9862  0.8572
 9450SOL    HW239810   2.710   2.258   6.893  0.4028  0.2397  0.4951
 9451SOL     OW39811   3.605   0.524   4.644  0.2484 -0.2415  0.3212
 9451SOL    HW139812   3.682   0.581   4.638  0.9916 -1.4322 -1.2696
 9451SOL    HW239813   3.581   0.548   4.733 -1.9211 -0.6380 -0.1655
 9452SOL     OW39814   0.480   1.393  17.490 -0.2731  0.2417 -0.6432
 9452SOL    HW139815   0.535   1.398  17.568 -0.7427  3.8683 -0.5494
 9452SOL    HW239816   0.495   1.476  17.444 -1.8063  0.6784 -0.3658
 9453SOL     OW39817   3.718   1.753   2.191 -0.2089  0.6948  0.1499
 9453SOL    HW139818   3.640   1.733   2.244 -0.2716 -0.6288 -0.4682
 9453SOL    HW239819   3.772   1.679   2.216 -0.6008  0.0575 -0.9216
 9454SOL     OW39820   2.115   0.534   5.134  0.1099 -0.2523  0.1126
 9454SOL    HW139821   2.094   0.445   5.105  0.9275 -0.1669 -0.7646
 9454SOL    HW239822   2.063   0.579   5.067 -3.6352 -0.6828  2.7415
 9455SOL     OW39823   0.902   0.115   4.277 -0.5041 -0.1200  0.1906
 9455SOL    HW139824   0.943   0.166   4.347  0.9353 -0.8443 -0.1294
 9455SOL    HW239825   0.878   0.037   4.328 -2.2691  0.7383  0.6613
 9456SOL     OW39826   3.523   0.843   2.669  0.5977 -0.2338 -0.1185
 9456SOL    HW139827   3.470   0.875   2.742 -1.9965  0.3835 -2.2817
 9456SOL    HW239828   3.460   0.784   2.630 -0.5253  1.2252 -0.4874
 9457SOL     OW39829   0.802   4.355  13.331 -0.4712 -0.0671  0.7151
 9457SOL    HW139830   0.800   4.376  13.424  0.1999 -1.2219  0.9970
 9457SOL    HW239831   0.896   4.346  13.313 -1.0004 -0.0196 -1.9544
 9458SOL     OW39832   0.858   1.799  15.051  0.3656 -0.3032  0.3947
 9458SOL    HW139833   0.821   1.738  15.115  0.4857 -0.9338 -0.1341
 9458SOL    HW239834   0.789   1.865  15.042 -0.4043 -1.1821 -0.1259
 9459SOL     OW39835   2.398   0.575   0.647  0.3073  0.0138  0.0491
 9459SOL    HW139836   2.433   0.486   0.638 -1.9881 -1.0225  1.5552
 9459SOL    HW239837   2.348   0.572   0.565  1.5943 -0.7825 -0.7106
 9460SOL     OW39838   4.121   0.192  12.684  0.2597 -0.1994  0.0353
 9460SOL    HW139839   4.099   0.113  12.635  0.4106  0.5096 -1.1977
 9460SOL    HW239840   4.212   0.200  12.655  0.9855  1.7594  2.9246
 9461SOL     OW39841   3.239   3.508   7.065  0.0814  0.1344 -0.0931
 9461SOL    HW139842   3.211   3.436   7.009 -1.4007  0.4137  0.2842
 9461SOL    HW239843   3.260   3.577   7.002  2.1750 -0.6467 -0.2560
 9462SOL     OW39844   0.332   2.821   0.283 -0.0756 -0.4576  0.6347
 9462SOL    HW139845   0.385   2.756   0.329 -1.0159 -1.9599 -0.3891
 9462SOL    HW239846   0.401   2.876   0.248 -0.1986 -0.2583  0.7063
 9463SOL     OW39847   2.862   1.440   4.725 -0.1139 -0.2240 -0.7961
 9463SOL    HW139848   2.867   1.393   4.642 -0.9397  2.2566 -2.2213
 9463SOL    HW239849   2.827   1.371   4.781  0.5573  0.5677  0.5961
 9464SOL     OW39850   3.648   2.348   1.985 -0.5262 -0.6386 -0.1689
 9464SOL    HW139851   3.555   2.370   1.983 -0.5484 -0.8979 -2.2186
 9464SOL    HW239852   3.648   2.352   2.080  2.5048 -2.8325 -0.0589
 9465SOL     OW39853   2.092   0.311  13.943 -0.3351  0.0356 -0.1012
 9465SOL    HW139854   2.020   0.259  13.906  0.5289  0.0815 -1.8308
 9465SOL    HW239855   2.088   0.297  14.038  1.3922 -0.3127 -0.0804
 9466SOL     OW39856   3.536   2.772   4.457 -0.5508  0.2404  0.7414
 9466SOL    HW139857   3.570   2.683   4.470  0.7212  1.0105  2.5426
 9466SOL    HW239858   3.596   2.802   4.388 -0.6098 -0.4341  0.3863
 9467SOL     OW39859   3.312   1.512   7.034  0.0431 -0.5531  0.5725
 9467SOL    HW139860   3.332   1.540   6.945  0.9620 -1.0715  0.6105
 9467SOL    HW239861   3.386   1.457   7.060  1.0583  2.0118  3.0960
 9468SOL     OW39862   3.245   0.558   4.151  0.2364 -0.0569 -0.1961
 9468SOL    HW139863   3.335   0.524   4.157  0.1521 -0.3544 -0.5936
 9468SOL    HW239864   3.249   0.640   4.101 -1.5940  0.3502  0.3210
 9469SOL     OW39865   3.966   3.813   3.919 -0.2190  0.1308  0.1327
 9469SOL    HW139866   3.947   3.848   4.005 -0.9311  1.0711 -0.4121
 9469SOL    HW239867   3.926   3.875   3.859 -0.5801  0.0542  0.2976
 9470SOL     OW39868   2.768   3.086   2.360 -0.0158 -0.2977 -0.2005
 9470SOL    HW139869   2.699   3.105   2.424  0.7813 -2.2621  1.2530
 9470SOL    HW239870   2.733   3.131   2.284  0.1704 -3.0460 -1.9094
 9471SOL     OW39871   1.272   1.119   9.678 -0.0818 -0.2956  0.8394
 9471SOL    HW139872   1.255   1.085   9.766 -0.9010  1.0622  1.1875
 9471SOL    HW239873   1.245   1.044   9.625 -1.2908  1.1787 -0.5990
 9472SOL     OW39874   0.386   2.174   6.604 -0.4152  0.6677  0.1013
 9472SOL    HW139875   0.319   2.105   6.602 -0.9457  1.1074  2.4246
 9472SOL    HW239876   0.425   2.159   6.518 -0.2682  3.5292 -0.3336
 9473SOL     OW39877   0.659   4.598  14.253  0.4167  0.3628  0.4123
 9473SOL    HW139878   0.631   4.663  14.188  0.4431 -1.3492 -1.2997
 9473SOL    HW239879   0.647   4.520  14.199 -1.8545  0.1344  1.2333
 9474SOL     OW39880   1.268   4.482   7.902 -0.2353  0.2131 -0.7257
 9474SOL    HW139881   1.289   4.464   7.810 -1.3259 -1.1520 -0.7188
 9474SOL    HW239882   1.213   4.406   7.920  1.0823 -0.6487 -0.3022
 9475SOL     OW39883   2.456   3.135  13.410  0.1585  0.2564 -0.2845
 9475SOL    HW139884   2.447   3.084  13.490  0.9761  0.4176 -0.0898
 9475SOL    HW239885   2.525   3.082  13.371 -0.0978 -2.9180  3.6110
 9476SOL     OW39886   2.579   2.669  14.147 -0.1257  0.7630 -0.4464
 9476SOL    HW139887   2.484   2.674  14.142 -0.2705 -2.0565 -0.4947
 9476SOL    HW239888   2.595   2.698  14.237 -0.7066 -0.8056  0.1650
 9477SOL     OW39889   2.684   1.466   2.235  0.0488  0.3952 -0.3478
 9477SOL    HW139890   2.660   1.474   2.327  1.6552 -3.0774  0.4098
 9477SOL    HW239891   2.776   1.443   2.251 -0.4869 -1.6574 -0.2218
 9478SOL     OW39892   1.266   1.498   5.369 -0.1970 -0.0860 -0.3061
 9478SOL    HW139893   1.304   1.583   5.392  0.7774 -0.9023  1.1218
 9478SOL    HW239894   1.280   1.491   5.274 -1.2427  3.0763 -0.6992
 9479SOL     OW39895   0.521   3.432   5.144 -0.2540  0.3558  0.5170
 9479SOL    HW139896   0.544   3.420   5.236  0.3172  0.1358  0.3487
 9479SOL    HW239897   0.524   3.528   5.146  0.5591  0.2801  2.3420
 9480SOL     OW39898   3.924   1.520   9.005 -0.6540 -0.1024  0.1536
 9480SOL    HW139899   3.876   1.565   9.075 -0.4700  2.0793 -1.1328
 9480SOL    HW239900   3.855   1.492   8.944  0.1621 -0.1911 -0.7230
 9481SOL     OW39901   3.032   3.576  16.540  0.1587  0.4882 -0.4846
 9481SOL    HW139902   3.043   3.609  16.629  1.3924  0.2588 -0.5464
 9481SOL    HW239903   3.000   3.488  16.557  1.8776  0.2871  1.6834
 9482SOL     OW39904   0.142   3.757  12.342  0.1619 -0.4609  0.0986
 9482SOL    HW139905   0.230   3.780  12.311 -0.1354 -0.8402 -1.0192
 9482SOL    HW239906   0.150   3.662  12.340  0.0239 -0.4675 -0.0604
 9483SOL     OW39907   1.575   3.382  13.355  0.8875  0.1948 -0.0574
 9483SOL    HW139908   1.505   3.444  13.375  1.4586  0.8012  0.0728
 9483SOL    HW239909   1.607   3.431  13.279  0.2611  0.7119  0.0169
 9484SOL     OW39910   1.441   1.344   8.689 -0.3145  0.5608 -0.3211
 9484SOL    HW139911   1.474   1.301   8.610 -0.7022  2.2026 -1.3794
 9484SOL    HW239912   1.523   1.348   8.738 -0.2848  0.7616 -0.3867
 9485SOL     OW39913   1.852   2.874   2.049  0.4378  0.0239 -0.1520
 9485SOL    HW139914   1.829   2.874   1.956 -0.6116  1.6707  0.1081
 9485SOL    HW239915   1.767   2.886   2.091 -0.3931  3.7161 -2.8510
 9486SOL     OW39916   0.336   2.403   2.938  0.1037 -0.8467 -0.0982
 9486SOL    HW139917   0.353   2.487   2.981  0.1244 -0.9667  0.1318
 9486SOL    HW239918   0.250   2.380   2.975 -0.2605  1.1848  0.3219
 9487SOL     OW39919   0.233   3.633  13.434 -0.2371 -0.7976  0.1929
 9487SOL    HW139920   0.269   3.710  13.478 -0.3335  0.0296 -1.1740
 9487SOL    HW239921   0.263   3.633  13.343 -2.4369 -2.4015 -0.5298
 9488SOL     OW39922   2.787   1.369   3.131 -0.5401 -0.3554  0.0334
 9488SOL    HW139923   2.804   1.361   3.037 -3.5004 -2.5419 -0.3155
 9488SOL    HW239924   2.854   1.321   3.179 -0.5912 -0.9600 -0.4922
 9489SOL     OW39925   1.884   1.470   5.220 -0.0958  0.3286 -0.4272
 9489SOL    HW139926   1.795   1.501   5.238 -0.4248 -0.7479 -0.2230
 9489SOL    HW239927   1.920   1.470   5.309  0.7513 -1.4839 -0.7804
 9490SOL     OW39928   3.068   1.075  13.513 -0.1510 -0.5101 -0.2830
 9490SOL    HW139929   2.974   1.073  13.528  0.3567  1.1107  2.9850
 9490SOL    HW239930   3.061   1.104  13.422 -3.3441 -0.2183  0.0771
 9491SOL     OW39931   1.445   1.288   8.151  0.5274 -0.3758  0.2234
 9491SOL    HW139932   1.370   1.257   8.100  2.5364 -3.4208 -0.8973
 9491SOL    HW239933   1.400   1.321   8.228  1.0363 -0.1716  0.4344
 9492SOL     OW39934   4.446   0.014   6.449 -0.4561  0.9389 -0.3333
 9492SOL    HW139935   4.415   0.077   6.514 -1.1624  0.3701 -0.1164
 9492SOL    HW239936   4.521   4.693   6.491  0.1399  2.9712  0.5986
 9493SOL     OW39937   4.607   0.447   1.286  0.0516 -0.1555 -0.6323
 9493SOL    HW139938   4.539   0.415   1.346  0.2247  2.8416  1.1706
 9493SOL    HW239939   4.629   0.370   1.234  1.3811  1.2511 -2.1537
 9494SOL     OW39940   3.021   3.216   3.728 -0.2232 -0.2098 -0.0266
 9494SOL    HW139941   2.928   3.226   3.706  0.0412  1.3308 -0.4234
 9494SOL    HW239942   3.014   3.204   3.823 -1.3533  1.1649  0.0571
 9495SOL     OW39943   3.231   3.285  10.101 -0.1867  0.1882 -0.1306
 9495SOL    HW139944   3.290   3.360  10.106  0.4106 -0.3394  0.6701
 9495SOL    HW239945   3.241   3.250  10.189  1.7146 -1.6356 -1.0541
 9496SOL     OW39946   0.885   2.122   1.797  0.2934 -0.0081 -0.0679
 9496SOL    HW139947   0.944   2.054   1.766  0.6260 -0.1548  0.8996
 9496SOL    HW239948   0.941   2.195   1.822  1.6306 -1.7937  2.1239
 9497SOL     OW39949   4.122   2.834  16.735 -0.4000  0.3991 -0.3791
 9497SOL    HW139950   4.087   2.905  16.682  0.8138  1.6463  0.4987
 9497SOL    HW239951   4.088   2.767  16.676  0.2005  0.2668 -0.5818
 9498SOL     OW39952   0.536   2.097   5.000 -0.6884  0.3323  0.1722
 9498SOL    HW139953   0.450   2.137   5.014 -1.5177 -2.0226  1.6653
 9498SOL    HW239954   0.532   2.010   5.039  1.4103  0.0493 -0.2461
 9499SOL     OW39955   4.115   4.493   2.115  0.0618  0.4453 -0.0086
 9499SOL    HW139956   4.109   4.453   2.029  0.4798 -0.4297  0.3720
 9499SOL    HW239957   4.153   4.426   2.171  5.8521  1.4807 -2.6977
 9500SOL     OW39958   2.534   2.869   7.032  0.3476 -0.2619  0.1859
 9500SOL    HW139959   2.600   2.938   7.019 -0.0504  0.5386  2.3936
 9500SOL    HW239960   2.504   2.864   6.941 -0.6341  0.0494  0.4851
 9501SOL     OW39961   1.377   0.604   2.298 -0.4913  0.0644 -0.0960
 9501SOL    HW139962   1.420   0.594   2.213  0.9025  0.5764  0.5416
 9501SOL    HW239963   1.375   0.512   2.321  0.1655  0.5744  1.9713
 9502SOL     OW39964   1.858   0.410   3.253  0.6412 -0.6660 -0.1900
 9502SOL    HW139965   1.787   0.354   3.222  0.7381 -0.0656 -1.4927
 9502SOL    HW239966   1.841   0.420   3.347  1.4301 -1.4446  0.0372
 9503SOL     OW39967   4.257   0.851   3.387  0.5644 -0.6151 -0.1364
 9503SOL    HW139968   4.175   0.860   3.437  1.4864  0.2335  1.2074
 9503SOL    HW239969   4.253   0.759   3.361  1.9721 -1.2119  1.7351
 9504SOL     OW39970   1.753   1.398   5.973  0.1175  0.5882  0.3563
 9504SOL    HW139971   1.748   1.304   5.993 -2.6175  0.8801  1.0638
 9504SOL    HW239972   1.719   1.427   6.058  1.5988 -0.3750  1.2779
 9505SOL     OW39973   3.881   2.656   8.154 -0.9671  0.0762 -0.6930
 9505SOL    HW139974   3.934   2.592   8.201  0.2227  1.6467  0.0866
 9505SOL    HW239975   3.872   2.613   8.069  0.6350  1.2475 -1.4388
 9506SOL     OW39976   1.470   0.289  10.356  0.0038  0.3168 -0.0085
 9506SOL    HW139977   1.411   0.214  10.354 -0.6172  0.6860  4.3241
 9506SOL    HW239978   1.553   0.246  10.376  0.2943  0.8763  0.0129
 9507SOL     OW39979   2.764   1.596   7.032  0.4955  0.2184 -0.1327
 9507SOL    HW139980   2.704   1.668   7.050  1.5373  1.1905 -0.5672
 9507SOL    HW239981   2.697   1.528   7.024 -0.5794  1.2857 -0.0662
 9508SOL     OW39982   4.173   0.021  17.489  0.4534 -0.0167  0.0805
 9508SOL    HW139983   4.143   0.112  17.483  0.5002  0.0397  0.6986
 9508SOL    HW239984   4.207   0.018  17.578  0.1079 -0.8150  0.1814
 9509SOL     OW39985   0.168   2.131   4.919 -0.7391  0.1140  0.5941
 9509SOL    HW139986   0.209   2.215   4.896  0.6954 -0.4120  1.2214
 9509SOL    HW239987   0.166   2.083   4.836  0.7137 -0.4983  0.9135
 9510SOL     OW39988   2.604   1.439  10.866  0.0002  0.1224  0.4190
 9510SOL    HW139989   2.599   1.516  10.922 -1.7966  0.7265 -0.5911
 9510SOL    HW239990   2.656   1.375  10.916 -1.8102 -0.8562  1.0419
 9511SOL     OW39991   4.112   0.458   6.425  0.2299 -0.1105  0.2916
 9511SOL    HW139992   4.093   0.396   6.354  2.0376 -0.7491  0.3845
 9511SOL    HW239993   4.042   0.426   6.482  0.3420 -0.5172  0.2035
 9512SOL     OW39994   4.582   0.729   4.408  0.1515  0.4643 -0.0484
 9512SOL    HW139995   4.587   0.634   4.400 -2.4772  0.3255 -0.2042
 9512SOL    HW239996   4.539   0.747   4.324  2.2271 -2.8761 -1.8285
 9513SOL     OW39997   2.336   1.409  17.234  0.2119  0.0205 -0.0827
 9513SOL    HW139998   2.282   1.448  17.166  0.9641  0.9668 -0.1332
 9513SOL    HW239999   2.300   1.458  17.309 -0.6725  0.2485 -0.6540
 9514SOL     OW40000   2.144   0.527   9.733 -0.4760 -0.1139  0.0203
 9514SOL    HW140001   2.196   0.450   9.756  1.4562  2.2495  3.6376
 9514SOL    HW240002   2.144   0.569   9.820  1.5749  0.0602 -0.0610
 9515SOL     OW40003   2.657   0.165   3.633 -0.0952 -0.0736  0.2368
 9515SOL    HW140004   2.630   0.105   3.703 -0.2375 -0.1499  0.1159
 9515SOL    HW240005   2.604   0.143   3.556 -0.3906  0.7102  0.2104
 9516SOL     OW40006   2.728   4.288   6.970  0.4248  0.1915 -0.2149
 9516SOL    HW140007   2.658   4.230   7.001  1.3551 -0.9019 -0.1665
 9516SOL    HW240008   2.707   4.373   7.009 -0.9725 -0.9797  1.5777
 9517SOL     OW40009   1.828   1.013   4.003 -0.1418  0.2247  0.1351
 9517SOL    HW140010   1.856   1.080   3.940 -0.3366 -1.8991 -2.2034
 9517SOL    HW240011   1.735   1.036   3.997 -0.4204 -0.7355  0.8911
 9518SOL     OW40012   3.062   0.699  11.091  0.0724 -0.3801 -0.0451
 9518SOL    HW140013   3.012   0.635  11.041  0.7118  0.6475 -1.9904
 9518SOL    HW240014   3.020   0.782  11.069 -1.5259 -1.2080 -0.1083
 9519SOL     OW40015   4.066   3.562  13.561 -0.3642 -0.1564  0.1026
 9519SOL    HW140016   3.982   3.517  13.573  0.5672 -0.9415  3.4882
 9519SOL    HW240017   4.124   3.534  13.631  0.1222 -0.2815 -0.3517
 9520SOL     OW40018   2.655   2.191   7.337 -0.0649 -0.3937  0.1779
 9520SOL    HW140019   2.707   2.258   7.383  1.2778 -0.6177 -1.0096
 9520SOL    HW240020   2.565   2.212   7.361 -0.5105  2.6356 -4.1144
 9521SOL     OW40021   1.388   2.338   4.894  0.4552  0.3077 -0.0591
 9521SOL    HW140022   1.398   2.433   4.884 -1.8866  0.7339  1.6751
 9521SOL    HW240023   1.328   2.341   4.968 -0.6697  2.1219 -1.0283
 9522SOL     OW40024   3.289   2.570   9.229 -0.1376 -0.2919  0.0065
 9522SOL    HW140025   3.203   2.538   9.203 -0.0816  0.1194 -0.6885
 9522SOL    HW240026   3.342   2.492   9.249 -1.4956 -1.0317  0.6690
 9523SOL     OW40027   1.381   4.630   6.035  0.6395  0.2430 -0.0891
 9523SOL    HW140028   1.428   4.713   6.027 -0.2800  0.7403 -0.3452
 9523SOL    HW240029   1.444   4.577   5.986  0.2899  0.9729 -1.2994
 9524SOL     OW40030   4.015   4.612  10.039  0.3033 -0.1485 -0.0051
 9524SOL    HW140031   3.979   4.697  10.065  3.4644  0.7739  1.3743
 9524SOL    HW240032   3.989   4.562  10.116 -0.6142 -0.2039 -0.3530
 9525SOL     OW40033   0.414   4.264   0.112  0.0512 -0.2939 -0.2279
 9525SOL    HW140034   0.354   4.312   0.170  1.4801  0.5845  0.5195
 9525SOL    HW240035   0.451   4.212   0.183 -0.8341  0.3828  0.7396
 9526SOL     OW40036   3.764   3.132   7.222 -0.0316  0.2642 -0.3048
 9526SOL    HW140037   3.709   3.141   7.300  0.9412 -0.8273  0.5100
 9526SOL    HW240038   3.753   3.221   7.190 -0.7425 -0.2057 -1.3559
 9527SOL     OW40039   1.655   1.700   7.801 -0.4378 -0.0708 -0.0252
 9527SOL    HW140040   1.721   1.695   7.869 -1.7306  1.9075  1.3825
 9527SOL    HW240041   1.628   1.609   7.788 -0.1464 -0.3783  1.5471
 9528SOL     OW40042   2.444   4.433   8.204  0.1133 -0.7302 -0.0945
 9528SOL    HW140043   2.525   4.465   8.163  1.3066  0.2233  3.0125
 9528SOL    HW240044   2.442   4.496   8.276  1.7566  0.9396 -1.5104
 9529SOL     OW40045   2.447   4.515   1.920  0.4025  0.3278 -0.0882
 9529SOL    HW140046   2.515   4.462   1.877 -0.6409 -1.9208  1.0923
 9529SOL    HW240047   2.394   4.543   1.845  0.3761 -0.5910 -0.4071
 9530SOL     OW40048   0.166   1.316  11.329  0.0886 -0.1784  0.3522
 9530SOL    HW140049   0.140   1.375  11.400 -0.9261  1.7225 -1.6011
 9530SOL    HW240050   0.144   1.231  11.366 -0.6269  0.8062  2.2036
 9531SOL     OW40051   0.485   3.998   4.505  0.0908 -0.0584  0.0923
 9531SOL    HW140052   0.419   3.981   4.439  0.2405 -0.7936  0.1267
 9531SOL    HW240053   0.447   4.065   4.562 -0.4651 -1.7778  1.7664
 9532SOL     OW40054   3.022   0.659   8.011 -0.4884 -0.0314 -0.3202
 9532SOL    HW140055   3.082   0.609   7.956  0.4875  0.6346  0.1362
 9532SOL    HW240056   3.065   0.633   8.093 -2.1685  0.2801  0.6688
 9533SOL     OW40057   3.266   2.479  11.448  0.1970 -0.2994  0.4902
 9533SOL    HW140058   3.359   2.470  11.431  0.1384 -0.1875  0.1161
 9533SOL    HW240059   3.242   2.494  11.357  1.1118  1.5001  0.5431
 9534SOL     OW40060   3.410   2.441   5.316  0.3842  0.4896  0.5470
 9534SOL    HW140061   3.422   2.360   5.267  2.8553  1.8816 -1.1888
 9534SOL    HW240062   3.462   2.501   5.263 -0.0738  0.2056 -0.2238
 9535SOL     OW40063   2.273   0.425   4.363  0.3410 -0.1853 -0.0439
 9535SOL    HW140064   2.248   0.382   4.445  0.0049  0.8697  0.4033
 9535SOL    HW240065   2.190   0.468   4.344 -0.5415 -1.6188  0.5902
 9536SOL     OW40066   4.061   2.702   2.545 -0.3505 -0.2754 -0.3359
 9536SOL    HW140067   4.092   2.763   2.611 -2.3930 -0.9373  1.2500
 9536SOL    HW240068   4.111   2.731   2.468 -1.5329 -0.1537 -1.0626
 9537SOL     OW40069   4.476   1.121   1.773 -0.2964  0.6658  0.2447
 9537SOL    HW140070   4.434   1.198   1.811 -1.2532  0.6886 -0.8750
 9537SOL    HW240071   4.457   1.135   1.681 -1.0390 -0.4059  0.2237
 9538SOL     OW40072   1.250   2.624   9.349  0.0351  0.0041  0.4351
 9538SOL    HW140073   1.172   2.577   9.319  0.8826 -0.8483 -0.4564
 9538SOL    HW240074   1.273   2.560   9.417  2.5199  1.1867  0.6713
 9539SOL     OW40075   3.846   3.026  17.150  0.0426  0.2386  0.6216
 9539SOL    HW140076   3.786   2.974  17.096  0.0529  0.1752  0.6717
 9539SOL    HW240077   3.848   3.109  17.102  0.7056 -0.3271 -0.3245
 9540SOL     OW40078   3.494   0.007  11.917 -0.0408 -0.5314  0.4743
 9540SOL    HW140079   3.538   4.654  11.876  0.4188 -0.4011  0.7300
 9540SOL    HW240080   3.561   0.026  11.983  0.2007 -0.7275  0.2812
 9541SOL     OW40081   3.343   2.237   3.401  0.0557 -0.0561 -0.1565
 9541SOL    HW140082   3.324   2.277   3.486 -3.1749  0.1262 -0.9492
 9541SOL    HW240083   3.272   2.260   3.341 -1.2498 -0.8457  1.0933
 9542SOL     OW40084   0.165   2.634   9.977 -0.0311  0.2870  0.0508
 9542SOL    HW140085   0.151   2.653  10.070 -0.0908 -1.4575  0.4067
 9542SOL    HW240086   0.236   2.698   9.973  0.6532 -0.6005 -1.8974
 9543SOL     OW40087   3.143   3.026   1.343  0.0836 -0.4453  0.3090
 9543SOL    HW140088   3.086   2.983   1.408 -0.1379 -0.3530  0.1749
 9543SOL    HW240089   3.111   2.978   1.267 -0.9159  1.8074 -0.6882
 9544SOL     OW40090   1.854   0.566   3.505  0.3847  0.1707 -0.4041
 9544SOL    HW140091   1.824   0.631   3.569 -0.5554 -1.1951  0.5345
 9544SOL    HW240092   1.930   0.531   3.552  0.2698 -0.2570 -0.5420
 9545SOL     OW40093   1.691   2.770   2.945 -0.4577  0.1646 -0.0013
 9545SOL    HW140094   1.682   2.700   3.010  0.4660 -1.6962 -1.8769
 9545SOL    HW240095   1.614   2.761   2.889  1.3151  0.0899 -2.4692
 9546SOL     OW40096   0.799   4.671   4.457 -0.0370 -0.3436  0.5272
 9546SOL    HW140097   0.759   4.721   4.528  0.0611 -0.5284  0.7137
 9546SOL    HW240098   0.835   4.600   4.510  1.2885 -0.5282 -0.6047
 9547SOL     OW40099   2.659   1.329  11.608  0.7951 -0.0834  0.4226
 9547SOL    HW140100   2.570   1.316  11.640  0.5011  2.2154  0.5406
 9547SOL    HW240101   2.645   1.340  11.514  0.9577  0.1689  0.4287
 9548SOL     OW40102   2.506   0.423   4.514  0.2852  0.3302 -0.3623
 9548SOL    HW140103   2.484   0.486   4.583  0.3482  0.7661 -0.7423
 9548SOL    HW240104   2.420   0.419   4.472 -0.2439  0.1027  0.7355
 9549SOL     OW40105   3.669   2.063   7.129  0.0332  0.1426  0.3683
 9549SOL    HW140106   3.666   2.158   7.125  0.2622  0.1234 -0.2586
 9549SOL    HW240107   3.626   2.051   7.214  2.4437 -1.6205  1.3406
 9550SOL     OW40108   1.422   4.097   8.761 -0.1903  0.1713  0.1197
 9550SOL    HW140109   1.515   4.106   8.783 -0.7494 -2.1439  3.3337
 9550SOL    HW240110   1.415   4.002   8.759  3.5178 -0.0583 -3.7100
 9551SOL     OW40111   0.390   1.184   4.508  0.3158 -0.1167 -0.4939
 9551SOL    HW140112   0.300   1.164   4.481 -0.5167  1.0113  1.4551
 9551SOL    HW240113   0.386   1.176   4.603  1.4224  3.6533 -0.1180
 9552SOL     OW40114   3.189   4.145  12.233  0.0686 -0.1321 -0.2497
 9552SOL    HW140115   3.243   4.066  12.235  2.6234  1.5853 -1.5986
 9552SOL    HW240116   3.163   4.149  12.141  0.9795  0.9842 -0.4485
 9553SOL     OW40117   1.464   3.952  15.496 -0.3270  0.0615 -0.1725
 9553SOL    HW140118   1.454   3.867  15.538  0.2819  0.0593 -0.0360
 9553SOL    HW240119   1.386   3.969  15.443 -0.5081  0.1769  0.1308
 9554SOL     OW40120   0.001   0.061   7.162 -0.7414 -0.4103 -0.4017
 9554SOL    HW140121   4.681   0.042   7.246  1.3502  1.5718  1.0903
 9554SOL    HW240122   4.697   0.151   7.141  2.6417  0.4090 -1.0370
 9555SOL     OW40123   3.506   4.623   2.454 -0.0245  0.2194 -0.3701
 9555SOL    HW140124   3.535   4.638   2.544 -3.8961  1.1836  0.7395
 9555SOL    HW240125   3.554   4.544   2.428  1.4665  1.6235 -1.8617
 9556SOL     OW40126   3.639   3.935   8.273  0.0110 -0.6386 -0.6822
 9556SOL    HW140127   3.729   3.967   8.274 -1.7145  4.2193 -0.3940
 9556SOL    HW240128   3.648   3.839   8.275  2.4065 -0.3318  2.5903
 9557SOL     OW40129   2.181   2.638   3.835  0.1846 -0.1079 -0.7752
 9557SOL    HW140130   2.201   2.724   3.870  0.3090 -1.9286  3.5438
 9557SOL    HW240131   2.270   2.613   3.808 -0.2504 -0.0846 -2.2588
 9558SOL     OW40132   0.861   4.589   8.636  0.1937  0.1355  0.0203
 9558SOL    HW140133   0.829   4.568   8.724 -0.4186 -1.2751 -0.5404
 9558SOL    HW240134   0.917   4.518   8.606  0.7854  0.1050  1.1940
 9559SOL     OW40135   3.624   2.386   9.338 -0.4144 -0.0991 -0.0585
 9559SOL    HW140136   3.668   2.415   9.258 -0.7743 -0.7627 -0.4909
 9559SOL    HW240137   3.540   2.356   9.304 -0.2794 -0.0058 -0.4684
 9560SOL     OW40138   3.468   4.651   8.762 -0.1518 -0.6293 -0.0683
 9560SOL    HW140139   3.464   4.558   8.738  0.1994 -1.7792  4.2734
 9560SOL    HW240140   3.403   4.683   8.699  0.8253  0.5868 -0.4487
 9561SOL     OW40141   2.952   4.020   7.211  0.0404  0.5345 -0.0241
 9561SOL    HW140142   2.903   3.938   7.214 -1.3026  1.3664  0.7258
 9561SOL    HW240143   2.988   4.030   7.299 -0.0504 -1.0240  0.1816
 9562SOL     OW40144   0.127   2.650  16.882  0.4628 -0.3823 -0.4021
 9562SOL    HW140145   0.160   2.580  16.938  1.2407 -0.0745 -0.4814
 9562SOL    HW240146   0.174   2.619  16.805  3.0076 -0.3274  1.1657
 9563SOL     OW40147   2.514   0.460   3.526  0.9739 -0.1727  0.1808
 9563SOL    HW140148   2.434   0.423   3.562  0.7564  1.3387  1.2225
 9563SOL    HW240149   2.555   0.382   3.487  1.1702 -0.3484  0.7423
 9564SOL     OW40150   1.630   1.115   2.329 -0.3923  0.1479 -0.2043
 9564SOL    HW140151   1.661   1.185   2.271 -0.6558  0.4175 -0.0149
 9564SOL    HW240152   1.626   1.042   2.267  0.0469  1.3072 -1.6023
 9565SOL     OW40153   4.553   0.103   4.971  0.5058  0.3990 -0.2383
 9565SOL    HW140154   4.509   0.090   4.886 -0.4855 -0.5364  0.4149
 9565SOL    HW240155   4.475   0.108   5.027  0.9831 -2.9927  0.7532
   4.72100   4.72100  17.68642
