Membrane in water
40155
    1TCq1    O1    1   4.465   3.348  11.584  0.2271  0.3632  0.3269
    1TCq1    C1    2   4.531   3.422  11.676 -0.8215  0.3592  0.4829
    1TCq1    O2    3   4.635   3.479  11.659 -0.0722  0.8427  0.1043
    1TCq1    C2    4   4.483   3.384  11.814 -0.6459 -0.1476  0.0555
    1TCq1    C3    5   4.556   3.433  11.916 -0.3331  0.2587 -0.2042
    1TCq1    C4    6   4.507   3.415  12.042 -0.2753 -0.4571 -0.5701
    1TCq1    C5    7   4.409   3.323  12.074 -0.7121 -0.4678  0.6482
    1TCq1    C6    8   4.333   3.273  11.968 -0.2111  0.2851  0.0205
    1TCq1    C7    9   4.376   3.300  11.840 -0.1207 -0.5940 -0.0893
    1TCq1    C8   10   4.235   3.168  11.990 -0.7006 -0.8663 -0.2712
    1TCq1    O4   11   4.200   3.154  12.105 -0.4507  0.1485 -0.0294
    1TCq1    C9   12   4.556   3.486  12.156 -0.2162  0.1491 -0.0981
    1TCq1    O5   13   4.513   3.449  12.269  0.1301  0.0855 -0.4614
    1TCq1    O6   14   4.624   3.590  12.134 -0.0921 -0.1351  0.1754
    1TCq1    H1   15   4.376   3.325  11.619  1.3758 -1.4268  2.1031
    1TCq1    H2   16   4.640   3.498  11.893  0.9446 -1.1600  0.4083
    1TCq1    H3   17   4.378   3.312  12.177  0.0699 -1.7484  0.7481
    1TCq1    H4   18   4.319   3.262  11.755  1.6676 -1.1049 -1.0706
    2MPD2     C   19   3.857   2.830  11.865 -0.3425  0.7982 -0.2813
    2MPD2    C1   20   3.878   2.904  11.981  0.6920  0.8977  0.2564
    2MPD2    C2   21   3.985   2.996  11.990  0.1640  0.3799 -0.1078
    2MPD2    C3   22   4.073   3.011  11.881  0.0440 -0.1365 -0.3026
    2MPD2    C4   23   4.040   2.943  11.762  0.1014  0.1221 -0.6427
    2MPD2    C5   24   3.940   2.851  11.755 -0.5833  0.5785  0.1523
    2MPD2     H   25   3.995   3.052  12.082 -1.8956  0.5922 -0.0234
    2MPD2    H1   26   4.098   2.945  11.671  2.2793 -1.9134  0.7094
    2MPD2    H2   27   3.771   2.765  11.856 -1.0055  1.9550 -2.3141
    2MPD2    H3   28   3.925   2.794  11.664 -1.2359  1.1073 -0.0664
    2MPD2     N   29   4.183   3.098  11.875 -0.6713  0.7851 -0.3812
    2MPD2    H5   30   4.217   3.114  11.781  1.0978 -2.0260 -0.2188
    2MPD2    N1   31   3.793   2.889  12.090  0.0392  0.3083  0.0264
    2MPD2    H7   32   3.796   2.968  12.155  0.4633 -0.9991  1.5853
    3TCq1    O1   33   2.493   3.780  10.096 -0.2161 -0.1460 -0.0314
    3TCq1    C1   34   2.496   3.753  10.228 -0.5695  0.4224  0.2715
    3TCq1    O2   35   2.413   3.689  10.293 -0.1547 -0.1339 -0.5369
    3TCq1    C2   36   2.573   3.857  10.288  0.4123  0.1025 -0.0084
    3TCq1    C3   37   2.679   3.917  10.225  0.0584  0.4008  0.4441
    3TCq1    C4   38   2.760   3.995  10.300  0.1896 -0.3797 -0.1411
    3TCq1    C5   39   2.748   3.995  10.435 -0.3218  0.0441  0.2888
    3TCq1    C6   40   2.642   3.935  10.495 -0.1380  0.3465 -0.0055
    3TCq1    C7   41   2.548   3.866  10.420  0.1354 -0.1869 -0.4231
    3TCq1    C8   42   2.612   3.937  10.638 -0.2240 -0.1521  0.3971
    3TCq1    O4   43   2.510   3.886  10.680  0.3159  0.2810 -0.2396
    3TCq1    C9   44   2.882   4.046  10.236 -0.2233  0.7114 -0.4020
    3TCq1    O5   45   2.918   4.008  10.122  0.7478 -0.1919 -0.2403
    3TCq1    O6   46   2.950   4.129  10.302 -0.0415 -0.6407  0.1217
    3TCq1    H1   47   2.576   3.826  10.073 -1.8480  3.1481  0.6768
    3TCq1    H2   48   2.695   3.898  10.120  0.2820 -0.4504  0.6373
    3TCq1    H3   49   2.823   4.051  10.490 -0.2647  1.1146 -0.8846
    3TCq1    H4   50   2.469   3.808  10.467 -1.7132 -0.4461 -3.8526
    4MPD2     C   51   2.673   4.169  11.102  0.7657 -0.2001 -0.2132
    4MPD2    C1   52   2.750   4.232  11.006 -0.0260 -0.1638 -0.7947
    4MPD2    C2   53   2.762   4.175  10.881  0.3373  0.5711 -0.4390
    4MPD2    C3   54   2.684   4.073  10.832 -0.0578  0.1380  0.0432
    4MPD2    C4   55   2.598   4.025  10.922  0.1813 -0.4653  0.0565
    4MPD2    C5   56   2.599   4.064  11.055 -0.0462  0.4790  0.0305
    4MPD2     H   57   2.842   4.216  10.820  0.7827  0.9642  0.4021
    4MPD2    H1   58   2.541   3.939  10.891 -2.0697  0.6251  1.2041
    4MPD2    H2   59   2.654   4.210  11.200 -1.3584  1.5221 -1.3485
    4MPD2    H3   60   2.528   4.025  11.126 -0.1424 -0.8789 -0.8163
    4MPD2     N   61   2.700   4.023  10.703  0.1863  0.8705 -0.0688
    4MPD2    H5   62   2.779   4.059  10.650 -0.2429 -0.6238 -1.7238
    4MPD2    N1   63   2.801   4.358  11.031  0.7296 -0.5321 -0.1138
    4MPD2    H7   64   2.853   4.405  10.958  0.3731  0.7999  0.5007
    5TCq1    O1   65   2.631   0.697  10.075 -0.1043 -0.0460 -0.5233
    5TCq1    C1   66   2.724   0.771  10.143  0.7989  0.3807  0.6986
    5TCq1    O2   67   2.695   0.866  10.214 -1.0898 -0.1846  0.4763
    5TCq1    C2   68   2.822   0.675  10.185 -0.3728 -0.9483 -0.8020
    5TCq1    C3   69   2.770   0.563  10.249  0.3246  0.5382 -0.4002
    5TCq1    C4   70   2.861   0.489  10.328  0.8850 -0.0053  0.1458
    5TCq1    C5   71   2.992   0.521  10.324 -0.1760  0.0229  0.3622
    5TCq1    C6   72   3.036   0.640  10.270 -0.3957  0.6214 -0.1469
    5TCq1    C7   73   2.951   0.721  10.201  0.4284  0.6938  0.1829
    5TCq1    C8   74   3.172   0.680  10.290  0.2861  0.1653  0.3620
    5TCq1    O4   75   3.249   0.588  10.318 -0.1003  0.0518  0.0007
    5TCq1    C9   76   2.814   0.386  10.427 -0.7821  0.1456  0.1281
    5TCq1    O5   77   2.691   0.347  10.428 -0.5441 -0.4937 -0.0718
    5TCq1    O6   78   2.901   0.342  10.505 -0.1607  0.2086 -0.5322
    5TCq1    H1   79   2.681   0.624  10.032 -0.2033  0.0327 -0.7691
    5TCq1    H2   80   2.667   0.531  10.237  0.0303  0.5808  1.9603
    5TCq1    H3   81   3.056   0.458  10.385  0.3633 -0.0471 -0.2679
    5TCq1    H4   82   2.988   0.807  10.146  0.7560  1.4106  1.5073
    6MPD2     C   83   3.321   1.013  10.345  0.3087 -0.0801 -0.1645
    6MPD2    C1   84   3.313   0.878  10.327  0.2600 -0.2502 -0.7475
    6MPD2    C2   85   3.434   0.809  10.346  0.3805 -0.6798  0.2488
    6MPD2    C3   86   3.545   0.870  10.399  0.3939  0.1390  0.2424
    6MPD2    C4   87   3.549   1.003  10.427 -0.1383 -0.8693  0.4615
    6MPD2    C5   88   3.434   1.077  10.385  0.4738 -0.2801  0.0973
    6MPD2     H   89   3.449   0.706  10.318  0.5193  0.2985 -3.1925
    6MPD2    H1   90   3.637   1.049  10.470 -0.0751 -1.4869  1.0027
    6MPD2    H2   91   3.229   1.066  10.325  0.8731  0.4633 -1.3696
    6MPD2    H3   92   3.424   1.184  10.378  2.0353  0.0576  2.8735
    6MPD2     N   93   3.657   0.787  10.423  0.0269 -0.3698 -0.7304
    6MPD2    H5   94   3.659   0.689  10.394 -1.3319 -0.9751  1.1878
    6MPD2    N1   95   3.184   0.817  10.292  0.4351 -0.4707 -0.1401
    6MPD2    H7   96   3.106   0.881  10.281  0.9403  0.3990  1.4439
    7TCq1    O1   97   0.792   0.652  13.065 -0.1528  0.1270  0.9511
    7TCq1    C1   98   0.737   0.591  12.961 -0.2442 -0.0871  0.6780
    7TCq1    O2   99   0.721   0.644  12.853 -0.4112 -0.2626  0.3390
    7TCq1    C2  100   0.639   0.507  13.020  0.5137 -0.0757  0.3470
    7TCq1    C3  101   0.506   0.528  12.996  0.1073  0.0606 -0.1589
    7TCq1    C4  102   0.418   0.465  13.078 -0.5021 -0.4798 -0.0223
    7TCq1    C5  103   0.457   0.380  13.178  0.2418  0.0719  0.3501
    7TCq1    C6  104   0.594   0.356  13.198 -0.2092  0.3697 -0.4753
    7TCq1    C7  105   0.681   0.420  13.120  0.0863 -0.0687 -0.6908
    7TCq1    C8  106   0.633   0.260  13.297 -0.2744 -0.5933 -0.1315
    7TCq1    O4  107   0.540   0.187  13.339  0.0933  0.5890 -0.3664
    7TCq1    C9  108   0.281   0.486  13.056 -0.3775 -0.8639 -0.5495
    7TCq1    O5  109   0.204   0.434  13.142  0.0846  0.0288 -0.7391
    7TCq1    O6  110   0.243   0.579  12.981  0.0060  0.2068 -0.5946
    7TCq1    H1  111   0.802   0.593  13.143 -2.3874  0.2758  1.3504
    7TCq1    H2  112   0.469   0.601  12.925  2.1658  0.1292 -1.1650
    7TCq1    H3  113   0.387   0.322  13.237 -1.2773  1.7753  0.2222
    7TCq1    H4  114   0.785   0.391  13.113  0.6248  1.5822  0.4117
    8MPD2     C  115   0.972   4.707  13.560 -0.1287  0.2748  0.0649
    8MPD2    C1  116   0.867   4.665  13.489  1.2335  0.8292  0.2594
    8MPD2    C2  117   0.789   0.031  13.415  0.4034  0.2091  0.1579
    8MPD2    C3  118   0.826   0.168  13.410 -0.3949 -0.1060  0.1375
    8MPD2    C4  119   0.930   0.208  13.487 -0.4270 -0.0930  0.2948
    8MPD2    C5  120   0.999   0.119  13.569 -0.2623 -0.5454  0.5818
    8MPD2     H  121   0.704   4.713  13.363  1.6937 -3.6911  1.2129
    8MPD2    H1  122   0.962   0.309  13.507 -0.9249  0.2264 -0.5264
    8MPD2    H2  123   1.031   4.633  13.614  0.1773 -0.0581 -0.7297
    8MPD2    H3  124   1.081   0.165  13.625 -0.5913  1.1341 -0.3099
    8MPD2     N  125   0.763   0.257  13.325  0.1921 -0.0840 -0.4701
    8MPD2    H5  126   0.809   0.347  13.311 -0.2785  0.6543  2.6511
    8MPD2    N1  127   0.837   4.528  13.502 -0.4152  0.0081  0.0356
    8MPD2    H7  128   0.904   4.472  13.552 -0.5798 -0.6001 -0.4209
    9TCq1    O1  129   2.993   4.146  10.626  0.1323  0.3842  0.4412
    9TCq1    C1  130   3.067   4.046  10.670  0.0873 -0.4311 -0.9069
    9TCq1    O2  131   3.056   3.986  10.772 -0.1175  0.1595  0.0701
    9TCq1    C2  132   3.188   4.044  10.596 -0.2407 -0.2659  0.3907
    9TCq1    C3  133   3.223   4.115  10.484  1.0823  0.3876 -0.0772
    9TCq1    C4  134   3.330   4.066  10.414  0.0222 -0.1040  0.5618
    9TCq1    C5  135   3.401   3.958  10.446  1.1518 -0.4798  0.4513
    9TCq1    C6  136   3.366   3.887  10.556 -0.3894  0.3934  0.5008
    9TCq1    C7  137   3.266   3.938  10.641  0.6015  0.3225  0.4493
    9TCq1    C8  138   3.457   3.784  10.600 -0.9860  0.5143 -0.3170
    9TCq1    O4  139   3.519   3.724  10.510  0.2526  0.7264 -0.8524
    9TCq1    C9  140   3.356   4.134  10.295 -0.6092  0.6100  0.4369
    9TCq1    O5  141   3.261   4.201  10.237  0.4783  0.1234  0.4030
    9TCq1    O6  142   3.472   4.141  10.253  0.2925  0.7664  0.2271
    9TCq1    H1  143   3.043   4.202  10.562  0.3455 -0.3714 -0.0593
    9TCq1    H2  144   3.168   4.199  10.443  1.9271  0.5940 -0.7885
    9TCq1    H3  145   3.476   3.921  10.377  0.3475 -1.0215 -0.1341
    9TCq1    H4  146   3.235   3.883  10.729 -0.7483 -2.1043 -1.5485
   10MPD2     C  147   3.659   3.625  10.754  0.3404 -0.7473 -0.1296
   10MPD2    C1  148   3.557   3.695  10.815 -0.1290  0.1530  0.0669
   10MPD2    C2  149   3.538   3.684  10.946 -0.2571  0.1520 -0.4874
   10MPD2    C3  150   3.625   3.612  11.026 -0.3027 -0.0139 -0.1776
   10MPD2    C4  151   3.728   3.540  10.971 -0.3165 -0.3323 -0.6497
   10MPD2    C5  152   3.745   3.554  10.834 -0.4069 -0.1453  0.0767
   10MPD2     H  153   3.466   3.744  11.000 -0.6679 -0.1494 -0.6963
   10MPD2    H1  154   3.791   3.477  11.032  0.1102 -0.2883 -1.0463
   10MPD2    H2  155   3.687   3.636  10.650 -0.1808  0.2365 -0.1684
   10MPD2    H3  156   3.839   3.525  10.787 -0.7202  2.2024 -1.9531
   10MPD2     N  157   3.589   3.578  11.163 -0.1488  0.3377  0.2764
   10MPD2    H5  158   3.655   3.508  11.193 -0.2774 -0.0733 -0.3971
   10MPD2    N1  159   3.470   3.776  10.742  0.3301 -0.5414  0.3084
   10MPD2    H7  160   3.414   3.847  10.788  1.5765  0.5728  0.0761
   11TCq1    O1  161   4.486   3.457  14.751  0.3028  0.2908  0.1503
   11TCq1    C1  162   4.470   3.332  14.804  0.1601 -0.2037  0.3949
   11TCq1    O2  163   4.546   3.282  14.887  0.5193  0.3101  0.5168
   11TCq1    C2  164   4.355   3.271  14.742 -0.4049 -0.0302 -0.7109
   11TCq1    C3  165   4.323   3.149  14.796 -0.4961 -0.0112 -0.7135
   11TCq1    C4  166   4.260   3.059  14.720  0.2258  0.3093  0.2565
   11TCq1    C5  167   4.214   3.089  14.598  1.0342 -0.4899 -0.7689
   11TCq1    C6  168   4.251   3.205  14.539 -0.4085 -0.0585  0.8806
   11TCq1    C7  169   4.326   3.297  14.607  0.2118 -0.9394 -0.4469
   11TCq1    C8  170   4.220   3.231  14.399  0.3577 -0.6814 -0.3574
   11TCq1    O4  171   4.294   3.304  14.335  0.1324  0.4525  0.9081
   11TCq1    C9  172   4.217   2.929  14.783  0.0909 -0.0887 -0.0197
   11TCq1    O5  173   4.099   2.898  14.771  0.0085 -0.0074  0.2720
   11TCq1    O6  174   4.288   2.879  14.883  0.3149  0.1311 -0.3327
   11TCq1    H1  175   4.409   3.491  14.703  0.1380 -0.6295 -0.2335
   11TCq1    H2  176   4.349   3.116  14.896 -0.1202  0.1227 -0.7650
   11TCq1    H3  177   4.161   3.011  14.545  1.3946 -2.8599  2.3286
   11TCq1    H4  178   4.351   3.391  14.558 -1.5627  0.0593  0.5630
   12MPD2     C  179   4.086   3.242  14.118 -0.4067  0.1397  0.0403
   12MPD2    C1  180   4.040   3.174  14.228  0.0652  0.1377 -0.0787
   12MPD2    C2  181   3.928   3.090  14.213  0.2699  0.2077 -0.3066
   12MPD2    C3  182   3.880   3.058  14.086  0.4734  1.1140 -0.2711
   12MPD2    C4  183   3.938   3.130  13.981  0.2043  0.4180  0.3784
   12MPD2    C5  184   4.028   3.230  14.002 -0.5786  0.3790 -0.6090
   12MPD2     H  185   3.893   3.039  14.302 -2.0413  1.5284 -0.4462
   12MPD2    H1  186   3.908   3.108  13.879 -0.8775 -0.9994  0.9943
   12MPD2    H2  187   4.159   3.322  14.129  1.0241 -1.2996  1.0254
   12MPD2    H3  188   4.066   3.292  13.921 -0.3115 -2.6253 -2.7858
   12MPD2     N  189   3.798   2.945  14.063 -0.0532  0.3148 -0.0625
   12MPD2    H5  190   3.744   2.948  13.978  2.7569  1.4141 -1.8073
   12MPD2    N1  191   4.095   3.173  14.360  0.2701  0.2297 -0.6684
   12MPD2    H7  192   4.049   3.110  14.424  1.5057  1.2332  1.2046
   13TCq1    O1  193   3.661   3.614  10.297 -0.2001  0.3896 -0.0006
   13TCq1    C1  194   3.625   3.591  10.169 -0.1315  1.2318 -0.2952
   13TCq1    O2  195   3.703   3.598  10.077  0.3374 -0.0227  0.0610
   13TCq1    C2  196   3.481   3.637  10.163 -0.6787 -0.4904 -0.2720
   13TCq1    C3  197   3.470   3.739  10.080 -0.3009 -0.2923  0.0220
   13TCq1    C4  198   3.354   3.819  10.084  0.0800  0.0179  0.1050
   13TCq1    C5  199   3.256   3.788  10.173 -0.4254 -0.0772  0.5007
   13TCq1    C6  200   3.286   3.683  10.266  0.7390  0.1652 -0.0043
   13TCq1    C7  201   3.398   3.600  10.264 -0.0486  0.1686 -0.1807
   13TCq1    C8  202   3.196   3.680  10.379 -0.3307 -0.2877 -0.4223
   13TCq1    O4  203   3.241   3.628  10.479  0.2844  0.0783 -0.5034
   13TCq1    C9  204   3.349   3.940  10.005 -0.4974 -0.0918 -0.5493
   13TCq1    O5  205   3.248   4.017  10.007 -0.5972 -0.2052  0.2318
   13TCq1    O6  206   3.457   3.964   9.947  0.3344 -0.6787 -0.2925
   13TCq1    H1  207   3.591   3.644  10.359  0.3094  0.6809  0.4247
   13TCq1    H2  208   3.551   3.758  10.010  0.4123 -0.1475  0.8964
   13TCq1    H3  209   3.178   3.863  10.187 -0.3876  0.4239 -1.9847
   13TCq1    H4  210   3.436   3.529  10.336  1.7775  2.1760  0.8584
   14MPD2     C  211   2.848   3.597  10.383 -0.7714 -0.5798  0.0879
   14MPD2    C1  212   2.959   3.665  10.429 -0.3825 -0.0590 -0.1163
   14MPD2    C2  213   2.969   3.705  10.565 -0.4974  0.5174 -0.6196
   14MPD2    C3  214   2.867   3.678  10.655 -0.2789 -0.0656  0.2462
   14MPD2    C4  215   2.762   3.599  10.602  0.1047  0.4512  0.1620
   14MPD2    C5  216   2.762   3.550  10.476  0.5787 -0.1970  0.4345
   14MPD2     H  217   3.054   3.763  10.598  1.5298 -0.7787 -3.4987
   14MPD2    H1  218   2.674   3.577  10.662 -0.4318 -1.1337 -1.2250
   14MPD2    H2  219   2.843   3.571  10.278  1.8985  3.1043 -0.9718
   14MPD2    H3  220   2.690   3.472  10.450 -1.2109  1.3142  0.9055
   14MPD2     N  221   2.872   3.727  10.780 -0.6650 -0.2058 -0.3353
   14MPD2    H5  222   2.954   3.782  10.805  0.1444 -1.6560  0.1940
   14MPD2    N1  223   3.065   3.693  10.340 -0.2264  0.2864  0.4241
   14MPD2    H7  224   3.043   3.698  10.241 -0.7483 -0.5703  0.5017
   15TCq1    O1  225   4.487   1.871   1.479 -0.4068  0.2877 -0.1873
   15TCq1    C1  226   4.572   1.942   1.407  0.1554  0.4255 -0.3024
   15TCq1    O2  227   4.550   1.994   1.299  0.7192 -0.0257  0.1064
   15TCq1    C2  228   4.694   1.961   1.477 -0.8232  1.1283  0.8191
   15TCq1    C3  229   4.692   1.996   1.608  0.3614 -0.1852 -0.4011
   15TCq1    C4  230   0.080   2.043   1.661 -0.2141  0.7708  0.7987
   15TCq1    C5  231   0.192   2.067   1.585  0.6902  0.2342 -0.3060
   15TCq1    C6  232   0.184   2.041   1.445  0.1552 -0.8410 -0.1526
   15TCq1    C7  233   0.072   1.993   1.388 -0.1840 -0.0724  0.1001
   15TCq1    C8  234   0.302   2.064   1.371  0.4937 -0.0264  0.1666
   15TCq1    O4  235   0.403   2.101   1.426  0.1356  0.0247  0.3324
   15TCq1    C9  236   0.086   2.083   1.797 -1.2930  0.2607 -0.6113
   15TCq1    O5  237   4.703   2.097   1.863  0.2175 -0.0447  0.1868
   15TCq1    O6  238   0.206   2.110   1.833  0.1836 -0.5108 -0.5681
   15TCq1    H1  239   4.531   1.824   1.554  0.5176 -1.4013 -1.8022
   15TCq1    H2  240   4.599   1.981   1.661 -0.2321  2.4571 -0.7179
   15TCq1    H3  241   0.284   2.102   1.630  0.1113  1.0763  0.2096
   15TCq1    H4  242   0.060   1.967   1.283  2.1349  3.0855 -0.9489
   16MPD2     C  243   0.334   1.974   1.020 -0.0822  1.0764 -0.3018
   16MPD2    C1  244   0.379   2.025   1.133  0.4244 -0.4604 -0.0569
   16MPD2    C2  245   0.513   2.043   1.153  0.8123 -0.6591 -0.0919
   16MPD2    C3  246   0.607   2.026   1.058 -0.2928 -0.7087 -0.4957
   16MPD2    C4  247   0.563   1.987   0.936 -0.1409 -0.2029  0.4101
   16MPD2    C5  248   0.427   1.956   0.919  0.2473  0.7150 -0.1246
   16MPD2     H  249   0.547   2.067   1.253 -1.7336 -0.3543  0.7047
   16MPD2    H1  250   0.624   1.966   0.849 -1.2344 -0.3950 -0.3181
   16MPD2    H2  251   0.230   1.957   0.992  0.2803 -1.5949 -0.0750
   16MPD2    H3  252   0.401   1.918   0.821 -1.2863  2.2588 -0.2969
   16MPD2     N  253   0.742   2.055   1.092 -0.4296  0.0512 -0.2220
   16MPD2    H5  254   0.767   2.103   1.178 -0.9394  0.7221 -0.4468
   16MPD2    N1  255   0.287   2.028   1.238  0.6068  0.2139 -0.1174
   16MPD2    H7  256   0.191   2.005   1.216  0.5242  2.1234 -1.7362
   17TCq1    O1  257   3.807   3.411  12.032  0.3148  0.1209  0.4292
   17TCq1    C1  258   3.929   3.399  11.969  0.1004  0.1325 -0.1704
   17TCq1    O2  259   4.033   3.454  11.999 -0.0724 -0.7868 -0.1362
   17TCq1    C2  260   3.900   3.340  11.837  0.6124 -0.0363  0.2864
   17TCq1    C3  261   3.794   3.259  11.817  0.0559 -0.2850  0.3206
   17TCq1    C4  262   3.767   3.222  11.683 -0.2102 -0.0236  0.3252
   17TCq1    C5  263   3.856   3.256  11.583  0.1844  0.0885  0.1046
   17TCq1    C6  264   3.965   3.330  11.613  0.1580 -0.2609  0.9177
   17TCq1    C7  265   3.989   3.372  11.741 -0.5072 -0.4062 -0.1201
   17TCq1    C8  266   4.075   3.358  11.515  0.1507  0.3154  0.2453
   17TCq1    O4  267   4.176   3.407  11.563 -0.4717 -0.1600  0.0725
   17TCq1    C9  268   3.635   3.165  11.662  0.1375 -0.2601 -0.0607
   17TCq1    O5  269   3.558   3.164  11.760  0.2763  0.2676  0.6375
   17TCq1    O6  270   3.609   3.124  11.544  0.3437 -1.4279 -0.3858
   17TCq1    H1  271   3.800   3.433  12.127  1.4068 -1.1228  0.8061
   17TCq1    H2  272   3.727   3.230  11.897  2.1566 -0.1312  2.1092
   17TCq1    H3  273   3.839   3.225  11.481 -1.5758  0.3757  0.2923
   17TCq1    H4  274   4.064   3.446  11.764 -0.8791  0.6888 -2.4660
   18MPD2     C  275   4.286   3.360  11.301  0.6669 -0.3490  0.4352
   18MPD2    C1  276   4.191   3.263  11.314  0.1690  0.0528 -0.1262
   18MPD2    C2  277   4.198   3.149  11.235  0.0340 -0.4875 -0.2514
   18MPD2    C3  278   4.286   3.150  11.131 -0.8882 -0.6524  0.7349
   18MPD2    C4  279   4.374   3.256  11.118  0.1432 -0.5040 -0.6154
   18MPD2    C5  280   4.374   3.358  11.203 -0.0332 -0.1283  0.0314
   18MPD2     H  281   4.127   3.069  11.255 -1.9117  1.6298  1.2651
   18MPD2    H1  282   4.427   3.260  11.024 -0.6244 -0.4935 -1.0540
   18MPD2    H2  283   4.277   3.446  11.367 -0.3583  0.1004 -0.2827
   18MPD2    H3  284   4.439   3.443  11.182  0.9661 -0.7340  0.6990
   18MPD2     N  285   4.285   3.049  11.034 -0.0845  0.2465  0.1109
   18MPD2    H5  286   4.341   3.059  10.950 -0.2182 -0.3412 -0.0420
   18MPD2    N1  287   4.081   3.275  11.407 -0.4454 -0.7197  1.1671
   18MPD2    H7  288   4.014   3.199  11.403 -1.9733  0.7349 -0.5102
   19TMC2    C1  289   0.094   3.221  14.002 -0.0863  0.0032  0.6129
   19TMC2    C2  290   0.069   3.266  13.877 -0.3288 -0.2141 -0.1477
   19TMC2    C3  291   4.712   3.195  13.790 -0.9901  0.5575  0.6634
   19TMC2    C4  292   0.033   3.105  14.047 -0.8306  0.6472  0.2523
   19TMC2    C5  293   4.680   3.033  13.961  0.2489 -0.1880 -0.3497
   19TMC2    C6  294   4.650   3.079  13.829  0.5332 -0.2245  0.2634
   19TMC2     C  295   0.158   3.319  14.093  0.1034 -0.0964 -0.2562
   19TMC2     O  296   0.176   3.431  14.054 -0.1939 -0.2133  0.0530
   19TMC2     H  297   0.116   3.357  13.842  2.0830 -1.9803 -1.4773
   19TMC2    H1  298   0.043   3.067  14.148  0.0090 -0.9963 -0.4562
   19TMC2    H2  299   4.593   3.018  13.760  1.9734  0.2278 -1.3280
   19TMC2    C7  300   4.605   2.919  14.010 -0.1858 -0.3611  0.1479
   19TMC2    C8  301   4.663   3.273  13.672 -0.0046  0.2757 -0.5043
   19TMC2    O1  302   4.657   2.843  14.094  0.1630  0.3475  0.3106
   19TMC2    O2  303   4.723   3.368  13.620 -0.6407  0.0769 -0.2537
   19TMC2    O5  304   4.539   3.232  13.648 -1.0257  0.3788  0.6050
   19TMC2    H5  305   4.504   3.185  13.727 -0.0559  0.1279  0.8891
   20MPD2     C  306   0.228   3.489  14.315  0.1707 -0.0636 -0.1175
   20MPD2    C1  307   0.251   3.351  14.312 -1.0969 -0.0910 -0.2962
   20MPD2    C2  308   0.341   3.299  14.406 -0.2555  0.9566  0.2025
   20MPD2    C3  309   0.399   3.374  14.500 -0.2374  0.6171  0.0642
   20MPD2    C4  310   0.359   3.509  14.512  0.6698  0.0674 -0.2381
   20MPD2    C5  311   0.286   3.563  14.416 -0.3036 -0.1420  0.4674
   20MPD2     H  312   0.367   3.195  14.394  0.4969  0.9293  2.0907
   20MPD2    H1  313   0.403   3.572  14.589  3.3251  1.7349 -3.1031
   20MPD2    H2  314   0.159   3.545  14.253  0.3513 -1.9307 -2.0087
   20MPD2    H3  315   0.265   3.669  14.421 -2.1036 -0.5361  1.4827
   20MPD2     N  316   0.498   3.328  14.587  0.4593  0.0322  0.0221
   20MPD2    H5  317   0.533   3.409  14.638 -0.0933 -0.1415  0.6835
   20MPD2    N1  318   0.198   3.267  14.215  0.0908  0.2016  0.5854
   20MPD2    H7  319   0.207   3.166  14.224  4.5824  0.5365 -0.1406
   21MPD2     C  320   2.692   3.493  14.123 -0.4764 -0.0130 -0.0836
   21MPD2    C1  321   2.678   3.366  14.180 -0.1823  0.3587 -0.1692
   21MPD2    C2  322   2.595   3.344  14.289  0.6641 -0.2140  0.7652
   21MPD2    C3  323   2.522   3.449  14.341 -0.5231 -0.1078 -0.9776
   21MPD2    C4  324   2.538   3.570  14.281 -0.1920  0.5586  0.2535
   21MPD2    C5  325   2.621   3.592  14.177  0.0181  0.1782 -0.1787
   21MPD2     H  326   2.601   3.250  14.342 -0.0100 -0.2809  0.7182
   21MPD2    H1  327   2.495   3.661  14.321  0.1713 -0.0761  2.0908
   21MPD2    H2  328   2.739   3.505  14.027  2.5008 -2.5102  1.0335
   21MPD2    H3  329   2.628   3.693  14.138 -1.5899  0.2845 -0.1884
   21MPD2     N  330   2.436   3.438  14.453 -0.2953  0.0182  0.2206
   21MPD2    H5  331   2.406   3.522  14.500 -1.6598 -0.2246 -0.1939
   21MPD2    N1  332   2.764   3.259  14.140 -0.2420 -0.1653 -0.1830
   21MPD2    H7  333   2.783   3.182  14.203  0.9285 -0.6110 -1.0802
   22TCq2    C1  334   2.382   3.322  14.505 -0.6272 -0.3092 -0.3724
   22TCq2    O2  335   2.416   3.205  14.482  0.3803  0.3599 -0.6212
   22TCq2    C2  336   2.291   3.339  14.615  0.3296 -0.3143  0.0814
   22TCq2    C3  337   2.261   3.227  14.693  0.1322  0.2182  0.3228
   22TCq2    C4  338   2.229   3.246  14.825  0.2399  0.0090  0.0868
   22TCq2    C5  339   2.196   3.370  14.870 -0.3324 -0.3254  0.5731
   22TCq2    C6  340   2.211   3.474  14.786 -0.3040  0.5498  0.0036
   22TCq2    C7  341   2.262   3.462  14.660 -0.2099 -0.3558 -0.5104
   22TCq2    C8  342   2.191   3.604  14.840 -0.4005  0.0396  0.2722
   22TCq2    O4  343   2.217   3.622  14.957  0.2612 -0.1286 -0.4734
   22TCq2    C9  344   2.225   3.130  14.917 -0.1061  0.0857  0.3124
   22TCq2    O5  345   2.242   3.161  15.035 -0.0144 -0.3570 -0.2989
   22TCq2    O6  346   2.245   3.017  14.859 -0.0668  0.4246  0.3238
   22TCq2    H2  347   2.279   3.124  14.664 -0.9582  0.4728 -1.2799
   22TCq2    H3  348   2.165   3.382  14.973 -1.2388 -1.2580  0.4116
   22TCq2    H4  349   2.282   3.549  14.599 -1.6987 -0.1253 -0.6601
   23MPD2     C  350   4.022   3.911  14.491 -0.1511 -0.2698  0.0553
   23MPD2    C1  351   4.011   4.021  14.577 -0.1152 -0.2152 -0.3421
   23MPD2    C2  352   3.929   4.121  14.525 -0.1436  0.5970  0.0108
   23MPD2    C3  353   3.847   4.112  14.416 -0.0317 -0.3167 -0.4052
   23MPD2    C4  354   3.853   3.995  14.337  0.4434  0.8442 -0.7480
   23MPD2    C5  355   3.938   3.895  14.383 -0.2157  1.0649 -0.0058
   23MPD2     H  356   3.909   4.203  14.593 -0.8783  0.0422  0.4758
   23MPD2    H1  357   3.792   3.981  14.249 -2.4585  1.0058  1.2521
   23MPD2    H2  358   4.089   3.829  14.516  0.4188  0.1176 -0.2110
   23MPD2    H3  359   3.938   3.797  14.337 -0.1253  0.6057  0.9708
   23MPD2     N  360   3.758   4.217  14.376  0.2472  0.3481 -0.0263
   23MPD2    H5  361   3.692   4.199  14.300  2.3308 -2.6357 -1.1187
   23MPD2    N1  362   4.080   4.035  14.697 -0.0824 -0.0012 -0.7178
   23MPD2    H7  363   4.066   4.126  14.740  1.5503 -0.9384  1.7634
   24TCq2    C1  364   3.745   4.348  14.432  0.0599 -0.2062 -0.3979
   24TCq2    O2  365   3.820   4.407  14.517 -0.2300  0.1976  0.2775
   24TCq2    C2  366   3.620   4.409  14.385 -0.0171  0.0374  0.4089
   24TCq2    C3  367   3.587   4.529  14.445  0.6219  0.3378 -0.3482
   24TCq2    C4  368   3.471   4.589  14.420  0.1616 -0.2765  0.6433
   24TCq2    C5  369   3.387   4.544  14.322 -0.5684  0.1646  0.2452
   24TCq2    C6  370   3.421   4.427  14.259 -0.1811 -0.0894  0.2136
   24TCq2    C7  371   3.537   4.359  14.288  0.0305  0.5041  0.0968
   24TCq2    C8  372   3.315   4.339  14.213 -0.1466 -0.8980  0.0336
   24TCq2    O4  373   3.338   4.216  14.204  0.4045 -0.2316  0.3554
   24TCq2    C9  374   3.424   4.698  14.506 -0.0925  0.5227 -0.8330
   24TCq2    O5  375   3.504   0.038  14.577  0.3023 -0.2034  0.8227
   24TCq2    O6  376   3.302   4.693  14.535  0.1583 -0.2079  0.3214
   24TCq2    H2  377   3.642   4.576  14.526  2.1416  0.1194 -1.2626
   24TCq2    H3  378   3.297   4.603  14.305  0.4158  1.2442 -1.2188
   24TCq2    H4  379   3.572   4.283  14.219  1.4842  1.6472 -0.4318
   25TMC2    C1  380   3.188   2.433  11.572 -0.7482 -0.0255  0.4212
   25TMC2    C2  381   3.306   2.432  11.634  0.1318  0.7476  0.1855
   25TMC2    C3  382   3.322   2.429  11.772 -0.1244 -0.5933  0.1965
   25TMC2    C4  383   3.080   2.431  11.653  0.3147 -0.7536 -0.1672
   25TMC2    C5  384   3.092   2.445  11.785 -0.5446 -0.4849 -0.2378
   25TMC2    C6  385   3.212   2.435  11.850 -0.3263  0.3029 -0.0936
   25TMC2     C  386   3.183   2.396  11.427 -0.3305 -0.1061  0.1266
   25TMC2     O  387   3.264   2.454  11.358 -0.4599 -0.2801  0.3772
   25TMC2     H  388   3.395   2.434  11.572 -1.6923  1.1838 -2.4441
   25TMC2    H1  389   2.982   2.411  11.611  0.5303 -0.3203 -0.8715
   25TMC2    H2  390   3.206   2.448  11.957  1.7738 -1.3319  0.2027
   25TMC2    C7  391   2.981   2.392  11.856 -0.8352 -0.3148  0.6900
   25TMC2    C8  392   3.459   2.416  11.827 -0.2863  0.1120  0.1678
   25TMC2    O1  393   3.009   2.308  11.935 -0.0365 -0.1487 -0.4642
   25TMC2    O2  394   3.549   2.471  11.764 -0.3505 -0.4052 -0.2213
   25TMC2    O5  395   3.451   2.407  11.962 -0.1873 -0.0052 -0.9565
   25TMC2    H5  396   3.365   2.372  11.995  0.4350  1.3476  2.1326
   26MPD2     C  397   2.948   2.281  10.998  0.0369  0.6508 -0.3446
   26MPD2    C1  398   2.898   2.194  11.095  0.8872 -0.1179  0.3010
   26MPD2    C2  399   2.939   2.206  11.224 -0.2099  0.7671 -0.4594
   26MPD2    C3  400   3.025   2.306  11.259  0.2292 -0.2422  0.1420
   26MPD2    C4  401   3.069   2.394  11.160  0.0354  0.3772  0.4834
   26MPD2    C5  402   3.032   2.379  11.029  0.0342 -0.5713 -0.3692
   26MPD2     H  403   2.922   2.133  11.303  2.3428 -0.5623 -1.1385
   26MPD2    H1  404   3.126   2.486  11.170 -0.3303  0.9973 -3.3698
   26MPD2    H2  405   2.922   2.276  10.893 -0.9045 -1.9427  0.0359
   26MPD2    H3  406   3.065   2.449  10.952 -0.3893 -0.0599 -0.0890
   26MPD2     N  407   3.074   2.324  11.394 -0.2612 -0.3275  0.2349
   26MPD2    H5  408   3.031   2.273  11.471 -0.9583 -1.1327 -0.6953
   26MPD2    N1  409   2.825   2.078  11.049  0.0921  0.6193 -0.1412
   26MPD2    H7  410   2.814   2.083  10.948 -0.0866 -0.9014 -0.1903
   27TMC2    C1  411   1.771   3.945  12.003 -0.4815  0.1235 -0.0582
   27TMC2    C2  412   1.714   4.008  11.897 -0.8757 -0.3315 -0.8662
   27TMC2    C3  413   1.752   4.134  11.865 -0.2621  0.6282  0.1819
   27TMC2    C4  414   1.852   4.017  12.083 -0.4419  0.3059  1.0806
   27TMC2    C5  415   1.869   4.151  12.064 -0.0365  0.1288  0.2109
   27TMC2    C6  416   1.814   4.214  11.959 -0.5818 -0.1460 -0.1305
   27TMC2     C  417   1.702   3.854  12.094  0.1622  0.7457 -0.3682
   27TMC2     O  418   1.762   3.773  12.165  0.4128 -0.3485  0.1726
   27TMC2     H  419   1.649   3.946  11.837 -0.7040 -0.6614 -0.7128
   27TMC2    H1  420   1.891   3.974  12.175  0.7489 -0.1298  0.3760
   27TMC2    H2  421   1.829   4.319  11.939 -1.0051  0.1694  1.2371
   27TMC2    C7  422   1.825   4.212  12.189  0.2556 -0.5687 -0.6990
   27TMC2    C8  423   1.729   4.196  11.736  0.7006  0.3599  0.6364
   27TMC2    O1  424   1.863   4.161  12.294  0.1402  0.2421  0.0095
   27TMC2    O2  425   1.716   4.312  11.712  0.0686  0.5378 -0.3093
   27TMC2    O5  426   1.800   4.113  11.661 -0.4154 -0.1455  0.0268
   27TMC2    H5  427   1.823   4.026  11.699  0.3125  0.3059  0.6123
   28MPD2     C  428   1.308   3.790  12.393  0.0685 -0.4066  0.0246
   28MPD2    C1  429   1.288   3.914  12.336  0.2340 -0.0058  0.1005
   28MPD2    C2  430   1.381   3.959  12.244  0.2046 -0.0662 -0.7699
   28MPD2    C3  431   1.493   3.880  12.222 -0.5657  0.0886 -0.0481
   28MPD2    C4  432   1.509   3.754  12.279 -0.5521  0.3273 -0.3210
   28MPD2    C5  433   1.415   3.710  12.361 -0.1834 -0.5676  0.6666
   28MPD2     H  434   1.376   4.054  12.193 -2.2431  0.7794  1.1039
   28MPD2    H1  435   1.580   3.674  12.262  0.2449  0.3490  2.9940
   28MPD2    H2  436   1.235   3.753  12.463 -1.1797 -1.0112 -1.6062
   28MPD2    H3  437   1.428   3.608  12.396  0.1050  0.4430  3.4939
   28MPD2     N  438   1.578   3.913  12.120 -0.3319  0.3102  0.9272
   28MPD2    H5  439   1.547   3.988  12.058 -0.3646 -1.5943 -1.3814
   28MPD2    N1  440   1.180   3.992  12.384  0.0864  0.5638 -0.2787
   28MPD2    H7  441   1.125   3.973  12.467  0.5654  2.1081  0.3884
   29MPD2     C  442   0.628   1.620  14.014 -0.3389  0.0776 -0.0359
   29MPD2    C1  443   0.663   1.556  14.132  0.3557  0.2652 -0.1852
   29MPD2    C2  444   0.683   1.628  14.253 -0.0701  0.1818 -0.3219
   29MPD2    C3  445   0.647   1.764  14.259 -0.2802  0.2345  0.2801
   29MPD2    C4  446   0.593   1.817  14.140 -0.5283 -0.2096 -0.2513
   29MPD2    C5  447   0.588   1.748  14.023 -0.0320 -0.1017  0.2459
   29MPD2     H  448   0.720   1.580  14.342 -1.7586  0.0394  0.2954
   29MPD2    H1  449   0.570   1.923  14.128 -0.6520 -0.2326 -0.2136
   29MPD2    H2  450   0.615   1.562  13.924 -0.1218  0.3653 -0.2507
   29MPD2    H3  451   0.565   1.804  13.934  0.5991  0.6821  0.5716
   29MPD2     N  452   0.653   1.849  14.369  0.4761 -0.5811 -0.1131
   29MPD2    H5  453   0.622   1.945  14.363  4.1935  0.5342 -1.3490
   29MPD2    N1  454   0.713   1.427  14.118 -0.2078  0.2510  0.3334
   29MPD2    H7  455   0.706   1.377  14.031 -0.1841  1.3855 -0.3254
   30TCq2    C1  456   0.705   1.819  14.491 -0.2190 -0.2988 -0.3387
   30TCq2    O2  457   0.762   1.721  14.540 -0.0151  0.3524 -0.1249
   30TCq2    C2  458   0.726   1.941  14.567  0.6984  0.5618  0.6236
   30TCq2    C3  459   0.747   1.927  14.699  0.4643  0.0899 -0.3738
   30TCq2    C4  460   0.791   2.033  14.768 -0.0564 -0.1610  1.1340
   30TCq2    C5  461   0.837   2.147  14.714  0.1198  1.1484 -0.1884
   30TCq2    C6  462   0.814   2.159  14.578  0.5437  0.3094  0.1892
   30TCq2    C7  463   0.765   2.053  14.504  0.2497 -0.7417  0.2176
   30TCq2    C8  464   0.879   2.268  14.504 -0.3304 -0.0586  0.3015
   30TCq2    O4  465   0.863   2.267  14.382 -0.1582 -0.8077  0.7780
   30TCq2    C9  466   0.791   2.020  14.910  0.1347 -0.5597  0.3653
   30TCq2    O5  467   0.741   1.916  14.960 -0.0011 -0.0253  0.0892
   30TCq2    O6  468   0.825   2.125  14.973 -0.4216 -0.2121 -0.5522
   30TCq2    H2  469   0.715   1.840  14.755 -0.3771  1.5915  1.4575
   30TCq2    H3  470   0.875   2.218  14.787  1.9684 -1.3515  1.2919
   30TCq2    H4  471   0.766   2.059  14.396  0.1742  3.0362  0.4234
   31MPD2     C  472   4.130   0.145  14.852  0.0151  0.2747  0.1266
   31MPD2    C1  473   4.006   0.190  14.811 -0.2201  0.2596  0.3078
   31MPD2    C2  474   3.891   0.135  14.875 -0.2736  0.0700  0.0385
   31MPD2    C3  475   3.908   0.038  14.971 -0.1875 -1.0487  0.4865
   31MPD2    C4  476   4.032   4.710  15.001  0.5371 -0.2197  0.3468
   31MPD2    C5  477   4.148   0.038  14.938 -0.5786  0.1624  0.5478
   31MPD2     H  478   3.796   0.186  14.867 -1.1188 -1.7996 -1.6922
   31MPD2    H1  479   4.060   4.633  15.073 -1.7134 -1.6668 -0.3244
   31MPD2    H2  480   4.220   0.184  14.807  0.1939  0.2793  0.4846
   31MPD2    H3  481   4.245   4.718  14.955 -0.4052  0.0912 -0.6171
   31MPD2     N  482   3.808   4.716  15.055  0.5329 -0.2592  0.6502
   31MPD2    H5  483   3.828   4.650  15.130  1.1526 -0.9481 -0.1297
   31MPD2    N1  484   3.991   0.292  14.713  1.5583  0.0802  0.0196
   31MPD2    H7  485   4.078   0.340  14.689 -1.0199  2.0042 -5.4563
   32TCq2    C1  486   3.674   0.014  15.029  0.0647  1.2168  0.5484
   32TCq2    O2  487   3.622   0.061  14.927  0.1006  0.7306 -0.2360
   32TCq2    C2  488   3.581   4.719  15.144  0.7526  0.5142  0.0645
   32TCq2    C3  489   3.450   0.026  15.121  0.2710 -0.3259  0.3509
   32TCq2    C4  490   3.371   0.081  15.217 -0.0065 -1.3458  0.7788
   32TCq2    C5  491   3.422   0.099  15.343 -0.1804  0.1625 -0.2323
   32TCq2    C6  492   3.555   0.069  15.365 -0.3639  0.6891  0.2911
   32TCq2    C7  493   3.636   0.002  15.274 -0.0145 -0.5372 -0.4620
   32TCq2    C8  494   3.606   0.072  15.505  0.2491  0.2909  0.2516
   32TCq2    O4  495   3.690   4.717  15.541  0.4360  0.0421 -0.0743
   32TCq2    C9  496   3.239   0.119  15.178 -0.2259  0.7344 -0.3140
   32TCq2    O5  497   3.173   0.204  15.245  0.2110  0.0506 -0.0843
   32TCq2    O6  498   3.184   0.032  15.107 -0.5196  0.0576  0.3402
   32TCq2    H2  499   3.400   0.018  15.025 -0.0742  3.3911  0.2483
   32TCq2    H3  500   3.356   0.143  15.417  0.4535 -0.1946  0.5401
   32TCq2    H4  501   3.738   4.715  15.308 -0.2516 -0.5345  0.2586
   33MPD2     C  502   4.011   3.296  10.520  0.9458  0.2976  0.0640
   33MPD2    C1  503   4.064   3.173  10.484  0.1425 -0.4157  0.1173
   33MPD2    C2  504   4.103   3.152  10.350 -0.1191  0.8831 -0.4190
   33MPD2    C3  505   4.090   3.248  10.255 -0.8643 -0.2623 -0.5620
   33MPD2    C4  506   4.038   3.369  10.294  0.9990  0.0335  0.3302
   33MPD2    C5  507   4.004   3.391  10.424 -0.7611  0.1754  0.2973
   33MPD2     H  508   4.158   3.065  10.314 -2.5401 -0.6030 -0.5461
   33MPD2    H1  509   4.021   3.444  10.217  0.0683 -0.3198  0.1941
   33MPD2    H2  510   3.980   3.311  10.622 -0.8970  0.7220 -0.5654
   33MPD2    H3  511   3.966   3.489  10.448  0.7272  1.3598 -2.0990
   33MPD2     N  512   4.126   3.236  10.113  0.3107 -0.2080 -0.2152
   33MPD2    H5  513   4.124   3.326  10.066  2.1932  0.1399  0.3958
   33MPD2    N1  514   4.072   3.071  10.580  0.1708 -0.2386  0.5103
   33MPD2    H7  515   4.037   3.092  10.673 -0.2433  2.6519 -0.2899
   34TCq2    C1  516   4.177   3.118  10.054 -0.1879 -0.2662 -0.1436
   34TCq2    O2  517   4.176   3.003  10.094 -0.1102 -0.8633  0.6728
   34TCq2    C2  518   4.219   3.147   9.919  0.6127  0.0458 -0.8084
   34TCq2    C3  519   4.212   3.042   9.836  0.0137 -0.5387 -0.0605
   34TCq2    C4  520   4.276   3.040   9.720  0.4225  0.0288 -0.1654
   34TCq2    C5  521   4.358   3.152   9.698  0.3622  0.1462  0.0545
   34TCq2    C6  522   4.386   3.253   9.788 -0.2289 -0.1619  0.7232
   34TCq2    C7  523   4.314   3.246   9.905 -0.1056 -0.2051  0.3983
   34TCq2    C8  524   4.452   3.370   9.739  0.0043 -0.0860 -0.9759
   34TCq2    O4  525   4.522   3.432   9.820 -0.2169 -0.3762 -0.3184
   34TCq2    C9  526   4.267   2.925   9.632 -0.3482  0.3077  0.9956
   34TCq2    O5  527   4.163   2.859   9.641  0.4470 -0.2840 -1.1345
   34TCq2    O6  528   4.364   2.907   9.560 -0.5982  0.3204  0.0093
   34TCq2    H2  529   4.149   2.957   9.860 -0.7429  0.7260  2.3984
   34TCq2    H3  530   4.417   3.145   9.607  1.2532 -2.6283  0.8475
   34TCq2    H4  531   4.312   3.317   9.987 -1.0241  1.2984 -0.9422
   35MPD2     C  532   0.647   4.558  11.127 -0.0940  0.3075  0.0691
   35MPD2    C1  533   0.600   4.463  11.216 -0.0492 -0.6603  0.4716
   35MPD2    C2  534   0.486   4.391  11.174 -0.2550 -0.1306 -0.1052
   35MPD2    C3  535   0.425   4.417  11.052  0.1726 -0.2384  0.6039
   35MPD2    C4  536   0.474   4.504  10.961 -0.7343 -0.2522  1.0515
   35MPD2    C5  537   0.585   4.581  11.003 -0.0655  0.1137 -0.0913
   35MPD2     H  538   0.438   4.323  11.243 -0.5532  1.8590  1.6330
   35MPD2    H1  539   0.440   4.514  10.858 -0.1571 -1.7812  0.7252
   35MPD2    H2  540   0.729   4.627  11.138  1.1272 -1.3130  1.0292
   35MPD2    H3  541   0.627   4.650  10.930  0.8879  0.5482  0.8632
   35MPD2     N  542   0.304   4.342  11.035 -0.0775  0.4464 -0.7368
   35MPD2    H5  543   0.270   4.298  11.120  1.0206 -0.8464 -0.9676
   35MPD2    N1  544   0.654   4.457  11.344  0.5338 -0.4148  0.2504
   35MPD2    H7  545   0.731   4.522  11.354  0.7066 -0.7869  1.3169
   36TCq2    C1  546   0.219   4.332  10.930  1.3130  0.2237 -0.8942
   36TCq2    O2  547   0.215   4.415  10.838  0.5735  0.6707 -0.3293
   36TCq2    C2  548   0.113   4.227  10.956  0.1780  0.1672 -0.7915
   36TCq2    C3  549   4.714   4.251  10.909 -0.6598 -0.0764 -0.4201
   36TCq2    C4  550   4.610   4.176  10.960  0.2963 -0.1473  0.1471
   36TCq2    C5  551   4.627   4.080  11.059 -0.4372  0.5541  0.1288
   36TCq2    C6  552   0.025   4.059  11.100 -0.1990  0.0051  0.1332
   36TCq2    C7  553   0.129   4.133  11.056  0.2993  0.3032  0.9342
   36TCq2    C8  554   0.045   3.978  11.220  0.3386 -0.4848 -0.6069
   36TCq2    O4  555   4.688   3.892  11.232 -0.4105 -0.1437 -0.6607
   36TCq2    C9  556   4.485   4.205  10.910 -0.7147 -0.2321  0.3239
   36TCq2    O5  557   4.474   4.322  10.874 -0.7010 -0.2521  0.7938
   36TCq2    O6  558   4.388   4.131  10.946  0.4195  0.6946 -0.3189
   36TCq2    H2  559   4.693   4.323  10.831  0.0679 -0.3468 -0.8688
   36TCq2    H3  560   4.542   4.032  11.107  1.1045  1.7320  4.0591
   36TCq2    H4  561   0.228   4.100  11.085 -1.0955 -3.5226  1.3658
   37TMC2    C1  562   2.953   0.123  11.512  0.9788  0.3779 -0.1620
   37TMC2    C2  563   2.979   0.117  11.377  0.0860 -0.3658  1.0560
   37TMC2    C3  564   3.103   0.123  11.330 -0.0114 -0.0078 -0.8428
   37TMC2    C4  565   3.065   0.128  11.599  0.1242  0.8038 -0.7952
   37TMC2    C5  566   3.190   0.142  11.542 -0.2651  0.3681 -0.5805
   37TMC2    C6  567   3.212   0.133  11.407 -0.2545 -0.1752  1.0525
   37TMC2     C  568   2.824   0.079  11.553 -0.6274 -0.3643  0.1559
   37TMC2     O  569   2.741   0.071  11.465  0.2855  0.2570 -0.1079
   37TMC2     H  570   2.896   0.091  11.313 -0.3847 -0.4961  1.7194
   37TMC2    H1  571   3.056   0.153  11.704 -0.2427 -1.4539 -0.2824
   37TMC2    H2  572   3.307   0.126  11.354 -0.5899 -0.3998  0.4811
   37TMC2    C7  573   3.299   0.124  11.635 -0.3242 -0.4706  0.5308
   37TMC2    C8  574   3.119   0.079  11.195  0.3475 -0.8038 -0.1268
   37TMC2    O1  575   3.253   0.092  11.748  0.4006 -0.3447 -0.4434
   37TMC2    O2  576   3.224   0.027  11.164 -0.5858  0.7312  0.6096
   37TMC2    O5  577   3.057   0.180  11.135  0.5532  0.2503 -0.0714
   37TMC2    H5  578   2.988   0.234  11.179 -0.3901 -1.6556  0.7949
   38MPD2     C  579   2.552   4.532  11.873 -1.3078 -0.7109 -0.2168
   38MPD2    C1  580   2.667   4.581  11.937 -0.5141 -0.0225 -0.6349
   38MPD2    C2  581   2.747   4.671  11.874 -0.3202  0.4852  0.6365
   38MPD2    C3  582   2.716   4.705  11.743 -0.2550 -0.6648  0.2651
   38MPD2    C4  583   2.603   4.652  11.679 -0.3392 -1.0549  0.5729
   38MPD2    C5  584   2.523   4.575  11.746  0.1918  0.3530  0.2036
   38MPD2     H  585   2.835   4.709  11.924 -1.6681  1.7504  2.0533
   38MPD2    H1  586   2.574   4.676  11.577 -0.7176  1.3547  1.2242
   38MPD2    H2  587   2.482   4.461  11.914 -0.4944 -2.1042 -1.2482
   38MPD2    H3  588   2.429   4.538  11.708  0.1410  0.7096 -0.0171
   38MPD2     N  589   2.817   0.055  11.684 -0.0912 -0.3131  0.2705
   38MPD2    H5  590   2.899   0.070  11.742  1.0073  0.2825 -1.4486
   38MPD2    N1  591   2.709   4.516  12.054 -0.4895  0.0714 -0.1765
   38MPD2    H7  592   2.805   4.542  12.075 -0.6540  0.5120  0.0420
   39MPD2     C  593   1.573   1.852   1.591  0.3018  1.1015  0.2642
   39MPD2    C1  594   1.451   1.797   1.637 -0.3747 -0.6390 -0.2565
   39MPD2    C2  595   1.361   1.751   1.543 -0.5819  0.3622  0.5029
   39MPD2    C3  596   1.380   1.770   1.408 -0.2725 -0.0042 -0.5416
   39MPD2    C4  597   1.498   1.830   1.368 -0.1349  0.4886 -1.5041
   39MPD2    C5  598   1.596   1.862   1.457 -0.5745  0.1669  0.2968
   39MPD2     H  599   1.266   1.708   1.571  0.2317 -1.1821  0.9225
   39MPD2    H1  600   1.514   1.871   1.270 -1.3258 -1.3362 -2.4854
   39MPD2    H2  601   1.652   1.871   1.662 -0.0346  1.7266  0.4712
   39MPD2    H3  602   1.693   1.900   1.426 -1.0141  0.7416 -0.3703
   39MPD2     N  603   1.275   1.735   1.315 -0.4370  0.1481  0.5919
   39MPD2    H5  604   1.302   1.708   1.221 -0.2472 -2.4326  1.3764
   39MPD2    N1  605   1.429   1.788   1.775  0.0599  0.3203 -0.2734
   39MPD2    H7  606   1.494   1.827   1.842 -1.3644 -0.4851  1.6111
   40TCq2    C1  607   1.326   1.717   1.835 -0.2729 -0.1622  0.5044
   40TCq2    O2  608   1.228   1.670   1.782 -0.1252 -0.1468 -0.7617
   40TCq2    C2  609   1.349   1.700   1.978 -0.1605 -0.2595 -1.1477
   40TCq2    C3  610   1.244   1.657   2.053  0.1879 -0.6231 -0.6228
   40TCq2    C4  611   1.258   1.635   2.193  0.2115 -0.7238 -0.1434
   40TCq2    C5  612   1.379   1.660   2.255 -0.0995 -0.1105  0.0366
   40TCq2    C6  613   1.479   1.709   2.169  0.2384 -0.3341  0.0293
   40TCq2    C7  614   1.469   1.730   2.034  0.2760 -0.1166 -0.4654
   40TCq2    C8  615   1.611   1.699   2.235  0.2187  0.2117 -0.6896
   40TCq2    O4  616   1.620   1.609   2.318  0.0210  0.0726  0.0385
   40TCq2    C9  617   1.152   1.569   2.266 -0.4213  0.2114 -0.0944
   40TCq2    O5  618   1.072   1.512   2.193 -0.1360 -0.0952  0.0472
   40TCq2    O6  619   1.152   1.567   2.393 -0.7338 -0.6763 -0.6358
   40TCq2    H2  620   1.156   1.621   2.000 -0.6938  0.8685 -0.1792
   40TCq2    H3  621   1.397   1.629   2.357  0.9224 -2.2591 -0.8082
   40TCq2    H4  622   1.557   1.754   1.975  1.2036  2.3218  1.8971
   41TMC2    C1  623   4.658   4.033  14.033  0.1220 -0.3871  0.7811
   41TMC2    C2  624   4.635   4.160  14.069 -0.4463 -0.2989  0.1759
   41TMC2    C3  625   4.635   4.255  13.973 -0.4817  0.3496 -0.5470
   41TMC2    C4  626   4.665   3.997  13.899 -0.2668  0.8519 -0.3651
   41TMC2    C5  627   4.648   4.097  13.810 -0.2005  0.5147 -0.1477
   41TMC2    C6  628   4.648   4.229  13.838 -0.6117  0.2090  0.0560
   41TMC2     C  629   4.676   3.924  14.124 -0.3904  0.4581 -0.1522
   41TMC2     O  630   4.667   3.812  14.074  0.1459  0.0357 -0.1608
   41TMC2     H  631   4.620   4.194  14.171 -0.3907  0.6749 -0.1421
   41TMC2    H1  632   4.688   3.897  13.865  0.4831  1.8234 -2.7570
   41TMC2    H2  633   4.636   4.294  13.752 -0.5166 -1.3662 -1.1595
   41TMC2    C7  634   4.637   4.052  13.674  0.4534  0.4830  1.0727
   41TMC2    C8  635   4.632   4.393  14.012 -0.1094 -0.4152 -0.7226
   41TMC2    O1  636   4.610   3.935  13.649 -0.6347  0.5323  0.4991
   41TMC2    O2  637   4.586   4.480  13.941 -0.1484  0.9462 -0.4822
   41TMC2    O5  638   4.687   4.402  14.136 -0.3258  0.1127 -0.3296
   41TMC2    H5  639   0.026   4.330  14.158 -1.9078 -1.0382  0.4934
   42MPD2     C  640   4.684   3.751  14.368 -1.2452  0.2999 -0.4687
   42MPD2    C1  641   4.714   3.881  14.362 -0.5554 -0.4922 -0.1650
   42MPD2    C2  642   0.004   3.948  14.484  0.6112  0.2236  0.1327
   42MPD2    C3  643   0.003   3.885  14.606  0.6305 -0.1490  0.2072
   42MPD2    C4  644   4.701   3.748  14.604  0.0010 -0.0324 -0.1650
   42MPD2    C5  645   4.681   3.688  14.486  0.0370  0.4231 -0.5470
   42MPD2     H  646   0.005   4.056  14.479 -0.1739  0.2700  0.9754
   42MPD2    H1  647   4.705   3.693  14.697 -3.9625  0.7557  0.4350
   42MPD2    H2  648   4.657   3.695  14.280  2.2215 -0.2119 -1.2197
   42MPD2    H3  649   4.665   3.580  14.488  0.9931  0.2722 -0.6191
   42MPD2     N  650   0.009   3.944  14.733  0.3065 -0.5925 -0.4058
   42MPD2    H5  651   4.720   3.893  14.820  1.2695 -2.6870 -1.4777
   42MPD2    N1  652   4.706   3.963  14.251  0.5548 -0.5119 -0.0100
   42MPD2    H7  653   0.001   4.062  14.256  0.7811 -0.5853  0.5523
   43MPD2     C  654   1.488   2.613   0.589  0.7748  0.7204  0.2468
   43MPD2    C1  655   1.578   2.683   0.671  0.1418  0.3694 -0.1152
   43MPD2    C2  656   1.536   2.774   0.765  0.6139 -0.2184  0.7577
   43MPD2    C3  657   1.400   2.799   0.759  0.4336  0.0035  0.9878
   43MPD2    C4  658   1.310   2.725   0.684  0.2667 -0.2504  0.4596
   43MPD2    C5  659   1.352   2.630   0.601 -0.4392  0.1780  0.2559
   43MPD2     H  660   1.608   2.831   0.822  0.4407  1.5449 -0.8002
   43MPD2    H1  661   1.204   2.739   0.669  0.7337  1.8492 -0.8904
   43MPD2    H2  662   1.518   2.532   0.524  0.9793 -0.4898  1.8511
   43MPD2    H3  663   1.287   2.571   0.537  0.9287 -0.0677 -0.9065
   43MPD2     N  664   1.339   2.898   0.833  0.7685  0.3896  0.1808
   43MPD2    H5  665   1.240   2.910   0.815  0.7222  0.7412  0.7058
   43MPD2    N1  666   1.717   2.651   0.666  0.0136  0.1985  0.1820
   43MPD2    H7  667   1.777   2.689   0.738  1.4185 -0.6320 -0.5538
   44TCq2    C1  668   1.050   3.282   0.874 -0.2906 -0.5039  0.5814
   44TCq2    O2  669   1.038   3.272   0.755  0.2049  0.1378 -0.0891
   44TCq2    C2  670   1.177   3.256   0.935 -0.0691  0.6842  0.6160
   44TCq2    C3  671   1.204   3.315   1.060  0.1878 -0.2770 -0.2338
   44TCq2    C4  672   1.294   3.257   1.138 -0.5663  0.2216  0.7400
   44TCq2    C5  673   1.350   3.136   1.102  0.1653 -0.1933  0.1690
   44TCq2    C6  674   1.325   3.085   0.977  0.1156 -0.1595 -0.4001
   44TCq2    C7  675   1.228   3.139   0.898 -0.5668  0.0949 -0.3344
   44TCq2    C8  676   1.400   2.976   0.933  0.2470 -0.5542  0.6918
   44TCq2    O4  677   1.515   2.968   0.976  0.0483 -0.0291  0.1118
   44TCq2    C9  678   1.321   3.301   1.275  0.6773 -0.6175  0.1027
   44TCq2    O5  679   1.229   3.368   1.323 -0.2324  0.3484  0.2211
   44TCq2    O6  680   1.389   3.221   1.344  0.0688 -0.5220  0.2623
   44TCq2    H2  681   1.170   3.414   1.089 -0.5097 -0.9807  1.3478
   44TCq2    H3  682   1.432   3.097   1.161  1.6038 -1.0301 -2.3803
   44TCq2    H4  683   1.206   3.095   0.801 -2.1054  0.6267 -0.2307
   45TMC2    C1  684   2.184   0.153   9.451  0.5888 -0.3454 -0.6088
   45TMC2    C2  685   2.142   0.103   9.328  0.6693  0.3812 -0.2022
   45TMC2    C3  686   2.182   0.175   9.219  0.2838 -0.3544 -0.6105
   45TMC2    C4  687   2.262   0.264   9.473 -0.3371  0.2997 -0.1268
   45TMC2    C5  688   2.302   0.318   9.357  0.6591  0.3865 -0.0774
   45TMC2    C6  689   2.258   0.285   9.232 -0.3054  0.1528 -0.3420
   45TMC2     C  690   2.151   0.067   9.565  0.8009  0.3219 -0.4817
   45TMC2     O  691   2.240   0.053   9.650  0.3302 -0.1088  0.2749
   45TMC2     H  692   2.081   0.014   9.314  0.9860  0.1803 -0.3182
   45TMC2    H1  693   2.278   0.297   9.575  1.2938 -0.2991 -0.1941
   45TMC2    H2  694   2.292   0.338   9.143  0.8014 -0.9499 -0.5728
   45TMC2    C7  695   2.393   0.432   9.355  0.4266 -0.9222  0.1932
   45TMC2    C8  696   2.113   0.152   9.098  0.1941 -0.2425 -0.1583
   45TMC2    O1  697   2.440   0.447   9.244 -0.4754 -0.3133 -0.7123
   45TMC2    O2  698   2.168   0.176   8.998 -0.0961 -0.5249  0.0171
   45TMC2    O5  699   2.017   0.062   9.109  0.0590  0.3727  0.0826
   45TMC2    H5  700   1.979   0.069   9.200 -4.9278  1.4218 -2.0875
   46MPD2     C  701   2.060   4.573   9.739  0.2940 -1.0321 -0.3160
   46MPD2    C1  702   1.993   4.616   9.619 -0.7446 -0.4018  1.0304
   46MPD2    C2  703   1.873   4.544   9.587 -0.3715 -0.1358  0.7320
   46MPD2    C3  704   1.840   4.426   9.650 -0.2743  0.2666 -0.3664
   46MPD2    C4  705   1.925   4.377   9.748  0.8459 -0.3794 -0.2724
   46MPD2    C5  706   2.031   4.450   9.787  0.3378 -0.2312 -0.2337
   46MPD2     H  707   1.814   4.584   9.505  1.1649  1.2925  0.3337
   46MPD2    H1  708   1.910   4.284   9.801  1.3841 -0.7905 -0.8551
   46MPD2    H2  709   2.145   4.621   9.787 -1.3277  2.5857 -1.0656
   46MPD2    H3  710   2.083   4.418   9.876  1.6156 -0.5657 -1.1007
   46MPD2     N  711   1.714   4.363   9.626  0.2972  0.2375 -0.0319
   46MPD2    H5  712   1.677   4.288   9.684  1.9231  0.6878  1.5731
   46MPD2    N1  713   2.035   0.000   9.543  0.0829 -0.5987  0.9939
   46MPD2    H7  714   1.977   0.029   9.464  1.1459  0.2069  0.5116
   47TMC2    C1  715   4.219   1.031   9.435  0.1836 -0.1408 -0.0291
   47TMC2    C2  716   4.197   0.909   9.375 -0.1266 -0.7962 -0.0820
   47TMC2    C3  717   4.075   0.848   9.403  0.8600  1.1382 -0.4149
   47TMC2    C4  718   4.118   1.099   9.501  0.4635  0.2088 -0.0858
   47TMC2    C5  719   3.996   1.038   9.518 -0.2585  0.3150 -0.1541
   47TMC2    C6  720   3.971   0.906   9.480 -0.3646  0.1186  0.1191
   47TMC2     C  721   4.354   1.085   9.456 -1.3526  0.2790  0.5395
   47TMC2     O  722   4.363   1.204   9.491 -0.1664  0.1367 -0.0681
   47TMC2     H  723   4.271   0.851   9.322 -0.1546 -1.9257  1.1118
   47TMC2    H1  724   4.144   1.182   9.566 -1.4503 -0.3303  1.3782
   47TMC2    H2  725   3.878   0.859   9.509  0.1149 -1.4532 -0.9059
   47TMC2    C7  726   3.907   1.115   9.603  0.4731  0.0594 -0.6066
   47TMC2    C8  727   4.042   0.730   9.324  0.3888 -0.0559 -0.1756
   47TMC2    O1  728   3.942   1.158   9.711  0.1168  0.2334  0.3927
   47TMC2    O2  729   4.128   0.653   9.287 -0.0175 -0.3496  0.1064
   47TMC2    O5  730   3.914   0.731   9.287  0.3944  0.3006  0.7762
   47TMC2    H5  731   3.883   0.824   9.289 -1.1497 -0.2128  0.3860
   48MPD2     C  732   4.649   1.121   9.464  0.5783 -0.0213  0.5069
   48MPD2    C1  733   4.580   1.002   9.474  0.1796 -0.4276 -0.3483
   48MPD2    C2  734   4.658   0.887   9.492  0.4099 -0.4957  0.3488
   48MPD2    C3  735   0.072   0.892   9.504  0.6065 -0.1398  0.6923
   48MPD2    C4  736   0.136   1.013   9.495 -0.2039  0.1905 -0.2066
   48MPD2    C5  737   0.062   1.130   9.481  0.2409  0.7212 -0.6329
   48MPD2     H  738   4.609   0.790   9.493 -2.0016  0.7082 -0.2481
   48MPD2    H1  739   0.242   1.026   9.511 -0.5650  1.3007  1.3747
   48MPD2    H2  740   4.595   1.215   9.456  3.0287  1.3171 -0.3897
   48MPD2    H3  741   0.107   1.228   9.487  1.4554  0.2637 -2.2607
   48MPD2     N  742   0.135   0.768   9.501 -0.1870 -0.0094 -0.0553
   48MPD2    H5  743   0.075   0.689   9.482  1.6972 -1.2097 -0.9852
   48MPD2    N1  744   4.441   0.986   9.463 -0.2425 -0.6243 -0.7877
   48MPD2    H7  745   4.402   0.893   9.475  0.4624 -0.8114 -0.0333
   49MPD2     C  746   2.898   2.899   9.870 -0.2304  0.2451 -0.0326
   49MPD2    C1  747   2.859   2.786   9.950 -0.5990  0.1380 -0.4555
   49MPD2    C2  748   2.901   2.780  10.081  0.0833 -0.1283 -0.0189
   49MPD2    C3  749   2.992   2.869  10.134  0.4617 -0.4369 -0.4449
   49MPD2    C4  750   3.030   2.977  10.058 -0.0638  0.2420  0.6594
   49MPD2    C5  751   2.980   2.995   9.930 -0.4597 -0.1820  0.2245
   49MPD2     H  752   2.856   2.702  10.141 -2.0702 -0.2378 -1.7862
   49MPD2    H1  753   3.086   3.062  10.094  1.1133 -0.3114  0.1529
   49MPD2    H2  754   2.881   2.893   9.763 -2.5769  0.9222  0.2945
   49MPD2    H3  755   3.022   3.073   9.867 -1.4444  1.0682  1.1039
   49MPD2     N  756   3.054   2.861  10.264 -0.1979 -0.6395 -0.0638
   49MPD2    H5  757   3.131   2.924  10.285 -1.5451  1.7345 -2.2687
   49MPD2    N1  758   2.788   2.669   9.904  0.4502  0.4967  0.5161
   49MPD2    H7  759   2.771   2.592   9.967 -0.0901 -1.5284 -2.1025
   50TCq2    C1  760   2.743   2.648   9.778  0.2820  0.3546  0.2270
   50TCq2    O2  761   2.745   2.719   9.677 -0.0752 -0.3885  0.0895
   50TCq2    C2  762   2.653   2.538   9.761  0.0187 -0.2494 -0.2453
   50TCq2    C3  763   2.628   2.502   9.631  0.3884  0.3772 -0.1133
   50TCq2    C4  764   2.563   2.388   9.619 -0.4796 -0.1714 -0.6009
   50TCq2    C5  765   2.517   2.309   9.719  0.2607 -0.1949  0.3411
   50TCq2    C6  766   2.521   2.360   9.849  0.2605 -0.7921  0.0927
   50TCq2    C7  767   2.603   2.468   9.869 -0.2995  0.7950  0.3188
   50TCq2    C8  768   2.504   2.259   9.946  0.0593  0.0047  0.2539
   50TCq2    O4  769   2.594   2.250  10.031  0.1381 -0.0876 -0.4540
   50TCq2    C9  770   2.534   2.348   9.483 -0.3295 -0.3844 -0.6606
   50TCq2    O5  771   2.462   2.245   9.467 -0.6599 -0.2250 -0.0085
   50TCq2    O6  772   2.627   2.374   9.402 -0.0017  0.2287 -0.1770
   50TCq2    H2  773   2.675   2.542   9.542  1.5024  1.2114  0.8416
   50TCq2    H3  774   2.456   2.224   9.690 -0.1325  0.0617  0.4160
   50TCq2    H4  775   2.619   2.492   9.974  0.1358 -0.4733  0.5402
   51MPD2     C  776   2.518   1.339   0.851 -0.3173 -0.1590  0.4624
   51MPD2    C1  777   2.654   1.322   0.827  0.3695  0.8493  0.2496
   51MPD2    C2  778   2.725   1.433   0.785 -0.0327  0.2953  0.1684
   51MPD2    C3  779   2.655   1.550   0.767  0.6687  0.2795 -0.8296
   51MPD2    C4  780   2.521   1.562   0.785 -0.3494 -0.5872  0.5771
   51MPD2    C5  781   2.452   1.456   0.824 -0.2121  0.3963 -0.4884
   51MPD2     H  782   2.828   1.434   0.751  0.0549 -1.8272  0.3218
   51MPD2    H1  783   2.471   1.658   0.779  1.0626  0.1843  1.0138
   51MPD2    H2  784   2.454   1.253   0.866  0.4073 -0.4596  1.8666
   51MPD2    H3  785   2.344   1.467   0.817 -0.2876 -1.2390 -1.9269
   51MPD2     N  786   2.731   1.661   0.717 -0.7980  0.1505  0.1453
   51MPD2    H5  787   2.668   1.733   0.684 -0.5545  0.5264  0.5012
   51MPD2    N1  788   2.715   1.196   0.839 -0.2559 -0.0073  0.3742
   51MPD2    H7  789   2.649   1.125   0.869  1.6212 -2.3383 -1.0945
   52TCq2    C1  790   2.865   1.684   0.725  0.1123 -0.0569  0.4371
   52TCq2    O2  791   2.959   1.607   0.751 -0.7261 -0.5198 -0.2105
   52TCq2    C2  792   2.910   1.817   0.673  0.5061  0.2541 -0.1837
   52TCq2    C3  793   2.816   1.899   0.621 -0.0217 -0.0713  0.0741
   52TCq2    C4  794   2.835   2.037   0.623  0.4846 -0.8459 -0.1989
   52TCq2    C5  795   2.941   2.090   0.692  0.5893  0.0733 -0.2220
   52TCq2    C6  796   3.030   1.999   0.744 -0.1113 -0.3743  0.4092
   52TCq2    C7  797   3.027   1.865   0.723  0.3267  0.6089  0.6389
   52TCq2    C8  798   3.107   2.049   0.863  0.5817  1.3135  0.3137
   52TCq2    O4  799   3.207   1.987   0.889 -0.3853 -0.0854 -0.0774
   52TCq2    C9  800   2.729   2.126   0.560 -0.2563  0.0522  0.3889
   52TCq2    O5  801   2.744   2.245   0.585  0.2645  0.0061 -0.1119
   52TCq2    O6  802   2.622   2.069   0.527  0.2396  0.0119 -0.0174
   52TCq2    H2  803   2.724   1.864   0.574  0.5770  0.2473 -1.3389
   52TCq2    H3  804   2.944   2.193   0.726  0.5063 -0.6475  1.9619
   52TCq2    H4  805   3.104   1.798   0.760  2.7625  1.9539 -1.9346
   53TMC2    C1  806   3.704   4.515  12.131 -0.1158 -1.0327 -0.2678
   53TMC2    C2  807   3.778   4.416  12.183 -0.0108 -0.5179 -0.2694
   53TMC2    C3  808   3.741   4.365  12.304 -0.0460  0.0125  0.1804
   53TMC2    C4  809   3.588   4.559  12.189  0.3454  0.4242  0.2262
   53TMC2    C5  810   3.543   4.500  12.302 -0.3924 -0.1076 -0.1033
   53TMC2    C6  811   3.617   4.398  12.362  0.2112  0.6313  0.7453
   53TMC2     C  812   3.762   4.585  12.016 -0.2500  0.1128 -0.7040
   53TMC2     O  813   3.871   4.547  11.981  0.1492 -0.3056 -0.0708
   53TMC2     H  814   3.870   4.387  12.135  1.4111  0.6912  1.7191
   53TMC2    H1  815   3.536   4.649  12.158  2.7565  2.1780  1.3864
   53TMC2    H2  816   3.589   4.353  12.457  1.1578  0.6229  1.0164
   53TMC2    C7  817   3.404   4.531  12.343  0.5266  0.0584 -0.0255
   53TMC2    C8  818   3.821   4.271  12.379  0.0032  0.4761 -0.7251
   53TMC2    O1  819   3.342   4.615  12.277 -0.2164 -0.2794  0.3573
   53TMC2    O2  820   3.811   4.244  12.497 -0.7199  0.3366 -0.0672
   53TMC2    O5  821   3.912   4.217  12.296  0.5542  0.1809  0.6644
   53TMC2    H5  822   3.885   4.189  12.206  1.3979  2.4438 -0.2969
   54MPD2     C  823   3.786   0.021  11.760  0.0849 -0.3584 -0.2307
   54MPD2    C1  824   3.666   0.003  11.826  0.0169 -0.3763 -0.0312
   54MPD2    C2  825   3.553   0.043  11.774 -0.1531  0.6156 -0.0538
   54MPD2    C3  826   3.546   0.107  11.653  0.0399 -0.2077  0.3030
   54MPD2    C4  827   3.666   0.131  11.591  0.0300 -0.3546 -1.1459
   54MPD2    C5  828   3.787   0.094  11.646 -0.0177 -0.3974  0.5722
   54MPD2     H  829   3.458   0.021  11.821  0.6141 -0.7534  0.8537
   54MPD2    H1  830   3.664   0.184  11.496 -0.4984 -1.1054 -1.5569
   54MPD2    H2  831   3.882   4.708  11.794 -0.0919 -0.1507  0.5134
   54MPD2    H3  832   3.879   0.108  11.591 -0.8144 -2.2243 -1.2416
   54MPD2     N  833   3.425   0.148  11.589 -0.0250 -0.3113  0.2044
   54MPD2    H5  834   3.442   0.194  11.500  1.3137 -0.0249  0.6071
   54MPD2    N1  835   3.658   4.642  11.941  0.0095  0.1262  0.3218
   54MPD2    H7  836   3.568   4.638  11.987  0.1249  0.1187  0.5467
   55MPD2     C  837   4.155   2.401  17.345  0.7124  0.2951  0.3013
   55MPD2    C1  838   4.142   2.303  17.444  0.7188  0.3695  0.2842
   55MPD2    C2  839   4.035   2.308  17.525  0.3253  0.8619 -0.2491
   55MPD2    C3  840   3.952   2.416  17.527  0.0547 -0.3073  0.4184
   55MPD2    C4  841   3.974   2.518  17.437 -0.4846 -0.0095  0.4426
   55MPD2    C5  842   4.070   2.510  17.344 -0.0641  0.2403  0.3361
   55MPD2     H  843   4.014   2.229  17.597 -1.4879 -0.5717 -2.3592
   55MPD2    H1  844   3.919   2.610  17.427 -0.9614 -0.2636  0.7565
   55MPD2    H2  845   4.235   2.407  17.272  0.5858  0.8734  0.2056
   55MPD2    H3  846   4.062   2.599  17.283 -0.9974  1.3606  2.0861
   55MPD2     N  847   3.841   2.404  17.614  1.2109  0.4018 -0.3048
   55MPD2    H5  848   3.845   2.336  17.689 -2.1863 -0.3218 -0.7885
   55MPD2    N1  849   4.237   2.198  17.448 -0.1227  0.4845  0.3294
   55MPD2    H7  850   4.316   2.200  17.384 -0.0204 -2.6549  0.3787
   56TCq2    C1  851   4.244   2.100  17.542 -0.4693 -0.3580 -0.0911
   56TCq2    O2  852   4.169   2.077  17.636  0.1370 -0.4563  0.3449
   56TCq2    C2  853   4.364   2.022  17.530 -0.5505  0.4086  0.0352
   56TCq2    C3  854   4.429   2.016  17.411 -0.3424  0.0803 -0.7401
   56TCq2    C4  855   4.550   1.944  17.412 -0.2667  0.5044  0.3641
   56TCq2    C5  856   4.596   1.879  17.519  0.4484  0.1721  0.4041
   56TCq2    C6  857   4.523   1.886  17.636 -0.9979  0.2743  0.3881
   56TCq2    C7  858   4.402   1.955  17.645 -0.1185  0.4944  0.0429
   56TCq2    C8  859   4.567   1.809   0.047  0.8235 -0.8034  0.5548
   56TCq2    O4  860   4.651   1.722   0.020 -0.0741 -0.4436 -0.0965
   56TCq2    C9  861   4.604   1.917  17.284  0.2527 -0.6645 -0.0410
   56TCq2    O5  862   4.591   2.007  17.193 -0.7414  0.2383 -0.3571
   56TCq2    O6  863   4.640   1.798  17.274 -0.2548 -0.7637  0.0907
   56TCq2    H2  864   4.385   2.042  17.315 -1.3538  2.0333  0.2630
   56TCq2    H3  865   4.687   1.820  17.512  0.6272  0.4212  0.6347
   56TCq2    H4  866   4.331   1.948   0.027  0.4968 -0.2273  0.5135
   57TMC2    C1  867   3.297   3.077  13.595  0.1997 -0.1328  0.4118
   57TMC2    C2  868   3.392   3.102  13.690 -0.7825 -0.2274 -0.4659
   57TMC2    C3  869   3.513   3.049  13.669 -0.9262 -0.1628 -0.0425
   57TMC2    C4  870   3.326   3.021  13.474 -0.0070  0.4652 -0.4713
   57TMC2    C5  871   3.452   2.983  13.453  0.4435  0.5424 -0.5211
   57TMC2    C6  872   3.544   2.978  13.552  0.5184  0.8595  0.6698
   57TMC2     C  873   3.180   3.167  13.599 -0.3051  0.3888  0.0239
   57TMC2     O  874   3.168   3.225  13.708  0.3215  0.2546  0.3708
   57TMC2     H  875   3.379   3.151  13.786  0.4156 -0.6741 -0.0753
   57TMC2    H1  876   3.245   3.000  13.405  0.1699  1.5399 -0.9976
   57TMC2    H2  877   3.641   2.933  13.539 -0.3171 -1.3876  2.3106
   57TMC2    C7  878   3.483   2.953  13.321 -0.3216 -1.1034 -0.2419
   57TMC2    C8  879   3.615   3.042  13.767 -0.3723  0.5426 -0.0847
   57TMC2    O1  880   3.403   2.990  13.241 -0.3013 -0.1146 -0.5234
   57TMC2    O2  881   3.698   2.950  13.768  0.0524  0.3111 -0.4018
   57TMC2    O5  882   3.591   3.113  13.878 -0.0303 -0.7073  0.3516
   57TMC2    H5  883   3.552   3.200  13.858  0.3555 -1.0647 -2.0425
   58MPD2     C  884   2.729   3.356  13.425 -0.2996 -0.2324  0.6676
   58MPD2    C1  885   2.779   3.338  13.551  0.9630  0.8325  0.1463
   58MPD2    C2  886   2.911   3.299  13.576 -0.0384  0.0434  0.4565
   58MPD2    C3  887   2.985   3.267  13.472 -0.2110 -0.3431 -0.1319
   58MPD2    C4  888   2.939   3.292  13.340 -0.0034  0.4293  0.4285
   58MPD2    C5  889   2.809   3.328  13.314 -0.5574 -0.4780  0.0994
   58MPD2     H  890   2.941   3.282  13.679 -0.2691  1.7499  0.8158
   58MPD2    H1  891   3.003   3.272  13.255  0.4606  1.9436  0.4241
   58MPD2    H2  892   2.637   3.411  13.410  0.9442  1.4265 -0.9479
   58MPD2    H3  893   2.773   3.344  13.213  0.3165 -0.3756 -0.1966
   58MPD2     N  894   3.113   3.194  13.481 -0.4636  0.3114 -0.3814
   58MPD2    H5  895   3.159   3.158  13.398 -0.2951  1.3859 -0.7600
   58MPD2    N1  896   2.700   3.379  13.658  0.2806  0.4326  0.0589
   58MPD2    H7  897   2.738   3.394  13.751  2.2648  1.2709 -0.8869
   59MPD2     C  898   0.934   3.949  12.872  1.2999 -0.1111  0.0582
   59MPD2    C1  899   0.948   3.814  12.867  0.2332 -0.1202 -0.0953
   59MPD2    C2  900   0.985   3.753  12.979  0.5404 -0.5197 -0.1525
   59MPD2    C3  901   1.031   3.820  13.096 -0.0591  0.8908  0.0624
   59MPD2    C4  902   1.006   3.961  13.101 -0.3698 -0.1772 -0.5716
   59MPD2    C5  903   0.956   4.025  12.981  0.4965  0.1938 -0.1971
   59MPD2     H  904   1.020   3.651  12.965  0.9601 -0.3374 -0.4172
   59MPD2    H1  905   1.027   4.032  13.180  0.0417  0.1455 -0.9708
   59MPD2    H2  906   0.900   4.000  12.783  0.6156 -1.5356 -0.5040
   59MPD2    H3  907   0.935   4.131  12.972  1.8084  0.4297 -0.4425
   59MPD2     N  908   1.103   3.756  13.200  1.0985 -0.0949 -0.5177
   59MPD2    H5  909   1.127   3.815  13.279  3.2224  0.9210 -1.9239
   59MPD2    N1  910   0.921   3.738  12.751 -0.2267  0.4952 -0.2448
   59MPD2    H7  911   0.917   3.636  12.752  2.0690  0.4388  2.2415
   60TCq2    C1  912   0.926   3.788  12.624  0.0120 -0.0257 -0.8664
   60TCq2    O2  913   0.989   3.890  12.586 -0.2649 -0.3393 -0.1658
   60TCq2    C2  914   0.878   3.695  12.526  0.1366  0.5187 -0.5752
   60TCq2    C3  915   0.823   3.581  12.570  0.3475 -0.6345 -0.6866
   60TCq2    C4  916   0.779   3.495  12.477 -0.3045 -0.1538 -0.0906
   60TCq2    C5  917   0.793   3.512  12.345  0.4940  0.1861  0.9696
   60TCq2    C6  918   0.848   3.631  12.297 -0.8122  0.4564  0.5299
   60TCq2    C7  919   0.892   3.726  12.387 -1.5135  0.0115  0.0455
   60TCq2    C8  920   0.874   3.638  12.159 -0.0991 -0.1374  0.1011
   60TCq2    O4  921   0.879   3.536  12.091  0.0236  0.6408  0.3865
   60TCq2    C9  922   0.720   3.373  12.516  0.2208  0.6143 -0.3498
   60TCq2    O5  923   0.750   3.274  12.447 -0.0601  0.8976  0.8059
   60TCq2    O6  924   0.689   3.368  12.638  0.1994  1.0905 -0.0376
   60TCq2    H2  925   0.818   3.548  12.673  1.2960 -3.3138 -1.4902
   60TCq2    H3  926   0.757   3.437  12.276  2.0294  1.3852 -1.1142
   60TCq2    H4  927   0.936   3.820  12.354  0.0906 -0.9511 -0.5788
   61MPD2     C  928   0.240   4.526  14.442  0.1391 -0.3370  0.5571
   61MPD2    C1  929   0.272   4.628  14.527  0.0345 -0.3220 -0.2006
   61MPD2    C2  930   0.257   0.033  14.487  0.3467  0.6512  0.1598
   61MPD2    C3  931   0.185   0.069  14.373  0.2916  0.4089 -0.6044
   61MPD2    C4  932   0.140   4.684  14.301 -0.0890 -0.0416  0.4660
   61MPD2    C5  933   0.177   4.554  14.325  0.1659 -1.1499  0.7231
   61MPD2     H  934   0.294   0.109  14.555  1.2447 -0.0302  0.4259
   61MPD2    H1  935   0.102   4.706  14.203 -0.1756 -1.2731  0.2160
   61MPD2    H2  936   0.261   4.424  14.470  1.6072 -0.5548 -1.3923
   61MPD2    H3  937   0.151   4.481  14.250  0.2086 -1.7002  1.2377
   61MPD2     N  938   0.146   0.206  14.361  0.6037  0.1277 -0.0213
   61MPD2    H5  939   0.177   0.276  14.427  0.7750  0.8489 -0.8720
   61MPD2    N1  940   0.319   4.606  14.660  0.9656  0.4654 -0.0840
   61MPD2    H7  941   0.336   4.693  14.709  0.4010  0.6651 -0.2440
   62TCq2    C1  942   0.315   4.492  14.740 -0.1279 -0.2758  0.3870
   62TCq2    O2  943   0.306   4.376  14.705  0.3360  0.3047  0.5301
   62TCq2    C2  944   0.296   4.521  14.878  0.0810  0.2406  0.0609
   62TCq2    C3  945   0.329   4.428  14.969 -0.1841 -0.8354  0.2358
   62TCq2    C4  946   0.312   4.457  15.097  1.0012  0.2689  1.2509
   62TCq2    C5  947   0.270   4.577  15.140  0.0088 -0.6192 -0.4857
   62TCq2    C6  948   0.237   4.673  15.044  0.3778 -0.2405  0.3087
   62TCq2    C7  949   0.246   4.640  14.913  0.4844  0.3121 -0.5365
   62TCq2    C8  950   0.175   0.074  15.077 -0.8717  0.5900 -0.0609
   62TCq2    O4  951   0.185   0.157  14.987  0.5081 -0.0899  0.2548
   62TCq2    C9  952   0.341   4.352  15.190  0.0127 -0.3982 -0.6621
   62TCq2    O5  953   0.398   4.248  15.149 -0.5690  0.5264  1.2199
   62TCq2    O6  954   0.321   4.373  15.310 -0.0928 -0.9316  0.6783
   62TCq2    H2  955   0.368   4.333  14.935  1.1312 -0.4948  0.8059
   62TCq2    H3  956   0.262   4.602  15.245 -1.2190  2.2196 -1.2654
   62TCq2    H4  957   0.188   4.693  14.839 -0.3791  2.2211  1.5165
   63TMC2    C1  958   0.418   0.626  10.772 -0.6396 -0.1730  0.3005
   63TMC2    C2  959   0.515   0.708  10.817  0.3660  0.4161  0.5118
   63TMC2    C3  960   0.578   0.790  10.732 -0.5018 -0.3553 -0.4027
   63TMC2    C4  961   0.379   0.639  10.640  0.1555 -0.6782  0.1506
   63TMC2    C5  962   0.437   0.734  10.560  0.5389 -0.4341  0.8277
   63TMC2    C6  963   0.546   0.806  10.600 -0.5536 -0.5205  0.9356
   63TMC2     C  964   0.329   0.551  10.859 -0.9858 -0.6730 -0.0862
   63TMC2     O  965   0.308   0.591  10.976  0.0873  0.3930  0.4344
   63TMC2     H  966   0.544   0.696  10.921  0.6210 -0.0332  0.3874
   63TMC2    H1  967   0.288   0.591  10.603 -0.0170 -1.6445  1.8124
   63TMC2    H2  968   0.595   0.881  10.538  0.7741 -0.7847  1.6825
   63TMC2    C7  969   0.374   0.755  10.430 -0.3968  0.0096 -0.7037
   63TMC2    C8  970   0.640   0.897  10.801  0.6735 -0.2315 -0.1821
   63TMC2    O1  971   0.293   0.670  10.395  0.3730  0.0744  0.3930
   63TMC2    O2  972   0.620   1.017  10.783 -0.1049  0.8424  0.2329
   63TMC2    O5  973   0.737   0.850  10.889  0.0304  0.3570  0.2575
   63TMC2    H5  974   0.754   0.754  10.873  0.8717  0.0584  2.8404
   64MPD2     C  975   4.680   0.194  10.882 -0.1608 -0.6303  0.1585
   64MPD2    C1  976   0.035   0.180  10.767 -0.3350 -0.2529 -0.0233
   64MPD2    C2  977   0.138   0.271  10.741 -0.6115 -0.0444  0.1506
   64MPD2    C3  978   0.172   0.375  10.834  0.2106  0.0963 -0.4333
   64MPD2    C4  979   0.109   0.372  10.957 -0.1931  0.1717 -0.6681
   64MPD2    C5  980   0.001   0.280  10.980 -0.4986  0.2140 -0.3455
   64MPD2     H  981   0.189   0.250  10.647  1.9799 -1.1181  1.8128
   64MPD2    H1  982   0.128   0.443  11.037  1.1051 -1.7591  0.7435
   64MPD2    H2  983   4.603   0.124  10.911 -0.7933 -0.1068 -0.2800
   64MPD2    H3  984   4.672   0.286  11.074 -1.2261 -1.3450 -0.6623
   64MPD2     N  985   0.270   0.455  10.788 -0.3642  0.1784 -0.2303
   64MPD2    H5  986   0.301   0.446  10.692  0.3989 -0.5278  0.0777
   64MPD2    N1  987   0.016   0.080  10.674 -0.0430 -0.1504 -0.1267
   64MPD2    H7  988   0.078   0.085  10.594  0.5173 -2.8831  0.1352
   65MPD2     C  989   0.918   4.468  15.779  0.2081 -0.0626  0.0059
   65MPD2    C1  990   0.912   4.450  15.638 -0.0149  0.6531 -0.1602
   65MPD2    C2  991   0.898   4.327  15.586 -0.6081 -0.5039 -0.0234
   65MPD2    C3  992   0.905   4.216  15.672  0.2079  0.6367  0.5690
   65MPD2    C4  993   0.912   4.232  15.806 -0.5430 -0.2766 -0.1865
   65MPD2    C5  994   0.916   4.358  15.856 -0.4841 -0.6219  0.3994
   65MPD2     H  995   0.871   4.311  15.482 -0.8135  0.4044 -0.1084
   65MPD2    H1  996   0.919   4.147  15.873 -2.7531 -0.4359 -0.1811
   65MPD2    H2  997   0.920   4.564  15.828  1.3309 -1.0473  1.8726
   65MPD2    H3  998   0.912   4.365  15.964 -0.9911 -0.5260  0.3773
   65MPD2     N  999   0.906   4.083  15.617 -0.2282  0.5390  0.3032
   65MPD2    H5 1000   0.910   4.002  15.679 -0.0249  0.5135  0.2545
   65MPD2    N1 1001   0.918   4.559  15.554 -0.2267 -0.1426  0.2376
   65MPD2    H7 1002   0.905   4.537  15.456 -0.6637  1.2158 -0.0132
   66TCq2    C1 1003   0.895   4.690  15.581 -0.6536 -0.3418  0.0010
   66TCq2    O2 1004   0.861   0.019  15.685  0.5684  0.1442 -0.2075
   66TCq2    C2 1005   0.915   0.047  15.458 -0.7419  0.0364 -0.5958
   66TCq2    C3 1006   0.973   4.714  15.348  0.9518  0.4186  0.2891
   66TCq2    C4 1007   0.963   0.054  15.225  0.4571  0.4984 -0.5295
   66TCq2    C5 1008   0.890   0.171  15.213 -1.0321  0.2611  0.1131
   66TCq2    C6 1009   0.841   0.230  15.326 -0.3453 -0.1140  0.0364
   66TCq2    C7 1010   0.852   0.170  15.446  0.1654 -0.4213 -0.2421
   66TCq2    C8 1011   0.800   0.369  15.314  0.3133  0.3143 -0.0440
   66TCq2    O4 1012   0.818   0.423  15.207  0.0399 -0.7241 -0.0370
   66TCq2    C9 1013   1.017   4.713  15.111 -0.0059  0.7642 -0.5152
   66TCq2    O5 1014   0.998   0.050  15.006  0.1739 -0.1356 -0.5446
   66TCq2    O6 1015   1.114   4.625  15.138  0.1271  0.3980  0.2746
   66TCq2    H2 1016   1.026   4.619  15.341 -0.9407 -0.5004 -1.7545
   66TCq2    H3 1017   0.874   0.216  15.116  0.8152  0.0571 -0.2910
   66TCq2    H4 1018   0.807   0.209  15.537  1.8571 -1.9241  1.2478
   67MPD2     C 1019   1.102   3.817  14.221  0.0146  0.7157 -0.2058
   67MPD2    C1 1020   1.022   3.901  14.304 -0.2293 -0.0987  0.3673
   67MPD2    C2 1021   0.883   3.893  14.288 -0.0579  0.0549  1.1474
   67MPD2    C3 1022   0.822   3.826  14.190  0.2481  0.3458 -0.1141
   67MPD2    C4 1023   0.907   3.764  14.097 -0.7160  0.1788  0.3856
   67MPD2    C5 1024   1.042   3.763  14.110  0.6456  0.0211 -0.8869
   67MPD2     H 1025   0.827   3.952  14.360 -0.9940 -1.7340  1.9044
   67MPD2    H1 1026   0.865   3.709  14.014 -1.9830  0.0821  1.0808
   67MPD2    H2 1027   1.210   3.826  14.217  0.1280 -0.2052  0.8193
   67MPD2    H3 1028   1.101   3.716  14.032  0.3740 -0.2254 -0.9474
   67MPD2     N 1029   0.681   3.831  14.170 -0.1735  0.4708 -0.0862
   67MPD2    H5 1030   0.644   3.801  14.080 -1.3745  0.4509  0.4004
   67MPD2    N1 1031   1.074   4.000  14.389  0.1008 -0.2057  0.6202
   67MPD2    H7 1032   1.007   4.054  14.442  0.1463  1.0216 -0.5580
   68TCq2    C1 1033   1.201   4.030  14.406  0.4994 -0.1619  0.5388
   68TCq2    O2 1034   1.306   3.975  14.370  0.1043  0.2991 -0.2671
   68TCq2    C2 1035   1.214   4.141  14.497 -0.4017 -0.2543 -0.8599
   68TCq2    C3 1036   1.105   4.230  14.518 -0.1768  0.4416  0.7756
   68TCq2    C4 1037   1.130   4.320  14.625 -0.6107  0.0211 -0.0921
   68TCq2    C5 1038   1.251   4.335  14.691 -0.1179  0.1168  0.3981
   68TCq2    C6 1039   1.352   4.252  14.650 -0.6473 -0.2967 -0.2964
   68TCq2    C7 1040   1.335   4.154  14.560  0.0773 -0.3712 -0.0266
   68TCq2    C8 1041   1.470   4.246  14.735 -0.3508 -0.8388 -0.6813
   68TCq2    O4 1042   1.560   4.179  14.695 -0.1117 -0.3661 -0.0083
   68TCq2    C9 1043   1.042   4.427  14.644 -0.3332  0.0502 -0.2140
   68TCq2    O5 1044   0.963   4.457  14.549  0.7825  0.4322 -0.1240
   68TCq2    O6 1045   1.035   4.475  14.759  0.2175  0.3018 -0.1806
   68TCq2    H2 1046   1.017   4.233  14.456 -0.6187 -0.7642  1.3502
   68TCq2    H3 1047   1.270   4.423  14.753  0.2723  0.7231 -0.5886
   68TCq2    H4 1048   1.421   4.100  14.522 -0.2525 -0.8073 -0.1495
   69TMC2    C1 1049   2.655   0.615  12.210 -0.4647 -0.8262 -0.4334
   69TMC2    C2 1050   2.526   0.652  12.232 -0.1933  0.0411 -0.2524
   69TMC2    C3 1051   2.459   0.715  12.132 -0.5424 -0.4466  0.2828
   69TMC2    C4 1052   2.727   0.652  12.098  0.5133  0.2413  0.0176
   69TMC2    C5 1053   2.652   0.712  12.000 -0.4843 -0.4900  0.3112
   69TMC2    C6 1054   2.522   0.745  12.012  0.0859 -0.5521  0.0442
   69TMC2     C 1055   2.724   0.530  12.306  0.0994 -0.4120  0.1298
   69TMC2     O 1056   2.658   0.446  12.365 -0.0007 -0.1532 -0.0800
   69TMC2     H 1057   2.469   0.601  12.309 -0.5884  1.1221  0.1779
   69TMC2    H1 1058   2.830   0.620  12.087  1.1859  1.2815  3.3672
   69TMC2    H2 1059   2.471   0.798  11.933  0.2536 -0.4332  0.0151
   69TMC2    C7 1060   2.725   0.770  11.883  0.2460  0.8584 -0.5821
   69TMC2    C8 1061   2.332   0.774  12.145  0.0130  0.2581 -0.7521
   69TMC2    O1 1062   2.842   0.792  11.912 -0.7324 -0.1233 -0.6455
   69TMC2    O2 1063   2.273   0.833  12.051 -0.3231  0.3839 -0.3671
   69TMC2    O5 1064   2.306   0.806  12.272  0.1643 -0.3303 -0.1249
   69TMC2    H5 1065   2.368   0.765  12.336 -0.3205 -2.1616 -0.8121
   70MPD2     C 1066   3.079   0.579  12.408  0.1894 -0.0650 -0.2276
   70MPD2    C1 1067   2.952   0.522  12.416 -0.5371  0.1960 -0.6124
   70MPD2    C2 1068   2.922   0.423  12.506  0.4460 -0.2758  1.0076
   70MPD2    C3 1069   3.025   0.376  12.589  0.3608  1.1572 -0.1045
   70MPD2    C4 1070   3.145   0.448  12.598 -0.1022 -0.5580 -0.6382
   70MPD2    C5 1071   3.169   0.549  12.507 -1.1118 -0.1901 -0.5886
   70MPD2     H 1072   2.828   0.369  12.508  0.7184 -0.6845  2.6684
   70MPD2    H1 1073   3.210   0.424  12.681 -0.4641  0.6043 -0.0125
   70MPD2    H2 1074   3.106   0.663  12.344  0.9423 -0.7640 -0.8103
   70MPD2    H3 1075   3.261   0.605  12.499 -1.3130 -0.2290 -3.3511
   70MPD2     N 1076   3.018   0.262  12.670  1.0192  0.0406 -0.2427
   70MPD2    H5 1077   3.102   0.246  12.724  1.3520 -4.0181 -1.9289
   70MPD2    N1 1078   2.855   0.572  12.322 -0.2942 -0.0290  0.1261
   70MPD2    H7 1079   2.889   0.649  12.265 -1.6069  2.4373  2.6786
   71TMC2    C1 1080   1.454   1.235   2.268  0.1365  0.3538 -0.1444
   71TMC2    C2 1081   1.567   1.261   2.346  0.3539  0.1781 -0.6623
   71TMC2    C3 1082   1.577   1.185   2.458  0.0277 -0.4378 -0.3983
   71TMC2    C4 1083   1.361   1.135   2.294 -0.4008 -0.1798 -0.2603
   71TMC2    C5 1084   1.379   1.071   2.412 -0.0569  0.3538  0.1287
   71TMC2    C6 1085   1.488   1.086   2.493 -0.1192  0.7396 -0.1346
   71TMC2     C 1086   1.454   1.281   2.128 -0.2686 -0.1121  0.3309
   71TMC2     O 1087   1.356   1.244   2.063  0.0863  0.4876  0.5278
   71TMC2     H 1088   1.632   1.345   2.324 -0.0007  0.5589 -0.2661
   71TMC2    H1 1089   1.276   1.120   2.229 -1.0610  1.0852  0.3058
   71TMC2    H2 1090   1.495   1.022   2.580  1.7940  1.6817  0.3958
   71TMC2    C7 1091   1.305   0.943   2.438  0.0327 -0.0978  0.4661
   71TMC2    C8 1092   1.698   1.204   2.535  0.4108  0.3174 -0.5520
   71TMC2    O1 1093   1.331   0.889   2.546  0.5054  0.2228 -0.4435
   71TMC2    O2 1094   1.794   1.257   2.481  0.7737  0.4498 -0.0791
   71TMC2    O5 1095   1.707   1.125   2.648  1.0070 -0.4638  0.0066
   71TMC2    H5 1096   1.628   1.069   2.665 -0.2935  1.7298  1.2274
   72MPD2     C 1097   1.675   1.539   1.744  0.1655  0.4370 -0.7312
   72MPD2    C1 1098   1.567   1.460   1.741 -0.1424  0.3994  0.7761
   72MPD2    C2 1099   1.522   1.403   1.859 -0.5380 -0.0277  0.8687
   72MPD2    C3 1100   1.605   1.411   1.970 -0.0803 -0.1024  0.4733
   72MPD2    C4 1101   1.701   1.505   1.975 -0.2090 -0.8043 -0.6001
   72MPD2    C5 1102   1.738   1.565   1.861 -0.5202 -0.2573  0.1001
   72MPD2     H 1103   1.424   1.358   1.864  0.1495 -1.5213  0.7047
   72MPD2    H1 1104   1.768   1.519   2.060 -0.9969  2.0223 -0.4411
   72MPD2    H2 1105   1.714   1.593   1.659  1.7076 -0.7233 -0.7751
   72MPD2    H3 1106   1.827   1.627   1.859 -0.0730 -0.9070 -0.2673
   72MPD2     N 1107   1.568   1.360   2.098 -0.4194 -0.7175 -1.1424
   72MPD2    H5 1108   1.639   1.363   2.171 -2.2229 -0.7717  0.6228
   72MPD2    N1 1109   1.495   1.430   1.621 -0.8150  0.9505  0.0600
   72MPD2    H7 1110   1.401   1.392   1.623  0.1562 -1.5035 -0.2384
   73TMC2    C1 1111   4.715   2.614  13.796  0.3526  1.0341 -0.7512
   73TMC2    C2 1112   4.604   2.549  13.840 -1.1103  0.7541 -0.6814
   73TMC2    C3 1113   4.615   2.431  13.910 -0.1568  0.5425 -0.2229
   73TMC2    C4 1114   0.111   2.559  13.825 -0.8220  0.2531  0.3244
   73TMC2    C5 1115   0.117   2.447  13.898 -0.1571  0.1251  0.5899
   73TMC2    C6 1116   0.011   2.375  13.938  0.0526 -0.0418  0.0581
   73TMC2     C 1117   4.709   2.742  13.721  0.1643  0.2365  0.1407
   73TMC2     O 1118   4.601   2.777  13.668 -0.1533  0.3162 -0.4589
   73TMC2     H 1119   4.508   2.592  13.814 -0.2917  0.5902 -4.0039
   73TMC2    H1 1120   0.199   2.592  13.771 -2.6571  1.5640 -1.8612
   73TMC2    H2 1121   0.018   2.281  13.993 -0.3626 -0.8756 -1.3088
   73TMC2    C7 1122   0.253   2.408  13.944 -0.1531  0.9600  0.7481
   73TMC2    C8 1123   4.491   2.357  13.920  0.2207 -0.1903  0.3531
   73TMC2    O1 1124   0.263   2.293  13.993 -0.5718 -0.6289 -0.7882
   73TMC2    O2 1125   4.385   2.405  13.896 -0.6476  0.4371 -0.1837
   73TMC2    O5 1126   4.518   2.224  13.920 -0.0580 -0.0908  0.2176
   73TMC2    H5 1127   4.609   2.193  13.899 -0.7307 -0.8901 -1.4412
   74MPD2     C 1128   0.278   3.098  13.481  0.2141 -0.7529  0.0085
   74MPD2    C1 1129   0.348   3.043  13.589 -0.0922 -0.3593 -0.4698
   74MPD2    C2 1130   0.282   2.951  13.666 -0.0705  0.6630 -0.8551
   74MPD2    C3 1131   0.153   2.911  13.648  0.7965 -1.0091  0.1837
   74MPD2    C4 1132   0.087   2.959  13.538 -0.8303  0.4621 -0.9137
   74MPD2    C5 1133   0.152   3.048  13.457  0.2199  0.4630 -0.6625
   74MPD2     H 1134   0.331   2.904  13.750  1.4269  1.8808 -1.0449
   74MPD2    H1 1135   4.711   2.930  13.510 -0.9783 -0.1386  0.2463
   74MPD2    H2 1136   0.334   3.153  13.407 -1.1783 -0.7044 -0.9980
   74MPD2    H3 1137   0.099   3.088  13.371 -0.4724  0.0573 -0.4223
   74MPD2     N 1138   0.103   2.810  13.731  0.0352 -0.4814 -0.1805
   74MPD2    H5 1139   0.167   2.767  13.796 -0.4442  0.7067  1.0707
   74MPD2    N1 1140   0.484   3.079  13.612 -0.2012 -0.4799  0.3973
   74MPD2    H7 1141   0.526   3.143  13.545 -0.6981 -0.2223  0.3366
   75TCq2    C1 1142   0.592   3.879  14.261  0.8397 -0.3080 -0.7550
   75TCq2    O2 1143   0.599   3.890  14.381 -0.0187 -0.1035 -0.4011
   75TCq2    C2 1144   0.464   3.916  14.200 -0.5466  0.2764  0.5021
   75TCq2    C3 1145   0.398   4.006  14.279 -0.3248 -0.2204 -0.1045
   75TCq2    C4 1146   0.322   4.100  14.213  0.5267  0.4548 -0.0065
   75TCq2    C5 1147   0.289   4.081  14.081 -0.0622 -0.6855  0.5057
   75TCq2    C6 1148   0.344   3.978  14.010 -0.0897  0.1721 -0.0879
   75TCq2    C7 1149   0.447   3.910  14.065 -0.1084  0.1224 -0.9676
   75TCq2    C8 1150   0.339   3.981  13.869 -0.1261 -0.8400  0.0715
   75TCq2    O4 1151   0.395   3.888  13.810  0.2581 -0.0924 -0.4898
   75TCq2    C9 1152   0.237   4.194  14.286 -0.0606 -0.2186 -0.7232
   75TCq2    O5 1153   0.132   4.222  14.223  0.2283  0.1123  0.0860
   75TCq2    O6 1154   0.256   4.207  14.410  0.0596 -0.3472  0.3838
   75TCq2    H2 1155   0.413   4.021  14.385 -0.1273 -0.8345 -0.0456
   75TCq2    H3 1156   0.222   4.152  14.035 -0.5507 -2.2659 -1.2558
   75TCq2    H4 1157   0.508   3.841  14.008  0.3625 -0.2433 -0.0066
   76MPD2     C 1158   3.453   0.344  11.952 -0.1483 -0.0131  0.2890
   76MPD2    C1 1159   3.554   0.387  11.876  0.4504  0.0413 -0.5895
   76MPD2    C2 1160   3.682   0.359  11.912  1.1196 -0.9212  0.8134
   76MPD2    C3 1161   3.714   0.261  12.008  0.7514 -0.1366  0.4259
   76MPD2    C4 1162   3.615   0.213  12.081  0.3616  0.5374  0.5740
   76MPD2    C5 1163   3.490   0.261  12.059 -0.3229  0.7443  0.0749
   76MPD2     H 1164   3.759   0.392  11.844  0.9475 -0.1942  0.9735
   76MPD2    H1 1165   3.633   0.144  12.163  0.5238 -0.9668 -0.7297
   76MPD2    H2 1166   3.346   0.358  11.943 -0.0782  2.5945  3.4303
   76MPD2    H3 1167   3.406   0.217  12.113 -1.3689  1.9026 -0.6086
   76MPD2     N 1168   3.842   0.232  12.048 -0.6006 -0.3233  0.0549
   76MPD2    H5 1169   3.857   0.158  12.115  0.5334 -1.6451 -1.6744
   76MPD2    N1 1170   3.529   0.467  11.764  0.2681  0.2140 -0.1915
   76MPD2    H7 1171   3.608   0.502  11.711  0.6690  0.1289  0.3505
   77TCq2    C1 1172   3.957   0.269  11.971 -0.2601  0.3322 -0.0592
   77TCq2    O2 1173   3.967   0.328  11.863  0.0919  0.0325  0.1874
   77TCq2    C2 1174   4.076   0.197  12.024  0.2924 -0.0137  0.1145
   77TCq2    C3 1175   4.197   0.240  11.990  0.0848  0.6708  0.1999
   77TCq2    C4 1176   4.307   0.188  12.055 -0.7161  0.4102  0.1898
   77TCq2    C5 1177   4.302   0.084  12.139  0.3551 -0.5579  0.1876
   77TCq2    C6 1178   4.178   0.036  12.165  0.4392 -1.0584 -0.3193
   77TCq2    C7 1179   4.062   0.095  12.116  0.1315 -0.0013  0.6734
   77TCq2    C8 1180   4.171   4.665  12.279 -0.2613  0.0090 -0.0416
   77TCq2    O4 1181   4.081   4.579  12.280  0.4604 -0.2771  0.2909
   77TCq2    C9 1182   4.437   0.242  12.024  0.8315  0.2113  0.8162
   77TCq2    O5 1183   4.450   0.322  11.924  0.1639 -0.3430  0.3182
   77TCq2    O6 1184   4.531   0.201  12.090  0.2264 -0.4880  0.0799
   77TCq2    H2 1185   4.213   0.325  11.926  0.1200  1.3778  1.1441
   77TCq2    H3 1186   4.396   0.035  12.164  0.4615 -1.2502 -1.5579
   77TCq2    H4 1187   3.968   0.053  12.150  0.5574 -1.0798  0.5285
   78MPD1     C 1188   0.097   4.546  17.694 -0.3014 -0.0026  0.0973
   78MPD1    C1 1189   0.231   4.526  17.697 -0.6278  0.3547 -0.1810
   78MPD1    C2 1190   0.299   4.547   0.121  0.0566  0.2017 -0.2123
   78MPD1    C3 1191   0.234   4.604   0.233 -0.0099  0.2963 -0.5352
   78MPD1    C4 1192   0.098   4.633   0.223 -0.4833 -1.1381 -0.4666
   78MPD1    C5 1193   0.033   4.609   0.099 -0.1501  0.0580  0.1961
   78MPD1     H 1194   0.403   4.517   0.124  0.3045  1.0188 -0.8262
   78MPD1    H1 1195   0.039   4.680   0.300  2.1304 -0.2205  0.9836
   78MPD1    H2 1196   0.039   4.524  17.605  0.9761  0.5114 -0.8715
   78MPD1    H3 1197   4.653   4.635   0.089  0.2044  1.8001  0.9605
   78MPD1     N 1198   0.302   4.640   0.346  0.3732  0.7639  0.1743
   78MPD1    H5 1199   0.256   4.680   0.428  2.6997  1.2865  1.2082
   78MPD1    N1 1200   0.280   4.446  17.598  0.3383  0.1174 -0.3472
   78MPD1    H6 1201   0.232   4.463  17.510  0.2268  0.2275 -0.2641
   78MPD1    H7 1202   0.382   4.452  17.594  0.4039 -0.7927 -0.0700
   79TCq2    C1 1203   0.441   4.644   0.357 -0.4164  0.0740 -0.4738
   79TCq2    O2 1204   0.529   4.610   0.278 -0.8218  0.0425  0.6507
   79TCq2    C2 1205   0.478   4.664   0.499  0.1271  0.1244  0.7500
   79TCq2    C3 1206   0.384   4.651   0.597  0.6827 -0.8365 -1.3215
   79TCq2    C4 1207   0.414   4.709   0.717  0.2470  0.1220  0.0060
   79TCq2    C5 1208   0.534   0.054   0.737  0.1880 -0.7094 -0.0466
   79TCq2    C6 1209   0.633   0.054   0.638  0.0016  0.0753 -0.3368
   79TCq2    C7 1210   0.600   4.723   0.515 -0.4821  0.2160  0.1200
   79TCq2    C8 1211   0.778   0.103   0.676 -0.9169 -0.0707  0.0173
   79TCq2    O4 1212   0.797   0.153   0.784 -0.1714  0.0875 -0.2747
   79TCq2    C9 1213   0.316   4.715   0.823  0.2262  0.0343 -0.1141
   79TCq2    O5 1214   0.366   0.012   0.936 -0.4500  0.3559 -0.3674
   79TCq2    O6 1215   0.197   4.668   0.807 -0.1732  0.3333  0.2477
   79TCq2    H2 1216   0.292   4.596   0.580 -1.0175  1.2556  1.1085
   79TCq2    H3 1217   0.535   0.119   0.824 -0.1966  0.7483 -1.1299
   79TCq2    H4 1218   0.660   0.029   0.429  1.3038 -0.1811  1.2394
   80MPD2     C 1219   3.536   4.058  12.288  0.8730  0.0838  0.1781
   80MPD2    C1 1220   3.477   4.120  12.184 -0.6898  0.1643  0.3040
   80MPD2    C2 1221   3.344   4.160  12.189  0.5283  0.1092  0.4282
   80MPD2    C3 1222   3.259   4.113  12.287  0.1418  0.4336  0.0105
   80MPD2    C4 1223   3.324   4.060  12.394 -1.2124  0.4372 -1.3620
   80MPD2    C5 1224   3.457   4.038  12.395 -0.6416 -0.3980 -0.6440
   80MPD2     H 1225   3.300   4.208  12.102 -0.5858  1.5950  1.8236
   80MPD2    H1 1226   3.281   4.012  12.481 -0.7161  0.4736 -1.0983
   80MPD2    H2 1227   3.633   4.009  12.288  0.6891 -0.2771  0.2982
   80MPD2    H3 1228   3.504   3.985  12.477  1.4037 -0.0313 -1.5788
   80MPD2     N 1229   3.122   4.140  12.302 -0.1170  0.5116 -0.3607
   80MPD2    H5 1230   3.076   4.096  12.381 -1.7400 -0.0415 -1.6080
   80MPD2    N1 1231   3.541   4.146  12.062 -0.3723  0.2601  0.0534
   80MPD2    H7 1232   3.486   4.197  11.993  0.8205  0.8060 -0.4886
   81TCq2    C1 1233   3.673   4.125  12.038  0.5350  0.2110  0.2183
   81TCq2    O2 1234   3.761   4.091  12.120  0.5946  0.1800 -0.1698
   81TCq2    C2 1235   3.705   4.132  11.902  0.1365 -0.0831  0.7220
   81TCq2    C3 1236   3.835   4.152  11.862 -0.3280 -0.0268  0.3334
   81TCq2    C4 1237   3.879   4.116  11.729  0.8466  0.4930 -0.3070
   81TCq2    C5 1238   3.783   4.079  11.641  0.5693 -0.0429  0.4421
   81TCq2    C6 1239   3.656   4.049  11.686  0.0145 -0.7568 -0.4704
   81TCq2    C7 1240   3.615   4.075  11.813 -0.0353 -0.2509  0.0478
   81TCq2    C8 1241   3.582   3.953  11.601  0.2918 -0.8933  0.4010
   81TCq2    O4 1242   3.622   3.924  11.490  0.0419  0.6212 -0.1758
   81TCq2    C9 1243   4.013   4.152  11.681  0.2534  0.5795 -0.4256
   81TCq2    O5 1244   4.039   4.162  11.558  0.1303 -0.0413 -0.2014
   81TCq2    O6 1245   4.088   4.198  11.777  0.2915 -0.1723 -0.3546
   81TCq2    H2 1246   3.910   4.194  11.927 -0.7942 -0.9145  1.4437
   81TCq2    H3 1247   3.810   4.065  11.537  0.3811  1.1996  0.2252
   81TCq2    H4 1248   3.511   4.056  11.836 -0.0960 -0.1953 -0.1828
   82MPD2     C 1249   2.083   3.728  10.787 -0.4882 -0.3418  0.1325
   82MPD2    C1 1250   1.997   3.636  10.844  0.9045 -0.3531 -0.3665
   82MPD2    C2 1251   2.053   3.509  10.880  0.1452 -0.1899  0.2922
   82MPD2    C3 1252   2.189   3.486  10.865  0.2254 -0.2095  0.0272
   82MPD2    C4 1253   2.272   3.586  10.821 -0.1939 -0.1561 -0.3427
   82MPD2    C5 1254   2.219   3.705  10.771  0.2883 -0.0496 -0.4390
   82MPD2     H 1255   1.984   3.432  10.910  0.3261 -0.8412 -0.9469
   82MPD2    H1 1256   2.379   3.569  10.816 -0.0781  0.2730  0.7766
   82MPD2    H2 1257   2.054   3.827  10.757 -1.6485 -0.0393  2.2555
   82MPD2    H3 1258   2.276   3.782  10.721 -0.4749  0.7576 -0.0540
   82MPD2     N 1259   2.251   3.364  10.892 -0.0958 -0.8349 -0.2722
   82MPD2    H5 1260   2.341   3.353  10.846  0.0964 -2.0652  0.3933
   82MPD2    N1 1261   1.861   3.671  10.855 -0.0438 -0.3176  0.0426
   82MPD2    H7 1262   1.835   3.767  10.833 -0.6845 -0.5762 -0.3148
   83TCq2    C1 1263   2.202   3.257  10.965  0.0372  0.0510  0.4864
   83TCq2    O2 1264   2.256   3.146  10.973 -0.1508 -0.0457  0.4445
   83TCq2    C2 1265   2.108   3.286  11.068  0.0055 -0.1294 -0.0627
   83TCq2    C3 1266   2.148   3.377  11.162  1.1247 -0.3693  0.2400
   83TCq2    C4 1267   2.060   3.406  11.265 -0.3934  0.6411 -0.5052
   83TCq2    C5 1268   1.945   3.331  11.285  0.3981 -0.5513 -0.8115
   83TCq2    C6 1269   1.922   3.229  11.198 -0.5237 -0.1463  0.4095
   83TCq2    C7 1270   2.003   3.201  11.093 -0.3121  0.2766 -0.2861
   83TCq2    C8 1271   1.801   3.150  11.225 -0.1724  0.2182 -0.3120
   83TCq2    O4 1272   1.747   3.170  11.336  0.2054  0.0722 -0.4052
   83TCq2    C9 1273   2.092   3.514  11.352 -0.2493  0.2010  0.6541
   83TCq2    O5 1274   2.217   3.527  11.386 -0.9608 -0.0593 -0.4637
   83TCq2    O6 1275   1.996   3.573  11.409  0.2670  0.2239  0.5074
   83TCq2    H2 1276   2.240   3.434  11.153 -0.4176  2.0626 -0.0223
   83TCq2    H3 1277   1.878   3.359  11.365  0.4287  0.2405 -1.0544
   83TCq2    H4 1278   1.986   3.118  11.026 -2.1744  1.0756 -0.8199
   84TCq2    C1 1279   3.024   2.768  10.358  0.0855 -0.4113  0.0019
   84TCq2    O2 1280   2.938   2.682  10.348 -0.1842 -0.0796  0.5976
   84TCq2    C2 1281   3.075   2.797  10.490 -0.0936 -0.3964 -0.5335
   84TCq2    C3 1282   3.182   2.882  10.504 -0.4009 -0.0984 -0.5527
   84TCq2    C4 1283   3.210   2.927  10.633  1.0222  0.3787  0.1084
   84TCq2    C5 1284   3.115   2.917  10.730  0.0674  0.0648  0.1913
   84TCq2    C6 1285   3.001   2.846  10.708 -0.0775 -0.4291 -0.9989
   84TCq2    C7 1286   2.981   2.789  10.590 -0.3058  0.2486  0.1303
   84TCq2    C8 1287   2.902   2.851  10.818  0.6395 -1.0307  0.3574
   84TCq2    O4 1288   2.921   2.944  10.896 -0.2629 -0.0329 -0.3158
   84TCq2    C9 1289   3.331   3.007  10.646  0.7638 -0.5452  0.7499
   84TCq2    O5 1290   3.357   3.076  10.749  0.3498 -0.5091 -0.9308
   84TCq2    O6 1291   3.385   3.022  10.531 -0.1335  0.3862  0.4984
   84TCq2    H2 1292   3.261   2.875  10.430 -1.2423  1.1967 -1.5823
   84TCq2    H3 1293   3.135   2.953  10.830 -0.4589 -0.3502  0.4468
   84TCq2    H4 1294   2.885   2.748  10.559 -1.3905  2.0016  1.2153
   85MPD2     C 1295   2.758   0.534  16.129 -0.3740  0.7699 -1.0444
   85MPD2    C1 1296   2.652   0.504  16.053  0.2220 -0.4077 -0.1195
   85MPD2    C2 1297   2.632   0.569  15.928 -0.6527  1.0180  1.7049
   85MPD2    C3 1298   2.724   0.665  15.884  0.6156 -0.7238 -0.4046
   85MPD2    C4 1299   2.824   0.692  15.972  0.0134  0.5337  0.3374
   85MPD2    C5 1300   2.853   0.617  16.082  0.1441 -0.7759 -1.3403
   85MPD2     H 1301   2.540   0.552  15.874 -0.7271  1.2387  1.7628
   85MPD2    H1 1302   2.903   0.761  15.944 -0.8920  0.7615 -1.6383
   85MPD2    H2 1303   2.764   0.493  16.229  2.3662  2.0172 -0.7035
   85MPD2    H3 1304   2.939   0.650  16.139  0.1790 -2.2532 -0.5328
   85MPD2     N 1305   2.704   0.721  15.760 -0.0240  0.8058  0.5824
   85MPD2    H5 1306   2.615   0.706  15.714  0.3518 -3.1396  1.1279
   85MPD2    N1 1307   2.549   0.410  16.084 -0.1210 -0.2968 -0.2358
   85MPD2    H7 1308   2.486   0.378  16.011 -1.8449  0.8204  0.7541
   86TCq2    C1 1309   2.800   0.792  15.690 -1.4791  0.3227  0.9824
   86TCq2    O2 1310   2.912   0.825  15.721 -0.7088  0.0759 -0.0150
   86TCq2    C2 1311   2.742   0.855  15.573 -0.4363  0.1845  0.5945
   86TCq2    C3 1312   2.646   0.788  15.502 -0.9478  0.1413  0.1704
   86TCq2    C4 1313   2.626   0.827  15.373  0.7050 -0.2527  0.0507
   86TCq2    C5 1314   2.705   0.918  15.304  0.0686 -0.7221  0.0072
   86TCq2    C6 1315   2.805   0.978  15.380 -0.1582 -0.7453 -0.2872
   86TCq2    C7 1316   2.825   0.941  15.514  0.1722 -0.0329 -0.0599
   86TCq2    C8 1317   2.927   1.035  15.318  0.8226 -0.4211 -0.2847
   86TCq2    O4 1318   3.037   1.027  15.376 -0.7974  0.2606 -0.0411
   86TCq2    C9 1319   2.512   0.775  15.305  0.0255 -0.2923 -0.2359
   86TCq2    O5 1320   2.473   0.842  15.205  0.3259 -0.1222 -0.0568
   86TCq2    O6 1321   2.459   0.671  15.356 -0.1105  0.4650  0.3261
   86TCq2    H2 1322   2.590   0.702  15.537  0.0521 -0.7246 -0.3565
   86TCq2    H3 1323   2.678   0.944  15.203  1.2152 -1.4581 -0.4786
   86TCq2    H4 1324   2.900   0.996  15.570  0.1901  0.2115 -0.3219
   87MPD2     C 1325   3.830   4.096   0.246  0.4416 -0.7605 -0.2592
   87MPD2    C1 1326   3.950   4.038   0.209  0.6811  0.7600 -0.3305
   87MPD2    C2 1327   3.991   4.046   0.077 -0.1636  0.4138  0.7175
   87MPD2    C3 1328   3.918   4.109  17.680 -0.0050  0.2946 -1.0021
   87MPD2    C4 1329   3.794   4.171   0.021  0.4720  0.0804  0.0034
   87MPD2    C5 1330   3.750   4.160   0.152 -0.7652  0.1520  0.1853
   87MPD2     H 1331   4.083   3.998   0.045 -0.2736  0.7110 -0.0303
   87MPD2    H1 1332   3.734   4.230  17.652  0.3518 -0.0203  0.0226
   87MPD2    H2 1333   3.790   4.087   0.347  1.7548 -0.6994  0.2667
   87MPD2    H3 1334   3.658   4.203   0.191 -2.6269 -2.0109 -1.7896
   87MPD2     N 1335   3.971   4.141  17.550 -0.1559  0.3045  0.9687
   87MPD2    H5 1336   3.922   4.211  17.496 -0.4945  1.7365  3.1129
   87MPD2    N1 1337   4.033   3.986   0.313  0.7046  0.6021 -0.2516
   87MPD2    H7 1338   3.984   3.973   0.401  0.4168  0.5960 -0.4133
   88TCq2    C1 1339   4.172   3.963   0.294  0.3402 -0.1415  0.6087
   88TCq2    O2 1340   4.238   3.998   0.199  0.4035  0.7813 -0.4937
   88TCq2    C2 1341   4.234   3.904   0.418 -0.4953 -0.8217 -0.7185
   88TCq2    C3 1342   4.162   3.888   0.537 -0.4509  0.1124 -0.0031
   88TCq2    C4 1343   4.240   3.878   0.650 -0.0131 -0.1406  0.4275
   88TCq2    C5 1344   4.377   3.877   0.649 -0.7156 -0.5130  0.4994
   88TCq2    C6 1345   4.442   3.892   0.529  0.1570  0.2459  0.4963
   88TCq2    C7 1346   4.369   3.905   0.412  0.1232 -0.1757  1.0361
   88TCq2    C8 1347   4.585   3.868   0.500 -0.4217  0.8561  0.0698
   88TCq2    O4 1348   4.630   3.884   0.386  0.3312  0.0571 -0.6494
   88TCq2    C9 1349   4.171   3.855   0.777  0.2433  0.6099  0.0340
   88TCq2    O5 1350   4.050   3.835   0.772  0.2074 -0.0122 -0.9121
   88TCq2    O6 1351   4.238   3.865   0.886  0.1826  0.1369 -0.2992
   88TCq2    H2 1352   4.054   3.878   0.539 -0.2477 -1.8786  0.8637
   88TCq2    H3 1353   4.429   3.855   0.742 -0.1772 -0.8154  0.1201
   88TCq2    H4 1354   4.420   3.906   0.316 -1.7316  0.0002  0.0455
   89MPD2     C 1355   1.877   1.759   2.357  0.1726 -0.4381  0.0325
   89MPD2    C1 1356   1.808   1.836   2.263 -0.2736 -0.5894 -0.5375
   89MPD2    C2 1357   1.869   1.951   2.234 -0.3212  0.0584 -0.5162
   89MPD2    C3 1358   1.980   2.002   2.292 -0.0323 -0.2620  0.1486
   89MPD2    C4 1359   2.035   1.934   2.398 -0.5114  0.2126  0.0764
   89MPD2    C5 1360   1.990   1.804   2.423  0.2490  0.2236 -0.0949
   89MPD2     H 1361   1.830   2.011   2.152  0.6373  1.8945  0.3698
   89MPD2    H1 1362   2.110   1.963   2.471 -1.1817  2.5797 -0.1629
   89MPD2    H2 1363   1.833   1.663   2.377 -2.5915  0.6278 -0.9832
   89MPD2    H3 1364   2.038   1.758   2.509  0.2804  0.3997 -0.0181
   89MPD2     N 1365   2.032   2.125   2.240 -0.0407 -0.1797  0.3583
   89MPD2    H5 1366   1.975   2.181   2.178 -0.9362 -0.9988  0.4546
   89MPD2    N1 1367   1.695   1.797   2.184  0.1260  0.1617 -0.3773
   89MPD2    H7 1368   1.662   1.865   2.116  0.5961  0.5544 -0.2152
   90TCq2    C1 1369   2.156   2.175   2.279 -0.2677  0.3076 -0.2529
   90TCq2    O2 1370   2.247   2.126   2.342  0.0075 -0.0387  0.2748
   90TCq2    C2 1371   2.173   2.300   2.208 -0.0825 -0.9267 -1.2332
   90TCq2    C3 1372   2.305   2.347   2.193 -0.1090  0.7368 -0.5260
   90TCq2    C4 1373   2.331   2.437   2.093  0.3900  0.1455  0.2194
   90TCq2    C5 1374   2.234   2.473   2.005  0.2860 -0.1488 -0.3067
   90TCq2    C6 1375   2.102   2.428   2.023 -0.2668  0.0660  0.1088
   90TCq2    C7 1376   2.069   2.339   2.122  0.7296  0.2219 -0.2980
   90TCq2    C8 1377   2.004   2.458   1.919  0.0183 -0.6390  0.4598
   90TCq2    O4 1378   1.886   2.460   1.954  0.1604 -0.0588 -0.1069
   90TCq2    C9 1379   2.463   2.483   2.079  0.1104  0.4552 -0.5864
   90TCq2    O5 1380   2.559   2.411   2.123 -0.2135  0.2327  0.1714
   90TCq2    O6 1381   2.479   2.554   1.976 -0.7336  0.1180  0.3219
   90TCq2    H2 1382   2.382   2.305   2.255  1.6335 -0.4497 -3.5015
   90TCq2    H3 1383   2.251   2.556   1.936 -0.3390  0.7060  0.5758
   90TCq2    H4 1384   1.969   2.355   2.163  1.0135  2.3710 -0.4609
   91TMC2    C1 1385   2.987   1.413  16.148  0.4727 -0.6230 -0.3870
   91TMC2    C2 1386   3.052   1.425  16.272  0.7479  1.2257 -0.7768
   91TMC2    C3 1387   2.969   1.420  16.383  0.3810  0.0506 -0.1526
   91TMC2    C4 1388   2.853   1.414  16.135 -0.0970  0.4899  0.6271
   91TMC2    C5 1389   2.776   1.417  16.249  0.0040  0.3056  0.0849
   91TMC2    C6 1390   2.832   1.407  16.376  0.0262  0.0431 -0.3147
   91TMC2     C 1391   3.061   1.393  16.022 -0.2501 -0.1356 -0.4966
   91TMC2     O 1392   2.994   1.356  15.928  0.2841  0.7007 -0.0321
   91TMC2     H 1393   3.158   1.414  16.291  0.1803 -3.4594 -0.4004
   91TMC2    H1 1394   2.808   1.402  16.037  1.4000 -0.3977  0.0563
   91TMC2    H2 1395   2.768   1.423  16.462 -1.0410 -1.0102 -0.9156
   91TMC2    C7 1396   2.642   1.356  16.246 -0.3430  0.1857 -0.8962
   91TMC2    C8 1397   3.015   1.490  16.505 -0.2880 -0.2388  0.2147
   91TMC2    O1 1398   2.627   1.270  16.327  0.3319 -0.0533 -0.4199
   91TMC2    O2 1399   2.964   1.472  16.614  0.0363 -0.1272  0.2824
   91TMC2    O5 1400   3.073   1.604  16.462  0.3565  0.0683  0.0186
   91TMC2    H5 1401   3.101   1.625  16.370  0.3425  1.4291  0.3206
   92MPD2     C 1402   3.264   1.341  15.818  0.0824 -0.0456 -0.3430
   92MPD2    C1 1403   3.292   1.369  15.952 -0.1830 -0.0848  0.4011
   92MPD2    C2 1404   3.426   1.363  15.991 -0.5646 -0.4430 -0.0693
   92MPD2    C3 1405   3.526   1.316  15.914  0.2828  0.6212 -0.5432
   92MPD2    C4 1406   3.490   1.265  15.789 -0.0905  0.1531  0.5257
   92MPD2    C5 1407   3.364   1.281  15.740 -0.2291  0.2349 -0.0683
   92MPD2     H 1408   3.453   1.399  16.090 -1.6247 -1.7774  0.7035
   92MPD2    H1 1409   3.560   1.222  15.718  0.9847 -0.4012  1.9185
   92MPD2    H2 1410   3.169   1.369  15.773 -0.7782 -0.7249  1.0486
   92MPD2    H3 1411   3.352   1.250  15.637 -0.5003 -0.4455  0.1664
   92MPD2     N 1412   3.655   1.316  15.963 -0.2655  0.7350  0.1811
   92MPD2    H5 1413   3.659   1.346  16.060  1.4994  0.2833  0.2421
   92MPD2    N1 1414   3.195   1.406  16.043 -0.0383  0.2661  0.3314
   92MPD2    H7 1415   3.226   1.447  16.130  0.1203  1.9117 -0.5161
   93MPD2     C 1416   0.588   1.319  13.376 -0.0265  0.0222  0.0473
   93MPD2    C1 1417   0.507   1.430  13.346 -0.4964 -0.0401 -0.0826
   93MPD2    C2 1418   0.372   1.435  13.376  0.1021  0.1138 -0.2086
   93MPD2    C3 1419   0.315   1.322  13.427  0.2750 -0.1674  0.7827
   93MPD2    C4 1420   0.388   1.210  13.458 -0.3763  0.2593  0.1761
   93MPD2    C5 1421   0.529   1.207  13.436  0.4938 -0.1299  1.1174
   93MPD2     H 1422   0.322   1.530  13.363 -1.4386 -0.7028 -0.3288
   93MPD2    H1 1423   0.349   1.119  13.501 -1.2112  1.5196  2.1018
   93MPD2    H2 1424   0.694   1.323  13.355  0.0171  3.3714  1.0509
   93MPD2    H3 1425   0.592   1.121  13.455  3.0267  1.5348  0.2480
   93MPD2     N 1426   0.178   1.326  13.465  0.0132  0.2513  0.0785
   93MPD2    H5 1427   0.147   1.246  13.519 -1.4475  0.4388 -0.4940
   93MPD2    N1 1428   0.567   1.535  13.283 -0.5332  0.6756 -0.4712
   93MPD2    H7 1429   0.520   1.624  13.291  0.5618  1.4294 -2.6566
   94TCq2    C1 1430   0.689   1.542  13.218  1.0852  0.0422  0.0840
   94TCq2    O2 1431   0.752   1.446  13.179  0.2085 -0.3494  0.2790
   94TCq2    C2 1432   0.729   1.679  13.181  0.9480 -0.5245 -0.2235
   94TCq2    C3 1433   0.637   1.781  13.182  0.1200  0.3883  1.0958
   94TCq2    C4 1434   0.684   1.912  13.184  0.0281 -0.6577 -1.2677
   94TCq2    C5 1435   0.814   1.928  13.163 -0.8541  0.5786 -0.0678
   94TCq2    C6 1436   0.904   1.829  13.149  0.7777 -0.3901 -0.7305
   94TCq2    C7 1437   0.864   1.698  13.160 -0.4964 -0.2584  0.4917
   94TCq2    C8 1438   1.039   1.867  13.167 -0.0475 -0.1012 -0.0316
   94TCq2    O4 1439   1.121   1.784  13.124  0.4178  0.0068  0.8802
   94TCq2    C9 1440   0.591   2.025  13.180  0.2003  0.6402 -1.1773
   94TCq2    O5 1441   0.468   2.001  13.169 -0.1215  0.2163 -0.3786
   94TCq2    O6 1442   0.632   2.141  13.160  0.1605  0.5583  0.6078
   94TCq2    H2 1443   0.533   1.761  13.200  0.5825 -2.0888  1.0035
   94TCq2    H3 1444   0.843   2.033  13.158  1.4704 -0.0757 -0.2599
   94TCq2    H4 1445   0.937   1.618  13.151  1.9156  1.8545  0.9373
   95TMC2    C1 1446   0.795   2.972  15.924 -0.6578  0.0969  0.2013
   95TMC2    C2 1447   0.847   2.924  16.040  0.3706  0.3276 -0.3423
   95TMC2    C3 1448   0.800   2.805  16.079 -0.5515  0.0976 -1.0879
   95TMC2    C4 1449   0.701   2.895  15.851 -0.0834  0.4197  0.2687
   95TMC2    C5 1450   0.654   2.782  15.902  0.1192 -0.6812  0.2326
   95TMC2    C6 1451   0.696   2.733  16.026  0.2159  0.7160 -0.2212
   95TMC2     C 1452   0.818   3.104  15.874 -0.1684  0.3422 -0.7893
   95TMC2     O 1453   0.731   3.144  15.802  0.3836 -0.0637 -0.5817
   95TMC2     H 1454   0.909   2.986  16.103 -0.5567  0.1775  0.7145
   95TMC2    H1 1455   0.676   2.917  15.748  3.4198 -0.2217 -0.7548
   95TMC2    H2 1456   0.664   2.641  16.071 -0.7002  0.9645 -0.3785
   95TMC2    C7 1457   0.545   2.717  15.832 -0.2977  0.1509  0.1948
   95TMC2    C8 1458   0.864   2.743  16.199  0.2079 -0.2397  0.2261
   95TMC2    O1 1459   0.504   2.760  15.728 -0.0764 -0.4361 -0.1268
   95TMC2    O2 1460   0.968   2.792  16.227 -0.0412  0.3254  0.5101
   95TMC2    O5 1461   0.774   2.708  16.294 -0.1036  0.5433  0.3895
   95TMC2    H5 1462   0.681   2.703  16.264 -0.9741  2.8986  2.6584
   96MPD2     C 1463   1.135   3.498  15.765 -0.3106 -0.1409  0.0962
   96MPD2    C1 1464   1.004   3.482  15.728 -0.0245  0.1202  0.0886
   96MPD2    C2 1465   0.940   3.363  15.767  0.9100 -0.2746  0.3549
   96MPD2    C3 1466   1.001   3.269  15.853  0.4452  0.7543  0.0712
   96MPD2    C4 1467   1.125   3.293  15.899  0.4459 -0.0694 -0.4379
   96MPD2    C5 1468   1.193   3.407  15.854 -0.3357 -0.0601  0.1874
   96MPD2     H 1469   0.834   3.355  15.746  0.6796  3.9721 -0.2288
   96MPD2    H1 1470   1.180   3.223  15.961  0.4447  1.2197  1.0179
   96MPD2    H2 1471   1.191   3.585  15.735 -1.2544  0.8511  1.2260
   96MPD2    H3 1472   1.294   3.423  15.889  0.5308 -1.8662 -1.4882
   96MPD2     N 1473   0.939   3.152  15.904 -0.0778 -0.2125  0.1457
   96MPD2    H5 1474   0.998   3.098  15.966 -2.2740 -0.5076  1.9983
   96MPD2    N1 1475   0.953   3.582  15.643  0.3704  0.3455  0.8114
   96MPD2    H7 1476   1.017   3.655  15.613 -2.7477  1.4161 -3.3161
   97MPD2     C 1477   1.520   0.994   1.216  0.3834 -0.6029 -0.0989
   97MPD2    C1 1478   1.649   1.025   1.224 -0.1523  0.2016 -0.5550
   97MPD2    C2 1479   1.726   1.027   1.108  0.1500 -0.5383  0.0532
   97MPD2    C3 1480   1.673   0.983   0.987 -0.1215 -0.4517 -0.1997
   97MPD2    C4 1481   1.538   0.953   0.983 -0.1989  0.6637 -0.8499
   97MPD2    C5 1482   1.464   0.963   1.096  0.5006 -0.1290  0.1267
   97MPD2     H 1483   1.833   1.018   1.119  0.0562  0.9589  2.2084
   97MPD2    H1 1484   1.483   0.937   0.890 -1.0096 -0.4266 -0.1739
   97MPD2    H2 1485   1.452   0.987   1.300 -0.7702  0.4815 -0.9376
   97MPD2    H3 1486   1.358   0.941   1.086  1.0642 -3.1566  0.9037
   97MPD2     N 1487   1.746   0.979   0.865 -0.0110  0.7572  0.3195
   97MPD2    H5 1488   1.702   0.950   0.777  2.1406 -0.5007 -0.3340
   97MPD2    N1 1489   1.697   1.069   1.355 -0.4762  0.0291 -0.5550
   97MPD2    H7 1490   1.632   1.070   1.432 -0.9310  3.0149 -1.0030
   98TCq2    C1 1491   1.867   1.041   0.850  0.0196 -0.1368 -0.4337
   98TCq2    O2 1492   1.931   1.108   0.926 -0.1605 -0.8897  0.2826
   98TCq2    C2 1493   1.938   1.017   0.723 -0.4414 -0.7429 -0.1216
   98TCq2    C3 1494   1.884   0.934   0.631  0.2424 -0.0251 -0.0546
   98TCq2    C4 1495   1.958   0.904   0.522 -0.0722 -0.2413  0.4527
   98TCq2    C5 1496   2.072   0.972   0.499 -0.1308 -0.0090 -0.6334
   98TCq2    C6 1497   2.124   1.058   0.593 -0.1557 -0.5509 -0.4108
   98TCq2    C7 1498   2.057   1.075   0.709 -0.2084 -0.1745 -0.1164
   98TCq2    C8 1499   2.265   1.090   0.591  0.0547 -0.2000 -0.3646
   98TCq2    O4 1500   2.307   1.189   0.651 -0.4037  0.3228  0.0484
   98TCq2    C9 1501   1.902   0.829   0.414 -0.0321  0.3196 -0.2309
   98TCq2    O5 1502   1.963   0.829   0.301 -0.0355 -0.0213 -0.0622
   98TCq2    O6 1503   1.791   0.774   0.438  0.4289  0.3511  0.4162
   98TCq2    H2 1504   1.779   0.907   0.628  0.0328  0.9330 -0.9588
   98TCq2    H3 1505   2.123   0.939   0.409 -0.3321  1.3081 -1.2273
   98TCq2    H4 1506   2.098   1.138   0.786 -2.3994  1.8932 -0.6628
   99MPD2     C 1507   0.610   3.531   0.928 -0.1497  0.0077  0.0793
   99MPD2    C1 1508   0.652   3.491   1.053  0.1948 -0.2024  0.5792
   99MPD2    C2 1509   0.769   3.416   1.056 -0.0925 -0.4295  0.3415
   99MPD2    C3 1510   0.841   3.386   0.942 -0.6440 -0.1882  0.0355
   99MPD2    C4 1511   0.799   3.429   0.818  0.1301  0.1863 -0.5439
   99MPD2    C5 1512   0.691   3.509   0.815 -0.2547  0.0010 -0.2119
   99MPD2     H 1513   0.801   3.379   1.153 -0.7963  0.3411  0.8678
   99MPD2    H1 1514   0.848   3.396   0.727 -1.2011  0.9599 -1.5406
   99MPD2    H2 1515   0.525   3.593   0.907  0.4973  0.3148 -1.6306
   99MPD2    H3 1516   0.654   3.546   0.720 -1.2456 -0.0057  0.1692
   99MPD2     N 1517   0.964   3.322   0.970  0.3377  0.5806 -0.5657
   99MPD2    H5 1518   0.986   3.312   1.068  0.6641 -0.2505 -0.7220
   99MPD2    N1 1519   0.570   3.507   1.173 -0.2925  0.1717 -0.1857
   99MPD2    H7 1520   0.609   3.471   1.259  0.6528 -1.1673 -1.1591
  100TCq2    C1 1521   0.460   3.588   1.179  0.0964 -0.1318  0.1823
  100TCq2    O2 1522   0.395   3.641   1.094 -0.9881 -0.4162 -0.2983
  100TCq2    C2 1523   0.427   3.624   1.315  0.8544  0.4529  0.3443
  100TCq2    C3 1524   0.516   3.695   1.386  0.5520  0.0604  0.5884
  100TCq2    C4 1525   0.477   3.755   1.500  0.9366  0.2416  0.4280
  100TCq2    C5 1526   0.348   3.754   1.538 -0.1811  0.5114 -0.3719
  100TCq2    C6 1527   0.257   3.688   1.468 -0.1705 -0.2451  0.3285
  100TCq2    C7 1528   0.291   3.624   1.346  0.0082  0.5633  0.4081
  100TCq2    C8 1529   0.116   3.701   1.508 -0.1120 -0.0855 -0.1070
  100TCq2    O4 1530   0.093   3.789   1.586  0.9666  0.2164 -0.1364
  100TCq2    C9 1531   0.572   3.825   1.580 -0.3734 -0.1381  0.4850
  100TCq2    O5 1532   0.531   3.871   1.693 -0.2450  0.4366 -0.0310
  100TCq2    O6 1533   0.687   3.842   1.535 -0.4731 -0.4198  0.3176
  100TCq2    H2 1534   0.622   3.686   1.365  0.2508 -0.7791 -0.5825
  100TCq2    H3 1535   0.314   3.811   1.624  1.7865  1.5853 -0.3061
  100TCq2    H4 1536   0.214   3.574   1.290  1.3001  2.5026 -3.0866
  101MPD2     C 1537   1.961   3.671  12.985  0.2336 -0.2073  0.3855
  101MPD2    C1 1538   1.885   3.782  13.021 -0.0677  0.5759 -1.0859
  101MPD2    C2 1539   1.777   3.753  13.112  0.0046 -0.3327 -0.2997
  101MPD2    C3 1540   1.762   3.622  13.164 -0.2467 -0.3126  0.3711
  101MPD2    C4 1541   1.840   3.516  13.120 -0.6889 -0.1488 -0.1883
  101MPD2    C5 1542   1.940   3.543  13.029 -0.0767  0.1452  0.1126
  101MPD2     H 1543   1.700   3.828  13.129 -0.5412 -1.0556  0.3982
  101MPD2    H1 1544   1.850   3.418  13.165  0.8719  0.0119 -0.1968
  101MPD2    H2 1545   2.038   3.687  12.911  1.1686  1.1890  1.6434
  101MPD2    H3 1546   2.008   3.465  12.998 -1.0075 -0.7940  0.4272
  101MPD2     N 1547   1.660   3.598  13.264 -0.3900  0.2215 -0.3054
  101MPD2    H5 1548   1.624   3.680  13.311 -1.5753 -0.3424 -0.2194
  101MPD2    N1 1549   1.902   3.912  12.960  0.1433  0.1458 -0.1233
  101MPD2    H7 1550   1.963   3.914  12.880  0.0491  1.7182 -0.1663
  102TCq2    C1 1551   1.935   4.314  12.621 -0.6971  0.4037  0.8559
  102TCq2    O2 1552   2.054   4.310  12.652  0.3849  0.3167  0.5564
  102TCq2    C2 1553   1.840   4.247  12.718  0.0635 -0.0887  0.3977
  102TCq2    C3 1554   1.712   4.295  12.728 -0.3257  0.1146 -0.0435
  102TCq2    C4 1555   1.639   4.265  12.832  0.0390  1.3325  0.2725
  102TCq2    C5 1556   1.678   4.174  12.921  0.2753  0.8177  0.0138
  102TCq2    C6 1557   1.803   4.117  12.910 -0.1930  0.1435 -0.0725
  102TCq2    C7 1558   1.890   4.169  12.818  0.7156  0.4801  0.3452
  102TCq2    C8 1559   1.841   4.022  13.014 -0.1344  0.0943  0.1394
  102TCq2    O4 1560   1.777   4.035  13.120 -0.0130  0.1614 -1.0357
  102TCq2    C9 1561   1.512   4.329  12.862  0.4246 -0.6203  0.2565
  102TCq2    O5 1562   1.457   4.298  12.968  0.2504  0.0255 -0.4238
  102TCq2    O6 1563   1.496   4.451  12.829 -0.5953 -0.0677  0.0176
  102TCq2    H2 1564   1.662   4.361  12.658  1.2179  1.0026 -0.3093
  102TCq2    H3 1565   1.618   4.150  13.008  0.3139  0.4994 -0.0473
  102TCq2    H4 1566   1.996   4.145  12.820  1.1067  2.2323  0.8343
  103TMC2    C1 1567   0.012   4.612  12.854  0.5283 -0.2731  0.1807
  103TMC2    C2 1568   0.102   4.712  12.865  0.1390 -0.4658 -0.3476
  103TMC2    C3 1569   0.192   4.712  12.970  0.0670  0.2942 -0.2128
  103TMC2    C4 1570   4.713   4.519  12.955  0.3877 -0.1846  0.7147
  103TMC2    C5 1571   0.068   4.539  13.070  0.0930 -0.2351  0.0336
  103TMC2    C6 1572   0.167   4.628  13.077  0.2429  0.2874  0.6685
  103TMC2     C 1573   4.638   4.634  12.758 -0.0484 -0.8413 -0.2466
  103TMC2     O 1574   4.652   0.002  12.678 -0.2556  0.0824 -0.1103
  103TMC2     H 1575   0.100   0.071  12.796  0.4756  0.6366  0.9840
  103TMC2    H1 1576   4.624   4.457  12.965  1.9301 -2.9265 -2.4998
  103TMC2    H2 1577   0.223   4.644  13.169 -0.3043 -0.1007  1.0765
  103TMC2    C7 1578   0.050   4.446  13.187  0.6999  0.5113  0.3763
  103TMC2    C8 1579   0.253   0.118  12.996  0.2003  0.1813 -0.1596
  103TMC2    O1 1580   0.072   4.490  13.299 -0.5535 -0.5484 -0.3969
  103TMC2    O2 1581   0.259   0.217  12.921 -0.1592 -0.2809 -0.6023
  103TMC2    O5 1582   0.356   0.078  13.070 -0.4513  0.3906 -0.5951
  103TMC2    H5 1583   0.353   4.713  13.109 -0.5915  0.1014 -1.2628
  104MPD2     C 1584   4.390   4.387  12.660  0.1357 -0.3681 -0.2088
  104MPD2    C1 1585   4.457   4.509  12.652  0.0168  0.4041 -0.7500
  104MPD2    C2 1586   4.416   4.603  12.549 -0.1598 -0.3255  1.1661
  104MPD2    C3 1587   4.308   4.576  12.466 -0.2902  0.4097  0.5512
  104MPD2    C4 1588   4.239   4.456  12.488 -0.2222 -0.4392  0.2256
  104MPD2    C5 1589   4.282   4.357  12.577  0.1288 -0.1182 -0.0691
  104MPD2     H 1590   4.476   4.691  12.534 -0.8358  0.3298  2.2306
  104MPD2    H1 1591   4.161   4.431  12.417  1.8793 -0.1377 -2.2071
  104MPD2    H2 1592   4.437   4.303  12.710 -1.2423  0.1005  1.8815
  104MPD2    H3 1593   4.236   4.259  12.584 -0.4176  0.0403 -1.3259
  104MPD2     N 1594   4.283   4.665  12.360  0.3380 -0.2308 -0.1297
  104MPD2    H5 1595   4.358   0.006  12.338 -0.1601  0.3482 -0.1012
  104MPD2    N1 1596   4.559   4.527  12.744 -0.8807 -0.2778 -0.4248
  104MPD2    H7 1597   4.577   4.451  12.808  1.9860  0.7154 -0.0531
  105MPD2     C 1598   1.306   3.285  17.679  0.8887  0.2743  0.0884
  105MPD2    C1 1599   1.255   3.390  17.603 -0.2472  1.0097  0.0255
  105MPD2    C2 1600   1.134   3.444  17.638  0.3405 -0.3022  0.2037
  105MPD2    C3 1601   1.066   3.405   0.048  0.4686  0.3377 -0.6429
  105MPD2    C4 1602   1.118   3.299   0.123  0.5347  0.3069  0.0037
  105MPD2    C5 1603   1.244   3.252   0.094 -0.1893  0.0833 -0.5771
  105MPD2     H 1604   1.103   3.532  17.583 -0.7101  1.6493  3.9235
  105MPD2    H1 1605   1.062   3.250   0.201 -0.7058  1.8878  0.0999
  105MPD2    H2 1606   1.409   3.255  17.663  0.1656 -0.9679 -2.2971
  105MPD2    H3 1607   1.277   3.158   0.138  1.6511  0.8502 -0.3063
  105MPD2     N 1608   0.939   3.465   0.073 -0.5306  0.5805  0.1788
  105MPD2    H5 1609   0.905   3.543   0.018 -1.6547  0.2740  0.4260
  105MPD2    N1 1610   1.338   3.455  17.509  0.5996  0.6027 -0.2179
  105MPD2    H7 1611   1.298   3.541  17.470 -0.4651  0.7473  1.2012
  106TCq2    C1 1612   0.870   3.452   0.194 -0.5163 -0.2797  0.7953
  106TCq2    O2 1613   0.901   3.394   0.298  0.1912  0.8127 -0.0565
  106TCq2    C2 1614   0.746   3.533   0.189  0.1626  0.5357 -0.2349
  106TCq2    C3 1615   0.704   3.601   0.074 -0.2041 -0.0743 -0.4089
  106TCq2    C4 1616   0.601   3.688   0.072  0.1437 -0.7005 -0.2833
  106TCq2    C5 1617   0.533   3.712   0.191  0.7269  0.6393 -0.3334
  106TCq2    C6 1618   0.578   3.649   0.307 -0.4848  0.9926 -0.3888
  106TCq2    C7 1619   0.684   3.563   0.308  0.1796 -0.7695  0.0178
  106TCq2    C8 1620   0.489   3.658   0.426  0.3874 -0.4610 -0.1804
  106TCq2    O4 1621   0.523   3.581   0.518 -0.5425  0.0530 -0.5689
  106TCq2    C9 1622   0.573   3.759  17.645  0.2362 -0.1106 -0.1390
  106TCq2    O5 1623   0.622   3.725  17.536  0.2668  0.4465  0.2454
  106TCq2    O6 1624   0.498   3.859  17.659 -0.0249 -0.0370  1.0945
  106TCq2    H2 1625   0.752   3.583  17.678  0.3784 -1.1207  0.0808
  106TCq2    H3 1626   0.453   3.785   0.197  0.2908  0.2195 -1.2212
  106TCq2    H4 1627   0.717   3.511   0.397 -0.7839  1.5727  1.7391
  107TMC2    C1 1628   2.363   3.225  11.504 -0.8132 -0.3367 -0.6620
  107TMC2    C2 1629   2.424   3.330  11.442 -0.0430 -0.5111 -0.0923
  107TMC2    C3 1630   2.463   3.325  11.311 -1.1314  0.9839  0.7652
  107TMC2    C4 1631   2.348   3.115  11.425 -0.2320  0.3576 -0.1871
  107TMC2    C5 1632   2.410   3.099  11.300 -0.1509  0.1678 -0.0970
  107TMC2    C6 1633   2.480   3.204  11.242 -0.8915 -0.0434 -0.5914
  107TMC2     C 1634   2.288   3.238  11.625  0.4949  0.5463 -0.2219
  107TMC2     O 1635   2.279   3.139  11.695 -0.0131 -0.1353  0.3380
  107TMC2     H 1636   2.437   3.421  11.499  0.7366  0.9137 -2.5548
  107TMC2    H1 1637   2.298   3.039  11.483 -2.5563  1.3643 -0.8696
  107TMC2    H2 1638   2.519   3.200  11.141  2.5363 -1.2700  0.8058
  107TMC2    C7 1639   2.419   2.965  11.245 -0.7391  0.1460  0.0823
  107TMC2    C8 1640   2.502   3.442  11.235  0.2148 -0.1618  0.2560
  107TMC2    O1 1641   2.346   2.877  11.291 -0.4580 -0.3288 -0.2362
  107TMC2    O2 1642   2.544   3.427  11.125 -0.3033 -0.2872 -0.0086
  107TMC2    O5 1643   2.460   3.557  11.288 -0.0632  0.1383 -0.2408
  107TMC2    H5 1644   2.374   3.542  11.334  0.3075  0.5704  0.5898
  108MPD2     C 1645   2.092   3.524  11.712  0.3515  0.0536  0.0117
  108MPD2    C1 1646   2.145   3.397  11.729 -0.5840 -0.6590  0.7036
  108MPD2    C2 1647   2.105   3.328  11.838  0.2649  0.9665 -0.6930
  108MPD2    C3 1648   2.009   3.372  11.923 -0.7266  0.4718 -0.3326
  108MPD2    C4 1649   1.951   3.495  11.895 -0.4513  0.5233  0.2046
  108MPD2    C5 1650   2.002   3.574  11.796 -0.2763  0.2441  0.0844
  108MPD2     H 1651   2.156   3.238  11.870  0.2529  0.5596 -1.8286
  108MPD2    H1 1652   1.864   3.532  11.947 -0.2594  2.3265 -0.7744
  108MPD2    H2 1653   2.132   3.586  11.633 -0.0615  1.3798  0.8344
  108MPD2    H3 1654   1.948   3.665  11.774  0.7630  0.5962 -1.0698
  108MPD2     N 1655   1.951   3.300  12.027 -0.6101  0.4626  0.3031
  108MPD2    H5 1656   1.876   3.356  12.067  0.3479  2.4391 -0.6628
  108MPD2    N1 1657   2.236   3.362  11.635 -0.2896 -0.0376 -0.4809
  108MPD2    H7 1658   2.261   3.437  11.571  0.9261 -0.6616 -0.7372
  109MPD2     C 1659   0.951   0.300   1.486 -0.1124  0.0733  0.4039
  109MPD2    C1 1660   1.066   0.373   1.494  0.2534 -1.1394 -0.1978
  109MPD2    C2 1661   1.094   0.419   1.621  0.8987  0.4833 -0.2556
  109MPD2    C3 1662   1.040   0.377   1.740  0.2520  0.3950 -0.7485
  109MPD2    C4 1663   0.925   0.297   1.728  0.0017  0.2108  0.0620
  109MPD2    C5 1664   0.883   0.259   1.598  0.2745 -0.5890 -0.0206
  109MPD2     H 1665   1.186   0.473   1.640  1.6927 -0.4369 -1.4276
  109MPD2    H1 1666   0.872   0.251   1.811 -0.5170  0.1812 -0.2877
  109MPD2    H2 1667   0.918   0.264   1.390 -1.6437  2.9022 -0.1117
  109MPD2    H3 1668   0.798   0.196   1.576  0.6500 -0.6493 -1.3220
  109MPD2     N 1669   1.103   0.417   1.863  0.1057 -0.2379  0.1814
  109MPD2    H5 1670   1.182   0.481   1.858  0.2032 -0.2917  1.0343
  109MPD2    N1 1671   1.139   0.400   1.375 -0.1180 -0.0225  0.7449
  109MPD2    H7 1672   1.082   0.374   1.295  1.5687 -0.6189 -0.2561
  110TCq2    C1 1673   1.080   0.365   1.987  0.6322 -0.1360 -0.1838
  110TCq2    O2 1674   0.996   0.284   2.016  0.5124  0.2352 -0.0315
  110TCq2    C2 1675   1.180   0.405   2.081  0.5867 -1.1015 -0.8482
  110TCq2    C3 1676   1.236   0.308   2.161 -0.0119  0.6348 -0.2554
  110TCq2    C4 1677   1.354   0.338   2.222 -0.4812 -0.6147 -0.2558
  110TCq2    C5 1678   1.408   0.462   2.206  0.2187 -0.5899  0.6124
  110TCq2    C6 1679   1.353   0.547   2.117 -0.0994 -0.1981 -0.5374
  110TCq2    C7 1680   1.236   0.526   2.052  0.8633 -0.0667  0.1508
  110TCq2    C8 1681   1.412   0.677   2.094 -0.0696  0.1834 -0.1177
  110TCq2    O4 1682   1.377   0.732   1.987 -0.3341 -0.0639 -0.1574
  110TCq2    C9 1683   1.425   0.243   2.298 -0.5218 -0.0971 -0.0104
  110TCq2    O5 1684   1.507   0.285   2.376  0.1607 -0.0140 -0.5721
  110TCq2    O6 1685   1.383   0.121   2.311 -0.1049  0.1656 -0.2629
  110TCq2    H2 1686   1.190   0.211   2.179 -0.2465  1.1037  1.7332
  110TCq2    H3 1687   1.502   0.472   2.259  1.3944  2.8347 -2.0762
  110TCq2    H4 1688   1.192   0.601   1.987  1.7830  1.4724  1.2801
  111TMC2    C1 1689   2.533   0.582  11.375  0.5861  0.7231 -0.4094
  111TMC2    C2 1690   2.640   0.583  11.293  0.4340  0.4120  0.3685
  111TMC2    C3 1691   2.749   0.517  11.334 -0.5245 -0.1541 -0.2594
  111TMC2    C4 1692   2.533   0.530  11.503  1.0542  0.5309  0.2848
  111TMC2    C5 1693   2.649   0.461  11.537 -0.9769  0.1778 -0.5147
  111TMC2    C6 1694   2.756   0.449  11.449  0.4227 -0.0146  0.3362
  111TMC2     C 1695   2.408   0.607  11.312  0.2436  0.0650 -0.5205
  111TMC2     O 1696   2.406   0.585  11.190  0.1380  0.4349 -0.2743
  111TMC2     H 1697   2.633   0.612  11.189  0.6035  1.9758  0.7930
  111TMC2    H1 1698   2.448   0.537  11.569  1.0709  1.7211  0.1878
  111TMC2    H2 1699   2.841   0.385  11.472  0.8234  0.2818 -0.3274
  111TMC2    C7 1700   2.662   0.410  11.675 -0.2844 -0.2095 -0.6089
  111TMC2    C8 1701   2.842   0.492  11.233  0.2457  0.6240  0.6817
  111TMC2    O1 1702   2.565   0.415  11.749  0.0228 -0.1575 -0.2356
  111TMC2    O2 1703   2.900   0.381  11.234  0.2607 -0.1208 -0.1274
  111TMC2    O5 1704   2.892   0.607  11.194 -0.0855 -0.0348  0.1232
  111TMC2    H5 1705   2.821   0.675  11.191 -0.3955 -0.3932 -0.8968
  112MPD2     C 1706   1.894   0.655  11.319 -0.5409 -0.1433  0.4057
  112MPD2    C1 1707   1.982   0.660  11.216 -0.3446 -0.1337 -0.0921
  112MPD2    C2 1708   2.120   0.663  11.237 -0.0573  0.1819 -0.3455
  112MPD2    C3 1709   2.164   0.640  11.362  0.6916 -0.0311 -0.1016
  112MPD2    C4 1710   2.078   0.634  11.469  0.3329  0.1969  0.2624
  112MPD2    C5 1711   1.945   0.647  11.443  0.2216  0.6304  0.5790
  112MPD2     H 1712   2.187   0.681  11.154  1.4034  0.5673  0.9219
  112MPD2    H1 1713   2.129   0.618  11.563 -0.6397  2.9444  1.2798
  112MPD2    H2 1714   1.786   0.654  11.311 -0.4653 -0.3691 -0.5512
  112MPD2    H3 1715   1.881   0.647  11.530 -2.8228  1.0372 -1.6341
  112MPD2     N 1716   2.299   0.636  11.400 -0.3557  0.3371 -0.1010
  112MPD2    H5 1717   2.323   0.656  11.497 -3.0630  0.9492  0.4484
  112MPD2    N1 1718   1.943   0.685  11.086 -0.4107  0.0210  0.0787
  112MPD2    H7 1719   2.013   0.669  11.015 -0.5775 -1.3384  0.2238
  113MPD2     C 1720   4.628   2.907   1.138  0.3314  0.5556  0.4772
  113MPD2    C1 1721   4.530   2.960   1.050 -0.4763  0.2602 -0.3567
  113MPD2    C2 1722   4.464   2.884   0.959  0.3005 -0.3299  0.0254
  113MPD2    C3 1723   4.514   2.752   0.939  0.9219 -0.0255 -0.5123
  113MPD2    C4 1724   4.606   2.705   1.026 -0.0235  0.4293 -0.4913
  113MPD2    C5 1725   4.654   2.779   1.130 -0.2428  0.4209  0.6906
  113MPD2     H 1726   4.386   2.926   0.897  0.9592  1.6796  0.5375
  113MPD2    H1 1727   4.642   2.603   1.011 -1.3258 -0.7603  4.4109
  113MPD2    H2 1728   4.674   2.968   1.215 -1.3794  1.8877  0.4426
  113MPD2    H3 1729   0.003   2.727   1.191  0.4832  2.9983  2.0084
  113MPD2     N 1730   4.461   2.666   0.842 -0.4269  0.0225 -0.8350
  113MPD2    H5 1731   4.486   2.568   0.839  3.1864  0.9554 -0.3095
  113MPD2    N1 1732   4.509   3.096   1.065 -0.1818 -0.5848  0.8524
  113MPD2    H7 1733   4.582   3.145   1.116 -0.6741  0.5392  0.4990
  114TCq2    C1 1734   4.394   2.711   0.731 -0.1157  0.5689 -0.0681
  114TCq2    O2 1735   4.352   2.822   0.705 -0.1257  0.8544 -0.1410
  114TCq2    C2 1736   4.370   2.612   0.626  0.2120 -0.4209  0.0761
  114TCq2    C3 1737   4.298   2.647   0.515 -0.3084 -0.5596 -0.3071
  114TCq2    C4 1738   4.284   2.563   0.406  0.1148 -1.0932  0.1700
  114TCq2    C5 1739   4.357   2.449   0.401 -0.1253 -0.0803  0.4971
  114TCq2    C6 1740   4.440   2.421   0.507 -0.8301 -0.9241 -0.1334
  114TCq2    C7 1741   4.446   2.499   0.621  0.3199  0.2141 -0.6163
  114TCq2    C8 1742   4.538   2.309   0.485 -0.5091 -0.6191  0.4495
  114TCq2    O4 1743   4.563   2.276   0.368  0.0527  0.1845  0.6094
  114TCq2    C9 1744   4.202   2.605   0.293 -0.0988 -0.8135 -0.9803
  114TCq2    O5 1745   4.183   2.726   0.264  0.9784 -0.0102 -0.1890
  114TCq2    O6 1746   4.173   2.514   0.213 -0.6336  0.0983  0.5247
  114TCq2    H2 1747   4.238   2.737   0.511  0.3051 -0.0996  0.8494
  114TCq2    H3 1748   4.353   2.390   0.310 -1.7792  2.2582 -0.9635
  114TCq2    H4 1749   4.527   2.486   0.693 -0.0374 -0.6361 -0.3617
  115TMC2    C1 1750   1.166   0.991   0.215  0.2911  0.0561 -0.2258
  115TMC2    C2 1751   1.299   0.998   0.202 -0.9415  0.2496 -1.1826
  115TMC2    C3 1752   1.351   1.120   0.192 -0.5108  0.2038  0.0097
  115TMC2    C4 1753   1.082   1.099   0.183  1.2376  0.4130 -0.0769
  115TMC2    C5 1754   1.137   1.219   0.155  0.5718 -0.4861  0.2768
  115TMC2    C6 1755   1.270   1.230   0.160 -0.3973 -0.2962 -0.7286
  115TMC2     C 1756   1.106   0.866   0.159 -0.0903 -0.0858  0.0096
  115TMC2     O 1757   1.176   0.792   0.090  0.6514 -0.1645  0.8487
  115TMC2     H 1758   1.363   0.910   0.208 -0.6593  0.5317  0.0139
  115TMC2    H1 1759   0.974   1.095   0.181  1.2253  0.6906  0.0306
  115TMC2    H2 1760   1.319   1.327   0.157 -0.0542 -0.3386  3.9569
  115TMC2    C7 1761   1.054   1.331   0.119 -0.5261  0.0356  0.1000
  115TMC2    C8 1762   1.495   1.136   0.197 -0.1150  0.7179 -0.5256
  115TMC2    O1 1763   0.933   1.318   0.142  0.0447 -0.5817  0.0258
  115TMC2    O2 1764   1.576   1.043   0.207 -0.0711 -0.1679  0.5027
  115TMC2    O5 1765   1.519   1.250   0.268 -0.6347 -0.2206 -0.3168
  115TMC2    H5 1766   1.437   1.304   0.278 -0.5229 -0.3758  1.3589
  116MPD2     C 1767   0.667   0.674   0.004  0.1568  0.3844 -0.6075
  116MPD2    C1 1768   0.789   0.655  17.656 -0.5928 -0.6862  0.9401
  116MPD2    C2 1769   0.897   0.714   0.016 -0.0686 -1.0780  0.5194
  116MPD2    C3 1770   0.880   0.777   0.138 -0.3662 -0.0758  1.4525
  116MPD2    C4 1771   0.758   0.780   0.197  0.7609 -0.2008  0.3678
  116MPD2    C5 1772   0.652   0.726   0.129 -0.2165  0.4022 -1.1909
  116MPD2     H 1773   0.990   0.718  17.659  0.2419 -1.5681  0.9990
  116MPD2    H1 1774   0.753   0.835   0.290 -1.9848 -1.3152  0.8901
  116MPD2    H2 1775   0.582   0.619  17.666  0.4361 -0.8573  0.5727
  116MPD2    H3 1776   0.553   0.729   0.172 -1.2492  0.6270 -3.6241
  116MPD2     N 1777   0.977   0.849   0.211 -0.1822  0.0735 -0.3536
  116MPD2    H5 1778   0.949   0.906   0.290  0.0175  2.1586 -1.7683
  116MPD2    N1 1779   0.801   0.576  17.540  0.3576  0.0854  0.0295
  116MPD2    H7 1780   0.715   0.546  17.497  1.0734 -0.9359 -0.6857
  117TMC2    C1 1781   4.241   2.155  14.309  0.4425  0.7833  0.5866
  117TMC2    C2 1782   4.277   2.139  14.445 -0.0510  0.6169 -0.2641
  117TMC2    C3 1783   4.371   2.223  14.495 -0.5529 -0.2604 -1.0648
  117TMC2    C4 1784   4.290   2.259  14.232 -0.8482  0.3974 -0.2745
  117TMC2    C5 1785   4.366   2.351  14.299  0.2803 -0.5687  0.1104
  117TMC2    C6 1786   4.405   2.329  14.426 -0.1193  0.0819  0.8594
  117TMC2     C 1787   4.097   2.115  14.279 -0.5651 -0.0104  0.5163
  117TMC2     O 1788   4.018   2.109  14.368 -0.3780 -1.0936  0.3096
  117TMC2     H 1789   4.219   2.073  14.509  1.3876 -1.1442 -0.7715
  117TMC2    H1 1790   4.250   2.276  14.133 -1.8435  0.6300  0.1729
  117TMC2    H2 1791   4.468   2.407  14.467  0.0121  1.2269 -1.5160
  117TMC2    C7 1792   4.390   2.480  14.250 -0.6673  0.0759 -0.0518
  117TMC2    C8 1793   4.391   2.235  14.640 -0.6358  0.8284  0.2412
  117TMC2    O1 1794   4.502   2.530  14.271  0.0415  0.0413  0.8374
  117TMC2    O2 1795   4.405   2.343  14.698  1.1932  0.1330  0.4304
  117TMC2    O5 1796   4.348   2.114  14.691 -0.5336 -0.2913 -0.3808
  117TMC2    H5 1797   4.352   2.047  14.620 -0.9108 -0.1752 -0.5135
  118MPD2     C 1798   4.147   2.692  14.078  0.1531  0.1352 -0.3007
  118MPD2    C1 1799   4.275   2.654  14.110  0.0711  0.2266 -0.2597
  118MPD2    C2 1800   4.380   2.728  14.068  0.3871  1.1922  0.1512
  118MPD2    C3 1801   4.368   2.848  14.009  0.1831 -0.1765  0.1024
  118MPD2    C4 1802   4.239   2.885  13.970  0.0351  0.2630  0.7463
  118MPD2    C5 1803   4.133   2.809  13.997 -0.9423  0.2597 -0.2227
  118MPD2     H 1804   4.477   2.689  14.097 -0.9023 -1.8759  0.3475
  118MPD2    H1 1805   4.218   2.968  13.904  0.3099  0.8267  1.3643
  118MPD2    H2 1806   4.059   2.640  14.113 -0.4770  0.2966 -1.6140
  118MPD2    H3 1807   4.039   2.853  13.967 -0.9604 -0.1429 -0.7605
  118MPD2     N 1808   4.475   2.927  13.964 -0.1343  0.3631 -0.2205
  118MPD2    H5 1809   4.446   3.010  13.914  1.8866 -0.5710 -2.9590
  118MPD2    N1 1810   4.279   2.533  14.188 -0.6306 -0.1037  0.0955
  118MPD2    H7 1811   4.190   2.488  14.202 -1.1508  0.2204 -2.2482
  119MPD2     C 1812   2.806   3.851  13.519 -0.0557  0.2196  0.1454
  119MPD2    C1 1813   2.698   3.819  13.605  0.1962 -0.0489 -0.8476
  119MPD2    C2 1814   2.591   3.760  13.547 -0.0984 -0.6790  0.7635
  119MPD2    C3 1815   2.587   3.718  13.416  0.4133 -0.4269  0.3164
  119MPD2    C4 1816   2.709   3.732  13.344 -0.3638  0.4870  0.3992
  119MPD2    C5 1817   2.814   3.798  13.395 -0.2736  0.4324 -0.5932
  119MPD2     H 1818   2.500   3.747  13.604 -0.6521 -2.9890 -0.6586
  119MPD2    H1 1819   2.722   3.685  13.248  1.1856  2.3842 -0.3217
  119MPD2    H2 1820   2.896   3.904  13.551 -0.0713  0.3026  0.0525
  119MPD2    H3 1821   2.893   3.813  13.322 -0.4972  0.4545 -0.8317
  119MPD2     N 1822   2.480   3.645  13.363 -0.6015  0.0381  0.1791
  119MPD2    H5 1823   2.503   3.607  13.271  1.0491  2.9947 -0.6321
  119MPD2    N1 1824   2.712   3.868  13.737 -0.3703 -0.0760 -0.0943
  119MPD2    H7 1825   2.784   3.938  13.751  0.1470 -0.8175  0.9062
  120TCq2    C1 1826   2.358   3.618  13.425  0.0857 -0.1948 -0.2217
  120TCq2    O2 1827   2.308   3.666  13.522 -0.1399 -0.3408  0.0056
  120TCq2    C2 1828   2.290   3.510  13.361  0.1233  0.2472  0.7395
  120TCq2    C3 1829   2.344   3.455  13.249  0.0948 -0.1934 -0.9679
  120TCq2    C4 1830   2.276   3.353  13.191 -0.1387  0.6165  0.2483
  120TCq2    C5 1831   2.161   3.305  13.245  0.6439  0.2386  0.0813
  120TCq2    C6 1832   2.116   3.361  13.359 -0.2181  0.7040 -0.4800
  120TCq2    C7 1833   2.182   3.466  13.424 -0.5877 -0.6496 -0.2588
  120TCq2    C8 1834   1.994   3.308  13.409 -0.0298 -0.0671 -0.3383
  120TCq2    O4 1835   1.916   3.255  13.332 -0.1457 -0.3657 -0.2053
  120TCq2    C9 1836   2.323   3.303  13.063 -0.0582 -0.4819  0.5219
  120TCq2    O5 1837   2.423   3.362  13.010  0.4261  0.0301 -0.1724
  120TCq2    O6 1838   2.260   3.211  13.002 -0.2604 -0.1764  0.0323
  120TCq2    H2 1839   2.443   3.475  13.211  1.4207 -1.5694  1.7410
  120TCq2    H3 1840   2.098   3.239  13.187  2.0447 -1.8357  0.9174
  120TCq2    H4 1841   2.148   3.499  13.521 -1.0684 -1.5003 -0.1336
  121TMC2    C1 1842   4.087   0.637  14.126 -0.3275 -0.8697  0.3303
  121TMC2    C2 1843   4.220   0.622  14.154 -0.2512 -0.4513 -0.0363
  121TMC2    C3 1844   4.257   0.497  14.194 -0.9602 -0.2682 -0.0658
  121TMC2    C4 1845   3.993   0.539  14.145  0.4986  0.1757  1.1497
  121TMC2    C5 1846   4.039   0.424  14.189 -0.6110  0.0198  1.0799
  121TMC2    C6 1847   4.171   0.396  14.220  0.4496  0.9547 -0.4115
  121TMC2     C 1848   4.040   0.771  14.094 -0.0814  0.0434  0.5027
  121TMC2     O 1849   3.927   0.795  14.130  0.2158 -0.6179  0.2438
  121TMC2     H 1850   4.296   0.696  14.131  2.1772 -2.3133  1.8922
  121TMC2    H1 1851   3.893   0.563  14.113  0.3972 -1.8883 -0.1024
  121TMC2    H2 1852   4.210   0.299  14.247 -0.6801  0.1987 -1.4822
  121TMC2    C7 1853   3.947   0.316  14.200 -0.3338 -0.0228  0.3225
  121TMC2    C8 1854   4.397   0.476  14.214  0.4253 -0.3931  0.4100
  121TMC2    O1 1855   3.989   0.222  14.266 -0.0013 -0.3814 -0.2128
  121TMC2    O2 1856   4.474   0.558  14.255  0.1351  0.8552  0.2492
  121TMC2    O5 1857   4.423   0.356  14.170  0.5197  0.2639  0.5915
  121TMC2    H5 1858   4.340   0.314  14.137  1.3973 -0.2829 -0.9274
  122MPD2     C 1859   4.012   1.039  13.944  0.0734  0.9433  0.4302
  122MPD2    C1 1860   4.101   0.938  13.918  0.0215 -0.9284 -0.7096
  122MPD2    C2 1861   4.190   0.953  13.813 -0.6426 -0.0243 -0.8303
  122MPD2    C3 1862   4.175   1.058  13.722 -0.4257 -0.6313 -0.0580
  122MPD2    C4 1863   4.060   1.138  13.737  0.4234 -0.3999  0.1063
  122MPD2    C5 1864   3.986   1.135  13.853 -0.2442  0.5402 -0.0171
  122MPD2     H 1865   4.252   0.868  13.789  0.8312  1.0391 -0.8161
  122MPD2    H1 1866   4.044   1.220  13.668  1.3920  0.3630  0.7842
  122MPD2    H2 1867   3.949   1.026  14.031 -0.0991  2.7671  0.5738
  122MPD2    H3 1868   3.911   1.214  13.860 -0.1297  0.7693 -1.2579
  122MPD2     N 1869   4.252   1.071  13.604 -0.2953 -0.1480  0.4346
  122MPD2    H5 1870   4.221   1.136  13.532 -0.1864 -1.4747 -0.8156
  122MPD2    N1 1871   4.122   0.825  14.002 -0.1937  0.3008  1.1680
  122MPD2    H7 1872   4.208   0.778  13.976 -0.5638  0.5104 -0.4252
  123MPD2     C 1873   2.850   3.183  10.434  0.5138 -0.2566 -0.6463
  123MPD2    C1 1874   2.800   3.240  10.318 -0.2357 -0.0574  0.2439
  123MPD2    C2 1875   2.886   3.290  10.221 -0.4312  0.1608 -0.2311
  123MPD2    C3 1876   3.018   3.275  10.236 -0.6011 -0.2665 -0.1098
  123MPD2    C4 1877   3.066   3.218  10.353  0.0899  0.3742  0.8109
  123MPD2    C5 1878   2.984   3.177  10.452 -0.0866 -0.2671 -0.0448
  123MPD2     H 1879   2.858   3.339  10.129  0.2470  0.0978 -0.4702
  123MPD2    H1 1880   3.172   3.222  10.376  0.2466 -1.5905  0.4955
  123MPD2    H2 1881   2.788   3.136  10.509  1.1336 -0.7998 -0.4717
  123MPD2    H3 1882   3.026   3.136  10.543  2.1517  0.2524 -0.8374
  123MPD2     N 1883   3.098   3.329  10.131  0.0461  0.2061 -0.1804
  123MPD2    H5 1884   3.036   3.361  10.057  1.5020  1.1427 -0.9862
  123MPD2    N1 1885   2.656   3.253  10.300 -0.1143  0.3561  0.1306
  123MPD2    H7 1886   2.589   3.197  10.352  0.3223 -1.8463 -1.6401
  124TCq2    C1 1887   3.236   3.324  10.116  0.3000  0.1004 -0.2711
  124TCq2    O2 1888   3.319   3.270  10.192  0.0231  0.4881  0.0534
  124TCq2    C2 1889   3.285   3.374   9.979 -0.4804 -0.3990 -0.0681
  124TCq2    C3 1890   3.420   3.353   9.944 -0.5330 -0.0932 -0.1061
  124TCq2    C4 1891   3.470   3.434   9.848  0.4339  0.5273 -0.2004
  124TCq2    C5 1892   3.400   3.537   9.787  0.3749  0.0595  0.2664
  124TCq2    C6 1893   3.266   3.548   9.810 -0.2299 -0.1732 -0.4931
  124TCq2    C7 1894   3.212   3.470   9.908  0.1166  0.4372 -0.1614
  124TCq2    C8 1895   3.175   3.632   9.731  0.2340  0.4323  0.9662
  124TCq2    O4 1896   3.227   3.733   9.687 -0.7942  0.2948  0.2803
  124TCq2    C9 1897   3.610   3.416   9.801  0.0928 -0.0229 -0.7907
  124TCq2    O5 1898   3.666   3.303   9.822  0.2330  0.5066 -0.3330
  124TCq2    O6 1899   3.657   3.501   9.723 -0.1109 -0.4296  0.3638
  124TCq2    H2 1900   3.469   3.272   9.999  1.1812 -0.4995 -2.2467
  124TCq2    H3 1901   3.459   3.610   9.732  1.8664 -0.4291  1.1970
  124TCq2    H4 1902   3.111   3.488   9.943  0.7369  3.2745  0.1554
  125TMC2    C1 1903   3.481   1.509  10.342 -0.8792 -1.0679  0.0447
  125TMC2    C2 1904   3.591   1.438  10.386  0.3142 -0.2058 -0.1818
  125TMC2    C3 1905   3.644   1.349  10.289  0.0021  0.4422 -0.4039
  125TMC2    C4 1906   3.431   1.489  10.216 -0.3885 -0.4166 -0.3437
  125TMC2    C5 1907   3.492   1.400  10.130 -0.0701  0.0237  0.3809
  125TMC2    C6 1908   3.594   1.322  10.169  1.0551 -0.3818 -0.2187
  125TMC2     C 1909   3.435   1.625  10.420  0.7192 -0.3216 -0.2123
  125TMC2     O 1910   3.398   1.722  10.363 -0.2137 -0.3877 -0.4061
  125TMC2     H 1911   3.632   1.432  10.486  0.7765 -1.6255 -0.4555
  125TMC2    H1 1912   3.351   1.551  10.177 -0.2106  0.1869  0.2392
  125TMC2    H2 1913   3.618   1.229  10.118  0.7373  0.0736 -1.1907
  125TMC2    C7 1914   3.434   1.372   9.996  0.0972  0.1289  0.3180
  125TMC2    C8 1915   3.749   1.267  10.330  0.9780  0.4823  0.7571
  125TMC2    O1 1916   3.321   1.322   9.989 -0.3953  0.3104  0.4687
  125TMC2    O2 1917   3.780   1.244  10.445 -0.0018  0.2873  0.2257
  125TMC2    O5 1918   3.842   1.264  10.237 -0.2812  0.0249  0.2964
  125TMC2    H5 1919   3.814   1.301  10.151 -1.1403 -1.2753  0.0168
  126MPD1     C 1920   3.470   1.918  10.837 -0.5423  0.2046 -0.4005
  126MPD1    C1 1921   3.496   1.787  10.881  0.0683  0.0897  0.4108
  126MPD1    C2 1922   3.502   1.690  10.781 -0.4132 -1.2115  0.0597
  126MPD1    C3 1923   3.474   1.723  10.651  0.3306  0.3563 -0.4434
  126MPD1    C4 1924   3.445   1.851  10.616 -0.5271  1.0415  0.0889
  126MPD1    C5 1925   3.442   1.952  10.708 -0.3612 -0.2841  0.3283
  126MPD1     H 1926   3.521   1.586  10.807  1.7354 -0.8492 -0.0686
  126MPD1    H1 1927   3.411   1.882  10.518 -2.7747 -1.1736  0.1432
  126MPD1    H2 1928   3.467   1.999  10.909 -0.6167 -0.0349 -0.1350
  126MPD1    H3 1929   3.422   2.053  10.676 -0.1105 -1.2227 -2.7697
  126MPD1     N 1930   3.467   1.619  10.555  0.5244 -0.2500  0.8348
  126MPD1    H5 1931   3.479   1.529  10.601 -1.0857  0.1349  1.9910
  126MPD1    N1 1932   3.565   1.773  11.000  0.0829 -0.5748  0.1673
  126MPD1    H6 1933   3.531   1.837  11.072  2.6214  1.3769 -0.3836
  126MPD1    H7 1934   3.567   1.681  11.044 -0.7002 -0.3979  0.5713
  127MPD2     C 1935   4.641   4.575   9.256 -0.3954  0.2203  0.2720
  127MPD2    C1 1936   4.717   4.561   9.367  0.3599 -0.0296  0.1250
  127MPD2    C2 1937   0.050   4.673   9.425 -0.3970  0.4384 -0.0730
  127MPD2    C3 1938   0.044   0.070   9.362 -0.1847 -0.7011 -0.6260
  127MPD2    C4 1939   4.698   0.081   9.242  0.1890 -0.4758 -0.3094
  127MPD2    C5 1940   4.630   4.696   9.194 -0.1523 -0.1655 -0.0924
  127MPD2     H 1941   0.102   4.662   9.519  0.9597 -0.3512 -0.9156
  127MPD2    H1 1942   4.681   0.173   9.187 -1.5070 -0.0994  0.8320
  127MPD2    H2 1943   4.583   4.493   9.216 -0.7378 -0.2460  1.7443
  127MPD2    H3 1944   4.572   4.710   9.104 -2.0980  2.5541  1.5805
  127MPD2     N 1945   0.117   0.180   9.411  0.1618 -0.3361 -0.2754
  127MPD2    H5 1946   0.177   0.159   9.489 -0.2567 -3.6606 -0.8276
  127MPD2    N1 1947   0.014   4.431   9.432 -0.8225 -1.1374  0.1429
  127MPD2    H7 1948   4.707   4.351   9.377 -0.9507  0.1554 -1.6612
  128TCq2    C1 1949   0.076   4.403   9.544 -0.2932 -0.5057  0.5493
  128TCq2    O2 1950   0.132   4.479   9.617  0.1663 -0.8018 -0.4878
  128TCq2    C2 1951   0.082   4.259   9.573  0.1865 -0.2830 -0.4069
  128TCq2    C3 1952   0.175   4.211   9.655 -0.0368 -0.2304 -0.2139
  128TCq2    C4 1953   0.184   4.082   9.682  0.0982  0.0127 -0.3409
  128TCq2    C5 1954   0.101   3.993   9.628  0.2731  0.2121  0.0824
  128TCq2    C6 1955   4.712   4.044   9.561 -0.2258  0.6251  0.5443
  128TCq2    C7 1956   4.713   4.177   9.523  0.2314  0.2483 -0.1290
  128TCq2    C8 1957   4.607   3.963   9.496  0.2828 -0.0019  0.1721
  128TCq2    O4 1958   4.543   4.021   9.411  0.2156  0.3976 -0.4101
  128TCq2    C9 1959   0.279   4.044   9.784 -0.6289 -0.3902  0.9508
  128TCq2    O5 1960   0.308   3.921   9.794  0.1488  0.9244 -0.3117
  128TCq2    O6 1961   0.330   4.135   9.854 -0.1665 -0.0490 -0.3386
  128TCq2    H2 1962   0.247   4.282   9.694  1.6243 -2.0069 -0.0516
  128TCq2    H3 1963   0.104   3.890   9.661  0.3548  0.6996  1.6246
  128TCq2    H4 1964   4.621   4.212   9.476  0.3001 -0.1799 -0.5863
  129MPD2     C 1965   2.134   0.689   0.854 -0.1755  0.1585  0.2535
  129MPD2    C1 1966   2.202   0.743   0.960 -0.3364 -0.4603  0.2973
  129MPD2    C2 1967   2.338   0.767   0.952 -0.2320  0.4441 -0.0906
  129MPD2    C3 1968   2.408   0.736   0.836 -0.3737 -0.3075  0.2258
  129MPD2    C4 1969   2.342   0.672   0.728 -0.0621  0.2340  0.3326
  129MPD2    C5 1970   2.203   0.662   0.734  0.3721  0.2781  0.9316
  129MPD2     H 1971   2.393   0.800   1.039  1.9511  1.2246 -1.7774
  129MPD2    H1 1972   2.402   0.634   0.647  0.3638 -0.9937  1.2212
  129MPD2    H2 1973   2.026   0.684   0.855 -0.2487  1.9541  0.8955
  129MPD2    H3 1974   2.142   0.621   0.655  0.4332 -0.8038  1.4551
  129MPD2     N 1975   2.541   0.768   0.854  0.0918  0.7809  0.0408
  129MPD2    H5 1976   2.579   0.817   0.935 -0.2773 -0.9484  1.2621
  129MPD2    N1 1977   2.148   0.779   1.080 -0.0760 -0.6820 -0.4222
  129MPD2    H7 1978   2.206   0.821   1.151 -0.0119 -1.1659 -0.1912
  130TCq2    C1 1979   2.014   0.785   1.112  0.0425  0.4926 -0.1210
  130TCq2    O2 1980   1.912   0.738   1.055  0.2300 -0.1190 -0.2829
  130TCq2    C2 1981   1.992   0.819   1.254 -0.8477 -0.1492 -0.6418
  130TCq2    C3 1982   2.088   0.873   1.335  0.1635 -0.0579  0.0816
  130TCq2    C4 1983   2.069   0.872   1.477  0.5627  0.0110  0.3458
  130TCq2    C5 1984   1.958   0.819   1.534 -0.2663  0.0036  0.4616
  130TCq2    C6 1985   1.863   0.765   1.450  0.1356 -1.0722  0.2444
  130TCq2    C7 1986   1.881   0.763   1.315  0.1932  0.6403  0.0870
  130TCq2    C8 1987   1.755   0.689   1.503  0.8191 -0.1078  0.7309
  130TCq2    O4 1988   1.666   0.647   1.427 -0.2510 -0.2814 -0.7062
  130TCq2    C9 1989   2.171   0.926   1.563  0.9352  0.6951 -0.1061
  130TCq2    O5 1990   2.152   0.932   1.689 -0.1201 -0.0630  0.7230
  130TCq2    O6 1991   2.272   0.978   1.505  0.5159  0.3214  0.1810
  130TCq2    H2 1992   2.173   0.923   1.290  1.0271 -2.6085 -1.1025
  130TCq2    H3 1993   1.948   0.856   1.635 -4.7020  1.2788 -0.4642
  130TCq2    H4 1994   1.810   0.714   1.249 -0.7299  0.8942  0.8946
  131MPD2     C 1995   2.166   3.842   9.589  0.4642 -0.3092 -0.1221
  131MPD2    C1 1996   2.238   3.891   9.693 -0.2235  0.1084  0.0293
  131MPD2    C2 1997   2.282   3.804   9.794 -0.0777 -0.2856 -0.1051
  131MPD2    C3 1998   2.233   3.673   9.799  0.1013  0.2795  0.1935
  131MPD2    C4 1999   2.147   3.629   9.697 -0.0937 -0.5614 -0.7210
  131MPD2    C5 2000   2.120   3.712   9.590  0.2602  0.8387 -0.4298
  131MPD2     H 2001   2.352   3.837   9.870  1.7773 -1.2014 -1.4014
  131MPD2    H1 2002   2.124   3.524   9.680  0.7574 -0.6854 -1.1309
  131MPD2    H2 2003   2.141   3.901   9.502  1.6615 -0.5837 -0.6463
  131MPD2    H3 2004   2.058   3.676   9.509  0.6118  0.6887 -0.6338
  131MPD2     N 2005   2.279   3.601   9.915  0.3225  0.1360 -0.2782
  131MPD2    H5 2006   2.348   3.643   9.976  0.0644 -0.7786  0.6291
  131MPD2    N1 2007   2.269   4.029   9.689 -0.5378  0.0233  0.2136
  131MPD2    H7 2008   2.246   4.079   9.603  0.9926  0.1417 -0.1187
  132TCq2    C1 2009   2.469   4.481   9.547 -0.2970  0.1136  0.8475
  132TCq2    O2 2010   2.430   4.431   9.446 -0.0765 -0.3895  0.3130
  132TCq2    C2 2011   2.433   4.419   9.675 -0.8269 -0.4462  0.0091
  132TCq2    C3 2012   2.426   4.495   9.791 -0.2917 -0.2216 -0.5514
  132TCq2    C4 2013   2.368   4.441   9.899 -0.0054 -0.2530 -0.2379
  132TCq2    C5 2014   2.339   4.308   9.894  0.3865  0.0998 -0.5828
  132TCq2    C6 2015   2.359   4.231   9.779 -0.0211  0.0140  0.5984
  132TCq2    C7 2016   2.391   4.288   9.658  0.2740  0.3402  0.0181
  132TCq2    C8 2017   2.338   4.090   9.796 -0.2511 -1.1982  0.2426
  132TCq2    O4 2018   2.357   4.050   9.910  0.3998  0.4602  0.1358
  132TCq2    C9 2019   2.342   4.515  10.014 -0.7220 -0.2448  0.3213
  132TCq2    O5 2020   2.261   4.473  10.101 -0.4014  0.4101 -0.0968
  132TCq2    O6 2021   2.375   4.638  10.018 -0.4933  0.3920 -0.1272
  132TCq2    H2 2022   2.483   4.587   9.803 -0.8370 -0.1737  1.6651
  132TCq2    H3 2023   2.302   4.266   9.987 -0.5449 -2.1097 -1.9398
  132TCq2    H4 2024   2.415   4.234   9.567  2.5411  1.4217 -0.0256
  133MPD2     C 2025   1.332   3.557   9.809  0.1107  0.1444  0.0846
  133MPD2    C1 2026   1.396   3.589   9.689 -0.0216 -0.5598  0.3434
  133MPD2    C2 2027   1.390   3.714   9.631  0.1334 -1.2037  0.0494
  133MPD2    C3 2028   1.322   3.815   9.697 -0.4081 -0.5709  0.2263
  133MPD2    C4 2029   1.246   3.785   9.812 -0.0171  0.2513  0.0458
  133MPD2    C5 2030   1.251   3.660   9.866 -0.6800 -0.2093 -0.6029
  133MPD2     H 2031   1.453   3.749   9.550  0.9444  1.0210  1.6534
  133MPD2    H1 2032   1.193   3.863   9.865  0.4821  1.2535 -0.9422
  133MPD2    H2 2033   1.318   3.455   9.844 -1.4907  0.4252  0.2847
  133MPD2    H3 2034   1.202   3.650   9.963  0.3253 -0.6029 -0.1390
  133MPD2     N 2035   1.322   3.949   9.654  0.0198  0.2816 -0.4478
  133MPD2    H5 2036   1.267   4.017   9.707  1.8684  0.0847  1.7154
  133MPD2    N1 2037   1.466   3.486   9.630 -0.3963 -0.1926 -0.2208
  133MPD2    H7 2038   1.465   3.397   9.680  1.4602 -0.4512 -0.6427
  134TCq2    C1 2039   1.526   3.491   9.503  0.6494 -0.4687 -0.0480
  134TCq2    O2 2040   1.529   3.576   9.416  0.0422 -0.1182  0.5403
  134TCq2    C2 2041   1.583   3.360   9.477  0.5918 -0.1765  0.1449
  134TCq2    C3 2042   1.606   3.329   9.344  0.2711  0.3961 -0.5622
  134TCq2    C4 2043   1.660   3.208   9.311  0.0287 -0.1276  0.1523
  134TCq2    C5 2044   1.698   3.125   9.411  0.5327  0.6178 -0.2228
  134TCq2    C6 2045   1.677   3.164   9.540  0.4063  0.3263  0.5711
  134TCq2    C7 2046   1.624   3.277   9.577  0.3053  0.4064  0.3961
  134TCq2    C8 2047   1.738   3.075   9.635 -0.1657  0.7077 -0.0946
  134TCq2    O4 2048   1.832   3.005   9.593  0.5188 -0.2910  0.4684
  134TCq2    C9 2049   1.668   3.168   9.174  0.0767  0.0043 -0.1707
  134TCq2    O5 2050   1.767   3.096   9.137  0.1708 -0.4772  0.1326
  134TCq2    O6 2051   1.609   3.243   9.095  0.4120  0.1904 -0.1119
  134TCq2    H2 2052   1.563   3.395   9.270 -1.8480 -0.4082 -0.0471
  134TCq2    H3 2053   1.742   3.028   9.391  2.0756  1.8976 -3.0328
  134TCq2    H4 2054   1.636   3.312   9.679  0.0422  0.1907  0.5014
  135MPD2     C 2055   4.399   1.910   9.629 -0.1519 -1.0268 -0.5523
  135MPD2    C1 2056   4.391   1.779   9.595  0.0278  0.1305  0.3029
  135MPD2    C2 2057   4.468   1.733   9.487 -0.0223 -0.3935 -0.3303
  135MPD2    C3 2058   4.542   1.825   9.412 -0.3194  0.2318  0.8523
  135MPD2    C4 2059   4.549   1.958   9.444  0.2969  0.1007 -0.2842
  135MPD2    C5 2060   4.477   1.995   9.550  0.0051  0.0123 -0.1465
  135MPD2     H 2061   4.459   1.626   9.472  0.7526 -0.3646 -0.9967
  135MPD2    H1 2062   4.607   2.029   9.387  2.0333 -0.8660  0.2891
  135MPD2    H2 2063   4.363   1.961   9.717 -0.1084 -0.1261 -1.0578
  135MPD2    H3 2064   4.480   2.099   9.579 -1.5619 -0.0023  0.0727
  135MPD2     N 2065   4.617   1.786   9.300 -0.0063 -0.3768  0.0208
  135MPD2    H5 2066   4.672   1.855   9.251  0.1553  0.1767  0.9895
  135MPD2    N1 2067   4.331   1.691   9.690  0.2337 -0.5421  0.5314
  135MPD2    H7 2068   4.353   1.592   9.683  0.2795 -0.6060  1.5999
  136TCq2    C1 2069   4.254   1.728   9.799  0.2272 -0.3551 -0.0039
  136TCq2    O2 2070   4.206   1.839   9.830  0.1592 -0.3032 -0.6563
  136TCq2    C2 2071   4.203   1.608   9.857  0.4975  0.0652  0.4327
  136TCq2    C3 2072   4.066   1.606   9.880  0.0218  0.8728  0.2673
  136TCq2    C4 2073   4.007   1.495   9.926 -0.1080  0.6916 -0.1785
  136TCq2    C5 2074   4.076   1.375   9.922  0.6284 -0.2234 -0.4144
  136TCq2    C6 2075   4.212   1.374   9.885 -0.8175  0.1662 -0.6287
  136TCq2    C7 2076   4.277   1.491   9.856  0.1686 -0.2230  0.0565
  136TCq2    C8 2077   4.275   1.242   9.859  0.5851 -0.5282 -0.3003
  136TCq2    O4 2078   4.396   1.244   9.850  0.3497 -0.3847  0.3696
  136TCq2    C9 2079   3.869   1.483   9.967 -0.0831  0.2724 -0.3502
  136TCq2    O5 2080   3.801   1.586   9.971 -0.5480  0.2206  0.6330
  136TCq2    O6 2081   3.825   1.368  10.005  0.5448 -0.0310 -0.2837
  136TCq2    H2 2082   4.008   1.698   9.878 -0.5294  0.5494  1.3571
  136TCq2    H3 2083   4.027   1.285   9.955  1.9432 -0.9368 -0.4046
  136TCq2    H4 2084   4.382   1.490   9.829  0.7191  0.4147  2.1463
  137MPD2     C 2085   3.971   4.510   9.493 -0.7798  0.2994  0.4768
  137MPD2    C1 2086   3.991   4.628   9.573  0.4879 -1.0203 -0.5952
  137MPD2    C2 2087   4.069   4.610   9.686  0.0210  0.0906 -0.0627
  137MPD2    C3 2088   4.105   4.480   9.727  0.2130 -0.0561 -0.4167
  137MPD2    C4 2089   4.088   4.371   9.645 -0.2347  0.3236 -0.2309
  137MPD2    C5 2090   4.030   4.396   9.527  0.7085  0.2057  0.0968
  137MPD2     H 2091   4.102   4.694   9.745  3.3474 -0.6063 -0.9296
  137MPD2    H1 2092   4.123   4.270   9.659  1.2741  0.9804  0.6539
  137MPD2    H2 2093   3.916   4.516   9.400  0.0958  1.5124  0.0338
  137MPD2    H3 2094   4.005   4.307   9.470  3.6175 -1.5173  1.5266
  137MPD2     N 2095   4.164   4.459   9.861  0.2156  0.4059  0.3633
  137MPD2    H5 2096   4.173   4.542   9.919 -1.4772  0.0333  1.1586
  137MPD2    N1 2097   3.942   0.030   9.528 -0.4056  0.1311 -0.3771
  137MPD2    H7 2098   3.888   0.021   9.442 -0.7145  0.6303 -0.2327
  138TCq2    C1 2099   3.972   0.159   9.580  0.4184 -0.0844 -0.4000
  138TCq2    O2 2100   4.032   0.188   9.686  0.1482 -0.3808 -0.5877
  138TCq2    C2 2101   3.916   0.259   9.486 -0.4915 -0.1133  0.5615
  138TCq2    C3 2102   3.870   0.226   9.362 -0.2187 -0.4678 -0.8420
  138TCq2    C4 2103   3.815   0.325   9.294 -0.2791  0.1340  0.1045
  138TCq2    C5 2104   3.772   0.440   9.352  0.0774  0.9587  0.3696
  138TCq2    C6 2105   3.807   0.464   9.480 -0.2871 -0.2049  0.9086
  138TCq2    C7 2106   3.890   0.378   9.550 -0.3034  0.4516 -0.6560
  138TCq2    C8 2107   3.751   0.575   9.549  0.4908  0.3460 -0.6706
  138TCq2    O4 2108   3.811   0.616   9.650  0.1200 -0.2279 -0.4476
  138TCq2    C9 2109   3.782   0.303   9.159 -0.3374 -0.1915 -0.5558
  138TCq2    O5 2110   3.734   0.397   9.088 -0.3459 -0.3148  0.2094
  138TCq2    O6 2111   3.796   0.183   9.123  0.0924 -0.0769 -0.1487
  138TCq2    H2 2112   3.911   0.142   9.307 -1.0653 -0.0253 -2.1455
  138TCq2    H3 2113   3.714   0.511   9.295  1.0486  0.8044 -0.8344
  138TCq2    H4 2114   3.929   0.395   9.649 -3.1512 -0.2297  0.5699
  139TMC2    C1 2115   4.025   2.932  13.209  0.5594  0.0854  0.3317
  139TMC2    C2 2116   4.049   2.965  13.078  0.0813  0.3854 -0.2735
  139TMC2    C3 2117   3.979   3.067  13.030  0.6151  0.3297 -0.4105
  139TMC2    C4 2118   3.925   2.985  13.285 -0.2343  0.4930 -0.3516
  139TMC2    C5 2119   3.852   3.086  13.224 -0.8053  0.6521  0.2698
  139TMC2    C6 2120   3.889   3.132  13.100  0.3704 -0.1540  0.3636
  139TMC2     C 2121   4.134   2.847  13.268  0.0774  0.2662  0.4609
  139TMC2     O 2122   4.226   2.814  13.197 -0.4369  0.1164  0.2941
  139TMC2     H 2123   4.121   2.912  13.017 -0.1112  0.0642 -0.2216
  139TMC2    H1 2124   3.907   2.947  13.385  0.6842  0.9250 -0.0123
  139TMC2    H2 2125   3.831   3.210  13.053  0.9277  0.9088  1.4353
  139TMC2    C7 2126   3.780   3.175  13.312  0.4366 -0.0311  0.1402
  139TMC2    C8 2127   4.003   3.101  12.893 -0.4933 -0.1757 -0.5383
  139TMC2    O1 2128   3.704   3.251  13.256 -0.6155  0.0823  0.6322
  139TMC2    O2 2129   4.026   3.015  12.814 -0.4187  0.3125  0.1424
  139TMC2    O5 2130   4.043   3.231  12.877  0.2700  0.0608  0.0318
  139TMC2    H5 2131   4.063   3.277  12.961  2.7929  2.1957 -1.7487
  140MPD2     C 2132   4.106   2.613  13.545  0.1273  0.6672 -0.3093
  140MPD2    C1 2133   4.179   2.695  13.457 -0.1428 -0.0886  0.3186
  140MPD2    C2 2134   4.316   2.663  13.435  0.9481 -0.3082  0.0763
  140MPD2    C3 2135   4.382   2.560  13.500  0.1017  0.7137  1.3354
  140MPD2    C4 2136   4.310   2.487  13.584 -0.3439  0.2569 -0.2534
  140MPD2    C5 2137   4.177   2.508  13.602  0.0029  0.1290 -0.1656
  140MPD2     H 2138   4.374   2.735  13.378 -2.3311 -0.7436 -3.7885
  140MPD2    H1 2139   4.357   2.404  13.637  0.8360  0.5708 -0.8096
  140MPD2    H2 2140   3.999   2.627  13.553 -0.3052 -1.1236 -2.8932
  140MPD2    H3 2141   4.125   2.438  13.667  0.7371  0.4162  0.7322
  140MPD2     N 2142   4.521   2.528  13.468  0.1300  0.3274 -0.0771
  140MPD2    H5 2143   4.568   2.599  13.414  1.3010 -0.3618  0.0327
  140MPD2    N1 2144   4.101   2.793  13.391  0.0580 -0.6371 -0.2625
  140MPD2    H7 2145   4.010   2.814  13.431 -0.0815 -1.8974  0.0927
  141TCq2    C1 2146   0.051   4.069  14.748  0.1856 -0.2696  0.3594
  141TCq2    O2 2147   0.080   4.152  14.665  0.5257 -0.2758  0.3158
  141TCq2    C2 2148   0.043   4.107  14.883  0.6796  0.1225  1.0195
  141TCq2    C3 2149   0.024   4.007  14.979 -0.1487 -0.2602  0.1998
  141TCq2    C4 2150   4.684   4.046  15.094 -0.1275  0.4380  0.6566
  141TCq2    C5 2151   4.658   4.178  15.130  0.7997 -0.2496  0.1423
  141TCq2    C6 2152   4.707   4.271  15.037 -0.3956 -1.1123 -1.0016
  141TCq2    C7 2153   0.038   4.235  14.912 -0.5369 -0.0362  0.0080
  141TCq2    C8 2154   4.685   4.415  15.069  0.3908  0.2845 -0.3805
  141TCq2    O4 2155   4.679   4.451  15.189  0.0929 -0.3217  0.0818
  141TCq2    C9 2156   4.627   3.945  15.181  0.0279  0.7502 -0.8375
  141TCq2    O5 2157   4.543   3.986  15.267  0.3810  0.1995  0.4794
  141TCq2    O6 2158   4.653   3.824  15.166  0.4138  0.7704  0.2026
  141TCq2    H2 2159   0.030   3.899  14.966  0.7509 -0.0143 -1.3723
  141TCq2    H3 2160   4.612   4.203  15.225 -2.4266  1.4805 -1.8628
  141TCq2    H4 2161   0.083   4.311  14.849 -2.5909  3.2283  2.4897
  142MPD2     C 2162   2.530   2.780  10.205  0.3078 -0.4920 -0.0533
  142MPD2    C1 2163   2.425   2.763  10.123 -0.1084  0.3980  0.0948
  142MPD2    C2 2164   2.411   2.837  10.009 -0.4386 -0.5618  0.4458
  142MPD2    C3 2165   2.492   2.945   9.989 -0.2540  0.6953  0.0654
  142MPD2    C4 2166   2.599   2.968  10.073  0.2152 -0.1183 -0.0041
  142MPD2    C5 2167   2.620   2.880  10.176 -0.2298  0.4909  0.4593
  142MPD2     H 2168   2.326   2.821   9.944  1.5389 -0.2293 -2.2341
  142MPD2    H1 2169   2.670   3.045  10.047 -0.5560  0.4006 -0.5722
  142MPD2    H2 2170   2.547   2.712  10.287 -1.8638 -1.1299 -0.1438
  142MPD2    H3 2171   2.705   2.906  10.238  0.4317  1.6024 -0.9096
  142MPD2     N 2172   2.478   3.038   9.887 -0.0966 -0.2782 -0.1173
  142MPD2    H5 2173   2.548   3.111   9.890  2.1971 -2.4438 -1.1785
  142MPD2    N1 2174   2.329   2.665  10.154  0.0517 -0.0672 -0.1323
  142MPD2    H7 2175   2.336   2.610  10.239 -2.0105 -0.3560 -0.1559
  143TCq2    C1 2176   2.401   3.029   9.772  0.3914 -0.6435 -0.7599
  143TCq2    O2 2177   2.354   2.925   9.722 -0.0013  0.1500 -0.1825
  143TCq2    C2 2178   2.406   3.152   9.686 -0.3604 -0.2578 -0.9896
  143TCq2    C3 2179   2.372   3.141   9.551 -0.6442  0.3191 -0.1947
  143TCq2    C4 2180   2.383   3.250   9.473  0.4378  0.6251 -0.2708
  143TCq2    C5 2181   2.423   3.367   9.532 -0.0159  0.0669 -0.2860
  143TCq2    C6 2182   2.446   3.378   9.663  0.1090  0.5028 -0.2810
  143TCq2    C7 2183   2.438   3.274   9.749 -0.2666 -0.4386 -0.3513
  143TCq2    C8 2184   2.536   3.485   9.709 -0.5871  0.2756 -0.0995
  143TCq2    O4 2185   2.579   3.461   9.820  0.1680  0.0604 -0.0824
  143TCq2    C9 2186   2.349   3.240   9.331  0.1487 -0.9682 -0.3949
  143TCq2    O5 2187   2.394   3.333   9.257 -0.6957 -0.4374 -0.1014
  143TCq2    O6 2188   2.282   3.143   9.294 -0.8614  0.8003 -0.1422
  143TCq2    H2 2189   2.354   3.043   9.508 -2.2996  0.6815 -0.3212
  143TCq2    H3 2190   2.420   3.452   9.466 -0.9170  0.7463  0.6156
  143TCq2    H4 2191   2.447   3.285   9.857 -1.2478  1.7624 -0.4892
  144MPD2     C 2192   4.617   2.747   0.353  0.1522 -0.2981  0.5475
  144MPD2    C1 2193   4.672   2.619   0.361  0.0159 -0.2430 -0.4825
  144MPD2    C2 2194   0.019   2.592   0.479 -0.5030 -0.4632 -0.3333
  144MPD2    C3 2195   0.029   2.678   0.577 -0.2291 -0.3283 -0.2944
  144MPD2    C4 2196   4.691   2.798   0.572  0.0341 -0.1045 -0.8369
  144MPD2    C5 2197   4.632   2.837   0.453  0.1235  0.3757  0.5952
  144MPD2     H 2198   0.062   2.493   0.480 -2.8533 -1.4943 -0.9659
  144MPD2    H1 2199   4.694   2.876   0.647 -0.5060 -0.8890 -0.0069
  144MPD2    H2 2200   4.557   2.775   0.267  1.4460  2.9945  0.7309
  144MPD2    H3 2201   4.591   2.937   0.448  0.4121  0.4595 -0.2855
  144MPD2     N 2202   0.093   2.646   0.698 -0.1565  0.7542 -0.1168
  144MPD2    H5 2203   0.094   2.719   0.768  2.2457 -0.2848  0.9483
  144MPD2    N1 2204   4.670   2.517   0.262 -0.1429 -0.3246  0.1183
  144MPD2    H7 2205   4.719   2.431   0.284 -1.0396 -1.2584 -1.5268
  145TCq2    C1 2206   0.150   2.522   0.729 -0.0097  0.5115 -0.1982
  145TCq2    O2 2207   0.172   2.429   0.653 -0.8299  0.7288 -0.1581
  145TCq2    C2 2208   0.169   2.515   0.875 -0.6717  0.4068  0.1117
  145TCq2    C3 2209   0.211   2.624   0.948  0.1677 -0.0771  0.4120
  145TCq2    C4 2210   0.218   2.620   1.085 -0.4169 -0.4116 -0.3442
  145TCq2    C5 2211   0.179   2.498   1.143 -1.0866 -0.2921  0.8228
  145TCq2    C6 2212   0.149   2.390   1.069 -0.7653  0.5857 -0.4757
  145TCq2    C7 2213   0.150   2.391   0.936 -0.2638  0.0168 -0.1930
  145TCq2    C8 2214   0.036   2.310   1.124 -0.3682 -0.8084 -0.5396
  145TCq2    O4 2215   0.006   2.204   1.072  0.0505 -1.3557  0.7035
  145TCq2    C9 2216   0.283   2.727   1.164  0.0165  0.0101 -0.1438
  145TCq2    O5 2217   0.311   2.836   1.102 -0.1178  0.3320 -0.2048
  145TCq2    O6 2218   0.278   2.701   1.285 -0.4299  0.0965  0.4623
  145TCq2    H2 2219   0.252   2.712   0.900 -0.7306  1.2798  2.1178
  145TCq2    H3 2220   0.181   2.500   1.251 -1.1637  0.9316  0.7985
  145TCq2    H4 2221   0.115   2.305   0.879  2.7136  0.1449 -2.2175
  146TMC2    C1 2222   1.495   0.607  12.186 -0.1872  0.1577 -0.3322
  146TMC2    C2 2223   1.456   0.638  12.058  0.5095  0.5565 -0.0544
  146TMC2    C3 2224   1.364   0.551  12.004  0.6058  0.1698 -0.7694
  146TMC2    C4 2225   1.447   0.497  12.261  0.2918 -0.5651  1.3004
  146TMC2    C5 2226   1.355   0.418  12.203 -0.3221 -1.1080  0.3739
  146TMC2    C6 2227   1.317   0.444  12.070 -0.3576  0.4210  0.2739
  146TMC2     C 2228   1.601   0.691  12.233 -0.7621  0.2169 -0.2691
  146TMC2     O 2229   1.625   0.793  12.168  0.5036  0.3454 -0.0520
  146TMC2     H 2230   1.495   0.724  12.005  0.9350  0.7333  0.5498
  146TMC2    H1 2231   1.488   0.463  12.356 -1.2866  0.4326  2.3440
  146TMC2    H2 2232   1.257   0.372  12.016  0.9234 -0.7182  0.3401
  146TMC2    C7 2233   1.302   0.292  12.260  0.6664 -0.6386 -0.6563
  146TMC2    C8 2234   1.355   0.556  11.861 -1.0092 -0.1599  0.2522
  146TMC2    O1 2235   1.189   0.256  12.226  0.0233 -0.8062 -0.3443
  146TMC2    O2 2236   1.362   0.455  11.794 -0.2442 -0.0695  0.2559
  146TMC2    O5 2237   1.367   0.684  11.822  0.0544 -0.4597  0.1235
  146TMC2    H5 2238   1.342   0.745  11.894  0.7364  1.3252 -1.1474
  147MPD2     C 2239   1.340   4.637  12.599  0.5133  0.9134  0.5158
  147MPD2    C1 2240   1.461   4.702  12.586 -0.1076 -0.1275  0.1099
  147MPD2    C2 2241   1.467   0.076  12.498 -0.2638 -0.3465 -0.0364
  147MPD2    C3 2242   1.362   0.124  12.425  0.2355  0.1732  0.7625
  147MPD2    C4 2243   1.242   0.055  12.441 -0.1678  0.2478  0.4850
  147MPD2    C5 2244   1.229   4.679  12.530 -0.7477 -0.3506  0.2426
  147MPD2     H 2245   1.563   0.124  12.479  1.1799 -3.6126 -0.9939
  147MPD2    H1 2246   1.153   0.080  12.385 -1.1242  0.5226  2.0978
  147MPD2    H2 2247   1.345   4.553  12.667 -0.0104 -0.4936 -1.2011
  147MPD2    H3 2248   1.130   4.640  12.550 -0.4927 -0.5511  1.1370
  147MPD2     N 2249   1.389   0.235  12.344 -0.0530  0.3595  0.2199
  147MPD2    H5 2250   1.482   0.272  12.353 -0.8691  2.2904  0.5891
  147MPD2    N1 2251   1.570   4.654  12.667 -0.0445 -0.6738  0.2463
  147MPD2    H7 2252   1.544   4.573  12.722 -1.6468  0.5613  1.2896
  148MPD2     C 2253   2.093   4.241  11.017 -0.2049 -0.7479 -0.2485
  148MPD2    C1 2254   2.139   4.304  10.902 -0.6688  0.7860  0.1062
  148MPD2    C2 2255   2.090   4.264  10.778  0.1945 -0.5908  0.1080
  148MPD2    C3 2256   1.999   4.160  10.772  0.7594 -0.0032  0.4781
  148MPD2    C4 2257   1.951   4.106  10.891 -0.4169  0.1263 -0.6709
  148MPD2    C5 2258   1.997   4.148  11.012  0.2583 -0.1246  0.7616
  148MPD2     H 2259   2.138   4.298  10.687 -2.4797  3.2276  0.1318
  148MPD2    H1 2260   1.873   4.031  10.889 -0.8862  0.5493  1.6539
  148MPD2    H2 2261   2.138   4.263  11.113 -0.4171  2.0471 -0.7942
  148MPD2    H3 2262   1.965   4.094  11.100 -0.7523 -1.7001 -0.5658
  148MPD2     N 2263   1.952   4.121  10.643 -0.1627 -0.2886 -0.0916
  148MPD2    H5 2264   1.971   4.171  10.557 -0.0326 -1.8968 -0.9829
  148MPD2    N1 2265   2.261   4.386  10.900  0.0266  0.0994  0.5461
  148MPD2    H7 2266   2.305   4.402  10.809 -0.1352 -0.4828  0.3674
  149TCq2    C1 2267   2.328   4.438  11.009  0.0717 -0.6441 -0.1944
  149TCq2    O2 2268   2.304   4.418  11.129 -0.6395  0.7215  0.2793
  149TCq2    C2 2269   2.453   4.492  10.967 -0.4624  0.1663  0.3547
  149TCq2    C3 2270   2.454   4.620  10.917  0.3306 -0.8093 -0.9725
  149TCq2    C4 2271   2.539   4.650  10.815 -0.4146 -0.6491  0.4768
  149TCq2    C5 2272   2.602   4.555  10.738  0.6735 -0.0467 -0.3223
  149TCq2    C6 2273   2.587   4.423  10.772 -0.1253  0.0297 -0.2116
  149TCq2    C7 2274   2.518   4.400  10.889  0.6122  0.2023 -0.0266
  149TCq2    C8 2275   2.544   4.344  10.660 -0.6889  0.3413  0.0052
  149TCq2    O4 2276   2.449   4.268  10.671 -0.5042  0.2114  0.0815
  149TCq2    C9 2277   2.520   0.047  10.752 -0.3081 -0.7222  0.2347
  149TCq2    O5 2278   2.412   0.108  10.773  0.2092  0.4386  0.2696
  149TCq2    O6 2279   2.599   0.083  10.663 -0.7881 -0.1328 -0.0106
  149TCq2    H2 2280   2.376   4.685  10.955 -1.4812 -3.3914 -0.2357
  149TCq2    H3 2281   2.659   4.582  10.650  1.2264 -0.7523 -0.1894
  149TCq2    H4 2282   2.490   4.297  10.904  1.7800 -0.0538  0.4057
  150MPD2     C 2283   3.965   3.760  11.636  0.8764 -0.6865 -0.9186
  150MPD2    C1 2284   3.861   3.695  11.695  0.3459 -0.0520  0.3578
  150MPD2    C2 2285   3.844   3.709  11.836 -0.0276  0.9579 -0.3084
  150MPD2    C3 2286   3.941   3.783  11.909 -0.1890 -0.8487 -0.3879
  150MPD2    C4 2287   4.049   3.837  11.844  0.3865 -0.3358 -0.0160
  150MPD2    C5 2288   4.068   3.822  11.712 -0.8253 -0.5482 -0.1256
  150MPD2     H 2289   3.755   3.677  11.889 -0.5471  2.8946 -0.0263
  150MPD2    H1 2290   4.127   3.893  11.893  0.7506 -1.1881  0.3656
  150MPD2    H2 2291   3.967   3.750  11.528  3.4418  0.0979 -0.9440
  150MPD2    H3 2292   4.159   3.851  11.661 -0.2631  0.0590  1.2084
  150MPD2     N 2293   3.932   3.786  12.051  0.2041 -0.0086 -0.3394
  150MPD2    H5 2294   3.848   3.750  12.096  1.1760 -2.2224 -0.2795
  150MPD2    N1 2295   3.771   3.620  11.618 -0.1998 -0.2651 -0.0398
  150MPD2    H7 2296   3.796   3.614  11.520 -2.2619  1.1048 -0.6415
  151TCq2    C1 2297   4.024   3.842  12.134  0.0053 -0.6507 -0.1441
  151TCq2    O2 2298   4.135   3.887  12.117 -0.0740  0.0545 -0.2944
  151TCq2    C2 2299   3.985   3.849  12.269  0.7167 -0.0048 -0.4844
  151TCq2    C3 2300   3.862   3.794  12.306  0.5182  0.3762  0.1580
  151TCq2    C4 2301   3.818   3.812  12.434  0.3388 -0.1378  0.7485
  151TCq2    C5 2302   3.883   3.885  12.523 -0.0223 -0.8846  0.3893
  151TCq2    C6 2303   4.012   3.926  12.497 -0.3456 -0.0888  0.4756
  151TCq2    C7 2304   4.062   3.914  12.370  0.6944  0.5397 -0.4181
  151TCq2    C8 2305   4.096   3.971  12.606  0.7443  0.0721  0.0796
  151TCq2    O4 2306   4.039   4.018  12.703  0.3949  0.2746  0.2779
  151TCq2    C9 2307   3.695   3.752  12.470  0.4808  0.2207  0.4234
  151TCq2    O5 2308   3.667   3.646  12.402  0.4600  0.7028  0.4821
  151TCq2    O6 2309   3.647   3.785  12.579  0.6206  0.2510  0.5850
  151TCq2    H2 2310   3.803   3.729  12.242  1.5301  1.0642 -1.4456
  151TCq2    H3 2311   3.840   3.893  12.622  0.9510 -0.3758  0.7654
  151TCq2    H4 2312   4.153   3.964  12.336  1.4555 -0.7590 -0.2848
  152MPD2     C 2313   3.422   3.312  12.689  0.6359  0.0302 -0.2296
  152MPD2    C1 2314   3.477   3.393  12.589 -0.7246  0.8273  0.5059
  152MPD2    C2 2315   3.409   3.404  12.467  0.0932 -0.2018 -0.0896
  152MPD2    C3 2316   3.286   3.350  12.441 -0.4875  0.0920 -0.5304
  152MPD2    C4 2317   3.230   3.275  12.545 -0.3815  0.4775  0.0430
  152MPD2    C5 2318   3.300   3.257  12.666  0.8426  0.0031  0.3006
  152MPD2     H 2319   3.444   3.462  12.383  1.2951  1.2401  1.4034
  152MPD2    H1 2320   3.133   3.225  12.543  0.6083 -1.3896 -1.3515
  152MPD2    H2 2321   3.470   3.276  12.779 -0.3561 -0.5953  0.0472
  152MPD2    H3 2322   3.257   3.200  12.748 -0.8248 -0.1706 -0.6971
  152MPD2     N 2323   3.217   3.368  12.321  0.2622  0.5460 -0.6016
  152MPD2    H5 2324   3.264   3.418  12.246 -1.3592  1.1166 -1.2499
  152MPD2    N1 2325   3.601   3.455  12.612 -0.1796  0.3113  0.0892
  152MPD2    H7 2326   3.643   3.506  12.535 -0.7436  0.4754 -0.1130
  153TCq2    C1 2327   3.666   3.451  12.735  0.0924 -0.3178 -0.4174
  153TCq2    O2 2328   3.640   3.408  12.846 -0.2303 -0.2045  0.1441
  153TCq2    C2 2329   3.802   3.518  12.731 -0.5189  0.6436 -0.0030
  153TCq2    C3 2330   3.881   3.500  12.625 -0.0775 -0.3093  0.0168
  153TCq2    C4 2331   4.013   3.535  12.632 -0.1072  0.1898  0.6729
  153TCq2    C5 2332   4.061   3.583  12.750  0.2509 -0.0633 -0.4633
  153TCq2    C6 2333   3.982   3.592  12.858  0.0102  0.4948 -0.4086
  153TCq2    C7 2334   3.849   3.560  12.851 -0.5777 -0.0265 -0.2303
  153TCq2    C8 2335   4.031   3.646  12.982  0.4063 -0.0995  0.3112
  153TCq2    O4 2336   3.945   3.700  13.053  0.7737  0.1651 -0.1561
  153TCq2    C9 2337   4.092   3.540  12.515  0.0217 -0.1373 -0.0374
  153TCq2    O5 2338   4.023   3.508  12.412  0.9670  0.0703  0.1217
  153TCq2    O6 2339   4.217   3.559  12.525 -0.4943 -0.2102  0.5654
  153TCq2    H2 2340   3.838   3.458  12.535 -0.7978  2.8087 -1.0907
  153TCq2    H3 2341   4.163   3.620  12.747  0.0839  0.4204 -0.2420
  153TCq2    H4 2342   3.795   3.547  12.945  0.2034  3.7413  0.7564
  154MPD2     C 2343   0.715   2.998   0.372  0.1940 -0.3273  0.6376
  154MPD2    C1 2344   0.670   3.090   0.457 -0.7643 -0.0913 -0.0164
  154MPD2    C2 2345   0.588   3.189   0.410 -0.0636 -0.0897  0.3909
  154MPD2    C3 2346   0.557   3.195   0.275  0.3235  0.0029 -0.3557
  154MPD2    C4 2347   0.609   3.103   0.186 -0.3860  0.1097  0.4554
  154MPD2    C5 2348   0.676   2.998   0.237  0.5035 -0.3368  0.0074
  154MPD2     H 2349   0.561   3.273   0.473 -2.0568 -0.5280  0.1180
  154MPD2    H1 2350   0.577   3.086   0.084 -0.8573 -0.9005  0.7717
  154MPD2    H2 2351   0.770   2.910   0.401 -1.4474 -1.3337  0.6980
  154MPD2    H3 2352   0.702   2.916   0.172 -0.7848 -1.3662  0.7863
  154MPD2     N 2353   0.469   3.296   0.232 -0.5927 -0.6048 -0.1684
  154MPD2    H5 2354   0.422   3.351   0.303 -0.4557 -0.4269 -0.2163
  154MPD2    N1 2355   0.711   3.083   0.595  0.1257  0.7571  0.7086
  154MPD2    H7 2356   0.774   3.007   0.615  0.6212  1.5057  1.9898
  155TCq2    C1 2357   0.655   3.157   0.696  0.1982 -0.5942  0.7221
  155TCq2    O2 2358   0.549   3.216   0.700 -0.1817  0.3240  0.4694
  155TCq2    C2 2359   0.704   3.106   0.820 -0.3820 -0.1631  0.4181
  155TCq2    C3 2360   0.623   3.105   0.936  1.2277 -0.3969 -0.6523
  155TCq2    C4 2361   0.670   3.040   1.044 -0.0714  0.6707  0.3169
  155TCq2    C5 2362   0.779   2.960   1.046  0.7663 -0.3381 -0.6537
  155TCq2    C6 2363   0.859   2.966   0.933  1.5433 -0.8468 -0.5590
  155TCq2    C7 2364   0.829   3.044   0.820  0.0677 -0.2295 -0.5945
  155TCq2    C8 2365   0.970   2.872   0.909 -0.1915 -0.2258 -0.3846
  155TCq2    O4 2366   1.017   2.865   0.799  0.0929  0.1884  0.6058
  155TCq2    C9 2367   0.579   3.034   1.145  0.1376  0.4633  0.4087
  155TCq2    O5 2368   0.460   3.063   1.120  0.2349  0.1571 -0.2234
  155TCq2    O6 2369   0.610   2.979   1.251  0.6893  0.3896  0.2557
  155TCq2    H2 2370   0.529   3.160   0.936  1.6768  0.3870 -0.0125
  155TCq2    H3 2371   0.803   2.903   1.136 -2.0006  1.2684  1.1107
  155TCq2    H4 2372   0.904   3.049   0.742  0.3970  1.0185 -0.1917
  156MPD2     C 2373   3.895   0.824  11.411 -0.0712  0.0952  0.2677
  156MPD2    C1 2374   3.859   0.958  11.423  0.7279  0.1670 -0.9044
  156MPD2    C2 2375   3.930   1.036  11.515 -0.6801  0.4689  0.1026
  156MPD2    C3 2376   4.035   0.986  11.587 -0.2987  0.3344 -0.3146
  156MPD2    C4 2377   4.062   0.852  11.573  0.3758  0.3986  0.1540
  156MPD2    C5 2378   3.994   0.776  11.483 -0.0053  1.0125 -0.2649
  156MPD2     H 2379   3.905   1.141  11.529 -0.4871  0.3488  1.2703
  156MPD2    H1 2380   4.147   0.800  11.615 -0.6703 -1.1427  0.3937
  156MPD2    H2 2381   3.852   0.761  11.334 -0.0453  1.2711 -0.7201
  156MPD2    H3 2382   4.028   0.674  11.469  0.1422  1.1106 -0.6195
  156MPD2     N 2383   4.098   1.068  11.680 -0.0639  0.2415  0.0280
  156MPD2    H5 2384   4.078   1.167  11.666 -2.3248  0.1540  2.5806
  156MPD2    N1 2385   3.756   1.002  11.334 -0.1278  0.6589  0.4672
  156MPD2    H7 2386   3.741   0.950  11.248  1.2712 -1.4829  1.5420
  157TCq2    C1 2387   3.694   1.124  11.340 -0.2913 -0.3231 -0.1785
  157TCq2    O2 2388   3.694   1.206  11.431  0.0068 -0.1086 -0.4721
  157TCq2    C2 2389   3.599   1.144  11.226  0.5791  0.2719  0.9875
  157TCq2    C3 2390   3.503   1.045  11.186  0.4259 -0.2975 -0.2956
  157TCq2    C4 2391   3.402   1.089  11.105  0.3445 -0.5190  0.1493
  157TCq2    C5 2392   3.386   1.225  11.075 -0.1942 -0.0207  0.8219
  157TCq2    C6 2393   3.481   1.311  11.124 -0.6229  0.8913 -0.2991
  157TCq2    C7 2394   3.582   1.277  11.201  0.1092  0.4028 -0.1164
  157TCq2    C8 2395   3.450   1.453  11.128 -0.2375 -0.3454  0.3637
  157TCq2    O4 2396   3.548   1.520  11.159 -0.4396  0.1658  0.2098
  157TCq2    C9 2397   3.306   1.000  11.044  0.3785 -0.5062  0.3014
  157TCq2    O5 2398   3.307   0.886  11.085 -0.7438 -0.1216 -0.2857
  157TCq2    O6 2399   3.241   1.048  10.944 -0.4061 -0.3078  0.0133
  157TCq2    H2 2400   3.501   0.940  11.214 -1.1048 -0.4370 -0.9606
  157TCq2    H3 2401   3.315   1.253  10.998 -0.9648 -0.2725  1.4487
  157TCq2    H4 2402   3.649   1.345  11.252 -0.6566  1.3729 -0.3978
  158TMC2    C1 2403   4.213   4.177  13.946  0.1998  0.4524 -0.4165
  158TMC2    C2 2404   4.276   4.297  13.977 -0.3649  0.6408  0.3517
  158TMC2    C3 2405   4.236   4.408  13.909 -0.0889  0.0374 -0.3618
  158TMC2    C4 2406   4.105   4.175  13.857 -0.2603  0.2838  0.0960
  158TMC2    C5 2407   4.062   4.292  13.803  0.5467 -1.0012 -0.1839
  158TMC2    C6 2408   4.137   4.405  13.817  0.4208 -0.0741  0.1383
  158TMC2     C 2409   4.250   4.062  14.024  0.4019  0.2153  0.8232
  158TMC2     O 2410   4.345   4.076  14.099 -0.3475  0.0449 -0.2884
  158TMC2     H 2411   4.357   4.301  14.049 -0.7484 -2.3724  0.9376
  158TMC2    H1 2412   4.051   4.091  13.816 -1.5435  0.6969  0.9101
  158TMC2    H2 2413   4.092   4.501  13.799 -3.2534 -1.4865  1.8424
  158TMC2    C7 2414   3.952   4.312  13.707  0.4264 -0.2546  0.6347
  158TMC2    C8 2415   4.262   4.547  13.951  0.0399  0.0786  0.1961
  158TMC2    O1 2416   3.970   4.407  13.629 -0.1869  0.2233  0.6570
  158TMC2    O2 2417   4.237   4.643  13.875  0.1458  0.4673 -0.2190
  158TMC2    O5 2418   4.282   4.548  14.084 -0.6895  0.0346  0.1955
  158TMC2    H5 2419   4.258   4.467  14.135 -0.5070  0.8278  1.5284
  159MPD2     C 2420   4.218   3.608  14.232  0.6867  0.4129 -0.3364
  159MPD2    C1 2421   4.092   3.624  14.173  0.0821 -0.0000  0.4001
  159MPD2    C2 2422   4.085   3.740  14.097  0.2501  0.5071  0.0422
  159MPD2    C3 2423   4.193   3.825  14.076  0.7451 -0.1837  1.1321
  159MPD2    C4 2424   4.325   3.798  14.118  0.5793 -0.1906 -1.0943
  159MPD2    C5 2425   4.333   3.690  14.206 -0.0678  0.5432  0.0178
  159MPD2     H 2426   3.998   3.770  14.039  0.2950  0.8687  0.1593
  159MPD2    H1 2427   4.410   3.862  14.099 -0.8183  1.8180 -0.5921
  159MPD2    H2 2428   4.237   3.532  14.307 -0.2384 -0.6007 -1.1248
  159MPD2    H3 2429   4.424   3.667  14.260 -0.1826 -0.3360 -0.1521
  159MPD2     N 2430   4.157   3.954  14.020  0.0377 -0.0819 -0.2619
  159MPD2    H5 2431   4.059   3.971  13.999  0.0395 -2.1821 -1.9551
  159MPD2    N1 2432   3.983   3.548  14.224  0.0835 -0.2726  0.3071
  159MPD2    H7 2433   4.004   3.480  14.297  0.5026  0.7813  1.1532
  160TMC2    C1 2434   4.033   2.504   1.475  0.9668 -0.6050 -0.2670
  160TMC2    C2 2435   4.122   2.424   1.535  0.9675  0.1377 -0.7187
  160TMC2    C3 2436   4.136   2.297   1.481  0.1063  0.1727  0.5122
  160TMC2    C4 2437   3.948   2.453   1.375  0.3560 -0.0418 -0.4380
  160TMC2    C5 2438   3.968   2.328   1.327 -0.2316 -0.2125  0.1485
  160TMC2    C6 2439   4.064   2.249   1.380  0.0014  1.1544 -0.3073
  160TMC2     C 2440   4.024   2.641   1.518  0.4853 -0.4134  1.1300
  160TMC2     O 2441   4.102   2.678   1.603  0.5561  0.5052 -0.1111
  160TMC2     H 2442   4.173   2.460   1.624  1.1852  0.2558 -0.8884
  160TMC2    H1 2443   3.861   2.503   1.333  0.8494  1.4770  0.3490
  160TMC2    H2 2444   4.077   2.153   1.333 -2.5732  1.0560 -0.8476
  160TMC2    C7 2445   3.881   2.281   1.222 -0.0749 -0.3636  0.0959
  160TMC2    C8 2446   4.226   2.205   1.547 -0.3875 -0.5942  0.6336
  160TMC2    O1 2447   3.865   2.162   1.202  0.1474  0.2907  0.1617
  160TMC2    O2 2448   4.332   2.242   1.595 -0.2178 -0.1561  0.8065
  160TMC2    O5 2449   4.185   2.071   1.544  0.1535 -0.5750 -0.1059
  160TMC2    H5 2450   4.091   2.062   1.517 -0.0186  0.5719  0.1181
  161MPD2     C 2451   3.944   2.920   1.574  0.1136 -0.0243  0.2389
  161MPD2    C1 2452   3.881   2.842   1.477 -0.5561 -0.7267 -0.2222
  161MPD2    C2 2453   3.777   2.894   1.400 -0.7472 -0.4978  0.3070
  161MPD2    C3 2454   3.722   3.020   1.425 -0.5156 -0.4709  0.1986
  161MPD2    C4 2455   3.789   3.097   1.519 -0.3895 -0.5536 -0.2899
  161MPD2    C5 2456   3.900   3.049   1.582  0.2689 -0.2046  0.0450
  161MPD2     H 2457   3.742   2.832   1.318  1.2854 -1.8372  0.4593
  161MPD2    H1 2458   3.756   3.197   1.544  0.0641 -1.0632  2.3131
  161MPD2    H2 2459   4.028   2.883   1.631 -0.1047  0.6888  1.0282
  161MPD2    H3 2460   3.944   3.125   1.644  1.5432 -0.7556 -0.1868
  161MPD2     N 2461   3.606   3.062   1.357 -0.3770 -0.5144  0.2801
  161MPD2    H5 2462   3.581   3.160   1.358 -0.7494 -0.6081  0.3895
  161MPD2    N1 2463   3.925   2.706   1.450 -1.2713  0.4432 -0.2299
  161MPD2    H7 2464   3.874   2.657   1.377 -0.8133 -0.7028  0.2366
  162TMC2    C1 2465   1.911   4.665   0.661  0.1981 -1.2568 -0.4549
  162TMC2    C2 2466   1.961   0.047   0.719  0.7372  0.0345  0.7894
  162TMC2    C3 2467   1.880   0.153   0.751  0.4454 -0.0005 -0.0984
  162TMC2    C4 2468   1.777   4.643   0.646 -0.8499 -0.6138  0.5775
  162TMC2    C5 2469   1.693   0.023   0.687 -0.5887  0.4984  0.0669
  162TMC2    C6 2470   1.743   0.138   0.744 -0.1531 -0.7880  0.2464
  162TMC2     C 2471   2.002   4.570   0.593  0.0832 -0.9289  0.3456
  162TMC2     O 2472   1.952   4.514   0.497  0.1192 -0.4049 -0.4086
  162TMC2     H 2473   2.066   0.065   0.742  1.2943 -2.1387 -0.1115
  162TMC2    H1 2474   1.745   4.548   0.604 -2.4698  0.0418  0.2934
  162TMC2    H2 2475   1.683   0.220   0.782 -1.1545 -0.0598 -2.8904
  162TMC2    C7 2476   1.550   4.724   0.698 -0.0425  0.3358 -0.0026
  162TMC2    C8 2477   1.941   0.278   0.796  1.0507 -0.4006 -0.3538
  162TMC2    O1 2478   1.503   4.670   0.604  0.2936 -0.1851  0.2888
  162TMC2    O2 2479   2.040   0.280   0.871 -0.0022  0.6126 -0.0927
  162TMC2    O5 2480   1.906   0.382   0.721 -0.1561  0.1366 -0.2397
  162TMC2    H5 2481   1.836   0.367   0.654  2.8700 -1.5769 -2.9987
  163MPD2     C 2482   2.462   4.409   0.471 -0.0185 -0.2643 -0.0500
  163MPD2    C1 2483   2.345   4.392   0.407  0.0006  0.4255  0.3030
  163MPD2    C2 2484   2.234   4.456   0.462 -0.1919  0.7564 -0.3518
  163MPD2    C3 2485   2.243   4.510   0.589 -0.1306  0.4493 -0.8088
  163MPD2    C4 2486   2.361   4.523   0.659  0.5584 -0.3016  0.5540
  163MPD2    C5 2487   2.469   4.452   0.600 -0.5235  0.7471 -0.3236
  163MPD2     H 2488   2.141   4.449   0.406 -1.1722  0.0865  1.3626
  163MPD2    H1 2489   2.378   4.570   0.755 -4.0923  1.9890  0.2792
  163MPD2    H2 2490   2.558   4.373   0.435 -0.0095  0.8951 -1.1991
  163MPD2    H3 2491   2.563   4.461   0.652 -0.9031 -0.0371  0.4839
  163MPD2     N 2492   2.131   4.584   0.638 -0.3341 -0.3754 -0.2140
  163MPD2    H5 2493   2.140   4.629   0.729  0.3135  0.6317 -0.7894
  163MPD2    N1 2494   2.328   4.322   0.286  0.2665  0.4531  0.2297
  163MPD2    H7 2495   2.241   4.328   0.232 -0.3313  0.9220  1.2474
  164TCq2    C1 2496   2.796   4.432  11.151 -0.1766 -0.5402 -0.0983
  164TCq2    O2 2497   2.756   4.396  11.262  0.6641  0.2284  0.0146
  164TCq2    C2 2498   2.807   4.579  11.130 -0.6991 -0.1475 -0.4752
  164TCq2    C3 2499   2.886   4.625  11.029  0.3930  0.0064  0.0213
  164TCq2    C4 2500   2.867   0.027  10.976 -0.0128 -0.2587 -0.4361
  164TCq2    C5 2501   2.787   0.118  11.033  0.2505 -0.8041 -0.4473
  164TCq2    C6 2502   2.710   0.072  11.133  0.5237  0.4600  0.6137
  164TCq2    C7 2503   2.713   4.666  11.189 -0.1654 -0.2989 -0.0754
  164TCq2    C8 2504   2.596   0.160  11.160  0.2106  0.5462  0.6279
  164TCq2    O4 2505   2.548   0.217  11.067 -0.4779 -0.4761  0.4339
  164TCq2    C9 2506   2.937   0.068  10.860 -0.2818  0.0500 -0.2867
  164TCq2    O5 2507   3.003   4.697  10.802  0.0281 -0.3343 -0.4254
  164TCq2    O6 2508   2.908   0.179  10.805 -0.0482  0.3089  0.3730
  164TCq2    H2 2509   2.949   4.552  10.979 -0.4383 -0.5021 -0.2850
  164TCq2    H3 2510   2.764   0.219  11.001  0.5971 -0.4203  0.5028
  164TCq2    H4 2511   2.638   4.638  11.263  0.0206 -2.7404 -0.8416
  165MPD2     C 2512   2.979   2.299   1.119  0.6922 -0.2104  0.3558
  165MPD2    C1 2513   3.062   2.210   1.055  0.4534  0.1782  0.2882
  165MPD2    C2 2514   3.190   2.192   1.103 -0.9347 -0.7908  0.0692
  165MPD2    C3 2515   3.220   2.246   1.224  0.1428  0.2016 -0.0211
  165MPD2    C4 2516   3.130   2.328   1.297  0.2406 -0.2523  0.0399
  165MPD2    C5 2517   3.008   2.354   1.241  0.4987 -0.0510 -0.1942
  165MPD2     H 2518   3.263   2.128   1.055 -0.8442  0.0287 -0.8967
  165MPD2    H1 2519   3.157   2.374   1.391 -1.9248 -0.3324  0.6811
  165MPD2    H2 2520   2.879   2.318   1.081 -0.7295 -2.7845  2.7553
  165MPD2    H3 2521   2.940   2.411   1.303  1.0424  1.2775 -0.8036
  165MPD2     N 2522   3.341   2.222   1.298 -0.2158  0.0006  0.2052
  165MPD2    H5 2523   3.342   2.257   1.393 -3.2115  1.3064 -0.2299
  165MPD2    N1 2524   3.030   2.136   0.938 -0.3312 -0.1653  0.5502
  165MPD2    H7 2525   2.937   2.154   0.900  0.3624  1.5734 -0.2838
  166TCq2    C1 2526   3.448   2.150   1.250  0.0137 -0.1447 -0.1382
  166TCq2    O2 2527   3.444   2.056   1.172 -0.2797  0.1521  0.4689
  166TCq2    C2 2528   3.558   2.152   1.341 -0.0796 -0.4938  0.2504
  166TCq2    C3 2529   3.577   2.255   1.425 -0.0304 -0.2456 -0.2113
  166TCq2    C4 2530   3.681   2.262   1.515  0.7083  0.4292  0.7497
  166TCq2    C5 2531   3.761   2.149   1.523 -1.4958 -0.0014 -0.0604
  166TCq2    C6 2532   3.730   2.040   1.453 -0.0742  0.0794  0.4671
  166TCq2    C7 2533   3.630   2.037   1.360 -0.0347  0.1246  0.2707
  166TCq2    C8 2534   3.839   1.943   1.437  0.6109 -0.5728 -0.0176
  166TCq2    O4 2535   3.949   1.978   1.482  0.2975  0.7125  0.6937
  166TCq2    C9 2536   3.706   2.373   1.602  0.5282 -0.2122 -0.2934
  166TCq2    O5 2537   3.638   2.474   1.572  0.4859 -0.4709  0.0010
  166TCq2    O6 2538   3.743   2.345   1.720  0.2735  0.4344  0.1039
  166TCq2    H2 2539   3.525   2.347   1.402 -1.9512 -2.0253 -2.9996
  166TCq2    H3 2540   3.842   2.146   1.595 -2.2551  1.3202  0.8566
  166TCq2    H4 2541   3.617   1.956   1.290 -0.7171 -0.9450  1.6375
  167TMC2    C1 2542   1.391   4.044  12.747 -0.2690 -0.2533 -0.9061
  167TMC2    C2 2543   1.324   4.052  12.865 -0.1235  0.4880  0.0815
  167TMC2    C3 2544   1.350   3.957  12.960 -0.5134 -0.2628 -0.4675
  167TMC2    C4 2545   1.465   3.936  12.705  0.0007 -0.1912 -0.1614
  167TMC2    C5 2546   1.480   3.836  12.800  0.3092 -0.1666  0.2807
  167TMC2    C6 2547   1.430   3.851  12.930  0.0784 -0.2222  0.0119
  167TMC2     C 2548   1.376   4.155  12.651  0.3905 -0.6323 -0.5079
  167TMC2     O 2549   1.291   4.239  12.675  0.1480  0.8088 -0.0767
  167TMC2     H 2550   1.261   4.136  12.891 -0.7515 -0.4713  1.6935
  167TMC2    H1 2551   1.475   3.916  12.599  2.0863  2.6256 -0.4881
  167TMC2    H2 2552   1.451   3.776  13.005 -0.2160  0.0807  0.4005
  167TMC2    C7 2553   1.570   3.719  12.772 -0.4032 -0.2359 -0.1249
  167TMC2    C8 2554   1.327   3.991  13.093 -0.0861 -0.0156 -0.0607
  167TMC2    O1 2555   1.562   3.629  12.853 -0.3161 -0.1521 -0.0936
  167TMC2    O2 2556   1.350   3.909  13.182 -0.2582 -0.2862 -0.4385
  167TMC2    O5 2557   1.351   4.125  13.117  0.1969 -0.4411 -0.3608
  167TMC2    H5 2558   1.402   4.171  13.047  2.3572 -1.5017  0.5200
  168MPD2     C 2559   1.394   4.358  12.428 -0.7128 -0.0770 -0.5235
  168MPD2    C1 2560   1.483   4.249  12.449  0.6576 -0.3114 -0.3180
  168MPD2    C2 2561   1.589   4.232  12.361  0.3839  0.0627  0.1365
  168MPD2    C3 2562   1.614   4.321  12.262 -1.1180 -0.7700 -0.0364
  168MPD2    C4 2563   1.523   4.422  12.244 -0.3463  0.1398 -0.4803
  168MPD2    C5 2564   1.416   4.441  12.324  0.1705  0.2121  0.0896
  168MPD2     H 2565   1.650   4.143  12.369  0.2292  0.1346  1.9953
  168MPD2    H1 2566   1.522   4.487  12.158  0.1098 -0.1371 -0.6929
  168MPD2    H2 2567   1.308   4.362  12.494 -0.3617 -1.7199  0.0324
  168MPD2    H3 2568   1.347   4.522  12.299 -1.9319 -1.3751  0.7386
  168MPD2     N 2569   1.715   4.292  12.169 -0.1321  0.3688  0.2723
  168MPD2    H5 2570   1.721   4.351  12.087  0.1125  1.6374  1.1855
  168MPD2    N1 2571   1.469   4.146  12.547  0.1300 -0.0552  0.3618
  168MPD2    H7 2572   1.528   4.064  12.535  0.2294 -0.3060  2.5332
  169MPD1     C 2573   0.270   0.011   9.001 -0.7057 -0.9482 -0.0427
  169MPD1    C1 2574   0.167   4.642   8.972  0.4929  0.3854  0.6902
  169MPD1    C2 2575   0.171   4.515   9.038  0.1261  0.3200  0.2410
  169MPD1    C3 2576   0.256   4.492   9.144  0.1543 -0.2001  0.1845
  169MPD1    C4 2577   0.341   4.600   9.177 -1.0047 -0.6299  0.0729
  169MPD1    C5 2578   0.347   4.720   9.109 -0.0297 -0.0497 -1.3160
  169MPD1     H 2579   0.112   4.433   8.999 -0.3978  0.6019  0.4291
  169MPD1    H1 2580   0.416   4.601   9.256 -0.5047  0.2906 -0.4124
  169MPD1    H2 2581   0.275   0.107   8.950  0.0250 -0.7223  0.4485
  169MPD1    H3 2582   0.403   0.082   9.139  0.3203 -1.9571  3.5683
  169MPD1     N 2583   0.256   4.368   9.209  0.1492 -0.2597  0.5438
  169MPD1    H5 2584   0.207   4.297   9.156 -2.0755  0.1378  2.0750
  169MPD1    N1 2585   0.098   4.665   8.856  0.0101  0.7387 -0.0788
  169MPD1    H6 2586   0.096   0.042   8.845  1.0085  0.9820  2.0322
  169MPD1    H7 2587   0.008   4.618   8.843  0.6289  0.0874 -2.0010
  170MPD1     C 2588   3.362   1.436  12.328 -0.6675 -0.3304  0.3479
  170MPD1    C1 2589   3.375   1.315  12.388  0.0743 -0.7598  0.0003
  170MPD1    C2 2590   3.298   1.287  12.498 -0.4594 -0.5616  0.6250
  170MPD1    C3 2591   3.226   1.386  12.561 -0.3929 -0.5065 -0.0949
  170MPD1    C4 2592   3.228   1.510  12.509  0.6439 -0.5928 -0.1252
  170MPD1    C5 2593   3.296   1.535  12.391 -0.0159  0.0276 -0.8933
  170MPD1     H 2594   3.295   1.190  12.546  2.0694 -1.4882 -1.0779
  170MPD1    H1 2595   3.174   1.595  12.550  2.7801 -0.3215  2.0798
  170MPD1    H2 2596   3.406   1.459  12.232 -2.2217  1.8526  0.1648
  170MPD1    H3 2597   3.299   1.633  12.345  0.3177 -0.2078 -1.3763
  170MPD1     N 2598   3.166   1.357  12.686  0.0748 -0.4340  0.1121
  170MPD1    H5 2599   3.179   1.263  12.724  1.0784 -0.8165 -1.1887
  170MPD1    N1 2600   3.440   1.216  12.313  0.2824  0.8442 -0.0538
  170MPD1    H6 2601   3.516   1.249  12.254  2.0783  0.1678  1.8766
  170MPD1    H7 2602   3.481   1.144  12.372  2.4432 -0.3984 -3.0603
  171MPD1     C 2603   1.832   2.995  15.658 -0.4959  0.0306  0.3520
  171MPD1    C1 2604   1.718   2.991  15.583  0.5542 -0.5996  0.0822
  171MPD1    C2 2605   1.631   2.876  15.597 -0.5503  0.4045 -0.0643
  171MPD1    C3 2606   1.675   2.764  15.667  0.0939  0.1684 -0.6466
  171MPD1    C4 2607   1.800   2.772  15.737  0.9362  0.2437  0.4637
  171MPD1    C5 2608   1.874   2.881  15.728  0.2254 -0.1548  0.0115
  171MPD1     H 2609   1.535   2.868  15.549 -1.3375 -1.1332  1.7750
  171MPD1    H1 2610   1.841   2.684  15.784  1.9539  0.5693  0.1739
  171MPD1    H2 2611   1.899   3.080  15.656 -0.0092 -0.4054 -2.2263
  171MPD1    H3 2612   1.965   2.880  15.787 -1.1324 -1.0253  2.0951
  171MPD1     N 2613   1.600   2.644  15.679 -0.1408  0.2227 -0.6153
  171MPD1    H5 2614   1.642   2.579  15.745  0.3287  1.9601  0.7897
  171MPD1    N1 2615   1.686   3.107  15.510 -0.4194  0.0249 -0.1376
  171MPD1    H6 2616   1.616   3.083  15.441  0.4106  1.2946 -1.4153
  171MPD1    H7 2617   1.766   3.134  15.454  0.0690 -0.6063  0.2544
  172MPD1     C 2618   0.734   2.517   1.115  0.5029  0.3327 -0.6960
  172MPD1    C1 2619   0.673   2.640   1.119  0.1311  0.3015  0.0630
  172MPD1    C2 2620   0.600   2.676   1.004  0.3016  0.4951 -0.4367
  172MPD1    C3 2621   0.616   2.608   0.890 -0.1716  0.1863  0.2861
  172MPD1    C4 2622   0.696   2.497   0.882  0.1818 -0.5551  0.7266
  172MPD1    C5 2623   0.758   2.449   0.993 -0.1438 -0.4263 -0.3101
  172MPD1     H 2624   0.549   2.772   1.002 -0.2976  0.1762 -0.2383
  172MPD1    H1 2625   0.719   2.438   0.794 -1.5874 -0.1068 -0.0152
  172MPD1    H2 2626   0.784   2.474   1.201 -2.1922 -1.2459  0.0710
  172MPD1    H3 2627   0.817   2.358   0.987 -0.3385 -0.5326 -0.6234
  172MPD1     N 2628   0.554   2.639   0.761  0.7911  0.8188 -0.6357
  172MPD1    H5 2629   0.574   2.581   0.681 -2.1973  1.6037 -1.9443
  172MPD1    N1 2630   0.651   2.697   1.245  0.6349 -1.0087  0.1436
  172MPD1    H6 2631   0.739   2.691   1.297 -0.9145 -1.0480  2.7320
  172MPD1    H7 2632   0.628   2.794   1.226 -0.7877 -1.2611  0.5960
  173MPD1     C 2633   1.848   2.271  14.474  0.5575 -0.2974 -0.7585
  173MPD1    C1 2634   1.805   2.213  14.362 -0.0156  0.4651 -0.2913
  173MPD1    C2 2635   1.668   2.208  14.338 -0.1239 -0.0707 -0.1811
  173MPD1    C3 2636   1.585   2.238  14.443  0.9493 -0.7777 -0.1789
  173MPD1    C4 2637   1.630   2.293  14.562  0.0707 -0.5808  0.3485
  173MPD1    C5 2638   1.765   2.314  14.571  0.1677 -0.1263 -0.1510
  173MPD1     H 2639   1.627   2.175  14.244  0.6061  2.0930 -1.2531
  173MPD1    H1 2640   1.570   2.329  14.645  0.6861  1.2120 -0.0080
  173MPD1    H2 2641   1.953   2.287  14.497  0.4705 -1.4059  0.4097
  173MPD1    H3 2642   1.799   2.368  14.659  1.3820  0.9161 -1.2610
  173MPD1     N 2643   1.447   2.216  14.425 -0.2399  0.6494  0.3274
  173MPD1    H5 2644   1.421   2.179  14.334  1.8445 -2.3061  0.9332
  173MPD1    N1 2645   1.895   2.193  14.263 -0.0028 -0.3263 -0.4437
  173MPD1    H6 2646   1.872   2.131  14.186  0.5708  1.8279 -2.3366
  173MPD1    H7 2647   1.984   2.158  14.298  1.0415  4.0196  1.2671
  174MPD1     C 2648   1.040   1.674  13.788  0.0913 -0.5690 -0.0302
  174MPD1    C1 2649   1.152   1.749  13.807  0.3542  1.0869 -0.5921
  174MPD1    C2 2650   1.159   1.819  13.926  0.5940 -1.1733 -0.1584
  174MPD1    C3 2651   1.066   1.801  14.032 -0.0767  0.2061  0.1063
  174MPD1    C4 2652   0.953   1.725  14.009 -0.0898 -0.6631 -0.1576
  174MPD1    C5 2653   0.940   1.662  13.885  0.5643 -0.0127  0.5369
  174MPD1     H 2654   1.238   1.888  13.951 -0.9616  0.3185  0.6889
  174MPD1    H1 2655   0.879   1.713  14.088  0.7600 -1.5211  0.5020
  174MPD1    H2 2656   1.038   1.607  13.703 -2.6420  0.0331 -0.4350
  174MPD1    H3 2657   0.861   1.590  13.869  1.4848 -0.5854 -1.3921
  174MPD1     N 2658   1.065   1.873  14.148  0.5416  0.1948  0.3083
  174MPD1    H5 2659   0.979   1.864  14.201 -0.5502  0.9033 -1.3352
  174MPD1    N1 2660   1.240   1.775  13.701  0.0438  0.7293 -0.2476
  174MPD1    H6 2661   1.334   1.804  13.727  0.2341  1.3250 -1.5923
  174MPD1    H7 2662   1.241   1.708  13.624  1.5047 -2.8507  2.8805
  175MPD1     C 2663   4.587   2.313  15.788 -1.0782  0.2087  0.1102
  175MPD1    C1 2664   4.582   2.405  15.683  0.0885  0.3940  0.8960
  175MPD1    C2 2665   4.625   2.527  15.713 -0.3817  0.3205  0.5941
  175MPD1    C3 2666   4.655   2.573  15.836 -0.0534  0.7875 -0.4273
  175MPD1    C4 2667   4.655   2.483  15.942 -0.3852  0.1207 -0.4527
  175MPD1    C5 2668   4.625   2.355  15.916  0.9105 -0.0385  0.1064
  175MPD1     H 2669   4.638   2.596  15.630  1.6724 -0.5927  0.1535
  175MPD1    H1 2670   4.686   2.508  16.043 -0.0569 -0.1735 -0.4791
  175MPD1    H2 2671   4.583   2.206  15.774 -1.7986  0.1227  0.9309
  175MPD1    H3 2672   4.628   2.278  15.991 -0.9299  1.5641  1.8274
  175MPD1     N 2673   4.720   2.698  15.854 -0.1701  0.4120 -0.1096
  175MPD1    H5 2674   0.010   2.726  15.950  0.0260  2.9422 -0.8656
  175MPD1    N1 2675   4.564   2.360  15.553 -0.0038  0.0490 -0.2232
  175MPD1    H6 2676   4.506   2.277  15.542  1.5063 -1.1074  0.6762
  175MPD1    H7 2677   4.532   2.429  15.485  0.8612  0.7633  0.0941
  176MPD1     C 2678   0.944   0.645  16.986  0.2867 -0.0419  0.6522
  176MPD1    C1 2679   1.039   0.705  17.067  0.6487 -0.5455  0.4342
  176MPD1    C2 2680   1.156   0.633  17.078 -0.8925 -0.7895  0.6257
  176MPD1    C3 2681   1.175   0.510  17.015 -0.0485 -0.4316 -0.1002
  176MPD1    C4 2682   1.079   0.459  16.927  0.2923 -0.1200 -0.5534
  176MPD1    C5 2683   0.960   0.524  16.909  0.3190  0.2170  0.0981
  176MPD1     H 2684   1.235   0.681  17.135 -1.2652 -1.7555  1.9488
  176MPD1    H1 2685   1.094   0.361  16.883 -0.8882 -0.2653 -0.6576
  176MPD1    H2 2686   0.852   0.702  16.988  0.0560 -0.2800 -2.7004
  176MPD1    H3 2687   0.884   0.479  16.846  1.4179 -1.4871 -0.0223
  176MPD1     N 2688   1.304   0.448  17.033  0.4096  0.6305  0.0415
  176MPD1    H5 2689   1.370   0.489  17.098  2.6959  1.8763 -3.0472
  176MPD1    N1 2690   1.002   0.809  17.160  0.2544 -0.1808 -0.5398
  176MPD1    H6 2691   1.084   0.859  17.194  0.0562  1.4453 -2.4249
  176MPD1    H7 2692   0.936   0.866  17.108  1.0332 -0.5051 -1.8814
  177MPD1     C 2693   0.736   0.254  10.130  0.4704 -0.7147 -0.0746
  177MPD1    C1 2694   0.782   0.365  10.057 -1.0641 -0.1982  0.6158
  177MPD1    C2 2695   0.720   0.404   9.936  0.0619 -0.6847 -0.3040
  177MPD1    C3 2696   0.614   0.330   9.889 -0.4864  0.1580  0.6345
  177MPD1    C4 2697   0.570   0.217   9.957 -0.2931  0.5424 -0.1292
  177MPD1    C5 2698   0.629   0.182  10.078  0.7736 -0.3829  0.0165
  177MPD1     H 2699   0.759   0.486   9.877 -1.3879 -0.3970 -0.8566
  177MPD1    H1 2700   0.494   0.151   9.916  0.6447 -1.4498  1.3310
  177MPD1    H2 2701   0.784   0.221  10.221  3.0500  2.7908 -0.1613
  177MPD1    H3 2702   0.588   0.098  10.132  0.8798 -0.8747 -0.6688
  177MPD1     N 2703   0.551   0.380   9.773 -0.3022 -0.3580 -0.1206
  177MPD1    H5 2704   0.603   0.453   9.725  1.0501 -1.7177 -0.6968
  177MPD1    N1 2705   0.905   0.421  10.087 -0.1186  0.2267 -0.4065
  177MPD1    H6 2706   0.920   0.411  10.187 -1.6678 -1.5548 -0.3583
  177MPD1    H7 2707   0.915   0.520  10.064  2.8728 -0.1078 -0.5647
  178MPD1     C 2708   3.107   0.381   0.473  0.5038  0.7537 -0.0678
  178MPD1    C1 2709   2.982   0.436   0.446 -0.7753 -0.2127  0.2389
  178MPD1    C2 2710   2.942   0.451   0.314  0.1948  0.1026 -0.0256
  178MPD1    C3 2711   3.023   0.401   0.210 -0.4736  0.2366 -0.8505
  178MPD1    C4 2712   3.146   0.352   0.240  0.5935  0.4388 -0.1878
  178MPD1    C5 2713   3.182   0.340   0.363 -0.3909  0.1291 -0.0925
  178MPD1     H 2714   2.852   0.511   0.303 -0.1788 -0.5800 -0.6726
  178MPD1    H1 2715   3.207   0.308   0.162  1.5754  1.9243 -0.2506
  178MPD1    H2 2716   3.143   0.386   0.575  0.9774 -0.1612 -0.1929
  178MPD1    H3 2717   3.279   0.295   0.382  0.4906  1.8161 -0.6142
  178MPD1     N 2718   3.000   0.424   0.073  0.0328 -0.9416  0.1063
  178MPD1    H5 2719   3.068   0.401   0.002  2.2112  1.1629  1.5112
  178MPD1    N1 2720   2.907   0.493   0.548 -0.5979  0.3075 -0.3605
  178MPD1    H6 2721   2.921   0.447   0.638  0.8068  1.9637  0.2678
  178MPD1    H7 2722   2.809   0.496   0.519 -1.1149 -1.0226  1.2610
  179MPD1     C 2723   3.027   3.009  15.751 -0.3507 -0.3345 -0.0052
  179MPD1    C1 2724   2.939   3.111  15.705  0.1710  0.0572  0.1256
  179MPD1    C2 2725   2.822   3.137  15.782 -0.4466 -0.4608 -0.2918
  179MPD1    C3 2726   2.806   3.080  15.906  0.4248  0.8159  0.3990
  179MPD1    C4 2727   2.905   2.994  15.950  0.2770 -0.4159 -0.0505
  179MPD1    C5 2728   3.015   2.960  15.877 -0.6576 -0.2581 -0.4648
  179MPD1     H 2729   2.748   3.205  15.741  0.9295  1.6659  0.7423
  179MPD1    H1 2730   2.888   2.940  16.043 -1.6216  1.9735  0.9909
  179MPD1    H2 2731   3.116   2.983  15.696 -0.0179  0.5993  0.0909
  179MPD1    H3 2732   3.092   2.898  15.921 -1.9681 -0.8000  1.0742
  179MPD1     N 2733   2.692   3.100  15.980  0.1560 -0.7402  0.1003
  179MPD1    H5 2734   2.687   3.039  16.061 -1.9661 -0.8065 -0.0928
  179MPD1    N1 2735   2.934   3.143  15.572  0.0342  0.1027 -0.3529
  179MPD1    H6 2736   3.028   3.144  15.532  0.2167 -1.7817  0.0279
  179MPD1    H7 2737   2.885   3.231  15.556  1.2100  1.0420  1.2231
  180MPD1     C 2738   1.654   0.801  14.708  1.3630 -0.3485  1.1053
  180MPD1    C1 2739   1.727   0.691  14.677  0.0101  0.1692 -0.1968
  180MPD1    C2 2740   1.723   0.645  14.544 -0.1036 -0.0647 -0.6015
  180MPD1    C3 2741   1.627   0.690  14.458 -0.6580 -0.6587 -0.9931
  180MPD1    C4 2742   1.537   0.785  14.502  0.4450 -0.8286 -0.2399
  180MPD1    C5 2743   1.556   0.847  14.623  0.3588  0.1014 -0.2623
  180MPD1     H 2744   1.785   0.563  14.508 -0.4178 -1.0283  1.0351
  180MPD1    H1 2745   1.460   0.820  14.433  0.3440 -2.8258 -1.1367
  180MPD1    H2 2746   1.654   0.851  14.804  0.0582 -0.6517  1.2556
  180MPD1    H3 2747   1.492   0.931  14.648  1.2550  0.8764 -0.5645
  180MPD1     N 2748   1.602   0.614  14.337  0.1045 -0.7050  0.1288
  180MPD1    H5 2749   1.679   0.558  14.303 -0.1965 -2.0400  1.6317
  180MPD1    N1 2750   1.821   0.639  14.767 -0.0673  0.4377  0.3550
  180MPD1    H6 2751   1.837   0.539  14.762 -0.5020  0.4394 -1.0428
  180MPD1    H7 2752   1.766   0.655  14.852 -1.0043 -0.4758 -0.0728
  181MPD1     C 2753   3.656   2.004   9.843 -0.4984 -0.0043 -0.0760
  181MPD1    C1 2754   3.679   2.118   9.922 -0.3215 -0.3047 -0.4324
  181MPD1    C2 2755   3.816   2.149   9.937 -0.1910 -0.3648 -0.0583
  181MPD1    C3 2756   3.916   2.092   9.863  0.4965 -1.0591 -0.0657
  181MPD1    C4 2757   3.893   1.990   9.780 -1.3486  0.6330 -0.8510
  181MPD1    C5 2758   3.761   1.948   9.774 -0.2120 -0.0219 -0.3582
  181MPD1     H 2759   3.834   2.231  10.005 -0.5656 -0.2153 -0.1394
  181MPD1    H1 2760   3.969   1.931   9.731 -2.2799 -0.5796 -0.8427
  181MPD1    H2 2761   3.553   1.980   9.821 -0.0112 -1.9672 -0.1848
  181MPD1    H3 2762   3.741   1.861   9.713 -0.7129  0.5361 -0.9933
  181MPD1     N 2763   4.053   2.138   9.867  0.6843 -0.3549  0.2592
  181MPD1    H5 2764   4.116   2.074   9.819 -0.6412 -0.6483 -1.1320
  181MPD1    N1 2765   3.588   2.176  10.015 -0.0455  0.3117 -0.0927
  181MPD1    H6 2766   3.491   2.178   9.983 -0.0040  1.6627 -0.1255
  181MPD1    H7 2767   3.612   2.268  10.050  2.2177  0.0750 -1.0738
  182MPD1     C 2768   0.934   1.549   1.623  0.5815 -0.0017  0.0035
  182MPD1    C1 2769   0.817   1.599   1.678 -0.3542  0.0193  0.3276
  182MPD1    C2 2770   0.697   1.539   1.644  0.2471  0.8214  0.0803
  182MPD1    C3 2771   0.700   1.443   1.543 -0.0631  0.5025 -0.1826
  182MPD1    C4 2772   0.821   1.402   1.486 -0.0454  0.5310 -0.5159
  182MPD1    C5 2773   0.939   1.452   1.531  0.7734  0.0020 -0.0909
  182MPD1     H 2774   0.607   1.577   1.690 -0.5472 -1.3204  0.2886
  182MPD1    H1 2775   0.833   1.323   1.413  0.1360 -0.0884  0.1817
  182MPD1    H2 2776   1.028   1.578   1.668  1.6033 -0.8220 -1.6294
  182MPD1    H3 2777   1.032   1.404   1.505 -0.0973 -1.0566 -1.2670
  182MPD1     N 2778   0.584   1.384   1.483 -0.8285 -0.1599 -0.1336
  182MPD1    H5 2779   0.588   1.331   1.397 -0.4778  0.5277 -0.5462
  182MPD1    N1 2780   0.828   1.688   1.790  0.3868  0.0433 -0.7277
  182MPD1    H6 2781   0.903   1.755   1.771 -1.1555  1.4394 -1.9612
  182MPD1    H7 2782   0.743   1.743   1.786  0.3128 -0.0304 -0.1603
  183MPD1     C 2783   1.458   2.130   9.337  0.2392 -0.1807 -0.3198
  183MPD1    C1 2784   1.379   2.064   9.244 -0.4030  0.4187  0.0568
  183MPD1    C2 2785   1.258   2.124   9.214 -0.1671 -0.6530 -0.7995
  183MPD1    C3 2786   1.206   2.225   9.296  0.8256  0.1795 -0.1851
  183MPD1    C4 2787   1.277   2.262   9.396 -0.1716 -0.4812 -0.3975
  183MPD1    C5 2788   1.407   2.223   9.426 -0.2839 -0.6293 -0.2232
  183MPD1     H 2789   1.213   2.104   9.117 -1.1712  1.1151 -0.6978
  183MPD1    H1 2790   1.241   2.343   9.458  0.6582  0.6257 -1.3566
  183MPD1    H2 2791   1.562   2.100   9.339  0.0181 -0.9371  0.2391
  183MPD1    H3 2792   1.459   2.268   9.510  2.7434 -0.3653 -2.2662
  183MPD1     N 2793   1.076   2.266   9.273  0.2336  0.2296 -0.3249
  183MPD1    H5 2794   1.022   2.210   9.208  3.4471 -3.2272 -0.0379
  183MPD1    N1 2795   1.435   1.959   9.167  0.2140 -0.2206  0.2513
  183MPD1    H6 2796   1.507   1.902   9.211  0.7377  0.8879  0.8023
  183MPD1    H7 2797   1.361   1.904   9.123 -0.4335  0.5398  0.3970
  184MPD1     C 2798   4.615   4.176  10.004 -0.3050 -0.0105  0.1426
  184MPD1    C1 2799   4.644   4.302  10.049 -0.2147 -0.1632  0.5943
  184MPD1    C2 2800   4.629   4.407   9.962 -0.8361  0.3305 -0.1402
  184MPD1    C3 2801   4.562   4.394   9.844  1.4181  0.9609  0.1984
  184MPD1    C4 2802   4.538   4.268   9.800  0.5372  0.2129  0.3799
  184MPD1    C5 2803   4.570   4.163   9.874 -1.0586  0.1270 -0.2057
  184MPD1     H 2804   4.642   4.504  10.009  1.8069  0.4453 -1.0936
  184MPD1    H1 2805   4.486   4.246   9.707  2.0617 -2.6159  0.2181
  184MPD1    H2 2806   4.636   4.090  10.066 -0.3120  1.1948  1.8116
  184MPD1    H3 2807   4.542   4.066   9.836 -1.6377 -0.0403  0.6514
  184MPD1     N 2808   4.514   4.504   9.765  0.8689 -0.2346 -0.1431
  184MPD1    H5 2809   4.474   4.477   9.676 -1.5748  1.4108  0.4430
  184MPD1    N1 2810   4.698   4.311  10.181 -0.5586 -0.3231  0.1357
  184MPD1    H6 2811   4.672   4.399  10.226  0.2528  0.7858 -1.5431
  184MPD1    H7 2812   4.665   4.239  10.243 -1.4777  0.9436  1.1217
  185MPD1     C 2813   4.029   4.455   9.065  0.1618 -0.0470  0.6378
  185MPD1    C1 2814   4.025   4.592   9.087  0.1203  0.3312 -0.2615
  185MPD1    C2 2815   4.123   4.645   9.166 -0.3519 -0.4610 -0.0791
  185MPD1    C3 2816   4.204   4.571   9.248 -0.7717  0.6205 -0.7312
  185MPD1    C4 2817   4.188   4.433   9.235  0.2103 -0.3655 -0.1854
  185MPD1    C5 2818   4.108   4.374   9.143  0.1800  1.0621 -0.2234
  185MPD1     H 2819   4.125   0.028   9.173  0.5519 -0.5275  0.5029
  185MPD1    H1 2820   4.238   4.357   9.294  0.2515  0.7980  1.2858
  185MPD1    H2 2821   3.963   4.407   8.993  0.4967 -0.6524  0.7318
  185MPD1    H3 2822   4.093   4.267   9.127  1.2110  1.2435 -2.5009
  185MPD1     N 2823   4.295   4.622   9.347 -0.1950 -0.5051  0.3158
  185MPD1    H5 2824   4.344   4.557   9.407  0.0971 -0.2939  0.3077
  185MPD1    N1 2825   3.954   4.676   9.002  0.9272 -0.3651  0.1400
  185MPD1    H6 2826   3.873   4.625   8.966  0.3740 -0.7918  2.0069
  185MPD1    H7 2827   3.916   0.040   9.036  0.5160 -0.2689 -0.5682
  186MPD1     C 2828   2.797   3.394  16.190 -0.4433 -0.0464 -0.0543
  186MPD1    C1 2829   2.719   3.431  16.300  0.1081 -0.3457 -0.4969
  186MPD1    C2 2830   2.663   3.563  16.305  0.3292 -0.2300  0.1139
  186MPD1    C3 2831   2.650   3.629  16.187 -0.2567 -0.0597  0.4728
  186MPD1    C4 2832   2.715   3.586  16.076 -0.5902 -0.5495  0.2943
  186MPD1    C5 2833   2.795   3.478  16.085 -0.4713 -0.2437  0.0942
  186MPD1     H 2834   2.625   3.598  16.401 -0.5273  1.2644 -0.7766
  186MPD1    H1 2835   2.712   3.648  15.987  1.7637 -1.4301 -0.4049
  186MPD1    H2 2836   2.854   3.302  16.192 -0.8299 -0.3213 -2.0552
  186MPD1    H3 2837   2.841   3.435  15.996  0.3201  0.1578  0.3063
  186MPD1     N 2838   2.579   3.748  16.182 -0.1694  0.4853 -0.2836
  186MPD1    H5 2839   2.589   3.799  16.094 -2.0201 -0.5172 -1.0808
  186MPD1    N1 2840   2.718   3.358  16.415  0.4222 -0.0898  0.5092
  186MPD1    H6 2841   2.629   3.361  16.464 -0.1757 -1.8868 -0.4564
  186MPD1    H7 2842   2.744   3.260  16.400  0.3512 -0.1787  0.9553
  187MPD1     C 2843   1.427   2.138   0.084  0.5712  0.2217 -0.3552
  187MPD1    C1 2844   1.375   2.012   0.078  0.2395  0.6824 -0.4298
  187MPD1    C2 2845   1.447   1.920  17.696  0.1276  0.2536  0.4045
  187MPD1    C3 2846   1.572   1.951  17.636  0.1622 -0.1835 -0.5614
  187MPD1    C4 2847   1.619   2.082  17.652  0.2786 -0.0725  0.2024
  187MPD1    C5 2848   1.543   2.175   0.019  0.2179 -0.0361  0.1400
  187MPD1     H 2849   1.419   1.816   0.001 -1.1151  0.6420  1.3375
  187MPD1    H1 2850   1.715   2.107  17.608 -0.4137  1.4218 -0.4626
  187MPD1    H2 2851   1.374   2.222   0.128  0.0660 -0.3773  0.1785
  187MPD1    H3 2852   1.573   2.279   0.029 -1.0292  0.3648 -0.2997
  187MPD1     N 2853   1.642   1.874  17.547 -1.1115  0.0921  0.3490
  187MPD1    H5 2854   1.712   1.921  17.490  0.1584 -0.0366  1.8222
  187MPD1    N1 2855   1.274   1.966   0.153  0.0155 -0.2387 -0.0221
  187MPD1    H6 2856   1.208   2.041   0.173  1.1964  0.6577  0.5716
  187MPD1    H7 2857   1.225   1.895   0.100 -3.6959  1.8220  0.6705
  188MPD1     C 2858   2.329   1.606   9.868 -1.1130  0.6503  0.1161
  188MPD1    C1 2859   2.281   1.602   9.737  0.3145 -0.0126 -0.2728
  188MPD1    C2 2860   2.246   1.475   9.686 -0.1235 -0.2973 -0.0249
  188MPD1    C3 2861   2.230   1.368   9.771  1.1313  0.4194 -0.3606
  188MPD1    C4 2862   2.258   1.377   9.905 -0.3060 -0.6700  0.3412
  188MPD1    C5 2863   2.312   1.496   9.952  0.0062  0.8405  0.1460
  188MPD1     H 2864   2.209   1.458   9.586  0.8633  0.9020 -0.5896
  188MPD1    H1 2865   2.238   1.296   9.974  1.5235 -0.9520  0.5404
  188MPD1    H2 2866   2.350   1.694   9.928  2.7245 -0.0793 -0.1296
  188MPD1    H3 2867   2.326   1.508  10.059  0.2694  0.3945  0.1636
  188MPD1     N 2868   2.176   1.248   9.724  0.0899 -0.7064 -0.1660
  188MPD1    H5 2869   2.187   1.168   9.786  2.4963  1.4952  2.2171
  188MPD1    N1 2870   2.286   1.714   9.652 -0.2402  0.8128  0.0879
  188MPD1    H6 2871   2.227   1.695   9.572  0.6921 -1.0962 -0.1404
  188MPD1    H7 2872   2.253   1.795   9.704 -0.1938  0.2335  1.0176
  189MPD1     C 2873   3.565   1.167   0.629  0.0850  0.6138  0.9769
  189MPD1    C1 2874   3.446   1.099   0.619 -0.1135 -0.5327 -0.3670
  189MPD1    C2 2875   3.335   1.164   0.576 -0.7898  0.2320  0.4933
  189MPD1    C3 2876   3.337   1.298   0.569 -0.0831  0.0883  0.9739
  189MPD1    C4 2877   3.450   1.370   0.588  0.7302 -0.1442 -0.2286
  189MPD1    C5 2878   3.567   1.302   0.616  0.2390  0.0855  0.0846
  189MPD1     H 2879   3.240   1.115   0.557 -0.0910 -0.7853 -0.4015
  189MPD1    H1 2880   3.456   1.478   0.585 -0.6221 -0.0709 -0.4249
  189MPD1    H2 2881   3.651   1.104   0.646  0.6093  1.0819  0.0849
  189MPD1    H3 2882   3.666   1.346   0.624  0.1286  0.0863  1.4470
  189MPD1     N 2883   3.215   1.359   0.530  0.9779  0.7035  0.2984
  189MPD1    H5 2884   3.139   1.292   0.519  0.0548  1.6964  0.6311
  189MPD1    N1 2885   3.434   0.955   0.614  0.3031  0.1080  0.5312
  189MPD1    H6 2886   3.492   0.914   0.686 -2.2531 -1.6730  1.5685
  189MPD1    H7 2887   3.339   0.917   0.615  0.1510  0.5091  1.5728
  190MPD1     C 2888   1.453   0.783  15.517  0.1695  0.3767 -0.1811
  190MPD1    C1 2889   1.477   0.736  15.639 -0.3780 -0.4219  0.0134
  190MPD1    C2 2890   1.563   0.635  15.649 -0.2008  0.1052 -0.1390
  190MPD1    C3 2891   1.609   0.562  15.540 -0.0837  0.3578  0.7938
  190MPD1    C4 2892   1.572   0.605  15.412 -0.3735  0.3566  0.4318
  190MPD1    C5 2893   1.504   0.724  15.406 -0.4048  0.5887  0.6201
  190MPD1     H 2894   1.602   0.609  15.747  1.6338 -0.1826 -0.9481
  190MPD1    H1 2895   1.605   0.556  15.321  2.2128  1.1310  0.9611
  190MPD1    H2 2896   1.400   0.877  15.506 -0.5701  0.0614  0.7086
  190MPD1    H3 2897   1.488   0.764  15.307  1.6363  2.4887  1.0563
  190MPD1     N 2898   1.708   0.461  15.569  0.0180  0.0753 -0.4021
  190MPD1    H5 2899   1.755   0.465  15.659  1.5088 -4.2682 -0.9747
  190MPD1    N1 2900   1.441   0.802  15.757 -0.2394  1.1572  0.3131
  190MPD1    H6 2901   1.351   0.851  15.758  0.2011  1.9828 -0.3315
  190MPD1    H7 2902   1.451   0.740  15.837 -0.1211  0.4839 -0.2172
  191MPD1     C 2903   1.804   2.288  12.920  0.1804 -0.1951 -0.3021
  191MPD1    C1 2904   1.917   2.247  12.851 -0.1923 -1.3709 -0.0814
  191MPD1    C2 2905   1.948   2.315  12.731 -0.8643  0.5211  0.1151
  191MPD1    C3 2906   1.875   2.427  12.693  0.0794  0.6093 -0.0084
  191MPD1    C4 2907   1.762   2.463  12.762  0.2878 -0.4311  0.1351
  191MPD1    C5 2908   1.729   2.390  12.871 -0.3499 -0.6194  0.0865
  191MPD1     H 2909   2.031   2.281  12.669  0.8682 -0.5866  3.0176
  191MPD1    H1 2910   1.701   2.549  12.738 -0.6715 -1.1539 -0.0210
  191MPD1    H2 2911   1.777   2.240  13.014 -1.5221 -0.8189 -1.1112
  191MPD1    H3 2912   1.640   2.415  12.929  0.3636  2.2134 -0.0488
  191MPD1     N 2913   1.915   2.487  12.575 -0.6645  0.9748  0.1695
  191MPD1    H5 2914   2.005   2.455  12.542 -0.6320  0.3129  0.8973
  191MPD1    N1 2915   1.984   2.131  12.885  0.1758  1.2926  0.2076
  191MPD1    H6 2916   1.991   2.109  12.985 -1.4529 -0.0107  0.0489
  191MPD1    H7 2917   2.079   2.126  12.850  0.0418  0.6061 -0.0571
  192MPD1     C 2918   1.792   3.043  11.630 -0.0765  0.9980  0.0201
  192MPD1    C1 2919   1.701   2.992  11.718  0.0602  0.7693 -0.6181
  192MPD1    C2 2920   1.745   2.919  11.830  0.7286 -0.7488  0.3709
  192MPD1    C3 2921   1.879   2.888  11.850 -0.8566 -0.3476 -0.3117
  192MPD1    C4 2922   1.970   2.944  11.764  0.3356  0.0228 -0.3240
  192MPD1    C5 2923   1.930   3.019  11.658 -0.0010  0.3720 -0.0853
  192MPD1     H 2924   1.679   2.897  11.913  0.1748 -0.3388  0.0424
  192MPD1    H1 2925   2.074   2.925  11.788  0.1746 -0.4948 -0.0419
  192MPD1    H2 2926   1.756   3.124  11.569 -1.9677 -2.2111 -3.0819
  192MPD1    H3 2927   2.004   3.068  11.595  0.2715 -0.6214 -0.5426
  192MPD1     N 2928   1.929   2.810  11.961 -0.2286  0.1326  0.2142
  192MPD1    H5 2929   2.026   2.784  11.970 -0.0272  2.0882  3.5383
  192MPD1    N1 2930   1.570   3.049  11.710  0.1342 -0.0696  0.3202
  192MPD1    H6 2931   1.500   2.991  11.757 -1.4363  2.1247  0.7090
  192MPD1    H7 2932   1.541   3.051  11.612  0.8873  2.1157  0.1276
  193MPD1     C 2933   1.089   2.252  16.054 -0.5178  1.0572  0.2891
  193MPD1    C1 2934   1.126   2.369  16.125 -0.3042  0.2885 -0.3066
  193MPD1    C2 2935   1.194   2.357  16.239  0.0267 -0.5766  0.3296
  193MPD1    C3 2936   1.227   2.236  16.291 -0.0413 -0.0409 -0.0667
  193MPD1    C4 2937   1.207   2.123  16.215  0.5597 -0.0151  0.2237
  193MPD1    C5 2938   1.143   2.133  16.097  0.2332  0.6086 -0.2451
  193MPD1     H 2939   1.227   2.449  16.286  0.4474 -0.7312  0.3371
  193MPD1    H1 2940   1.261   2.031  16.237  0.0269  0.3474  3.0445
  193MPD1    H2 2941   1.039   2.251  15.958 -2.2324 -0.5792  1.1910
  193MPD1    H3 2942   1.133   2.043  16.038  2.0455 -0.1015  0.5247
  193MPD1     N 2943   1.300   2.231  16.413  0.2170  0.4048 -0.0953
  193MPD1    H5 2944   1.311   2.134  16.442  0.0661  1.1493  2.4884
  193MPD1    N1 2945   1.064   2.496  16.094 -0.3711 -0.1557  0.5277
  193MPD1    H6 2946   1.063   2.504  15.992 -1.7192  1.6419  0.6892
  193MPD1    H7 2947   1.135   2.561  16.127  0.5463 -1.7017  1.5971
  194MPD1     C 2948   3.006   0.136  17.004 -0.3504  0.0345 -0.5992
  194MPD1    C1 2949   3.089   0.146  16.900  0.6532  0.2844 -0.9069
  194MPD1    C2 2950   3.138   0.027  16.846  0.3136  0.7695  0.0288
  194MPD1    C3 2951   3.098   4.628  16.893  0.4724 -0.6377 -0.4276
  194MPD1    C4 2952   3.006   4.623  16.992  0.7472 -0.0647 -0.2773
  194MPD1    C5 2953   2.968   0.013  17.058  0.0239  0.8931  0.3264
  194MPD1     H 2954   3.202   0.036  16.759 -1.4674  0.4666 -1.3053
  194MPD1    H1 2955   2.978   4.523  17.027 -1.6198  1.2226  1.5475
  194MPD1    H2 2956   2.958   0.225  17.043 -0.6270 -1.1149  1.6786
  194MPD1    H3 2957   2.896   0.010  17.139  0.4426 -1.1417  0.6023
  194MPD1     N 2958   3.142   4.502  16.838  0.4608  0.2469 -0.4308
  194MPD1    H5 2959   3.108   4.414  16.876 -0.2810  1.6942  2.2345
  194MPD1    N1 2960   3.134   0.269  16.846 -0.0552 -0.1465  0.1997
  194MPD1    H6 2961   3.057   0.335  16.849  0.0400  0.0436 -2.1389
  194MPD1    H7 2962   3.154   0.252  16.748  0.7799  0.1638  0.3205
  195MPD1     C 2963   1.507   1.174   0.697  0.7979  0.3674 -0.5540
  195MPD1    C1 2964   1.380   1.135   0.736  0.0947  0.1073 -0.4663
  195MPD1    C2 2965   1.322   1.030   0.668 -0.6098  0.1921 -0.3952
  195MPD1    C3 2966   1.398   0.955   0.572  0.7358 -0.8136 -0.5035
  195MPD1    C4 2967   1.516   1.007   0.531 -0.2403 -0.1192  0.1547
  195MPD1    C5 2968   1.567   1.117   0.596  0.0445 -0.4349  0.1200
  195MPD1     H 2969   1.223   0.993   0.693  0.1584 -2.2365 -0.9398
  195MPD1    H1 2970   1.575   0.958   0.455 -2.7239  1.5056 -2.8081
  195MPD1    H2 2971   1.559   1.257   0.742 -1.5853  2.0863 -0.9637
  195MPD1    H3 2972   1.663   1.153   0.559 -0.2838  1.2667  0.9091
  195MPD1     N 2973   1.343   0.849   0.495  0.2519  0.3807 -0.1677
  195MPD1    H5 2974   1.409   0.798   0.437  0.1810  1.5460 -1.2676
  195MPD1    N1 2975   1.314   1.212   0.833 -0.8901  0.1966 -0.6388
  195MPD1    H6 2976   1.362   1.296   0.862 -0.4023 -0.5387  0.6552
  195MPD1    H7 2977   1.231   1.256   0.793 -0.9060 -2.3546 -3.4752
  196MPD1     C 2978   0.688   1.113   1.188 -0.3225  0.2819 -0.0916
  196MPD1    C1 2979   0.721   1.223   1.113 -0.2669  0.3848 -0.0998
  196MPD1    C2 2980   0.856   1.266   1.121 -0.1813 -0.3594 -0.1338
  196MPD1    C3 2981   0.950   1.208   1.200 -0.6226 -0.5179 -0.1878
  196MPD1    C4 2982   0.908   1.098   1.272  0.8582 -0.1158 -0.0934
  196MPD1    C5 2983   0.779   1.050   1.264 -0.3387  0.1235 -0.3647
  196MPD1     H 2984   0.892   1.350   1.064 -0.2348  1.9249  3.1911
  196MPD1    H1 2985   0.970   1.036   1.337  1.7050  0.8237 -0.0114
  196MPD1    H2 2986   0.588   1.071   1.183 -0.0970 -0.2807  0.0805
  196MPD1    H3 2987   0.749   0.956   1.311  1.2313 -0.0387  0.2992
  196MPD1     N 2988   1.082   1.250   1.200 -0.2342 -0.1345 -1.0175
  196MPD1    H5 2989   1.114   1.316   1.130  1.4614 -0.4082 -0.5023
  196MPD1    N1 2990   0.642   1.269   1.011  0.1876  0.5480  0.7534
  196MPD1    H6 2991   0.548   1.230   1.015  0.7111 -0.6181  1.7216
  196MPD1    H7 2992   0.650   1.368   0.988  1.9365  0.1526 -0.3530
  197MPD1     C 2993   4.669   4.314  17.474 -0.1460 -0.1518 -0.0049
  197MPD1    C1 2994   0.003   4.196  17.467  0.4961 -0.1021 -0.1679
  197MPD1    C2 2995   0.071   4.164  17.353 -0.1119  0.2949 -0.0689
  197MPD1    C3 2996   0.067   4.250  17.243 -0.2675  0.6087  0.3798
  197MPD1    C4 2997   0.005   4.377  17.249 -0.2610  0.1260  0.0546
  197MPD1    C5 2998   4.677   4.410  17.371 -0.1219 -0.0837  0.2072
  197MPD1     H 2999   0.108   4.062  17.351  0.1610  0.4075 -0.8891
  197MPD1    H1 3000   0.013   4.450  17.169 -0.2618  1.0055  0.8503
  197MPD1    H2 3001   4.614   4.338  17.564  0.7166  2.7308 -0.2513
  197MPD1    H3 3002   4.623   4.504  17.369 -0.6826 -0.4683 -2.9640
  197MPD1     N 3003   0.125   4.208  17.117  0.1265  0.2177  0.1121
  197MPD1    H5 3004   0.111   4.260  17.031 -0.1543  1.2452  0.7864
  197MPD1    N1 3005   4.720   4.111  17.577 -0.0959 -0.0096 -0.1315
  197MPD1    H6 3006   4.635   4.060  17.601  1.0872 -0.0486  3.8870
  197MPD1    H7 3007   0.065   4.037  17.579  0.4863  0.4628 -3.1591
  198MPD1     C 3008   1.357   1.743  15.393  0.0401 -0.7142  0.6371
  198MPD1    C1 3009   1.404   1.684  15.275  0.0269 -0.3098 -0.3115
  198MPD1    C2 3010   1.512   1.599  15.287  0.0546 -0.0217  0.0804
  198MPD1    C3 3011   1.598   1.599  15.398 -0.0382  0.3737  0.2190
  198MPD1    C4 3012   1.548   1.661  15.514  0.4893  0.6195 -0.7269
  198MPD1    C5 3013   1.427   1.733  15.507 -0.2124 -0.4040  0.6110
  198MPD1     H 3014   1.531   1.531  15.204 -0.5522 -0.0515 -0.0283
  198MPD1    H1 3015   1.595   1.647  15.611 -0.8751  0.6696 -0.0686
  198MPD1    H2 3016   1.260   1.789  15.397  0.6242  0.5583  0.1836
  198MPD1    H3 3017   1.384   1.760  15.602  0.6278  0.6371  0.6949
  198MPD1     N 3018   1.717   1.524  15.396 -0.5577  0.4076 -0.5633
  198MPD1    H5 3019   1.735   1.480  15.307  0.5393 -0.4395  0.0704
  198MPD1    N1 3020   1.316   1.675  15.169  0.0918  0.6013  0.2251
  198MPD1    H6 3021   1.263   1.763  15.165  0.0032  0.5834  1.1653
  198MPD1    H7 3022   1.369   1.668  15.082  1.8728 -0.2801  1.4018
  199MPD1     C 3023   0.853   3.150   9.575 -0.1011  0.4856  0.6776
  199MPD1    C1 3024   0.793   3.030   9.552  0.3281 -0.3751 -0.2766
  199MPD1    C2 3025   0.657   3.032   9.579 -0.8738 -0.5042  0.2185
  199MPD1    C3 3026   0.580   3.144   9.609  0.3966 -0.0226 -0.4321
  199MPD1    C4 3027   0.638   3.273   9.618 -0.1248 -0.5871  0.1934
  199MPD1    C5 3028   0.772   3.267   9.603 -0.0405  0.6294 -0.6325
  199MPD1     H 3029   0.601   2.940   9.567 -0.4779 -0.7335  0.1524
  199MPD1    H1 3030   0.583   3.363   9.643  2.5107  1.3219 -0.9276
  199MPD1    H2 3031   0.958   3.176   9.564 -0.2534 -0.3923 -2.7485
  199MPD1    H3 3032   0.821   3.362   9.617  2.2114 -0.5385 -0.5045
  199MPD1     N 3033   0.439   3.133   9.642 -0.6531 -0.6099  0.1822
  199MPD1    H5 3034   0.384   3.218   9.642 -0.8741 -0.7450 -1.2807
  199MPD1    N1 3035   0.867   2.912   9.549 -0.7758  0.0507  0.4336
  199MPD1    H6 3036   0.959   2.916   9.505 -0.7183  0.9975  0.6351
  199MPD1    H7 3037   0.818   2.841   9.495 -1.5933  0.3177  0.8331
  200MPD1     C 3038   2.674   2.580  14.477  0.1354 -0.3191 -0.2846
  200MPD1    C1 3039   2.650   2.565  14.340  0.3817 -0.3570 -0.1639
  200MPD1    C2 3040   2.709   2.461  14.264  0.2453 -0.2613 -0.2918
  200MPD1    C3 3041   2.781   2.370  14.336 -0.1104 -0.2903 -0.1233
  200MPD1    C4 3042   2.810   2.389  14.471  0.2076 -0.1524  0.1468
  200MPD1    C5 3043   2.749   2.487  14.540 -0.1699  0.2614 -0.2355
  200MPD1     H 3044   2.698   2.453  14.157 -0.8491 -0.4631 -0.1706
  200MPD1    H1 3045   2.870   2.333  14.541 -2.8898 -2.3759  1.0145
  200MPD1    H2 3046   2.623   2.664  14.522  2.2972  0.8324 -0.0221
  200MPD1    H3 3047   2.756   2.496  14.648 -0.8154 -0.6758 -0.1203
  200MPD1     N 3048   2.841   2.268  14.254 -0.0301  0.5261  1.1015
  200MPD1    H5 3049   2.809   2.276  14.158  0.9932  1.2572  0.8285
  200MPD1    N1 3050   2.564   2.654  14.283 -0.2361 -0.4112  0.1615
  200MPD1    H6 3051   2.550   2.743  14.332 -1.4690 -0.5525  0.0606
  200MPD1    H7 3052   2.589   2.681  14.188 -0.0769 -1.2826 -0.0418
  201MPD1     C 3053   0.443   1.816  12.929 -0.5720  0.1786 -0.3161
  201MPD1    C1 3054   0.422   1.685  12.980  0.8441 -0.1329 -0.6711
  201MPD1    C2 3055   0.506   1.578  12.941 -0.2008  0.4731  0.1243
  201MPD1    C3 3056   0.612   1.608  12.852 -0.5264 -0.5502  0.2260
  201MPD1    C4 3057   0.615   1.729  12.793  0.3825  0.4019  0.8612
  201MPD1    C5 3058   0.535   1.833  12.836  0.2956 -0.1771 -0.3283
  201MPD1     H 3059   0.491   1.476  12.973  1.0814 -0.4493 -2.2156
  201MPD1    H1 3060   0.687   1.758  12.717  2.9068 -0.0249  3.0549
  201MPD1    H2 3061   0.391   1.899  12.975 -0.6337  0.3524 -0.6970
  201MPD1    H3 3062   0.550   1.929  12.788 -2.6792  0.3391 -0.2183
  201MPD1     N 3063   0.704   1.512  12.820  0.4234 -0.2614  0.2006
  201MPD1    H5 3064   0.682   1.427  12.871 -1.7633  1.2276  1.7548
  201MPD1    N1 3065   0.323   1.660  13.076 -0.4114 -0.4357  0.5463
  201MPD1    H6 3066   0.239   1.694  13.029 -0.1672  0.1802  0.5563
  201MPD1    H7 3067   0.309   1.562  13.100 -1.4571 -0.2665  0.6341
  202MPD1     C 3068   0.668   1.335   8.751 -0.8146 -0.5896  0.1845
  202MPD1    C1 3069   0.753   1.230   8.795 -0.2234  0.1725  0.3844
  202MPD1    C2 3070   0.787   1.238   8.930 -0.0809  0.0828 -0.2016
  202MPD1    C3 3071   0.707   1.301   9.021  0.6089 -0.3225 -0.1800
  202MPD1    C4 3072   0.598   1.380   8.978  0.2776  0.3701 -0.2514
  202MPD1    C5 3073   0.587   1.398   8.841 -0.3641  0.0975 -0.2917
  202MPD1     H 3074   0.865   1.170   8.961 -0.6533  0.0894  1.2284
  202MPD1    H1 3075   0.537   1.420   9.058 -0.1280  0.8311 -0.7919
  202MPD1    H2 3076   0.652   1.359   8.646  2.3273 -0.0276 -0.1782
  202MPD1    H3 3077   0.519   1.473   8.803 -2.5812 -1.5098  0.5498
  202MPD1     N 3078   0.729   1.288   9.160 -0.0805 -0.1246 -0.4151
  202MPD1    H5 3079   0.666   1.344   9.217  0.4771 -0.6847  0.7586
  202MPD1    N1 3080   0.854   1.184   8.705  0.5441 -0.2220 -0.1948
  202MPD1    H6 3081   0.896   1.095   8.731 -0.1729 -0.8458 -1.1472
  202MPD1    H7 3082   0.829   1.168   8.607 -0.9758  0.1762  0.1184
  203MPD1     C 3083   3.898   1.899  12.370 -0.2431 -0.2122 -1.1230
  203MPD1    C1 3084   3.921   1.792  12.285  0.6622 -0.6455  0.0796
  203MPD1    C2 3085   4.016   1.704  12.329 -0.6510  0.1495 -0.4624
  203MPD1    C3 3086   4.065   1.695  12.461  0.3619 -0.5270  0.2300
  203MPD1    C4 3087   4.038   1.804  12.544 -0.6550 -0.6670  0.4706
  203MPD1    C5 3088   3.958   1.907  12.496 -0.4057  0.3230 -0.3748
  203MPD1     H 3089   4.041   1.620  12.265 -0.6649  0.2896 -0.6514
  203MPD1    H1 3090   4.066   1.811  12.648 -2.0773 -1.6402  0.9182
  203MPD1    H2 3091   3.826   1.977  12.346 -0.7563 -0.8421 -1.6147
  203MPD1    H3 3092   3.936   1.996  12.553  1.2711  0.8071 -0.4785
  203MPD1     N 3093   4.162   1.603  12.496  0.6132 -0.3086  0.4028
  203MPD1    H5 3094   4.202   1.540  12.426 -0.3058 -0.3588 -0.0828
  203MPD1    N1 3095   3.864   1.805  12.156  0.2833  0.0692  0.1911
  203MPD1    H6 3096   3.780   1.862  12.152  2.0786  2.6953 -0.2082
  203MPD1    H7 3097   3.833   1.720  12.110  5.0470 -0.7425 -1.5385
  204MPD1     C 3098   3.267   2.924  16.616 -0.0774  0.5937  0.4808
  204MPD1    C1 3099   3.387   2.953  16.555  0.1400 -0.2208  0.8214
  204MPD1    C2 3100   3.510   2.924  16.621 -0.1901 -1.1197  0.1347
  204MPD1    C3 3101   3.507   2.849  16.738  0.0399  0.1842 -0.2622
  204MPD1    C4 3102   3.389   2.831  16.809  0.0757  0.4727  0.0130
  204MPD1    C5 3103   3.276   2.864  16.741 -0.0091 -0.2778 -0.2049
  204MPD1     H 3104   3.602   2.947  16.566 -0.9121 -2.9959 -1.8614
  204MPD1    H1 3105   3.386   2.773  16.901  0.1961 -0.7206 -0.7418
  204MPD1    H2 3106   3.176   2.954  16.564 -0.6333 -2.0239 -0.0812
  204MPD1    H3 3107   3.174   2.841  16.772  0.0521 -0.2933 -0.0169
  204MPD1     N 3108   3.631   2.801  16.792 -0.5052  0.3458  0.4423
  204MPD1    H5 3109   3.714   2.825  16.738 -1.5770  1.0040 -0.9249
  204MPD1    N1 3110   3.385   3.048  16.451 -0.5423  0.5237  0.8992
  204MPD1    H6 3111   3.465   3.040  16.389 -0.7922 -1.1142  0.8052
  204MPD1    H7 3112   3.304   3.030  16.393  0.5092  1.4641 -0.8714
  205MPD1     C 3113   4.197   1.145  16.714 -0.1087  0.4611  0.6498
  205MPD1    C1 3114   4.307   1.217  16.715 -0.0484  0.4391 -0.8005
  205MPD1    C2 3115   4.325   1.300  16.827  0.5662  0.1783  0.9076
  205MPD1    C3 3116   4.235   1.299  16.934  0.6382  0.4144  0.5256
  205MPD1    C4 3117   4.128   1.211  16.933  0.7271  0.4319  0.4561
  205MPD1    C5 3118   4.106   1.138  16.819 -0.0578 -0.0991 -0.3167
  205MPD1     H 3119   4.406   1.372  16.823 -0.2851  1.0656 -0.4951
  205MPD1    H1 3120   4.059   1.203  17.017  1.6064 -1.2274  1.0164
  205MPD1    H2 3121   4.170   1.087  16.627  1.5590 -0.5825  0.8126
  205MPD1    H3 3122   4.012   1.086  16.812  0.8171 -1.5595 -1.2218
  205MPD1     N 3123   4.240   1.390  17.041 -0.0138 -0.1207 -0.3484
  205MPD1    H5 3124   4.178   1.376  17.120 -0.4408 -0.9268 -0.8307
  205MPD1    N1 3125   4.395   1.232  16.603 -0.3567 -0.0191 -0.2074
  205MPD1    H6 3126   4.490   1.263  16.621 -2.3843  6.0095  0.0129
  205MPD1    H7 3127   4.397   1.149  16.543 -2.0455 -0.7345  0.7260
  206MPD1     C 3128   3.599   4.394  16.974  0.1143 -0.2282 -0.2833
  206MPD1    C1 3129   3.688   4.311  16.907  0.1210 -0.4431  0.4962
  206MPD1    C2 3130   3.709   4.340  16.775  0.1942 -0.0298 -0.0644
  206MPD1    C3 3131   3.666   4.459  16.713 -0.6189 -0.5789  0.1796
  206MPD1    C4 3132   3.585   4.540  16.782  0.3684  0.3288 -0.2515
  206MPD1    C5 3133   3.556   4.506  16.913  0.1380 -0.0389 -0.0384
  206MPD1     H 3134   3.745   4.261  16.711  1.3320  0.4477 -0.0296
  206MPD1    H1 3135   3.544   4.622  16.724 -0.4757  2.2085  2.9962
  206MPD1    H2 3136   3.563   4.374  17.074 -0.1945  0.2106 -0.3072
  206MPD1    H3 3137   3.483   4.564  16.968 -1.8923 -1.9034 -0.7460
  206MPD1     N 3138   3.707   4.495  16.580 -0.2397  0.6929  0.1368
  206MPD1    H5 3139   3.684   4.587  16.544  1.2090  0.3800 -1.5903
  206MPD1    N1 3140   3.704   4.181  16.952 -0.0366 -0.3492  0.0413
  206MPD1    H6 3141   3.716   4.173  17.053  1.8254 -1.0316 -0.2370
  206MPD1    H7 3142   3.789   4.145  16.910  0.2799  0.1469  0.2480
  207MPD1     C 3143   1.698   2.082   9.626 -0.5935 -0.4585  0.0175
  207MPD1    C1 3144   1.688   2.045   9.756  0.1108 -0.2277 -0.2252
  207MPD1    C2 3145   1.758   2.112   9.852  0.3218  0.3316 -0.0573
  207MPD1    C3 3146   1.837   2.223   9.813 -0.4787 -0.1625  0.2939
  207MPD1    C4 3147   1.843   2.261   9.677  0.0350 -0.1098 -0.2377
  207MPD1    C5 3148   1.773   2.190   9.588  0.5303  0.4694 -0.1617
  207MPD1     H 3149   1.751   2.075   9.954 -2.1369 -0.2874 -0.4526
  207MPD1    H1 3150   1.902   2.348   9.652 -0.4950  1.1676  2.9889
  207MPD1    H2 3151   1.640   2.028   9.553 -3.2649  0.6772  1.3030
  207MPD1    H3 3152   1.763   2.230   9.488  1.3595 -0.0909 -0.4711
  207MPD1     N 3153   1.931   2.276   9.903  0.0177 -0.1639 -0.1025
  207MPD1    H5 3154   2.000   2.344   9.871  0.6329 -1.5839 -1.7852
  207MPD1    N1 3155   1.639   1.914   9.787 -1.0217  0.1672 -0.1836
  207MPD1    H6 3156   1.585   1.918   9.873  1.5359 -1.9949  1.5359
  207MPD1    H7 3157   1.571   1.881   9.719 -1.9988  0.9430  0.4228
  208MPD1     C 3158   0.591   1.600  17.486  0.9388 -0.0533  0.1628
  208MPD1    C1 3159   0.452   1.616  17.477 -0.3447  0.8767 -0.2324
  208MPD1    C2 3160   0.377   1.569  17.580  0.0172  0.8989 -0.5744
  208MPD1    C3 3161   0.432   1.494  17.681 -0.9264 -0.4974 -0.1473
  208MPD1    C4 3162   0.569   1.473  17.682 -0.3210 -0.4756 -0.4648
  208MPD1    C5 3163   0.653   1.537  17.593 -0.1590  0.2340  0.8459
  208MPD1     H 3164   0.270   1.588  17.581 -0.1088 -0.0270  2.5552
  208MPD1    H1 3165   0.626   1.424   0.061 -3.3600 -0.8593  1.4781
  208MPD1    H2 3166   0.659   1.663  17.429  0.4146  0.1935 -0.1837
  208MPD1    H3 3167   0.761   1.529  17.601  0.2583  4.4307 -0.2662
  208MPD1     N 3168   0.339   1.451   0.079 -0.5474 -0.6039 -0.4737
  208MPD1    H5 3169   0.240   1.466   0.061 -0.5808  0.6729  0.7706
  208MPD1    N1 3170   0.391   1.694  17.378 -0.2062 -0.5959  0.0893
  208MPD1    H6 3171   0.298   1.666  17.350 -1.5596  1.2270  2.6527
  208MPD1    H7 3172   0.447   1.719  17.297  2.1203  0.1068  1.8922
  209MPD1     C 3173   2.187   1.851  11.868 -0.3934  0.8629 -0.4683
  209MPD1    C1 3174   2.162   1.985  11.893  0.4411 -0.2903 -0.3360
  209MPD1    C2 3175   2.184   2.077  11.793  0.0559 -0.2930  0.4963
  209MPD1    C3 3176   2.224   2.038  11.668 -0.3582  0.1614  0.1608
  209MPD1    C4 3177   2.254   1.904  11.645 -0.6941  0.0471  0.5869
  209MPD1    C5 3178   2.239   1.809  11.746 -0.5423 -0.4203 -0.4405
  209MPD1     H 3179   2.163   2.181  11.816 -1.0253 -0.2911 -0.5049
  209MPD1    H1 3180   2.290   1.862  11.552  3.7322  2.0636  1.4091
  209MPD1    H2 3181   2.181   1.782  11.952  0.4148 -0.0223 -1.1458
  209MPD1    H3 3182   2.272   1.706  11.740  1.7548  0.3964 -1.5979
  209MPD1     N 3183   2.222   2.126  11.561 -0.3464  0.4615 -0.6870
  209MPD1    H5 3184   2.211   2.225  11.581  1.1259  0.0038  2.3470
  209MPD1    N1 3185   2.127   2.028  12.027 -0.3318  0.2865  0.1431
  209MPD1    H6 3186   2.061   1.966  12.075 -2.8009  0.6860 -2.7019
  209MPD1    H7 3187   2.100   2.126  12.034  1.9724  0.7632  2.0916
  210MPD1     C 3188   2.888   2.764  11.303  0.2100 -0.5520  0.1809
  210MPD1    C1 3189   2.780   2.787  11.390  0.1235  0.0636 -0.5028
  210MPD1    C2 3190   2.674   2.699  11.382  0.2341 -0.0180 -0.0064
  210MPD1    C3 3191   2.661   2.603  11.283  0.4125 -0.3148 -0.0427
  210MPD1    C4 3192   2.767   2.587  11.195  0.2313  0.3438 -1.0981
  210MPD1    C5 3193   2.875   2.663  11.213  0.6090  0.1749  0.6529
  210MPD1     H 3194   2.583   2.729  11.433  0.7161 -1.1198  1.5001
  210MPD1    H1 3195   2.772   2.521  11.109  0.7195  0.4624 -1.1603
  210MPD1    H2 3196   2.970   2.834  11.290  1.0455 -1.7984 -1.2886
  210MPD1    H3 3197   2.950   2.665  11.135  0.4246  2.8844  0.5451
  210MPD1     N 3198   2.540   2.519  11.267  0.2959 -0.6314 -0.0891
  210MPD1    H5 3199   2.552   2.448  11.196  2.0320 -0.2959 -0.1233
  210MPD1    N1 3200   2.785   2.888  11.482 -0.4246 -0.0589 -0.5309
  210MPD1    H6 3201   2.845   2.965  11.455 -1.1886  0.3870 -0.9680
  210MPD1    H7 3202   2.688   2.913  11.502 -0.4215 -2.7721  2.9379
  211MPD1     C 3203   0.028   1.173  15.836 -0.1943 -0.7006  0.2069
  211MPD1    C1 3204   0.010   1.278  15.926  0.3282  0.0554 -0.2354
  211MPD1    C2 3205   4.604   1.315  15.943  0.8479 -0.1409 -0.6977
  211MPD1    C3 3206   4.500   1.236  15.906  0.3461 -0.3691  0.1691
  211MPD1    C4 3207   4.521   1.127  15.821  0.3850 -0.3064  0.0948
  211MPD1    C5 3208   4.656   1.100  15.792  0.2655 -0.0127  0.1071
  211MPD1     H 3209   4.582   1.399  16.008  0.6456 -0.7629  0.0547
  211MPD1    H1 3210   4.434   1.079  15.778 -0.5135  1.0634  0.3637
  211MPD1    H2 3211   0.122   1.138  15.797  0.9331 -0.1874  2.4215
  211MPD1    H3 3212   4.678   1.023  15.719  0.0497  0.5924 -0.5945
  211MPD1     N 3213   4.366   1.277  15.944  0.3898 -0.6313  0.1519
  211MPD1    H5 3214   4.367   1.341  16.022  1.4056 -1.2077  0.5955
  211MPD1    N1 3215   0.116   1.352  15.979 -1.1900 -0.2139  0.0028
  211MPD1    H6 3216   0.208   1.312  15.997 -1.0458  0.3455  0.5244
  211MPD1    H7 3217   0.089   1.389  16.070  3.2156  0.2348  1.1164
  212MPD1     C 3218   3.241   0.339  16.018 -0.4794  0.3055 -0.2487
  212MPD1    C1 3219   3.158   0.375  16.125  0.4775  0.7493 -0.1723
  212MPD1    C2 3220   3.118   0.284  16.215  0.4575  0.0655 -0.2141
  212MPD1    C3 3221   3.129   0.149  16.193 -0.3605 -0.3913 -0.4109
  212MPD1    C4 3222   3.200   0.108  16.081  0.2809 -0.8653  0.8232
  212MPD1    C5 3223   3.261   0.206  16.002  0.3240  0.2003 -0.2553
  212MPD1     H 3224   3.074   0.318  16.308 -1.4439 -0.9591 -0.7298
  212MPD1    H1 3225   3.232   0.006  16.063 -0.8175 -0.7358 -1.7919
  212MPD1    H2 3226   3.283   0.409  15.947 -0.2510  0.3840 -0.0366
  212MPD1    H3 3227   3.337   0.175  15.932 -1.7179  0.6781 -2.6631
  212MPD1     N 3228   3.090   0.052  16.293 -0.2621 -0.8730 -0.1878
  212MPD1    H5 3229   3.099   4.679  16.265 -0.7710 -0.0995 -3.0630
  212MPD1    N1 3230   3.143   0.514  16.159  0.5575  0.7673  0.5723
  212MPD1    H6 3231   3.057   0.525  16.212  0.5233 -1.1993  0.9588
  212MPD1    H7 3232   3.145   0.579  16.081 -1.1349  2.3513  1.8610
  213MPD1     C 3233   1.154   0.993  15.400 -0.9324 -0.1554  1.2027
  213MPD1    C1 3234   1.034   1.058  15.387  0.1192 -0.0798  0.1688
  213MPD1    C2 3235   0.999   1.080  15.258 -0.2716 -0.3339  0.1606
  213MPD1    C3 3236   1.096   1.095  15.165  0.1898  0.5867 -0.5378
  213MPD1    C4 3237   1.229   1.062  15.186 -0.0627  0.0904  0.4549
  213MPD1    C5 3238   1.254   1.005  15.308  0.0174 -0.1243  0.3328
  213MPD1     H 3239   0.899   1.118  15.241 -1.1008 -2.3316  0.6276
  213MPD1    H1 3240   1.312   1.064  15.116  0.6084  1.6699  1.3176
  213MPD1    H2 3241   1.173   0.946  15.496  0.0155 -0.0386  1.0772
  213MPD1    H3 3242   1.354   0.966  15.323  1.2232  2.3691 -1.2339
  213MPD1     N 3243   1.052   1.126  15.030 -0.6741 -0.1326 -0.1393
  213MPD1    H5 3244   0.952   1.111  15.021 -0.4769 -1.2687 -0.5031
  213MPD1    N1 3245   0.936   1.033  15.485  0.0156  0.2901  0.2002
  213MPD1    H6 3246   0.979   1.027  15.577  0.6013 -0.0186 -0.0934
  213MPD1    H7 3247   0.869   1.109  15.489  0.0344  0.3182  0.0005
  214MPD1     C 3248   0.410   0.644  14.777 -0.4984 -0.3295  0.4272
  214MPD1    C1 3249   0.431   0.707  14.656 -1.3443  0.0772  0.3983
  214MPD1    C2 3250   0.526   0.810  14.656 -0.4145  0.3475 -0.2568
  214MPD1    C3 3251   0.590   0.857  14.768  0.6069 -0.0840 -0.2951
  214MPD1    C4 3252   0.566   0.794  14.884  0.2954  0.1183 -0.7518
  214MPD1    C5 3253   0.474   0.691  14.889  0.6429  0.4344 -0.6081
  214MPD1     H 3254   0.553   0.856  14.561  0.9280 -1.9287 -0.9740
  214MPD1    H1 3255   0.612   0.820  14.978 -0.9542 -0.2388 -0.0491
  214MPD1    H2 3256   0.332   0.568  14.777 -1.3045  0.4866 -1.3015
  214MPD1    H3 3257   0.444   0.639  14.980 -0.0362 -0.9956 -1.6538
  214MPD1     N 3258   0.696   0.958  14.766 -0.6368  0.5116  0.4204
  214MPD1    H5 3259   0.745   0.981  14.852  1.4853 -2.3549 -0.0227
  214MPD1    N1 3260   0.404   0.656  14.533 -0.2048  0.0737  0.0561
  214MPD1    H6 3261   0.395   0.733  14.467 -0.9764 -1.8783 -2.1051
  214MPD1    H7 3262   0.321   0.597  14.529 -1.8932  2.4200  0.6313
  215MPD1     C 3263   2.137   1.400  10.383  0.4242 -0.5719  0.4010
  215MPD1    C1 3264   2.137   1.418  10.522 -0.6103  0.5140 -0.1227
  215MPD1    C2 3265   2.070   1.530  10.566  0.1375 -0.2710 -0.2910
  215MPD1    C3 3266   2.011   1.625  10.481 -0.0598 -0.4351 -0.7029
  215MPD1    C4 3267   2.018   1.603  10.350  0.0907 -0.0763  0.3831
  215MPD1    C5 3268   2.078   1.489  10.301  0.0794 -0.5440 -0.4635
  215MPD1     H 3269   2.064   1.542  10.673  0.5121  2.8034 -0.6062
  215MPD1    H1 3270   1.978   1.673  10.278 -0.7335 -0.5410  0.3954
  215MPD1    H2 3271   2.191   1.319  10.336  1.0491 -1.0782  2.0115
  215MPD1    H3 3272   2.081   1.467  10.195  0.8759 -2.4816 -0.0356
  215MPD1     N 3273   1.960   1.745  10.535 -0.2448  0.6436 -0.8370
  215MPD1    H5 3274   1.950   1.760  10.635  0.7047  0.9269 -0.7839
  215MPD1    N1 3275   2.166   1.315  10.607 -0.1987  0.0040 -0.4004
  215MPD1    H6 3276   2.246   1.259  10.578 -0.1956 -0.6146  0.8001
  215MPD1    H7 3277   2.180   1.345  10.704  1.9997  4.7020 -2.1315
  216MPD1     C 3278   3.202   4.576  17.353  0.1512  0.0985  0.0052
  216MPD1    C1 3279   3.267   4.498  17.261 -0.7765 -0.3465  0.6486
  216MPD1    C2 3280   3.201   4.385  17.226  0.2525  0.4914 -0.3262
  216MPD1    C3 3281   3.080   4.338  17.282 -0.2635 -0.6388  0.1845
  216MPD1    C4 3282   3.023   4.418  17.380 -0.2031  0.6501 -0.3147
  216MPD1    C5 3283   3.086   4.532  17.409  0.2911 -0.1681 -0.4928
  216MPD1     H 3284   3.252   4.327  17.150 -0.0624  1.1199 -1.0218
  216MPD1    H1 3285   2.923   4.402  17.417  0.4239  0.6722  1.4028
  216MPD1    H2 3286   3.241   4.676  17.371  0.9623  0.1940 -2.2732
  216MPD1    H3 3287   3.033   4.607  17.467  0.1155 -0.2262 -0.5782
  216MPD1     N 3288   3.023   4.226  17.224  0.3149  0.5512 -0.1718
  216MPD1    H5 3289   3.086   4.170  17.167 -3.3558 -0.8259 -2.8636
  216MPD1    N1 3290   3.385   4.543  17.193 -0.0826 -0.1585 -0.0918
  216MPD1    H6 3291   3.440   4.609  17.248 -2.3996  1.9288 -0.3057
  216MPD1    H7 3292   3.452   4.469  17.171  0.5630  0.8430 -1.5128
  217MPD1     C 3293   0.296   2.131   8.462 -0.1768 -0.4993 -0.2776
  217MPD1    C1 3294   0.312   2.149   8.597  0.2228  0.1897  0.0109
  217MPD1    C2 3295   0.247   2.061   8.677 -0.1481  0.3217 -0.4396
  217MPD1    C3 3296   0.190   1.945   8.631  0.0176 -0.2569 -0.2303
  217MPD1    C4 3297   0.180   1.928   8.497  0.8314  0.3330 -0.1274
  217MPD1    C5 3298   0.230   2.024   8.418  0.1755  0.5855 -0.7277
  217MPD1     H 3299   0.260   2.073   8.784  0.8126 -1.5284 -0.3368
  217MPD1    H1 3300   0.130   1.845   8.447 -0.3095 -0.2697  2.0113
  217MPD1    H2 3301   0.341   2.199   8.389  0.7846  0.8557  1.5634
  217MPD1    H3 3302   0.213   2.010   8.311 -3.3043 -0.5948 -0.0141
  217MPD1     N 3303   0.142   1.844   8.716  0.4395 -0.5485  0.2872
  217MPD1    H5 3304   0.111   1.757   8.672  1.1424 -0.2818 -0.7370
  217MPD1    N1 3305   0.377   2.268   8.631 -0.2241 -0.4660  0.0307
  217MPD1    H6 3306   0.440   2.294   8.555  1.2113  2.9340  2.3947
  217MPD1    H7 3307   0.426   2.278   8.720  0.0440  1.6953 -0.3503
  218MPD1     C 3308   1.137   2.360  12.804  0.5483 -0.2570 -0.0391
  218MPD1    C1 3309   1.145   2.225  12.815 -0.0960  0.2852 -0.5609
  218MPD1    C2 3310   1.266   2.168  12.783 -0.7795 -0.2318 -0.0400
  218MPD1    C3 3311   1.379   2.235  12.738 -0.3618  0.2373 -0.5984
  218MPD1    C4 3312   1.367   2.372  12.732 -0.7493 -0.7852 -0.7123
  218MPD1    C5 3313   1.244   2.431  12.757  0.1261  0.3505  0.2650
  218MPD1     H 3314   1.272   2.064  12.812  0.7057 -1.1869 -3.7304
  218MPD1    H1 3315   1.458   2.425  12.707 -1.4283  0.8105  0.1866
  218MPD1    H2 3316   1.049   2.413  12.837 -0.5831 -1.3505 -1.3250
  218MPD1    H3 3317   1.237   2.539  12.753  0.0949  0.4192  1.8701
  218MPD1     N 3318   1.498   2.170  12.707  0.4888 -0.1770 -0.6133
  218MPD1    H5 3319   1.566   2.238  12.675  0.4998  0.5088  0.8527
  218MPD1    N1 3320   1.073   2.145  12.900 -0.0506  0.6031  0.6391
  218MPD1    H6 3321   1.080   2.052  12.860 -1.6093  0.8080 -0.1053
  218MPD1    H7 3322   0.974   2.165  12.889 -0.6172 -1.7557  1.3824
  219MPD1     C 3323   1.927   2.390  12.022  0.1374  0.6407 -0.3345
  219MPD1    C1 3324   2.029   2.334  12.095  0.3273  0.1010  0.2067
  219MPD1    C2 3325   2.004   2.254  12.192  0.0851  0.1938 -0.9001
  219MPD1    C3 3326   1.876   2.241  12.246  0.0399  0.3305  0.0214
  219MPD1    C4 3327   1.770   2.297  12.182 -0.6907 -0.2264 -0.1625
  219MPD1    C5 3328   1.802   2.378  12.074  0.3100  0.6862 -0.7567
  219MPD1     H 3329   2.085   2.200  12.242  0.3742  1.7548  0.2995
  219MPD1    H1 3330   1.666   2.294  12.213 -0.6423  0.0202  0.0274
  219MPD1    H2 3331   1.949   2.457  11.939 -1.7500  2.8089  0.8955
  219MPD1    H3 3332   1.718   2.418  12.019 -1.6801  1.6985  3.0375
  219MPD1     N 3333   1.840   2.155  12.357  0.3865 -0.1361  0.1854
  219MPD1    H5 3334   1.744   2.124  12.373  0.1865  0.7945  0.7708
  219MPD1    N1 3335   2.162   2.349  12.051  0.9971  0.0915  0.2105
  219MPD1    H6 3336   2.174   2.443  12.015 -1.2355 -0.1463 -1.1431
  219MPD1    H7 3337   2.229   2.328  12.125 -0.2231 -3.3227  0.3500
  220MPD1     C 3338   1.246   1.501   9.337  0.7732 -0.3943 -0.0808
  220MPD1    C1 3339   1.199   1.606   9.263  0.3577 -0.6706 -0.5077
  220MPD1    C2 3340   1.193   1.729   9.323 -0.1582 -0.6220 -0.2228
  220MPD1    C3 3341   1.248   1.754   9.448 -0.2375  0.0756  1.5421
  220MPD1    C4 3342   1.305   1.653   9.518 -0.3199 -0.1769 -0.1748
  220MPD1    C5 3343   1.310   1.529   9.456 -0.1085 -0.0008 -0.0717
  220MPD1     H 3344   1.141   1.807   9.268 -0.2332 -1.1606 -0.9157
  220MPD1    H1 3345   1.357   1.663   9.612  0.2548 -2.9875 -0.1816
  220MPD1    H2 3346   1.239   1.399   9.300  0.4270 -0.4294  0.0808
  220MPD1    H3 3347   1.354   1.443   9.506 -0.7396  0.0936  0.6502
  220MPD1     N 3348   1.237   1.885   9.506 -0.6206  0.0359 -0.2802
  220MPD1    H5 3349   1.180   1.951   9.455 -0.1531  0.1632 -0.6456
  220MPD1    N1 3350   1.124   1.592   9.141  0.0051  0.5982  0.1682
  220MPD1    H6 3351   1.153   1.508   9.091  1.8893  0.6196  1.2374
  220MPD1    H7 3352   1.124   1.677   9.086  0.0162  2.0079  2.3539
  221MPD1     C 3353   3.760   1.263  16.419  0.1188  0.2461  0.6974
  221MPD1    C1 3354   3.703   1.206  16.310 -0.5715  0.1942  0.1518
  221MPD1    C2 3355   3.778   1.136  16.216  0.7185 -0.1218 -0.1064
  221MPD1    C3 3356   3.913   1.115  16.241  0.6106 -1.2604 -0.3454
  221MPD1    C4 3357   3.973   1.166  16.355 -0.0745 -0.1860  0.4186
  221MPD1    C5 3358   3.895   1.241  16.439  0.0470 -0.1428  0.2378
  221MPD1     H 3359   3.722   1.090  16.136 -0.9284 -1.0309  1.5757
  221MPD1    H1 3360   4.079   1.162  16.377 -0.5008  1.9458  2.7786
  221MPD1    H2 3361   3.705   1.319  16.494 -0.8789  1.2514 -0.7940
  221MPD1    H3 3362   3.943   1.296  16.519 -1.7113  0.9486  0.5450
  221MPD1     N 3363   4.002   1.053  16.149 -0.0048 -0.0240  0.2575
  221MPD1    H5 3364   4.097   1.042  16.184  1.2137  2.7548 -2.1025
  221MPD1    N1 3365   3.568   1.228  16.282  0.8303 -0.3457  0.4719
  221MPD1    H6 3366   3.509   1.227  16.364  0.5746  1.1772  0.2991
  221MPD1    H7 3367   3.519   1.168  16.216 -0.9182  3.4151 -1.6432
  222MPD1     C 3368   2.942   0.320   0.903  0.3773  0.0160 -0.5502
  222MPD1    C1 3369   2.811   0.338   0.860  0.3426  0.2354  0.4120
  222MPD1    C2 3370   2.774   0.270   0.746 -0.8113 -0.4717 -0.2322
  222MPD1    C3 3371   2.860   0.181   0.678  0.0873  0.6207  0.3003
  222MPD1    C4 3372   2.986   0.164   0.730 -0.0775 -0.2398  0.0560
  222MPD1    C5 3373   3.026   0.235   0.836 -0.3117 -0.5988 -0.5096
  222MPD1     H 3374   2.671   0.280   0.714 -1.6604 -1.0595  2.2906
  222MPD1    H1 3375   3.060   0.101   0.682  1.0160  0.4195  0.8791
  222MPD1    H2 3376   2.984   0.368   0.990  0.3314 -1.8860  0.5227
  222MPD1    H3 3377   3.119   0.211   0.887  0.1891  1.9522 -0.2457
  222MPD1     N 3378   2.832   0.126   0.551 -0.5506 -0.1562 -0.0901
  222MPD1    H5 3379   2.899   0.057   0.518 -0.2551  0.5592 -0.9605
  222MPD1    N1 3380   2.722   0.412   0.936  0.3155  0.0373 -0.1016
  222MPD1    H6 3381   2.754   0.482   1.003 -0.6342 -0.8253  1.2509
  222MPD1    H7 3382   2.646   0.458   0.886 -0.3829 -0.8952  0.1066
  223MPD1     C 3383   2.030   0.368  17.665  0.2005 -0.4974  0.1902
  223MPD1    C1 3384   2.078   0.417   0.088 -0.9107  0.4209 -0.4114
  223MPD1    C2 3385   2.212   0.394   0.123  0.0664 -0.8147  0.4510
  223MPD1    C3 3386   2.291   0.308   0.051 -0.5972 -0.4654  0.1482
  223MPD1    C4 3387   2.242   0.258  17.629 -0.3138  0.0396  0.0586
  223MPD1    C5 3388   2.117   0.286  17.592 -0.0306 -0.2678  0.5144
  223MPD1     H 3389   2.252   0.438   0.214 -2.2428  1.2713  0.4462
  223MPD1    H1 3390   2.298   0.195  17.562  0.4975 -0.3465  1.0940
  223MPD1    H2 3391   1.935   0.395  17.621 -0.0132 -1.6394 -0.0711
  223MPD1    H3 3392   2.082   0.241  17.500 -0.1120  0.3238  0.2547
  223MPD1     N 3393   2.421   0.279   0.103 -0.5756 -0.5065 -0.1915
  223MPD1    H5 3394   2.444   0.336   0.184  0.5553 -1.4690  0.1571
  223MPD1    N1 3395   2.012   0.512   0.161 -0.1723  0.6832 -0.6750
  223MPD1    H6 3396   1.912   0.495   0.163 -0.3259  1.5705 -0.7983
  223MPD1    H7 3397   2.038   0.500   0.259 -1.1461  1.5791 -0.3067
  224MPD1     C 3398   0.500   2.314   8.928 -0.4996 -0.0800 -0.1149
  224MPD1    C1 3399   0.580   2.206   8.929  0.2117 -0.7344 -0.5387
  224MPD1    C2 3400   0.533   2.097   9.010 -0.0907 -0.5714  0.0126
  224MPD1    C3 3401   0.414   2.093   9.082 -0.7404  0.8521 -0.8366
  224MPD1    C4 3402   0.344   2.210   9.074 -0.0003 -0.6186  0.0498
  224MPD1    C5 3403   0.389   2.321   9.007  0.9681  0.6043  0.4199
  224MPD1     H 3404   0.601   2.012   9.011 -0.7607 -1.1047  0.0999
  224MPD1    H1 3405   0.254   2.225   9.133 -0.9341  1.0428 -1.7999
  224MPD1    H2 3406   0.523   2.405   8.873  1.2686 -0.7914 -0.5546
  224MPD1    H3 3407   0.337   2.416   9.016 -1.2367 -0.6315  0.8131
  224MPD1     N 3408   0.365   1.995   9.171 -0.6333  0.1794 -0.6329
  224MPD1    H5 3409   0.291   2.030   9.231 -0.0718  1.5017 -0.7143
  224MPD1    N1 3410   0.710   2.206   8.881  0.0531 -0.4520  0.0852
  224MPD1    H6 3411   0.728   2.283   8.817 -1.8824 -0.9934 -1.1239
  224MPD1    H7 3412   0.738   2.120   8.833  1.4060  0.2921 -0.4219
  225MPD1     C 3413   1.255   3.482  12.732  0.5671 -0.0518  0.2181
  225MPD1    C1 3414   1.327   3.418  12.631  0.2915 -0.6048 -0.3553
  225MPD1    C2 3415   1.255   3.332  12.547  0.2956  0.2340 -0.4821
  225MPD1    C3 3416   1.122   3.307  12.560 -0.1237  0.2629  0.9275
  225MPD1    C4 3417   1.051   3.383  12.657 -0.4068  0.2427 -0.6897
  225MPD1    C5 3418   1.123   3.465  12.740 -0.2456  0.1750  0.7179
  225MPD1     H 3419   1.298   3.282  12.461 -0.2319  0.0987 -0.6684
  225MPD1    H1 3420   0.944   3.377  12.675 -0.5330  1.5612 -1.0209
  225MPD1    H2 3421   1.300   3.546  12.807  0.4957 -0.4053  0.5626
  225MPD1    H3 3422   1.071   3.492  12.831 -0.0089 -2.5339  1.6564
  225MPD1     N 3423   1.045   3.230  12.469  0.0383  0.4284  0.4450
  225MPD1    H5 3424   0.946   3.245  12.456  0.0290 -0.7581 -0.7548
  225MPD1    N1 3425   1.468   3.410  12.635  0.6814 -0.7003  0.3302
  225MPD1    H6 3426   1.507   3.490  12.686 -0.6926 -1.7670  3.0400
  225MPD1    H7 3427   1.505   3.413  12.540 -0.7631  1.0255 -0.1854
  226MPD1     C 3428   0.581   4.171   9.024  0.3199  0.4976 -0.3908
  226MPD1    C1 3429   0.673   4.119   9.114  0.1030 -0.2048 -0.5901
  226MPD1    C2 3430   0.647   3.989   9.156 -0.3078  0.1227  0.1258
  226MPD1    C3 3431   0.543   3.917   9.102  0.2340 -0.7033 -0.5069
  226MPD1    C4 3432   0.446   3.978   9.026  0.3348  0.4902  0.3168
  226MPD1    C5 3433   0.461   4.107   8.996  0.1135  0.3646  0.3463
  226MPD1     H 3434   0.721   3.932   9.211  0.9432  1.1139 -0.5424
  226MPD1    H1 3435   0.361   3.921   8.989 -0.0053  2.5434 -2.0825
  226MPD1    H2 3436   0.589   4.274   8.990  1.2090  1.0924  1.6368
  226MPD1    H3 3437   0.390   4.153   8.929 -0.2193 -1.6840 -0.7197
  226MPD1     N 3438   0.549   3.782   9.121 -0.3461  0.4957 -0.5127
  226MPD1    H5 3439   0.631   3.755   9.174  0.1864  0.0486 -1.5736
  226MPD1    N1 3440   0.794   4.180   9.130 -0.0969  0.2247  0.4417
  226MPD1    H6 3441   0.828   4.172   9.226  1.2192 -1.4633 -0.1694
  226MPD1    H7 3442   0.806   4.280   9.114 -0.5250  0.6227  2.5680
  227MPD1     C 3443   1.281   3.170   9.341 -0.3218  0.8862 -0.2936
  227MPD1    C1 3444   1.177   3.079   9.335  0.0149  0.1971 -0.3109
  227MPD1    C2 3445   1.054   3.122   9.301 -0.1203  0.1852 -0.6032
  227MPD1    C3 3446   1.033   3.252   9.278 -0.4649 -0.0725 -0.5305
  227MPD1    C4 3447   1.140   3.347   9.281  0.1287  0.1991 -0.1842
  227MPD1    C5 3448   1.268   3.300   9.309  0.5036 -0.3339  0.6982
  227MPD1     H 3449   0.968   3.056   9.310 -0.4072  0.4618 -1.3337
  227MPD1    H1 3450   1.118   3.449   9.252 -0.0172  0.2211  0.0068
  227MPD1    H2 3451   1.381   3.131   9.358 -1.4507 -2.1906 -0.7002
  227MPD1    H3 3452   1.350   3.369   9.323  0.4593  0.0160 -0.7589
  227MPD1     N 3453   0.898   3.289   9.248 -0.1994 -0.0190  0.1200
  227MPD1    H5 3454   0.837   3.209   9.260  0.5788 -0.4204  1.3878
  227MPD1    N1 3455   1.203   2.949   9.382 -0.3071  0.0727  0.3707
  227MPD1    H6 3456   1.297   2.914   9.367  0.1925  1.1388  1.0087
  227MPD1    H7 3457   1.137   2.883   9.342  0.5635 -0.4222 -0.2527
  228MPD1     C 3458   2.522   0.259  12.588 -0.6111 -0.4103 -0.8427
  228MPD1    C1 3459   2.407   0.269  12.512 -0.0984  0.2696  0.5324
  228MPD1    C2 3460   2.293   0.203  12.555  0.4906 -0.1386  0.3987
  228MPD1    C3 3461   2.296   0.130  12.676  0.6439 -0.3887  0.2110
  228MPD1    C4 3462   2.407   0.139  12.758 -0.0786 -0.4089 -0.4792
  228MPD1    C5 3463   2.521   0.202  12.713  0.1747  0.4781  0.3124
  228MPD1     H 3464   2.205   0.195  12.491  0.4296 -0.3034  0.5016
  228MPD1    H1 3465   2.416   0.092  12.855  1.5981  3.0056  1.0268
  228MPD1    H2 3466   2.618   0.300  12.557 -0.4146  1.3363  2.0610
  228MPD1    H3 3467   2.601   0.213  12.786 -1.1733  0.5524  1.7770
  228MPD1     N 3468   2.176   0.063  12.711 -0.0699 -0.0062 -0.7846
  228MPD1    H5 3469   2.106   0.063  12.638 -0.1996 -1.1957 -0.6579
  228MPD1    N1 3470   2.392   0.362  12.411 -0.0550 -0.1053 -0.5854
  228MPD1    H6 3471   2.307   0.347  12.357 -1.0746 -1.0483  1.2530
  228MPD1    H7 3472   2.474   0.363  12.351 -2.6092  3.3975 -4.0356
  229MPD1     C 3473   2.049   4.249  14.339 -0.1842 -0.2838  0.7469
  229MPD1    C1 3474   2.090   4.321  14.447 -0.2784  0.4830  0.6900
  229MPD1    C2 3475   2.158   4.254  14.548 -0.4005 -0.4186 -0.5948
  229MPD1    C3 3476   2.195   4.122  14.530 -0.4247 -0.1775  1.0784
  229MPD1    C4 3477   2.166   4.063  14.407 -0.2014  0.1625  0.0842
  229MPD1    C5 3478   2.089   4.123  14.314 -0.3854 -0.1877  0.1473
  229MPD1     H 3479   2.164   4.307  14.643  0.2348  1.0809 -1.4678
  229MPD1    H1 3480   2.190   3.958  14.397  1.0936  0.4304  0.3077
  229MPD1    H2 3481   1.981   4.287  14.264  1.0543  0.0087 -0.2407
  229MPD1    H3 3482   2.058   4.090  14.215  1.6051 -1.8726  0.0798
  229MPD1     N 3483   2.260   4.046  14.627 -0.7596  0.7764 -0.0526
  229MPD1    H5 3484   2.267   3.947  14.609  0.4238  0.7626  0.4746
  229MPD1    N1 3485   2.033   4.445  14.464 -0.1081  0.1652  0.1909
  229MPD1    H6 3486   2.027   4.491  14.373 -1.9225  0.8709  0.6637
  229MPD1    H7 3487   2.081   4.513  14.522  0.7704 -1.1599  1.0293
  230MPD1     C 3488   2.194   3.618  15.577  0.0135  0.4502 -0.6523
  230MPD1    C1 3489   2.188   3.534  15.463 -0.2516  0.2589 -0.5732
  230MPD1    C2 3490   2.220   3.592  15.342  0.5245 -0.6042  0.4925
  230MPD1    C3 3491   2.266   3.720  15.336 -0.4354 -0.4000 -0.0723
  230MPD1    C4 3492   2.275   3.799  15.445 -0.1579  0.1729 -0.4889
  230MPD1    C5 3493   2.237   3.749  15.565  0.9590  0.6598 -0.2232
  230MPD1     H 3494   2.208   3.530  15.254 -1.2928  0.5323 -0.0575
  230MPD1    H1 3495   2.316   3.899  15.436 -0.7848  0.3125 -1.7892
  230MPD1    H2 3496   2.187   3.577  15.677 -0.6164  1.3084 -0.3458
  230MPD1    H3 3497   2.250   3.814  15.651  1.9450  0.5035 -0.2557
  230MPD1     N 3498   2.313   3.760  15.210 -0.2980 -0.6124  0.1757
  230MPD1    H5 3499   2.325   3.683  15.144 -0.1122  0.3405 -0.8971
  230MPD1    N1 3500   2.130   3.406  15.477 -0.1246 -0.0445  0.5558
  230MPD1    H6 3501   2.173   3.358  15.556  3.4817  1.3600 -0.5370
  230MPD1    H7 3502   2.145   3.346  15.396  2.6567  1.5972 -0.1328
  231MPD1     C 3503   0.236   0.618  15.417  0.4023  0.3623  0.1469
  231MPD1    C1 3504   0.138   0.700  15.361 -0.2624  0.2805  0.3399
  231MPD1    C2 3505   0.175   0.810  15.284  0.6817 -0.5721 -0.1335
  231MPD1    C3 3506   0.309   0.818  15.235  0.0790  1.1364  0.6611
  231MPD1    C4 3507   0.400   0.719  15.279  0.5491  0.5757 -0.1121
  231MPD1    C5 3508   0.363   0.625  15.369  0.7947 -0.1477 -0.1516
  231MPD1     H 3509   0.101   0.884  15.256  1.4667  0.3835  0.2910
  231MPD1    H1 3510   0.501   0.720  15.242  1.7749  0.0740  3.2112
  231MPD1    H2 3511   0.210   0.535  15.482  1.4705 -0.0367  0.0661
  231MPD1    H3 3512   0.429   0.547  15.404  1.0730  1.0205  1.8648
  231MPD1     N 3513   0.350   0.932  15.166  0.1317 -0.1011  0.1128
  231MPD1    H5 3514   0.271   0.986  15.132  0.0500 -0.8626 -0.9183
  231MPD1    N1 3515   0.010   0.692  15.414  0.5744  0.6262  0.6850
  231MPD1    H6 3516   4.657   0.714  15.353  0.0512  0.6904  1.3733
  231MPD1    H7 3517   4.721   0.605  15.464 -1.6666 -0.9867 -2.7838
  232MPD1     C 3518   2.785   3.506   0.365 -0.4212  0.1395 -0.0947
  232MPD1    C1 3519   2.783   3.368   0.352 -0.1132  0.1456 -0.8203
  232MPD1    C2 3520   2.670   3.315   0.295 -0.0890 -0.0305  0.8450
  232MPD1    C3 3521   2.567   3.400   0.253  0.2135 -0.3676 -0.8049
  232MPD1    C4 3522   2.571   3.537   0.255  0.4876  0.1168 -0.3296
  232MPD1    C5 3523   2.678   3.587   0.319 -0.5050 -0.1485 -0.3186
  232MPD1     H 3524   2.665   3.206   0.291  0.4187 -0.0317  0.3111
  232MPD1    H1 3525   2.500   3.608   0.214  0.2398 -0.6143 -1.1781
  232MPD1    H2 3526   2.852   3.563   0.429 -2.0964  2.7997 -0.7148
  232MPD1    H3 3527   2.676   3.694   0.336  0.8028  0.0264 -1.2787
  232MPD1     N 3528   2.457   3.337   0.203  0.2200 -0.4447  0.2498
  232MPD1    H5 3529   2.445   3.237   0.218  2.2114 -0.8787 -1.1046
  232MPD1    N1 3530   2.889   3.288   0.404 -0.6245 -0.2328 -0.1450
  232MPD1    H6 3531   2.975   3.342   0.416 -0.8071  0.0162  0.0489
  232MPD1    H7 3532   2.908   3.204   0.350 -0.9111 -0.5532  0.2537
  233MPD1     C 3533   3.630   0.686   1.920 -0.2754  0.0234  0.1418
  233MPD1    C1 3534   3.681   0.574   1.988 -0.1419  0.0139 -0.0931
  233MPD1    C2 3535   3.819   0.552   1.993 -0.3465 -0.8043 -0.0488
  233MPD1    C3 3536   3.903   0.640   1.931  0.0287 -0.2365 -0.1752
  233MPD1    C4 3537   3.852   0.741   1.847  0.1569  0.2722 -0.4419
  233MPD1    C5 3538   3.719   0.768   1.846  0.0279  0.1718 -0.7078
  233MPD1     H 3539   3.860   0.471   2.053  0.8939 -0.2082 -0.0854
  233MPD1    H1 3540   3.927   0.799   1.795  1.4339 -1.0673 -0.1035
  233MPD1    H2 3541   3.525   0.713   1.916 -0.4204 -0.3067  1.9183
  233MPD1    H3 3542   3.682   0.856   1.796 -1.4091  0.1910  0.4129
  233MPD1     N 3543   4.041   0.640   1.930  0.1281  0.2899 -0.0785
  233MPD1    H5 3544   4.080   0.706   1.863  0.0305  1.5834  1.1393
  233MPD1    N1 3545   3.591   0.495   2.058 -0.1438 -0.4462  0.5989
  233MPD1    H6 3546   3.615   0.397   2.053 -0.1778 -0.4879  1.2648
  233MPD1    H7 3547   3.495   0.500   2.026 -0.1452 -2.6728  0.2843
  234MPD1     C 3548   1.417   0.570   8.995  0.1857  0.2171  0.7739
  234MPD1    C1 3549   1.380   0.609   9.122 -0.0873  0.8277 -0.5893
  234MPD1    C2 3550   1.258   0.666   9.148 -0.3609 -0.3238 -0.0622
  234MPD1    C3 3551   1.169   0.693   9.044 -0.2889  0.1096  0.3209
  234MPD1    C4 3552   1.198   0.644   8.920 -0.7202  0.3001 -0.1332
  234MPD1    C5 3553   1.322   0.582   8.897  0.0754  0.1617  0.1713
  234MPD1     H 3554   1.231   0.694   9.249 -0.1808  1.5874 -0.5490
  234MPD1    H1 3555   1.127   0.651   8.838 -1.7279  0.0092  0.7165
  234MPD1    H2 3556   1.512   0.527   8.966 -0.4757  1.2597 -3.0230
  234MPD1    H3 3557   1.356   0.548   8.799  0.7809  2.4787 -0.4076
  234MPD1     N 3558   1.044   0.739   9.084  0.4300  0.5900 -0.2207
  234MPD1    H5 3559   1.036   0.768   9.181 -2.0130  0.2945 -0.3446
  234MPD1    N1 3560   1.470   0.584   9.226  0.3557  0.3704  0.2482
  234MPD1    H6 3561   1.448   0.635   9.312  1.4525 -0.3519  0.9574
  234MPD1    H7 3562   1.561   0.617   9.197  1.6876 -2.6475  1.0447
  235MPD1     C 3563   2.082   2.667  10.500 -0.3877 -0.0444  0.0597
  235MPD1    C1 3564   2.167   2.750  10.569 -0.1942 -0.5905  0.0028
  235MPD1    C2 3565   2.223   2.868  10.513 -0.2280  0.8218 -0.1624
  235MPD1    C3 3566   2.170   2.908  10.389  0.3303  0.7016 -0.1850
  235MPD1    C4 3567   2.070   2.829  10.325  0.0105  0.2778  0.5559
  235MPD1    C5 3568   2.032   2.714  10.383  0.4182  0.2412 -0.2497
  235MPD1     H 3569   2.305   2.917  10.565 -0.9242  3.2846 -1.3705
  235MPD1    H1 3570   2.032   2.866  10.230  2.1495 -1.5669 -0.9906
  235MPD1    H2 3571   2.041   2.577  10.544  1.7718 -1.3513 -0.5856
  235MPD1    H3 3572   1.963   2.657  10.321  0.6542  1.8004 -1.9495
  235MPD1     N 3573   2.236   3.024  10.325  0.3842 -0.6060 -0.2713
  235MPD1    H5 3574   2.318   3.065  10.369  0.1806 -0.3973 -0.0849
  235MPD1    N1 3575   2.222   2.702  10.692  0.0046 -0.3297 -0.1158
  235MPD1    H6 3576   2.155   2.636  10.730  0.5877 -0.6348  0.3919
  235MPD1    H7 3577   2.222   2.780  10.757  0.4249  1.0645 -1.7761
  236MPD1     C 3578   1.607   0.037  10.258 -0.0518 -0.9872 -0.1234
  236MPD1    C1 3579   1.503   4.683  10.251  0.3360 -0.5395  0.1498
  236MPD1    C2 3580   1.517   4.550  10.286  0.0370  0.0163  0.0659
  236MPD1    C3 3581   1.644   4.493  10.310 -0.1426 -0.4727 -0.4180
  236MPD1    C4 3582   1.747   4.578  10.325  0.5182 -0.0078 -0.4323
  236MPD1    C5 3583   1.728   4.710  10.299 -0.3259 -0.1919  0.6045
  236MPD1     H 3584   1.426   4.491  10.288  0.1779 -0.1814  0.5839
  236MPD1    H1 3585   1.845   4.550  10.364  0.1705  0.1668  0.5631
  236MPD1    H2 3586   1.609   0.142  10.232 -1.4094 -0.8783  0.2072
  236MPD1    H3 3587   1.811   0.056  10.296  1.3076 -2.1299  0.0785
  236MPD1     N 3588   1.677   4.354  10.337 -0.1747  0.0445 -0.3000
  236MPD1    H5 3589   1.767   4.325  10.374 -1.3342  0.7617  3.0584
  236MPD1    N1 3590   1.371   0.005  10.236  0.2649  0.3437 -0.1806
  236MPD1    H6 3591   1.358   0.075  10.163 -1.7628 -0.7227 -0.8303
  236MPD1    H7 3592   1.314   4.650  10.209  0.9750 -0.6406  1.2289
  237MPD1     C 3593   1.245   2.968  15.709  0.4380 -0.6354  0.2624
  237MPD1    C1 3594   1.266   2.856  15.785 -0.1156  0.3061  0.2546
  237MPD1    C2 3595   1.168   2.755  15.771  0.2882  0.1785 -0.1174
  237MPD1    C3 3596   1.053   2.770  15.701  0.0174  0.2582  0.2996
  237MPD1    C4 3597   1.034   2.889  15.633 -0.2964  0.1036 -1.0395
  237MPD1    C5 3598   1.137   2.979  15.626  0.0044  0.5122 -0.1477
  237MPD1     H 3599   1.180   2.669  15.837 -0.3761  0.1675 -0.0039
  237MPD1    H1 3600   0.948   2.905  15.570  0.0862  0.7790 -1.3957
  237MPD1    H2 3601   1.314   3.051  15.720  1.5215 -1.5473  0.3327
  237MPD1    H3 3602   1.124   3.064  15.560  0.9759  0.5002 -0.3460
  237MPD1     N 3603   0.961   2.672  15.672  0.8265 -0.0344  0.1633
  237MPD1    H5 3604   0.885   2.694  15.609  1.3269  0.9064 -0.1178
  237MPD1    N1 3605   1.357   2.858  15.898  0.8177  0.0913  0.8282
  237MPD1    H6 3606   1.381   2.769  15.940  1.2008 -0.8884 -1.4867
  237MPD1    H7 3607   1.437   2.919  15.880  0.0323 -0.0690 -3.1828
  238MPD1     C 3608   1.851   1.690  14.398 -0.5368 -0.6999 -0.3639
  238MPD1    C1 3609   1.866   1.651  14.270  0.3048 -0.4569 -0.1150
  238MPD1    C2 3610   1.777   1.548  14.234  0.3021  0.0483 -0.1979
  238MPD1    C3 3611   1.703   1.479  14.325  0.3302 -0.7460 -0.6937
  238MPD1    C4 3612   1.704   1.516  14.453 -0.0764 -0.4146  0.0282
  238MPD1    C5 3613   1.777   1.619  14.489  0.5131  0.4311  0.3812
  238MPD1     H 3614   1.782   1.520  14.129  3.0833 -2.8457  0.7212
  238MPD1    H1 3615   1.640   1.470  14.528  0.0217  1.6059  1.3589
  238MPD1    H2 3616   1.906   1.774  14.439  1.5242 -1.5100 -1.4702
  238MPD1    H3 3617   1.768   1.649  14.593 -0.2732  1.0800  0.1231
  238MPD1     N 3618   1.623   1.371  14.292  0.0557  0.1900 -1.2520
  238MPD1    H5 3619   1.582   1.320  14.369 -0.9317  1.5949 -0.8535
  238MPD1    N1 3620   1.940   1.729  14.176  0.3881  0.2360 -0.4544
  238MPD1    H6 3621   2.030   1.759  14.213 -0.4352  2.0451  0.0768
  238MPD1    H7 3622   1.963   1.683  14.088  3.2424  2.4642 -0.8725
  239MPD1     C 3623   1.757   1.077  14.449 -0.4576 -0.7272  0.2789
  239MPD1    C1 3624   1.807   1.025  14.333 -0.3224 -0.0396 -0.7606
  239MPD1    C2 3625   1.918   1.081  14.271  0.8296 -0.9463  0.4442
  239MPD1    C3 3626   1.979   1.188  14.337  0.3494  0.1327  0.4633
  239MPD1    C4 3627   1.932   1.235  14.460 -0.0438 -0.7508  0.3291
  239MPD1    C5 3628   1.824   1.175  14.511  0.2380  0.2185  0.1692
  239MPD1     H 3629   1.941   1.053  14.169  0.2987 -1.4959  0.4797
  239MPD1    H1 3630   1.982   1.309  14.522 -3.3882  1.4500  0.4268
  239MPD1    H2 3631   1.666   1.040  14.493 -0.0533  0.5027  2.1813
  239MPD1    H3 3632   1.793   1.219  14.605  0.2056 -0.6672  0.5712
  239MPD1     N 3633   2.077   1.279  14.289  0.2064  0.0107 -0.2006
  239MPD1    H5 3634   2.110   1.355  14.348 -0.5006 -0.3068  0.5993
  239MPD1    N1 3635   1.725   0.940  14.267  0.6203 -0.7001 -0.2815
  239MPD1    H6 3636   1.670   0.883  14.331  2.8785 -2.4140  0.0900
  239MPD1    H7 3637   1.784   0.879  14.211 -1.7611 -3.2580 -0.0089
  240MPD1     C 3638   1.369   1.100  12.760  0.4161  0.5339 -0.4354
  240MPD1    C1 3639   1.479   1.173  12.786 -0.8527  0.0023 -0.7114
  240MPD1    C2 3640   1.554   1.133  12.897 -0.4038  0.0135 -0.2539
  240MPD1    C3 3641   1.511   1.033  12.986  0.0400 -0.0026 -0.5810
  240MPD1    C4 3642   1.391   0.969  12.959 -0.0717  0.1871 -0.5509
  240MPD1    C5 3643   1.324   1.000  12.845 -0.2125  0.4484 -0.5991
  240MPD1     H 3644   1.650   1.177  12.918 -0.0361 -0.9512  0.0842
  240MPD1    H1 3645   1.343   0.891  13.016  0.7835 -0.8824 -1.2888
  240MPD1    H2 3646   1.311   1.109  12.668 -1.4908  1.1794  0.8319
  240MPD1    H3 3647   1.231   0.945  12.835  0.9055 -1.0311 -2.7823
  240MPD1     N 3648   1.593   1.000  13.096 -0.0048  0.0940  0.4305
  240MPD1    H5 3649   1.677   1.054  13.114  0.2583 -0.2161  0.1241
  240MPD1    N1 3650   1.537   1.252  12.685  0.5075 -0.0814  0.0209
  240MPD1    H6 3651   1.596   1.326  12.724  1.5544 -0.1130 -1.5195
  240MPD1    H7 3652   1.466   1.288  12.622  1.1657  1.8469  0.3686
  241MPD1     C 3653   2.389   1.275  13.580 -1.0412  0.2002  0.4409
  241MPD1    C1 3654   2.376   1.176  13.488 -0.1563 -0.6659 -0.0548
  241MPD1    C2 3655   2.245   1.153  13.452  0.0855  0.7892 -0.6926
  241MPD1    C3 3656   2.140   1.197  13.523 -0.1910 -0.0109  0.4158
  241MPD1    C4 3657   2.159   1.282  13.625 -0.4618 -0.0987 -0.1627
  241MPD1    C5 3658   2.288   1.322  13.653 -0.2278  0.2166  0.0243
  241MPD1     H 3659   2.229   1.087  13.368 -0.1096  0.8458 -0.6990
  241MPD1    H1 3660   2.077   1.323  13.682 -2.8222 -2.2842 -1.9822
  241MPD1    H2 3661   2.486   1.324  13.587 -0.7507 -0.5357  1.5155
  241MPD1    H3 3662   2.315   1.393  13.731  2.1297 -2.9226  2.0572
  241MPD1     N 3663   2.010   1.152  13.508  0.0568 -0.0648  0.0420
  241MPD1    H5 3664   1.942   1.196  13.569 -1.9851 -2.6434 -0.3968
  241MPD1    N1 3665   2.474   1.154  13.392 -0.6656 -0.7304 -0.1254
  241MPD1    H6 3666   2.459   1.063  13.348 -1.6930 -0.5955 -0.0648
  241MPD1    H7 3667   2.563   1.147  13.440  0.1375  0.2300 -1.4812
  242MPD1     C 3668   1.601   0.073  15.877 -0.4940 -0.4575 -0.0424
  242MPD1    C1 3669   1.546   0.138  15.767 -0.0643 -0.2429  0.5538
  242MPD1    C2 3670   1.594   0.100  15.644  0.3469 -0.0967  0.1474
  242MPD1    C3 3671   1.692   4.722  15.624  0.2394  0.1008 -0.4912
  242MPD1    C4 3672   1.742   4.664  15.738 -0.1219  0.4057 -0.2042
  242MPD1    C5 3673   1.694   4.700  15.863  0.3442 -0.7136  0.0856
  242MPD1     H 3674   1.557   0.153  15.556 -0.2229 -0.8448 -0.0691
  242MPD1    H1 3675   1.814   4.583  15.735  0.1407  0.6395 -0.0626
  242MPD1    H2 3676   1.588   0.110  15.978 -0.5375 -1.0946  0.1855
  242MPD1    H3 3677   1.730   4.665  15.959 -0.4798 -1.4042  0.1502
  242MPD1     N 3678   1.743   4.682  15.501 -0.3000  0.3375  0.3955
  242MPD1    H5 3679   1.815   4.611  15.509  1.0404  1.3820 -2.4910
  242MPD1    N1 3680   1.471   0.259  15.784  0.2710  0.5181  0.8078
  242MPD1    H6 3681   1.406   0.273  15.706 -0.5455 -1.2505  1.1604
  242MPD1    H7 3682   1.419   0.264  15.872 -1.5630  1.0751 -0.2997
  243MPD1     C 3683   3.579   2.292  16.651  0.1951  0.3653 -0.5795
  243MPD1    C1 3684   3.708   2.262  16.705 -0.0302  0.4449  0.4650
  243MPD1    C2 3685   3.819   2.334  16.660 -0.3645  1.0078  0.5256
  243MPD1    C3 3686   3.800   2.454  16.589  0.5378  0.3871  0.3771
  243MPD1    C4 3687   3.671   2.484  16.548 -0.1985  0.5730  0.1273
  243MPD1    C5 3688   3.565   2.403  16.574 -0.1023  0.3458 -0.3727
  243MPD1     H 3689   3.918   2.308  16.694 -0.4432 -2.3721 -1.8651
  243MPD1    H1 3690   3.656   2.570  16.484  0.2476  1.9372  1.8436
  243MPD1    H2 3691   3.485   2.242  16.675 -1.1289  2.1967 -1.9298
  243MPD1    H3 3692   3.469   2.432  16.532 -0.0176 -0.1687 -0.9327
  243MPD1     N 3693   3.915   2.530  16.554  0.4113  0.1825  0.2747
  243MPD1    H5 3694   4.006   2.485  16.560  0.5937  0.4441 -0.4671
  243MPD1    N1 3695   3.720   2.138  16.766  0.4206  0.9313 -0.4074
  243MPD1    H6 3696   3.806   2.139  16.821  0.7812  0.9072 -0.9726
  243MPD1    H7 3697   3.648   2.115  16.834  1.9400  1.2289  1.3200
  244MPD1     C 3698   4.682   2.449  16.826  0.0474 -0.1055  0.2137
  244MPD1    C1 3699   4.576   2.368  16.801 -0.3754  0.7955  1.1711
  244MPD1    C2 3700   4.470   2.416  16.722 -0.3527 -0.3982 -0.1535
  244MPD1    C3 3701   4.482   2.539  16.658  0.0733 -0.6451  0.6063
  244MPD1    C4 3702   4.593   2.614  16.680 -0.3959  0.3212  0.0419
  244MPD1    C5 3703   4.689   2.577  16.774  0.2559 -0.5559  0.4730
  244MPD1     H 3704   4.384   2.350  16.716 -0.2765 -0.6853  2.1935
  244MPD1    H1 3705   4.615   2.712  16.639  2.1539 -0.8314 -1.3765
  244MPD1    H2 3706   0.034   2.416  16.895 -0.1881 -0.3539  0.3568
  244MPD1    H3 3707   0.047   2.643  16.798 -0.0609  0.3192 -0.8130
  244MPD1     N 3708   4.384   2.573  16.568 -0.2979 -0.3480  0.0028
  244MPD1    H5 3709   4.297   2.523  16.555 -1.6206  1.9879 -0.0568
  244MPD1    N1 3710   4.560   2.241  16.871  0.1894  0.3056 -0.0035
  244MPD1    H6 3711   4.647   2.190  16.878 -0.9310 -1.5415  0.4011
  244MPD1    H7 3712   4.494   2.186  16.817  0.2940 -0.2598  0.4509
  245MPD1     C 3713   0.530   3.537  13.118  0.9838 -0.1660  0.0116
  245MPD1    C1 3714   0.466   3.551  13.242  1.2118  0.3819 -0.0292
  245MPD1    C2 3715   0.505   3.654  13.326  0.2190 -0.0415  0.3952
  245MPD1    C3 3716   0.593   3.753  13.287 -0.5210  0.4120 -0.6011
  245MPD1    C4 3717   0.655   3.734  13.166  0.1654 -1.0098 -0.0986
  245MPD1    C5 3718   0.627   3.627  13.087 -0.4232  0.5866  0.1504
  245MPD1     H 3719   0.456   3.659  13.422  0.1156 -2.3537  0.4788
  245MPD1    H1 3720   0.730   3.804  13.129  0.0293 -0.9573 -0.2772
  245MPD1    H2 3721   0.517   3.454  13.050 -0.4796  0.7859 -0.8609
  245MPD1    H3 3722   0.690   3.617  13.000  0.5973 -2.5714  1.2424
  245MPD1     N 3723   0.611   3.869  13.369  0.3513  0.2825  0.3421
  245MPD1    H5 3724   0.575   3.869  13.464  0.7997  0.0828  0.5135
  245MPD1    N1 3725   0.381   3.454  13.289 -1.3284 -0.5146 -0.0253
  245MPD1    H6 3726   0.328   3.400  13.221  0.8066  0.0281 -2.1408
  245MPD1    H7 3727   0.317   3.479  13.364 -0.4154  1.7916 -0.0145
  246MPD1     C 3728   1.788   2.885  10.103 -0.0537 -0.6582  0.1934
  246MPD1    C1 3729   1.675   2.960  10.104 -0.4056  0.3116 -0.6392
  246MPD1    C2 3730   1.641   3.015   9.985  0.3439  0.5928 -0.4259
  246MPD1    C3 3731   1.721   3.001   9.868 -0.2302 -0.2130 -0.5499
  246MPD1    C4 3732   1.837   2.924   9.875 -0.1823  0.6509  0.2150
  246MPD1    C5 3733   1.864   2.856   9.992 -0.5464  0.7623  0.2377
  246MPD1     H 3734   1.563   3.089   9.993 -0.1322 -0.0690  1.1224
  246MPD1    H1 3735   1.897   2.914   9.785 -2.7530 -2.8960 -1.1104
  246MPD1    H2 3736   1.814   2.860  10.205 -0.4321 -2.2334 -0.0994
  246MPD1    H3 3737   1.951   2.792   9.989 -0.6092  0.6751  0.2732
  246MPD1     N 3738   1.683   3.074   9.757 -0.0885 -0.2607 -0.4577
  246MPD1    H5 3739   1.608   3.141   9.766 -2.0097 -2.6507  1.2553
  246MPD1    N1 3740   1.617   3.012  10.224  0.1290 -0.0042 -0.6028
  246MPD1    H6 3741   1.615   2.943  10.298  0.4596  1.5276  0.8358
  246MPD1    H7 3742   1.521   3.040  10.205 -0.0955  0.2452  0.9030
  247MPD1     C 3743   0.212   2.322  15.791 -0.0576  0.5276 -0.4379
  247MPD1    C1 3744   0.222   2.431  15.710  1.3337 -0.4434 -0.4064
  247MPD1    C2 3745   0.319   2.528  15.747  0.6223 -0.7165 -0.0948
  247MPD1    C3 3746   0.381   2.531  15.873 -0.1212  0.0270  0.1028
  247MPD1    C4 3747   0.339   2.433  15.960  1.5016  0.6290 -0.2499
  247MPD1    C5 3748   0.259   2.327  15.917  0.3331  0.5481  0.3835
  247MPD1     H 3749   0.359   2.598  15.675  0.0111 -0.5431 -0.2638
  247MPD1    H1 3750   0.389   2.427  16.056 -0.9904 -3.3085  0.8116
  247MPD1    H2 3751   0.166   2.234  15.749  0.2109 -0.6001  1.6277
  247MPD1    H3 3752   0.261   2.241  15.983  0.6381 -1.4195 -2.1948
  247MPD1     N 3753   0.488   2.622  15.911  0.3078  0.5052  0.1231
  247MPD1    H5 3754   0.521   2.611  16.006  0.0485  1.7465  0.3555
  247MPD1    N1 3755   0.185   2.406  15.578  0.1636  0.1488  0.0469
  247MPD1    H6 3756   0.093   2.363  15.584  0.2034  0.0313 -0.2103
  247MPD1    H7 3757   0.179   2.493  15.526  0.2348 -2.5400 -4.3678
  248MPD1     C 3758   1.233   2.472   1.083  0.0144 -0.2738  0.6613
  248MPD1    C1 3759   1.230   2.576   1.178  0.7006  0.5158  0.2770
  248MPD1    C2 3760   1.155   2.682   1.157  0.4034 -0.4362 -0.1896
  248MPD1    C3 3761   1.092   2.704   1.035  0.7952 -0.5556 -0.4240
  248MPD1    C4 3762   1.103   2.617   0.935  0.8619 -0.2181 -0.2257
  248MPD1    C5 3763   1.173   2.494   0.955  0.1411  0.3911  0.4646
  248MPD1     H 3764   1.158   2.764   1.229  0.4146  0.5516 -1.3033
  248MPD1    H1 3765   1.063   2.628   0.834  0.1499  2.5722  0.3706
  248MPD1    H2 3766   1.277   2.374   1.093  1.0496  0.4897  3.5203
  248MPD1    H3 3767   1.184   2.422   0.875  0.5716 -0.0245  0.9010
  248MPD1     N 3768   1.021   2.822   1.025 -0.5214  0.1762  0.3682
  248MPD1    H5 3769   1.007   2.872   1.112 -0.7694 -0.0886  0.4812
  248MPD1    N1 3770   1.288   2.558   1.309  0.1551  0.1398 -0.1320
  248MPD1    H6 3771   1.296   2.642   1.366  1.1799  0.0701 -0.1875
  248MPD1    H7 3772   1.368   2.495   1.306  0.2705  0.2400  1.0757
  249MPD1     C 3773   2.252   1.898  10.191  0.3208 -0.1372  0.6207
  249MPD1    C1 3774   2.171   1.947  10.093 -0.2506 -0.0044 -0.6635
  249MPD1    C2 3775   2.222   2.037   9.999  0.2761  0.5205  0.0834
  249MPD1    C3 3776   2.351   2.086  10.013 -0.5636 -0.3086  0.0315
  249MPD1    C4 3777   2.435   2.009  10.096 -0.5060  0.3219 -0.0591
  249MPD1    C5 3778   2.382   1.920  10.186 -0.3182 -0.0944  0.1646
  249MPD1     H 3779   2.152   2.089   9.934  1.7042  0.3669 -1.6075
  249MPD1    H1 3780   2.542   2.004  10.080 -0.7663 -0.2738 -1.6059
  249MPD1    H2 3781   2.206   1.822  10.253 -1.1487  1.4885  1.5128
  249MPD1    H3 3782   2.449   1.869  10.255  0.3039  1.7304  0.8962
  249MPD1     N 3783   2.387   2.185   9.928  0.1759 -0.7307 -0.8600
  249MPD1    H5 3784   2.321   2.222   9.860  0.2199  0.7839 -0.0837
  249MPD1    N1 3785   2.040   1.898  10.083  0.1530 -0.2086 -0.3619
  249MPD1    H6 3786   1.974   1.970  10.052  1.4729  1.6880  1.3004
  249MPD1    H7 3787   2.007   1.869  10.175  0.5658  2.8735  0.7693
  250MPD2     C 3788   4.140   1.839  13.196 -0.8166 -0.2223  0.3366
  250MPD2    C1 3789   4.061   1.948  13.162  0.1338 -0.2356 -0.0302
  250MPD2    C2 3790   3.969   1.930  13.059 -0.2604  0.3341  0.0683
  250MPD2    C3 3791   3.940   1.801  13.016  0.0868  0.0245 -0.6674
  250MPD2    C4 3792   4.014   1.695  13.061 -0.4189 -0.1311  0.1967
  250MPD2    C5 3793   4.120   1.716  13.145 -0.1343 -0.6667  0.0006
  250MPD2     H 3794   3.913   2.015  13.023 -3.0830 -1.5762 -0.0830
  250MPD2    H1 3795   3.996   1.593  13.029 -0.2274  0.1792 -0.8802
  250MPD2    H2 3796   4.217   1.839  13.272  0.3495 -2.8922 -0.8721
  250MPD2    H3 3797   4.191   1.638  13.170  1.1423  1.4002  2.7106
  250MPD2     N 3798   3.843   1.770  12.918  0.1589 -0.7176 -0.0956
  250MPD2    H5 3799   3.819   1.674  12.896 -2.1169  0.3523 -2.2811
  250MPD2    N1 3800   4.087   2.073  13.205 -0.8933 -0.0217  0.5868
  250MPD2    H7 3801   4.018   2.142  13.177  1.2835  0.9183 -2.4660
  251TMC3    C1 3802   4.205   2.260  13.264 -0.1993  0.7668 -0.3797
  251TMC3    C2 3803   4.087   2.330  13.268  0.0771  0.3458 -0.2469
  251TMC3    C3 3804   4.090   2.451  13.203  0.6553  0.0118  1.0459
  251TMC3    C4 3805   4.320   2.307  13.204 -0.4604  0.7245 -0.4690
  251TMC3    C5 3806   4.316   2.422  13.127 -0.4487 -0.1187 -0.3896
  251TMC3    C6 3807   4.200   2.498  13.135  0.2535 -0.8362  0.0813
  251TMC3     C 3808   4.200   2.113  13.270 -0.1844  0.0909  0.2573
  251TMC3     O 3809   4.305   2.061  13.312  0.0266 -0.1447  0.2654
  251TMC3     H 3810   3.999   2.282  13.309 -0.7257 -0.7615 -3.1984
  251TMC3    H1 3811   4.407   2.243  13.200  0.2330  1.6916 -0.9770
  251TMC3    H2 3812   4.198   2.597  13.091 -1.4943 -1.2161 -0.7114
  251TMC3    C7 3813   4.447   2.500  13.138 -0.1269  0.3354  0.2340
  251TMC3    C8 3814   3.965   2.528  13.213 -0.9963 -0.2524  0.7057
  251TMC3    O1 3815   4.548   2.434  13.145  0.2374 -0.3633  0.3263
  251TMC3    O2 3816   3.902   2.508  13.313 -0.7206 -0.3539 -0.3960
  252TMC3    C1 3817   0.356   4.201   9.348  0.0637  0.4181 -0.8886
  252TMC3    C2 3818   0.460   4.173   9.433  0.3914 -0.7139 -0.3504
  252TMC3    C3 3819   0.483   4.037   9.453  0.8521  0.0796  0.3064
  252TMC3    C4 3820   0.268   4.110   9.304 -0.3009 -0.4409  0.1479
  252TMC3    C5 3821   0.295   3.978   9.338  0.5790  0.7243 -0.2076
  252TMC3    C6 3822   0.407   3.936   9.397 -0.5871  0.7095  0.4337
  252TMC3     C 3823   0.338   4.340   9.313 -0.1053 -0.4955 -0.0994
  252TMC3     O 3824   0.392   4.419   9.389  0.0510 -0.2948  0.5010
  252TMC3     H 3825   0.536   4.236   9.477  0.5163  0.8362 -2.8207
  252TMC3    H1 3826   0.170   4.137   9.269  0.3106  1.8571  0.2093
  252TMC3    H2 3827   0.428   3.832   9.416 -2.4743  0.1165 -0.6860
  252TMC3    C7 3828   0.192   3.885   9.301  0.4613 -0.5072  0.0686
  252TMC3    C8 3829   0.615   3.999   9.505 -0.2912  0.2411 -0.8865
  252TMC3    O1 3830   0.103   3.926   9.223 -0.2989  0.0776 -0.4679
  252TMC3    O2 3831   0.704   4.084   9.519  0.2931 -0.2335  0.4767
  253MPD2     C 3832   4.583   1.835  15.381  0.1218  0.0522 -0.0711
  253MPD2    C1 3833   4.471   1.911  15.356  0.7361  0.1948 -0.6873
  253MPD2    C2 3834   4.407   1.978  15.454  0.1832  0.0176  0.4095
  253MPD2    C3 3835   4.445   1.968  15.583  0.2127  0.0535 -0.2716
  253MPD2    C4 3836   4.546   1.876  15.613  0.4033  0.2251  0.0159
  253MPD2    C5 3837   4.617   1.814  15.513  0.4114  0.2011 -0.0734
  253MPD2     H 3838   4.334   2.053  15.423  0.9796 -0.3635 -2.4197
  253MPD2    H1 3839   4.599   1.865  15.707  1.2663  0.9542 -0.3842
  253MPD2    H2 3840   4.638   1.789  15.300 -1.4446  1.3158 -1.8547
  253MPD2    H3 3841   4.709   1.759  15.528  0.1599  0.1145  1.1062
  253MPD2     N 3842   4.399   2.046  15.690  0.2488 -0.3400 -0.4128
  253MPD2    H5 3843   4.437   2.022  15.781 -1.4651 -0.3840  0.2986
  253MPD2    N1 3844   4.433   1.940  15.220  0.2098  0.2219 -0.0195
  253MPD2    H7 3845   4.347   1.994  15.213 -0.1937 -0.4489 -0.2882
  254TMC3    C1 3846   4.257   2.187  15.814  0.3148 -0.6085 -0.2949
  254TMC3    C2 3847   4.250   2.318  15.825 -0.1350  0.5991 -0.0814
  254TMC3    C3 3848   4.226   2.367  15.953  0.0795 -0.6481 -0.1406
  254TMC3    C4 3849   4.272   2.109  15.921  0.7929 -0.5203 -0.2394
  254TMC3    C5 3850   4.258   2.161  16.045  0.1313  0.0420  0.3975
  254TMC3    C6 3851   4.224   2.288  16.064 -0.0484 -0.8141 -0.0837
  254TMC3     C 3852   4.302   2.140  15.682  0.3063 -0.1519 -0.1557
  254TMC3     O 3853   4.258   2.194  15.581 -0.2294  0.0935 -0.3294
  254TMC3     H 3854   4.263   2.382  15.738 -0.0820 -0.1106 -0.5941
  254TMC3    H1 3855   4.285   2.002  15.925  0.9807 -0.4143  1.7675
  254TMC3    H2 3856   4.217   2.333  16.162  0.9098  0.0355 -0.4120
  254TMC3    C7 3857   4.361   2.112  16.139 -0.5754 -0.0685  0.3235
  254TMC3    C8 3858   4.283   2.496  15.984  0.4221  0.1272  0.1324
  254TMC3    O1 3859   4.388   1.990  16.140  0.5439 -0.0097  0.1794
  254TMC3    O2 3860   4.331   2.509  16.093  0.4672  0.2395  0.0624
  255MPD2     C 3861   3.629   4.584  10.143  0.2391 -0.4352  0.3197
  255MPD2    C1 3862   3.747   4.658  10.155  0.4190  0.4617 -0.0899
  255MPD2    C2 3863   3.865   4.598  10.206 -0.1161 -0.0363  0.9743
  255MPD2    C3 3864   3.865   4.461  10.235  0.3787  0.7216 -0.3912
  255MPD2    C4 3865   3.749   4.381  10.207  0.7376 -0.0935 -0.2404
  255MPD2    C5 3866   3.637   4.443  10.164  0.4847  0.0949 -0.0319
  255MPD2     H 3867   3.958   4.652  10.219  0.8177 -1.6302  0.8985
  255MPD2    H1 3868   3.744   4.273  10.218  0.4317 -0.1444 -0.8712
  255MPD2    H2 3869   3.543   4.623  10.091  0.1495  1.7346  2.1236
  255MPD2    H3 3870   3.544   4.390  10.146  1.6563 -1.8985 -0.1177
  255MPD2     N 3871   3.989   4.410  10.271 -0.0682  0.1246  0.0265
  255MPD2    H5 3872   4.065   4.473  10.293  0.6350 -0.4501 -0.7611
  255MPD2    N1 3873   3.753   0.066  10.096 -0.0330  0.0623  0.6163
  255MPD2    H7 3874   3.667   0.109  10.062 -0.6436 -1.3612  0.3464
  256TMC3    C1 3875   3.844   0.275  10.016  0.9042 -0.5156  0.2504
  256TMC3    C2 3876   3.956   0.342   9.964  0.1366  0.4572  0.3511
  256TMC3    C3 3877   3.935   0.475   9.931  0.0235  0.1554 -0.0231
  256TMC3    C4 3878   3.720   0.335  10.040 -0.1910  0.0476 -0.3699
  256TMC3    C5 3879   3.709   0.466  10.006 -0.7614 -0.7147  0.4057
  256TMC3    C6 3880   3.815   0.533   9.954 -0.2154  0.3225 -0.1786
  256TMC3     C 3881   3.863   0.144  10.072  0.1655 -0.7141  0.2279
  256TMC3     O 3882   3.980   0.120  10.098  0.3007 -0.1557 -0.3503
  256TMC3     H 3883   4.046   0.287   9.939  0.2650  1.7203 -1.9728
  256TMC3    H1 3884   3.626   0.288  10.069 -0.7843 -0.0651 -2.4933
  256TMC3    H2 3885   3.796   0.629   9.909  1.6902  1.3130  1.1028
  256TMC3    C7 3886   3.579   0.525  10.027 -0.5490  0.1887  0.0494
  256TMC3    C8 3887   4.044   0.531   9.865 -0.2691 -0.1658 -0.0344
  256TMC3    O1 3888   3.490   0.445  10.046  0.2009 -0.1959 -0.1677
  256TMC3    O2 3889   4.124   0.460   9.812  0.0311 -0.0074 -0.6980
  257MPD2     C 3890   2.530   1.839  13.440 -0.2237  0.3964 -0.3335
  257MPD2    C1 3891   2.585   1.875  13.319  0.0650 -0.3676 -0.7513
  257MPD2    C2 3892   2.659   1.783  13.253  0.1023 -0.3280  0.4084
  257MPD2    C3 3893   2.664   1.654  13.285 -0.5780 -0.3579 -0.6901
  257MPD2    C4 3894   2.595   1.608  13.393 -0.1912 -0.9053 -0.0747
  257MPD2    C5 3895   2.530   1.699  13.468 -0.1697 -0.2587  0.1321
  257MPD2     H 3896   2.711   1.812  13.162  2.7471  0.6606  2.2176
  257MPD2    H1 3897   2.592   1.503  13.420 -1.1193 -0.7943  0.2491
  257MPD2    H2 3898   2.463   1.906  13.493 -0.5434  0.9434 -1.4455
  257MPD2    H3 3899   2.465   1.665  13.548 -2.2094  0.2307 -1.2996
  257MPD2     N 3900   2.751   1.557  13.222 -0.0339 -0.0014 -0.3430
  257MPD2    H5 3901   2.775   1.474  13.275  2.1219  1.6941  1.3848
  257MPD2    N1 3902   2.574   2.009  13.279 -1.1645 -1.1977  0.4763
  257MPD2    H7 3903   2.541   2.081  13.343 -0.1126 -1.5799  1.4384
  258TMC3    C1 3904   2.902   1.475  13.064 -0.3774 -0.2499  0.1300
  258TMC3    C2 3905   2.922   1.458  12.932 -0.1021  0.2485 -0.2657
  258TMC3    C3 3906   3.036   1.392  12.883  0.1149  0.0235  0.1420
  258TMC3    C4 3907   3.002   1.448  13.147 -0.1978  0.0890  0.1660
  258TMC3    C5 3908   3.116   1.390  13.102  0.3448  0.9964  0.2514
  258TMC3    C6 3909   3.132   1.357  12.972 -0.1518 -0.0389  0.1816
  258TMC3     C 3910   2.801   1.575  13.099 -0.1071 -0.1532 -0.1329
  258TMC3     O 3911   2.770   1.655  13.011  0.4356 -0.2809  0.4932
  258TMC3     H 3912   2.840   1.484  12.866  0.4594 -0.7773 -1.3633
  258TMC3    H1 3913   2.993   1.467  13.254  1.8973  0.7754  0.2221
  258TMC3    H2 3914   3.222   1.309  12.936 -0.0459  0.6009 -0.4017
  258TMC3    C7 3915   3.205   1.324  13.199  0.3533 -0.4839  0.3831
  258TMC3    C8 3916   3.067   1.430  12.751  0.1296 -0.8542  0.3631
  258TMC3    O1 3917   3.266   1.228  13.156 -0.0386  0.1588 -0.5131
  258TMC3    O2 3918   2.999   1.525  12.714  0.5049 -0.7030 -0.4113
  259MPD2     C 3919   0.658   3.956   0.564  0.3124  0.0600 -0.9624
  259MPD2    C1 3920   0.739   3.895   0.646 -0.0982  0.0954 -0.3634
  259MPD2    C2 3921   0.848   3.818   0.609  0.1454 -0.3897 -0.2096
  259MPD2    C3 3922   0.885   3.818   0.480 -0.2142 -0.0946  0.4870
  259MPD2    C4 3923   0.809   3.891   0.392 -0.0709  0.0217  0.2072
  259MPD2    C5 3924   0.699   3.964   0.439  0.0159 -0.2296 -0.2151
  259MPD2     H 3925   0.900   3.754   0.679  1.7446 -0.7421 -1.7289
  259MPD2    H1 3926   0.828   3.904   0.287  0.7976  0.7214  0.4492
  259MPD2    H2 3927   0.573   4.018   0.589  0.3446 -0.0451 -0.5993
  259MPD2    H3 3928   0.634   4.020   0.373 -0.3563  0.1993  0.5209
  259MPD2     N 3929   0.995   3.741   0.431  0.3289  1.3465  0.5297
  259MPD2    H5 3930   1.029   3.676   0.502 -2.6303 -0.2631  0.4704
  259MPD2    N1 3931   0.699   3.905   0.778 -0.3435  0.2305  0.1337
  259MPD2    H7 3932   0.622   3.967   0.799 -0.8442 -1.2714  2.8180
  260TMC3    C1 3933   1.167   3.659   0.272 -0.1273  0.0698 -0.5395
  260TMC3    C2 3934   1.230   3.686   0.151 -0.6172 -0.0079  0.6153
  260TMC3    C3 3935   1.347   3.620   0.134  0.2718  0.5231  0.1838
  260TMC3    C4 3936   1.211   3.568   0.361 -0.8491  0.1231 -0.3305
  260TMC3    C5 3937   1.331   3.505   0.335  0.1344  0.5857  0.0121
  260TMC3    C6 3938   1.400   3.520   0.219  0.0286 -0.1588  1.1661
  260TMC3     C 3939   1.054   3.744   0.302 -0.2488 -0.0048 -0.3641
  260TMC3     O 3940   1.010   3.812   0.207 -0.1946 -0.0717  0.2364
  260TMC3     H 3941   1.214   3.778   0.096 -0.0613  0.9841  2.1018
  260TMC3    H1 3942   1.159   3.546   0.453 -1.0594  1.5104 -0.1287
  260TMC3    H2 3943   1.485   3.457   0.199  1.0638  1.0409  1.7848
  260TMC3    C7 3944   1.354   3.374   0.399 -0.2319 -0.1759 -0.5750
  260TMC3    C8 3945   1.456   3.680   0.051  0.2799  0.6155 -0.3485
  260TMC3    O1 3946   1.465   3.336   0.385  0.4608  0.2481  0.8313
  260TMC3    O2 3947   1.423   3.791   0.006 -0.2163  0.8600 -0.2102
  261MPD2     C 3948   3.260   2.122  12.373  0.3780  0.2900  0.7657
  261MPD2    C1 3949   3.386   2.156  12.423  0.3233  0.0756 -0.6545
  261MPD2    C2 3950   3.418   2.290  12.433 -0.1318 -0.2509  0.9042
  261MPD2    C3 3951   3.328   2.387  12.388 -0.1719  0.1055 -0.5616
  261MPD2    C4 3952   3.210   2.347  12.336  0.1461  0.0177  0.0538
  261MPD2    C5 3953   3.175   2.216  12.320 -0.1531 -0.4754  0.7406
  261MPD2     H 3954   3.517   2.319  12.468  0.6062 -0.5286 -0.9619
  261MPD2    H1 3955   3.134   2.412  12.294  0.2328  1.5410  2.1924
  261MPD2    H2 3956   3.229   2.018  12.372  1.0335  0.1027  0.2283
  261MPD2    H3 3957   3.085   2.179  12.272 -0.4704  1.2179  0.0427
  261MPD2     N 3958   3.366   2.522  12.389 -0.1048 -0.4512 -0.3565
  261MPD2    H5 3959   3.460   2.526  12.428 -0.5118  0.6702  0.5240
  261MPD2    N1 3960   3.477   2.061  12.479 -0.2513  0.5623  0.0982
  261MPD2    H7 3961   3.562   2.103  12.516 -0.6617  1.7635 -0.3209
  262TMC3    C1 3962   3.400   2.727  12.287 -0.0837  0.2019  0.2907
  262TMC3    C2 3963   3.342   2.844  12.264  0.4907  0.5526  0.4376
  262TMC3    C3 3964   3.413   2.950  12.227  0.0668  0.6312  0.4334
  262TMC3    C4 3965   3.535   2.704  12.257  0.5590  0.3324 -0.0450
  262TMC3    C5 3966   3.600   2.807  12.208  0.1606 -0.2905 -0.5822
  262TMC3    C6 3967   3.548   2.936  12.210 -0.0170 -0.5696  0.0875
  262TMC3     C 3968   3.303   2.629  12.325  0.1622 -0.0633  0.5362
  262TMC3     O 3969   3.185   2.632  12.296  0.6007  0.9662  0.1667
  262TMC3     H 3970   3.239   2.857  12.298  0.1774 -0.4091 -0.1441
  262TMC3    H1 3971   3.567   2.602  12.239 -2.2811 -0.6212  0.2445
  262TMC3    H2 3972   3.613   3.017  12.179  1.5495 -1.9966 -0.3648
  262TMC3    C7 3973   3.707   2.781  12.117  0.1856  0.1231 -0.1320
  262TMC3    C8 3974   3.357   3.071  12.168  0.3331  0.0228  0.1492
  262TMC3    O1 3975   3.700   2.674  12.056 -0.5366 -0.4961 -0.0430
  262TMC3    O2 3976   3.431   3.156  12.130  0.5652  0.2985  0.3488
  263MPD2     C 3977   4.315   1.336  11.119 -0.7438 -0.1958 -0.6024
  263MPD2    C1 3978   4.325   1.459  11.183 -0.0368  0.3105 -0.7570
  263MPD2    C2 3979   4.284   1.578  11.118  0.4117 -0.0716 -0.0436
  263MPD2    C3 3980   4.235   1.575  10.989 -0.3567  0.3791 -0.5996
  263MPD2    C4 3981   4.237   1.455  10.924  0.3153  0.6328 -0.3475
  263MPD2    C5 3982   4.280   1.344  10.984  0.1415  0.1536  0.4684
  263MPD2     H 3983   4.287   1.663  11.185  0.8008 -0.1056 -0.0198
  263MPD2    H1 3984   4.204   1.445  10.821  0.3731 -2.9687 -0.0263
  263MPD2    H2 3985   4.344   1.242  11.164  1.0697  1.4475  1.7149
  263MPD2    H3 3986   4.277   1.245  10.940  1.8711  0.8287 -1.1950
  263MPD2     N 3987   4.199   1.703  10.931  0.5873  0.1558 -0.9345
  263MPD2    H5 3988   4.211   1.787  10.986 -0.7402 -0.6135  0.5333
  263MPD2    N1 3989   4.363   1.458  11.320 -0.8095  0.3300 -0.0615
  263MPD2    H7 3990   4.388   1.364  11.351  0.3585  0.1638 -1.5116
  264TMC3    C1 3991   4.131   1.855  10.757 -1.3393  1.1739  0.2270
  264TMC3    C2 3992   4.106   1.951  10.859 -0.6802  0.2680 -0.5536
  264TMC3    C3 3993   4.117   2.087  10.821  0.3646  0.4301  0.2141
  264TMC3    C4 3994   4.184   1.889  10.638 -0.2224 -0.2953  0.6450
  264TMC3    C5 3995   4.213   2.021  10.615 -0.4231 -0.4451 -0.4647
  264TMC3    C6 3996   4.176   2.119  10.703 -0.6665 -0.5559 -0.4100
  264TMC3     C 3997   4.156   1.719  10.794 -0.1045 -0.1684 -0.1236
  264TMC3     O 3998   4.160   1.636  10.706  0.0806  0.2675  0.1425
  264TMC3     H 3999   4.068   1.940  10.960 -1.3831 -1.1927 -0.9831
  264TMC3    H1 4000   4.216   1.813  10.567 -2.6347 -0.9365  0.2457
  264TMC3    H2 4001   4.212   2.221  10.688 -0.5085 -0.5440  0.0460
  264TMC3    C7 4002   4.291   2.046  10.492  0.2965  0.6296 -0.1342
  264TMC3    C8 4003   4.142   2.168  10.935  0.2137  0.8227  0.2414
  264TMC3    O1 4004   4.356   1.961  10.434 -0.2131 -0.7262  0.1149
  264TMC3    O2 4005   4.048   2.188  11.019  0.1065  0.0766 -0.1950
  265MPD2     C 4006   1.145   2.032  15.292 -0.1485 -0.1930  1.1136
  265MPD2    C1 4007   1.259   2.105  15.297  0.0176 -0.1280 -0.6491
  265MPD2    C2 4008   1.339   2.099  15.185  0.3587  0.3710  0.2963
  265MPD2    C3 4009   1.313   2.025  15.071  0.0664 -0.3874 -0.3999
  265MPD2    C4 4010   1.190   1.954  15.067 -0.4485 -0.1386  0.4303
  265MPD2    C5 4011   1.105   1.972  15.174  0.4372 -0.0710 -0.4175
  265MPD2     H 4012   1.431   2.156  15.195  1.0399 -0.9144  1.3149
  265MPD2    H1 4013   1.159   1.888  14.986  1.1141  0.7540 -0.8870
  265MPD2    H2 4014   1.079   2.025  15.378  0.5721  0.0933  1.6916
  265MPD2    H3 4015   1.017   1.908  15.170 -0.5911  1.4961 -2.5063
  265MPD2     N 4016   1.401   2.005  14.959 -0.6999 -0.2158  0.0007
  265MPD2    H5 4017   1.361   1.938  14.894  0.8504 -0.1043 -1.0605
  265MPD2    N1 4018   1.300   2.190  15.405 -0.7660 -0.1655  0.1897
  265MPD2    H7 4019   1.390   2.236  15.399 -0.5145 -0.5304  1.0627
  266TMC3    C1 4020   1.301   2.291  15.617 -0.2200  0.7525 -0.1534
  266TMC3    C2 4021   1.295   2.263  15.750  0.2411 -0.5781 -0.2010
  266TMC3    C3 4022   1.368   2.336  15.836  0.6827  0.4049  0.1631
  266TMC3    C4 4023   1.359   2.408  15.568  0.1631  0.6880  0.1046
  266TMC3    C5 4024   1.425   2.483  15.661  0.1750  0.3925  0.1668
  266TMC3    C6 4025   1.439   2.443  15.787 -0.4467 -0.0045 -0.5717
  266TMC3     C 4026   1.234   2.202  15.524 -0.0210 -0.6527  0.1312
  266TMC3     O 4027   1.132   2.144  15.565  0.2259  0.2900 -0.2712
  266TMC3     H 4028   1.246   2.173  15.783 -3.6454  2.4590  2.3271
  266TMC3    H1 4029   1.369   2.441  15.465 -0.6062  1.6229  0.3308
  266TMC3    H2 4030   1.501   2.496  15.858 -0.6179  0.1751 -0.5556
  266TMC3    C7 4031   1.490   2.600  15.604 -0.1010 -0.5005 -0.2409
  266TMC3    C8 4032   1.429   2.264  15.945  0.6866 -0.4395  0.9640
  266TMC3    O1 4033   1.438   2.652  15.511 -0.0226  0.0351  0.2092
  266TMC3    O2 4034   1.442   2.143  15.938 -0.3781  0.0198 -0.1097
  267MPD2     C 4035   2.677   3.440  17.244 -0.2379 -0.0455 -0.3575
  267MPD2    C1 4036   2.707   3.562  17.301 -0.8303 -0.2922  0.5324
  267MPD2    C2 4037   2.642   3.671  17.252 -0.1825 -0.2634  0.1136
  267MPD2    C3 4038   2.551   3.662  17.146  0.0484  0.3790 -0.5699
  267MPD2    C4 4039   2.519   3.538  17.098 -0.6553  0.4310 -0.2876
  267MPD2    C5 4040   2.576   3.428  17.157  0.0934 -0.3533  0.1811
  267MPD2     H 4041   2.664   3.769  17.294  0.1612  0.2259 -1.2083
  267MPD2    H1 4042   2.428   3.512  17.045 -0.5751  0.1434 -0.2859
  267MPD2    H2 4043   2.733   3.353  17.276 -0.0273  0.3289  0.2899
  267MPD2    H3 4044   2.552   3.330  17.117 -0.1086 -0.1012 -0.3207
  267MPD2     N 4045   2.503   3.779  17.076  0.1848 -0.0611  0.9475
  267MPD2    H5 4046   2.421   3.760  17.020 -1.3342 -1.3296  3.5838
  267MPD2    N1 4047   2.809   3.569  17.400  0.2509 -0.2532 -0.8978
  267MPD2    H7 4048   2.862   3.489  17.432  2.6866  1.5234 -0.4357
  268TMC3    C1 4049   2.984   3.658  17.533  0.6804 -0.6057  0.4431
  268TMC3    C2 4050   3.086   3.748  17.523 -0.4412  0.3779 -0.1232
  268TMC3    C3 4051   3.198   3.731  17.595 -0.0612  0.4122  0.2560
  268TMC3    C4 4052   2.988   3.553  17.617  0.6318 -0.4917  0.3213
  268TMC3    C5 4053   3.100   3.533  17.690  0.0805 -0.1825  0.6077
  268TMC3    C6 4054   3.204   3.629  17.693 -0.5818  0.1359 -0.0344
  268TMC3     C 4055   2.868   3.681  17.450  0.0443  0.0358 -0.4671
  268TMC3     O 4056   2.829   3.797  17.451  0.4465 -0.0018 -0.0825
  268TMC3     H 4057   3.071   3.838  17.466 -0.1759  0.3906 -0.1720
  268TMC3    H1 4058   2.908   3.481  17.623 -1.0410  1.0624 -3.5407
  268TMC3    H2 4059   3.296   3.610   0.047 -0.9231  1.4059  1.0186
  268TMC3    C7 4060   3.116   3.414   0.078 -0.5410 -0.0842  0.1216
  268TMC3    C8 4061   3.314   3.786  17.545 -0.4456 -0.3649 -0.9757
  268TMC3    O1 4062   3.219   3.427   0.145 -0.3310 -0.4319  0.0645
  268TMC3    O2 4063   3.417   3.783  17.609 -0.6563  0.3575 -0.4373
  269MPD2     C 4064   3.929   2.422  15.821  0.8457 -0.1331  0.3244
  269MPD2    C1 4065   3.874   2.494  15.924 -0.0179 -0.5417  0.1040
  269MPD2    C2 4066   3.832   2.627  15.903  0.4458  1.1926  0.4392
  269MPD2    C3 4067   3.859   2.695  15.784 -0.1961 -0.2545 -0.4302
  269MPD2    C4 4068   3.918   2.620  15.681  0.1888 -0.1513 -0.0071
  269MPD2    C5 4069   3.950   2.482  15.706 -0.0882  0.4485 -0.3474
  269MPD2     H 4070   3.793   2.684  15.987  0.6261  2.0966 -0.0857
  269MPD2    H1 4071   3.925   2.660  15.581  1.0353  0.2176  0.1979
  269MPD2    H2 4072   3.953   2.317  15.824  1.2732 -0.0834 -1.0923
  269MPD2    H3 4073   3.980   2.426  15.618  0.9648 -0.2965  0.4958
  269MPD2     N 4074   3.829   2.829  15.773  0.5177  0.4239 -0.3592
  269MPD2    H5 4075   3.772   2.873  15.844  0.3451  2.4586 -1.7787
  269MPD2    N1 4076   3.867   2.420  16.042 -0.4722 -0.0911 -0.0838
  269MPD2    H7 4077   3.884   2.320  16.034  3.6428  0.4899  1.3501
  270TMC3    C1 4078   3.817   2.366  16.259 -0.6773  0.9511 -0.2761
  270TMC3    C2 4079   3.693   2.313  16.266 -0.1164  0.4294  0.0350
  270TMC3    C3 4080   3.659   2.197  16.318  0.1434  0.5720  0.4471
  270TMC3    C4 4081   3.916   2.273  16.285 -0.0139  0.5486 -0.1993
  270TMC3    C5 4082   3.890   2.147  16.334 -0.0608 -0.4684  0.3409
  270TMC3    C6 4083   3.756   2.114  16.363 -0.8449 -0.9456 -0.5725
  270TMC3     C 4084   3.824   2.466  16.161 -0.0354 -0.0727 -0.5138
  270TMC3     O 4085   3.781   2.580  16.187  0.2153  0.1095  0.4806
  270TMC3     H 4086   3.623   2.374  16.210  0.7205  2.9654  1.7210
  270TMC3    H1 4087   4.013   2.311  16.257 -0.1321  0.5395 -0.6219
  270TMC3    H2 4088   3.737   2.018  16.410 -0.7289 -1.3469 -1.3498
  270TMC3    C7 4089   3.982   2.051  16.281  0.2247  0.0872  0.1197
  270TMC3    C8 4090   3.580   2.117  16.228  0.3455  0.0082 -0.6746
  270TMC3    O1 4091   4.098   2.073  16.281 -0.2468 -0.0888  0.5404
  270TMC3    O2 4092   3.625   2.004  16.205  0.3401  0.5891 -0.1276
  271MPD2     C 4093   2.712   1.842  14.162 -0.5419  0.4171  0.1171
  271MPD2    C1 4094   2.672   1.948  14.238  0.4204 -0.6727 -0.0937
  271MPD2    C2 4095   2.593   2.047  14.177  0.1333  0.0386  0.1002
  271MPD2    C3 4096   2.565   2.041  14.042 -0.3419  0.1121  0.4066
  271MPD2    C4 4097   2.603   1.928  13.964  0.4408  0.0022 -0.1457
  271MPD2    C5 4098   2.681   1.832  14.029 -0.1381  0.3334 -0.1444
  271MPD2     H 4099   2.559   2.129  14.240 -0.6331  0.3319 -0.6994
  271MPD2    H1 4100   2.570   1.923  13.861  0.7995  0.7275 -0.3006
  271MPD2    H2 4101   2.765   1.757  14.203 -1.7333 -0.0684  0.6457
  271MPD2    H3 4102   2.717   1.743  13.978 -1.1568 -0.3039  0.2546
  271MPD2     N 4103   2.501   2.144  13.975 -0.1622 -0.4231  0.1433
  271MPD2    H5 4104   2.479   2.128  13.877  0.8411  3.2478 -0.6580
  271MPD2    N1 4105   2.708   1.965  14.375  0.5393 -0.0656 -0.3086
  271MPD2    H7 4106   2.680   2.050  14.423  0.6298 -0.3639  0.2658
  272TMC3    C1 4107   2.842   1.922  14.569  0.1550 -0.2967  0.1476
  272TMC3    C2 4108   2.968   1.887  14.604  0.6084 -0.1286  0.1868
  272TMC3    C3 4109   3.027   1.945  14.709  0.3748  1.1429 -0.2443
  272TMC3    C4 4110   2.773   2.011  14.637 -0.5267  0.3879 -0.1367
  272TMC3    C5 4111   2.838   2.084  14.738  0.8954  0.1859 -0.0005
  272TMC3    C6 4112   2.970   2.060  14.768  0.3003 -0.2166 -0.2325
  272TMC3     C 4113   2.797   1.885  14.439 -0.4120  0.1274  0.2100
  272TMC3     O 4114   2.862   1.794  14.394  0.4748  0.2305  0.0040
  272TMC3     H 4115   3.027   1.822  14.540  0.2266  0.4928 -0.7890
  272TMC3    H1 4116   2.664   2.013  14.632 -0.4969  1.2533 -0.3677
  272TMC3    H2 4117   3.030   2.105  14.846 -0.6968  3.7118 -1.7367
  272TMC3    C7 4118   2.777   2.201  14.801 -0.9581  0.0958 -0.1918
  272TMC3    C8 4119   3.163   1.964  14.684 -0.0626  0.5085  0.1133
  272TMC3    O1 4120   2.668   2.232  14.761  0.1581  0.2246  0.2751
  272TMC3    O2 4121   3.202   2.009  14.577  0.0523  0.6079  0.2919
  273MPD2     C 4122   0.304   0.664  11.830 -0.2013 -0.3553 -0.1430
  273MPD2    C1 4123   0.343   0.794  11.803 -0.1467 -0.6532 -0.1286
  273MPD2    C2 4124   0.362   0.828  11.670  0.6530 -0.6359 -0.1068
  273MPD2    C3 4125   0.354   0.736  11.561 -0.3176  0.8011  0.3947
  273MPD2    C4 4126   0.315   0.608  11.595  0.3390 -0.0595 -0.1276
  273MPD2    C5 4127   0.286   0.575  11.729 -0.5084  0.3204 -0.1148
  273MPD2     H 4128   0.388   0.930  11.643 -1.4920 -0.7652 -2.6521
  273MPD2    H1 4129   0.304   0.519  11.534 -0.7633  0.1885 -0.2815
  273MPD2    H2 4130   0.287   0.632  11.932  0.9844  0.8392  0.4323
  273MPD2    H3 4131   0.259   0.473  11.751 -0.5691 -0.0809 -2.1257
  273MPD2     N 4132   0.377   0.761  11.428 -0.4990  0.1412  0.1692
  273MPD2    H5 4133   0.363   0.684  11.363  0.4327  0.7468 -0.7563
  273MPD2    N1 4134   0.388   0.870  11.917  0.3724  0.8878 -0.3446
  273MPD2    H7 4135   0.415   0.813  11.997  0.5435 -0.7977 -1.6030
  274TMC3    C1 4136   0.419   0.889  11.231  0.6280 -0.5760  0.4748
  274TMC3    C2 4137   0.310   0.836  11.168 -0.3825 -0.0867  0.0981
  274TMC3    C3 4138   0.271   0.895  11.048 -0.0795 -0.2104 -0.6703
  274TMC3    C4 4139   0.486   0.996  11.174  0.2099  0.2795  0.5262
  274TMC3    C5 4140   0.441   1.064  11.060  0.5314 -0.1098 -0.2487
  274TMC3    C6 4141   0.339   1.002  10.991  0.0607  0.5851 -0.0586
  274TMC3     C 4142   0.425   0.876  11.373 -0.2102 -0.0625  0.3896
  274TMC3     O 4143   0.486   0.964  11.429 -0.0078  0.2119 -0.1121
  274TMC3     H 4144   0.259   0.757  11.220  1.9679 -1.2415  0.6538
  274TMC3    H1 4145   0.573   1.035  11.225 -0.5146  1.4119  0.9085
  274TMC3    H2 4146   0.284   1.057  10.916  0.9309  2.4134  0.6570
  274TMC3    C7 4147   0.387   1.192  11.088 -0.0507 -0.7381 -0.1919
  274TMC3    C8 4148   0.145   0.845  11.004 -0.1093 -0.6283 -0.2976
  274TMC3    O1 4149   0.269   1.221  11.082 -0.0237 -0.3588 -0.2038
  274TMC3    O2 4150   0.081   0.780  11.087 -0.3522  0.2555 -0.7883
  275MPD2     C 4151   4.590   3.001  14.411 -0.0558 -0.4099  0.2172
  275MPD2    C1 4152   4.585   2.926  14.530  0.0648  0.3797 -0.5708
  275MPD2    C2 4153   4.477   2.851  14.552 -0.3068 -0.3243 -0.0759
  275MPD2    C3 4154   4.373   2.831  14.462 -0.1731 -0.0017  0.7346
  275MPD2    C4 4155   4.373   2.910  14.348 -0.4866 -0.5616 -0.6267
  275MPD2    C5 4156   4.480   2.994  14.325  0.3108  0.3519 -0.3426
  275MPD2     H 4157   4.457   2.806  14.649  0.1579  1.6156  0.9179
  275MPD2    H1 4158   4.285   2.923  14.287  1.1659  3.5062 -2.2046
  275MPD2    H2 4159   4.673   3.063  14.378  0.4991 -0.1687  2.0500
  275MPD2    H3 4160   4.480   3.064  14.243  0.3888  0.7881  0.0307
  275MPD2     N 4161   4.257   2.748  14.481  0.1352 -0.3901 -0.2515
  275MPD2    H5 4162   4.188   2.744  14.407  0.6030  1.5469 -0.7897
  275MPD2    N1 4163   4.684   2.938  14.634 -0.2139 -0.0504  0.3043
  275MPD2    H7 4164   4.670   2.890  14.723 -0.2352 -0.8340 -0.1202
  276TMC3    C1 4165   0.147   3.024  14.745  0.1744 -0.2355 -0.6167
  276TMC3    C2 4166   0.138   2.924  14.839 -0.9007  0.0588  1.2319
  276TMC3    C3 4167   0.209   2.936  14.958 -0.2062  0.1488  0.4022
  276TMC3    C4 4168   0.214   3.140  14.778 -0.3033 -0.3471  0.4501
  276TMC3    C5 4169   0.276   3.147  14.893  0.0986  0.3269 -0.0703
  276TMC3    C6 4170   0.291   3.039  14.983  0.1819  0.2409 -0.1093
  276TMC3     C 4171   0.065   3.027  14.631  0.0049  0.1090 -0.7887
  276TMC3     O 4172   0.091   3.110  14.549 -0.6108  0.0021 -0.0305
  276TMC3     H 4173   0.092   2.826  14.828 -1.9867  0.5242  1.6571
  276TMC3    H1 4174   0.225   3.216  14.702 -0.4147 -0.8011 -0.0202
  276TMC3    H2 4175   0.350   3.046  15.073 -2.1055  1.1396  1.3086
  276TMC3    C7 4176   0.366   3.264  14.921 -0.4693 -0.3846 -0.5372
  276TMC3    C8 4177   0.165   2.875  15.081  0.5719  0.1794  0.2910
  276TMC3    O1 4178   0.461   3.242  14.997  0.6163 -0.4624  0.0191
  276TMC3    O2 4179   0.194   2.932  15.187  0.0463 -0.0671  0.0639
  277MPD2     C 4180   2.172   2.188  13.220  0.0183 -0.0553  0.2786
  277MPD2    C1 4181   2.034   2.199  13.252 -0.3260  1.0261 -0.2581
  277MPD2    C2 4182   1.961   2.091  13.287 -0.4225 -0.1054  0.3258
  277MPD2    C3 4183   2.021   1.970  13.284 -0.0273  0.5059  0.0758
  277MPD2    C4 4184   2.160   1.955  13.254 -0.3958  0.0260 -1.1432
  277MPD2    C5 4185   2.232   2.068  13.220 -0.0159  0.1338  0.0891
  277MPD2     H 4186   1.855   2.097  13.308 -0.2515  0.2320  1.0897
  277MPD2    H1 4187   2.211   1.861  13.270 -2.7994 -0.5413  3.1524
  277MPD2    H2 4188   2.227   2.270  13.176  1.0308 -2.2225 -2.5084
  277MPD2    H3 4189   2.337   2.045  13.203 -0.0718 -0.6945  0.8221
  277MPD2     N 4190   1.938   1.864  13.335  0.2690  0.2508 -0.4533
  277MPD2    H5 4191   1.840   1.882  13.356  0.6505  1.0099  0.6831
  277MPD2    N1 4192   1.977   2.325  13.235  0.0747  0.5640  0.1397
  277MPD2    H7 4193   2.039   2.401  13.209 -0.4709  1.1087  0.4339
  278TMC3    C1 4194   1.874   1.680  13.454  0.0919  0.7195  0.1173
  278TMC3    C2 4195   1.823   1.558  13.421  0.3246  0.2481  0.1807
  278TMC3    C3 4196   1.684   1.542  13.425 -0.4202 -0.3981 -0.2924
  278TMC3    C4 4197   1.788   1.773  13.500  0.4397  0.1699  0.1006
  278TMC3    C5 4198   1.662   1.747  13.529 -0.1962  0.6848 -0.1123
  278TMC3    C6 4199   1.599   1.638  13.483  0.0552 -0.0206 -0.2039
  278TMC3     C 4200   1.985   1.744  13.382 -0.2116 -0.3671  0.3797
  278TMC3     O 4201   2.096   1.696  13.389  0.1338  0.2320 -0.0773
  278TMC3     H 4202   1.869   1.471  13.376  0.7158  0.4375  0.2211
  278TMC3    H1 4203   1.827   1.866  13.540  1.3937 -0.6444  1.0844
  278TMC3    H2 4204   1.496   1.619  13.511 -0.4011 -1.5742 -2.9236
  278TMC3    C7 4205   1.587   1.869  13.522  0.1571  0.9170 -0.2462
  278TMC3    C8 4206   1.627   1.419  13.369 -0.3451  0.4671 -0.1579
  278TMC3    O1 4207   1.618   1.955  13.601  0.6335 -0.2485 -0.2021
  278TMC3    O2 4208   1.687   1.314  13.391 -0.5264  0.2281  0.0917
  279MPD2     C 4209   0.315   2.208   0.335 -0.0669  0.3357 -0.6297
  279MPD2    C1 4210   0.359   2.322   0.282  0.0719 -0.1930 -0.8632
  279MPD2    C2 4211   0.420   2.322   0.156  0.2638  0.0137 -0.2537
  279MPD2    C3 4212   0.436   2.195   0.091 -0.9019 -0.1688  0.5230
  279MPD2    C4 4213   0.394   2.082   0.159  0.4329  0.0777  0.4020
  279MPD2    C5 4214   0.329   2.087   0.270 -0.0187  0.2433  0.0394
  279MPD2     H 4215   0.455   2.412   0.107  1.1952 -0.3595 -0.2783
  279MPD2    H1 4216   0.405   1.984   0.114  1.4774  1.0609 -1.4785
  279MPD2    H2 4217   0.274   2.196   0.434 -0.0865  0.2611 -0.6470
  279MPD2    H3 4218   0.291   2.000   0.322  0.0221  0.0940 -0.1770
  279MPD2     N 4219   0.517   2.176  17.677  0.0053 -0.2313  0.2265
  279MPD2    H5 4220   0.501   2.085  17.634  0.2306 -0.5566  0.8278
  279MPD2    N1 4221   0.352   2.439   0.358  0.6630  0.1133  0.0502
  279MPD2    H7 4222   0.315   2.432   0.453 -0.4291  0.7725 -0.3292
  280TMC3    C1 4223   0.343   2.671   0.398 -0.5386 -0.0192 -0.2177
  280TMC3    C2 4224   0.403   2.644   0.524  1.0316 -0.3137 -0.5391
  280TMC3    C3 4225   0.437   2.758   0.595 -0.0510 -0.0077 -0.1315
  280TMC3    C4 4226   0.312   2.787   0.339 -0.1011 -0.0370 -0.5809
  280TMC3    C5 4227   0.331   2.887   0.432  0.0605  0.0769  0.0659
  280TMC3    C6 4228   0.402   2.878   0.552 -0.2048  0.4576 -0.1611
  280TMC3     C 4229   0.358   2.566   0.301  0.0842 -0.1175  0.3757
  280TMC3     O 4230   0.368   2.596   0.184 -0.5107 -0.1027  0.4108
  280TMC3     H 4231   0.427   2.542   0.552 -0.6033 -0.8253 -0.9805
  280TMC3    H1 4232   0.258   2.794   0.245  1.1272  1.8791 -1.1369
  280TMC3    H2 4233   0.434   2.964   0.609  0.5041  0.9475 -1.3155
  280TMC3    C7 4234   0.251   3.009   0.411  0.1852 -0.5904  0.2725
  280TMC3    C8 4235   0.483   2.754   0.728  0.1456  0.1304  0.4308
  280TMC3    O1 4236   0.229   3.077   0.510 -0.7236  0.1614 -0.0676
  280TMC3    O2 4237   0.448   2.839   0.806  0.3736  0.4807 -0.5758
  281TMC3    C1 4238   4.716   2.401  13.445  0.3681  0.4481 -0.0677
  281TMC3    C2 4239   0.060   2.518  13.419 -0.0999  0.4123  0.6661
  281TMC3    C3 4240   0.158   2.517  13.328 -0.3155 -0.2129  0.1705
  281TMC3    C4 4241   0.011   2.284  13.376  0.2874  0.2027 -0.1146
  281TMC3    C5 4242   0.115   2.291  13.280 -0.2063  1.1668 -0.7417
  281TMC3    C6 4243   0.201   2.403  13.266  0.1195  0.0730  0.0854
  281TMC3     C 4244   4.589   2.416  13.504  0.6434  0.1116  0.0901
  281TMC3     O 4245   4.543   2.311  13.557  0.1188 -0.2685 -0.4008
  281TMC3     H 4246   0.037   2.617  13.456 -0.8891  0.8143 -0.9144
  281TMC3    H1 4247   4.650   2.217  13.380  0.3167  0.1976  0.5139
  281TMC3    H2 4248   0.258   2.427  13.177 -1.0566  0.5016 -0.5636
  281TMC3    C7 4249   0.145   2.175  13.198  0.7526 -0.6865  0.3804
  281TMC3    C8 4250   0.233   2.638  13.303  0.3184  0.9164 -0.1537
  281TMC3    O1 4251   0.234   2.185  13.112  0.0781 -0.2331  0.2491
  281TMC3    O2 4252   0.353   2.614  13.308 -0.2180  0.4693  0.2342
  282MPD2     C 4253   1.722   4.331  15.172 -1.3667  0.4904 -0.6608
  282MPD2    C1 4254   1.592   4.363  15.194  0.5822 -0.2776  0.0434
  282MPD2    C2 4255   1.510   4.376  15.084 -0.5484  0.4369  0.1668
  282MPD2    C3 4256   1.553   4.332  14.961 -0.1799  0.3304 -0.2714
  282MPD2    C4 4257   1.676   4.287  14.945  0.4450  0.1821  0.1295
  282MPD2    C5 4258   1.760   4.289  15.051  0.4100  0.0591  0.5629
  282MPD2     H 4259   1.408   4.404  15.110 -0.9131  0.2874 -1.0961
  282MPD2    H1 4260   1.708   4.242  14.852  0.0047  1.1158 -0.4766
  282MPD2    H2 4261   1.801   4.325  15.246 -1.4065  2.6644 -0.4524
  282MPD2    H3 4262   1.852   4.234  15.035  0.8824  0.4649  1.9432
  282MPD2     N 4263   1.456   4.322  14.852  0.5377  0.2166 -0.5285
  282MPD2    H5 4264   1.363   4.359  14.867 -0.0595 -1.2206 -0.7939
  282MPD2    N1 4265   1.530   4.399  15.314 -0.4175  0.5720 -0.4389
  282MPD2    H7 4266   1.444   4.453  15.317 -1.4577 -1.0869 -0.3935
  283TMC3    C1 4267   1.495   4.371  15.548 -0.0293  0.8912  0.5270
  283TMC3    C2 4268   1.437   4.489  15.561  0.3346 -0.1604  0.0055
  283TMC3    C3 4269   1.343   4.500  15.664  0.2260 -0.3521  0.0983
  283TMC3    C4 4270   1.487   4.274  15.645  0.2033 -0.2300 -0.4754
  283TMC3    C5 4271   1.402   4.292  15.743  0.6237  0.1234 -0.1680
  283TMC3    C6 4272   1.320   4.401  15.753 -0.3855 -0.0221  0.4721
  283TMC3     C 4273   1.573   4.339  15.431  0.5031  0.3635 -0.3315
  283TMC3     O 4274   1.668   4.262  15.450  0.2466 -0.3419  0.1991
  283TMC3     H 4275   1.459   4.575  15.499 -1.2762 -0.6924 -1.3339
  283TMC3    H1 4276   1.518   4.173  15.620  2.0007  0.1700  0.1327
  283TMC3    H2 4277   1.238   4.412  15.824 -0.4819  2.2913  0.0075
  283TMC3    C7 4278   1.333   4.173  15.785 -0.5710 -0.2462 -1.0438
  283TMC3    C8 4279   1.288   4.633  15.693 -0.6848 -0.6074 -0.3346
  283TMC3    O1 4280   1.211   4.176  15.770 -0.1068 -0.0653  0.8347
  283TMC3    O2 4281   1.254   4.655  15.812  0.5293  0.1911 -0.0970
  284MPD2     C 4282   4.622   3.025  12.094 -0.2501 -0.8096  0.1324
  284MPD2    C1 4283   4.609   3.044  11.955 -0.0195  0.3064  0.0811
  284MPD2    C2 4284   4.512   2.978  11.882  0.1374  0.0340  0.4819
  284MPD2    C3 4285   4.437   2.875  11.938  0.2053 -0.9642  0.7797
  284MPD2    C4 4286   4.443   2.862  12.075 -0.0379  0.3289  0.3385
  284MPD2    C5 4287   4.537   2.936  12.149 -0.2003  0.0315  0.3287
  284MPD2     H 4288   4.525   2.982  11.774 -1.6139 -1.9467  0.1993
  284MPD2    H1 4289   4.388   2.783  12.125 -0.1510 -0.0187 -0.3321
  284MPD2    H2 4290   4.687   3.086  12.155 -2.4960  1.7341 -0.0123
  284MPD2    H3 4291   4.546   2.910  12.254  0.1217 -3.1063 -0.4550
  284MPD2     N 4292   4.345   2.789  11.865 -0.1048 -0.3080 -0.2651
  284MPD2    H5 4293   4.287   2.724  11.917  0.3300  0.8664  1.6924
  284MPD2    N1 4294   4.708   3.116  11.880  0.7840  0.2551 -0.0540
  284MPD2    H7 4295   4.719   3.101  11.780  0.2087  2.7928 -0.5151
  285TMC3    C1 4296   0.164   3.264  11.835  0.2764  0.2499 -0.0201
  285TMC3    C2 4297   0.176   3.196  11.718  0.6169  0.0535  0.1351
  285TMC3    C3 4298   0.230   3.263  11.613  0.2650  0.2022 -0.1326
  285TMC3    C4 4299   0.181   3.397  11.840 -1.1258  0.6108 -0.3597
  285TMC3    C5 4300   0.219   3.467  11.730  0.3989 -0.7585  0.1511
  285TMC3    C6 4301   0.237   3.399  11.610  0.0641  0.1716  0.1521
  285TMC3     C 4302   0.082   3.199  11.939  0.0745  0.1923 -0.0295
  285TMC3     O 4303   0.098   3.240  12.053  0.2656 -0.4847  0.3175
  285TMC3     H 4304   0.173   3.088  11.718  1.6171  0.0289 -1.3414
  285TMC3    H1 4305   0.126   3.450  11.916 -0.2645  0.8957  0.0584
  285TMC3    H2 4306   0.262   3.451  11.518  1.4962  0.6910  0.8233
  285TMC3    C7 4307   0.229   3.610  11.736  0.0407  0.6376 -0.8173
  285TMC3    C8 4308   0.248   3.198  11.487 -0.4095  0.3527 -0.1300
  285TMC3    O1 4309   0.253   3.660  11.846  0.5139  0.4424 -0.1436
  285TMC3    O2 4310   0.155   3.139  11.425  0.1082  1.1772  0.7513
  286MPD2     C 4311   0.287   1.699   1.448  0.1033  0.8674  0.3124
  286MPD2    C1 4312   0.296   1.674   1.314 -0.2273  0.1410  0.5174
  286MPD2    C2 4313   0.422   1.693   1.254  0.0884 -0.6656  0.1040
  286MPD2    C3 4314   0.533   1.722   1.331  0.7811  0.0065 -0.8319
  286MPD2    C4 4315   0.519   1.759   1.464  0.3667 -0.1146  0.2290
  286MPD2    C5 4316   0.391   1.740   1.528  0.5925 -0.2764 -0.2412
  286MPD2     H 4317   0.425   1.679   1.146 -1.0408  0.7280 -0.1157
  286MPD2    H1 4318   0.603   1.793   1.523  0.0830  2.4059 -0.8174
  286MPD2    H2 4319   0.199   1.697   1.511  0.3933 -1.3402  0.6296
  286MPD2    H3 4320   0.374   1.769   1.631  0.1813 -2.1707  0.2240
  286MPD2     N 4321   0.669   1.727   1.280 -0.2267  0.6877 -0.9499
  286MPD2    H5 4322   0.744   1.758   1.341 -0.6244 -1.8652  0.8511
  286MPD2    N1 4323   0.188   1.639   1.241 -0.3327 -0.2042 -0.1120
  286MPD2    H7 4324   0.204   1.648   1.141  1.5447  2.9543  0.4823
  287TMC3    C1 4325   0.847   1.682   1.141  0.2050 -0.2180  0.0018
  287TMC3    C2 4326   0.902   1.641   1.023 -1.0582 -0.2423 -0.8080
  287TMC3    C3 4327   1.033   1.601   1.023 -0.3201  0.0379 -0.2179
  287TMC3    C4 4328   0.929   1.715   1.247 -0.1160  0.2582 -0.0720
  287TMC3    C5 4329   1.061   1.690   1.244  0.6166 -0.0791 -0.1583
  287TMC3    C6 4330   1.112   1.619   1.134 -0.4817  0.3771 -0.4675
  287TMC3     C 4331   0.700   1.685   1.152 -0.3134  0.3080  0.5165
  287TMC3     O 4332   0.637   1.637   1.060  0.0978  0.2197 -0.0828
  287TMC3     H 4333   0.834   1.604   0.947 -0.4084 -0.7614 -1.1336
  287TMC3    H1 4334   0.890   1.754   1.341 -0.9870  2.9499 -1.5705
  287TMC3    H2 4335   1.205   1.563   1.144 -1.7665 -1.4945  1.0549
  287TMC3    C7 4336   1.140   1.733   1.353  0.9452  0.1197  0.4062
  287TMC3    C8 4337   1.065   1.492   0.931  0.1398 -0.3659  0.3719
  287TMC3    O1 4338   1.086   1.766   1.457  0.8008  0.2446  0.2209
  287TMC3    O2 4339   1.129   1.395   0.971  0.3676  0.4688 -0.1048
  288TMC3    C1 4340   1.132   2.009  14.329  0.0111  0.2017  0.3748
  288TMC3    C2 4341   1.085   1.915  14.425  0.2376  1.0204 -0.0894
  288TMC3    C3 4342   1.114   1.946  14.555  0.0103 -0.6795 -0.1893
  288TMC3    C4 4343   1.210   2.113  14.358 -0.1475 -0.1541 -0.7334
  288TMC3    C5 4344   1.235   2.134  14.490 -0.9450 -0.8367  0.1391
  288TMC3    C6 4345   1.185   2.056  14.591  0.5738 -0.1310 -0.0860
  288TMC3     C 4346   1.165   1.960  14.198 -0.0600 -0.1430  0.9128
  288TMC3     O 4347   1.270   1.996  14.140 -0.0641  0.0532  0.1022
  288TMC3     H 4348   1.018   1.832  14.407  2.2797 -0.1838 -2.1175
  288TMC3    H1 4349   1.249   2.181  14.283  1.3851 -0.1211  0.0987
  288TMC3    H2 4350   1.191   2.091  14.694  3.5846 -0.8999 -0.0107
  288TMC3    C7 4351   1.349   2.217  14.525  0.2743 -0.0612  0.0456
  288TMC3    C8 4352   1.136   1.841  14.653 -0.1574 -0.5430 -0.0621
  288TMC3    O1 4353   1.367   2.241  14.645 -0.0847  0.6965  0.1384
  288TMC3    O2 4354   1.205   1.874  14.750  0.2984 -0.5161 -0.3017
  289MPD2     C 4355   1.486   1.372  13.741  0.1210 -0.3922  0.0303
  289MPD2    C1 4356   1.444   1.249  13.727  0.4244  0.3894 -0.6857
  289MPD2    C2 4357   1.321   1.204  13.786  0.8725  0.4347 -0.3876
  289MPD2    C3 4358   1.246   1.286  13.866  0.3348 -0.1816  0.1511
  289MPD2    C4 4359   1.295   1.413  13.882 -0.3635 -0.2723 -0.0525
  289MPD2    C5 4360   1.409   1.459  13.819 -0.0638 -0.1817  0.1778
  289MPD2     H 4361   1.281   1.107  13.760  2.9683  0.1672 -2.5636
  289MPD2    H1 4362   1.237   1.476  13.948  0.3644 -1.0191  1.2937
  289MPD2    H2 4363   1.573   1.423  13.701  2.1770 -3.3035  0.7444
  289MPD2    H3 4364   1.432   1.562  13.843  0.5466  0.3662 -2.7944
  289MPD2     N 4365   1.135   1.250  13.945  0.4163 -0.8186 -0.5321
  289MPD2    H5 4366   1.111   1.309  14.024  2.0435  0.6595 -1.1566
  289MPD2    N1 4367   1.540   1.170  13.658 -0.4286 -0.6180  0.4337
  289MPD2    H7 4368   1.623   1.216  13.620 -1.3883  1.6319  1.1007
  290TMC3    C1 4369   0.958   1.128  14.029 -0.2851 -0.1925 -0.2083
  290TMC3    C2 4370   0.903   1.246  14.083 -1.0749 -0.1794  0.3610
  290TMC3    C3 4371   0.797   1.234  14.167 -0.2329  0.0951  0.3549
  290TMC3    C4 4372   0.910   0.999  14.067  0.6361 -0.1811  0.4432
  290TMC3    C5 4373   0.816   0.997  14.173 -0.0600 -0.5022  0.6620
  290TMC3    C6 4374   0.760   1.114  14.223 -0.2546  0.6161 -0.0322
  290TMC3     C 4375   1.072   1.125  13.943  0.4879  0.8491 -0.2975
  290TMC3     O 4376   1.098   1.028  13.871 -0.1036 -0.2190 -0.1722
  290TMC3     H 4377   0.936   1.341  14.044 -2.2961  0.0753 -0.0765
  290TMC3    H1 4378   0.935   0.915  14.003 -1.0943  4.1050 -5.9063
  290TMC3    H2 4379   0.688   1.119  14.304 -0.4467 -0.0262 -0.1669
  290TMC3    C7 4380   0.739   0.877  14.197 -0.3455 -0.1069  0.3130
  290TMC3    C8 4381   0.744   1.353  14.224 -0.4974 -0.5475  0.1890
  290TMC3    O1 4382   0.638   0.889  14.265  0.0246 -0.2103 -0.1112
  290TMC3    O2 4383   0.686   1.351  14.332 -0.0868 -0.3269 -0.0072
  291MPD2     C 4384   0.497   0.324   0.463  0.7484 -0.1596  0.2558
  291MPD2    C1 4385   0.539   0.303   0.336  0.3754  0.1743 -0.2846
  291MPD2    C2 4386   0.670   0.348   0.309  0.3888  0.9821  0.1854
  291MPD2    C3 4387   0.742   0.409   0.409 -0.3340 -0.2940  0.2738
  291MPD2    C4 4388   0.693   0.428   0.535 -0.0409 -0.3914  0.0748
  291MPD2    C5 4389   0.565   0.386   0.560 -0.5417 -0.2359 -0.5727
  291MPD2     H 4390   0.697   0.350   0.204 -0.0074 -1.1442  0.0411
  291MPD2    H1 4391   0.737   0.490   0.613  2.1464 -2.4666  0.4632
  291MPD2    H2 4392   0.405   0.282   0.503  0.4576 -2.3761 -2.7485
  291MPD2    H3 4393   0.519   0.395   0.658  2.0373 -2.1893  0.8196
  291MPD2     N 4394   0.876   0.456   0.392  0.5747  0.0695  0.5130
  291MPD2    H5 4395   0.930   0.489   0.472  1.1913 -5.3396  2.3529
  291MPD2    N1 4396   0.459   0.254   0.228 -0.1682 -0.2506 -0.4852
  291MPD2    H7 4397   0.495   0.239   0.134  0.9889 -0.5556  0.0054
  292TMC3    C1 4398   0.249   0.209   0.116 -0.1689  0.0332 -0.0248
  292TMC3    C2 4399   0.110   0.239   0.117  0.2982  0.5865  0.2155
  292TMC3    C3 4400   0.039   0.210  17.700 -0.4938 -0.8126 -0.6263
  292TMC3    C4 4401   0.308   0.157   0.006 -0.3540  0.9489 -0.4776
  292TMC3    C5 4402   0.237   0.139  17.592 -0.6569  0.0924  0.3666
  292TMC3    C6 4403   0.102   0.167  17.584  0.0390  0.0530  0.3033
  292TMC3     C 4404   0.324   0.230   0.240 -0.1832  0.2785 -0.1396
  292TMC3     O 4405   0.263   0.231   0.342 -0.6116  0.0246  0.2521
  292TMC3     H 4406   0.053   0.281   0.199  0.2623 -0.3595  0.6739
  292TMC3    H1 4407   0.414   0.136   0.007 -0.8900 -1.5882  2.8259
  292TMC3    H2 4408   0.053   0.160  17.488 -2.3952  2.6776  1.3679
  292TMC3    C7 4409   0.294   0.043  17.497  0.3214  0.2907 -0.0100
  292TMC3    C8 4410   4.620   0.205   0.013  0.0325 -0.0214 -0.2177
  292TMC3    O1 4411   0.402   4.714  17.521 -0.1124  0.3238  0.6455
  292TMC3    O2 4412   4.569   0.274   0.097  0.0561  0.2268  0.0478
  293MPD2     C 4413   3.005   2.307  12.648  1.1474 -0.8858  0.7211
  293MPD2    C1 4414   2.900   2.229  12.704 -0.5752 -0.1400 -0.6477
  293MPD2    C2 4415   2.919   2.169  12.827  0.9047 -0.1632 -0.0818
  293MPD2    C3 4416   3.034   2.197  12.899 -0.1018  0.3014 -0.0399
  293MPD2    C4 4417   3.122   2.297  12.861 -0.6950 -0.3468  0.4333
  293MPD2    C5 4418   3.115   2.338  12.729 -0.7006 -0.5342 -0.0231
  293MPD2     H 4419   2.842   2.100  12.861  0.9712  0.7663  1.9203
  293MPD2    H1 4420   3.210   2.325  12.919 -0.0485 -1.1392 -0.1675
  293MPD2    H2 4421   3.005   2.340  12.545 -0.2999 -2.8480  0.0956
  293MPD2    H3 4422   3.192   2.398  12.681 -0.3979  2.8891  4.7273
  293MPD2     N 4423   3.049   2.138  13.026 -0.5017 -0.0928 -0.3585
  293MPD2    H5 4424   3.105   2.195  13.089  1.9532  0.3008 -2.8884
  293MPD2    N1 4425   2.784   2.203  12.625 -0.3897  0.2139  0.5999
  293MPD2    H7 4426   2.783   2.238  12.529  0.6109 -2.2719 -0.3137
  294TMC3    C1 4427   2.586   2.098  12.561  0.2350  0.0070  0.3669
  294TMC3    C2 4428   2.482   2.015  12.589  0.6529 -0.0476  1.2442
  294TMC3    C3 4429   2.382   1.999  12.494 -0.0124 -0.0566 -0.2421
  294TMC3    C4 4430   2.599   2.158  12.438  0.3016  0.4293 -0.6915
  294TMC3    C5 4431   2.503   2.133  12.347  0.2214 -0.6038 -0.4122
  294TMC3    C6 4432   2.390   2.056  12.370 -0.0413 -1.4395  0.3076
  294TMC3     C 4433   2.687   2.113  12.660  0.1394  0.3938 -0.1147
  294TMC3     O 4434   2.675   2.028  12.745  0.4083 -0.2427 -0.3031
  294TMC3     H 4435   2.472   1.965  12.685  1.1523  0.7582  1.7195
  294TMC3    H1 4436   2.687   2.217  12.418  0.3521  0.1174 -1.3804
  294TMC3    H2 4437   2.304   2.056  12.305  0.4464  1.7592 -0.3223
  294TMC3    C7 4438   2.485   2.240  12.262  0.2466 -0.4236 -0.1844
  294TMC3    C8 4439   2.286   1.890  12.507 -0.2741  0.0586 -1.0669
  294TMC3    O1 4440   2.375   2.301  12.259  0.3411 -0.1120 -0.7855
  294TMC3    O2 4441   2.269   1.859  12.620  0.1047  0.3954  0.1740
  295MPD2     C 4442   3.458   0.409   0.667 -0.3685 -0.3916 -0.0267
  295MPD2    C1 4443   3.442   0.516   0.582 -0.9154 -0.5164  0.0941
  295MPD2    C2 4444   3.341   0.605   0.606  0.0435 -0.4511  0.2468
  295MPD2    C3 4445   3.245   0.580   0.705  0.2462 -0.2946 -0.9747
  295MPD2    C4 4446   3.266   0.472   0.787 -0.0545  0.6115  0.9245
  295MPD2    C5 4447   3.375   0.396   0.774  0.4686 -0.0794 -0.7880
  295MPD2     H 4448   3.326   0.684   0.534  0.7251  1.6079  2.3357
  295MPD2    H1 4449   3.203   0.466   0.875 -0.3035  0.8476  0.7627
  295MPD2    H2 4450   3.540   0.339   0.655 -2.2046 -2.5249 -0.1562
  295MPD2    H3 4451   3.395   0.318   0.846 -0.1828 -0.4614 -1.0237
  295MPD2     N 4452   3.140   0.665   0.740  0.0988  0.5328  0.4743
  295MPD2    H5 4453   3.091   0.644   0.826 -3.0633  1.5147 -1.0953
  295MPD2    N1 4454   3.522   0.523   0.462 -0.0234 -0.3436  0.2774
  295MPD2    H7 4455   3.494   0.593   0.395  3.9133  1.1969  0.2332
  296TMC3    C1 4456   2.984   0.839   0.715 -0.1120  0.0881  0.8078
  296TMC3    C2 4457   2.974   0.981   0.708 -0.5847 -0.0876 -0.0124
  296TMC3    C3 4458   2.853   1.026   0.769  0.1563  0.6142 -0.2424
  296TMC3    C4 4459   2.887   0.751   0.761 -0.4253  0.1557 -0.0421
  296TMC3    C5 4460   2.770   0.806   0.800 -0.0875 -0.5890 -0.6090
  296TMC3    C6 4461   2.752   0.941   0.805 -0.2557  0.1909  0.6568
  296TMC3     C 4462   3.115   0.787   0.678  0.0507  0.6050 -0.4823
  296TMC3     O 4463   3.185   0.843   0.596 -0.1560 -0.5099 -0.1777
  296TMC3     H 4464   3.054   1.043   0.671 -0.5813 -0.1136 -0.0480
  296TMC3    H1 4465   2.906   0.644   0.751 -0.0146  0.0434  1.8000
  296TMC3    H2 4466   2.649   0.974   0.816 -0.6124 -1.3353  1.8506
  296TMC3    C7 4467   2.642   0.728   0.768 -0.3310 -0.1743  0.1689
  296TMC3    C8 4468   2.838   1.168   0.802  0.0633 -1.5180  0.0574
  296TMC3    O1 4469   2.640   0.626   0.703 -0.3280  0.2009 -0.4608
  296TMC3    O2 4470   2.928   1.231   0.756  0.8085 -0.1070  0.0310
  297MPD2     C 4471   0.468   2.952  16.348  0.2445 -0.3575  0.7803
  297MPD2    C1 4472   0.493   3.041  16.243  0.1892 -0.2792 -1.0096
  297MPD2    C2 4473   0.600   3.126  16.257 -0.4104  0.2359 -0.3005
  297MPD2    C3 4474   0.695   3.111  16.359  0.1896  0.1543 -0.1411
  297MPD2    C4 4475   0.663   3.020  16.464  0.9038 -0.2431 -0.7565
  297MPD2    C5 4476   0.553   2.941  16.457  0.2313 -0.2505 -1.0305
  297MPD2     H 4477   0.612   3.195  16.174  2.4963  0.0069 -0.0556
  297MPD2    H1 4478   0.736   2.999  16.541 -1.7418 -1.8467  1.2920
  297MPD2    H2 4479   0.383   2.883  16.349  0.8092 -1.0455  1.2834
  297MPD2    H3 4480   0.537   2.862  16.530 -0.3946 -0.3013 -1.2190
  297MPD2     N 4481   0.815   3.174  16.350  0.4071  0.6096 -0.0486
  297MPD2    H5 4482   0.819   3.264  16.303 -1.9410  0.9532  0.4161
  297MPD2    N1 4483   0.413   3.048  16.127  0.1047 -0.1298 -0.8127
  297MPD2    H7 4484   0.431   3.118  16.056 -0.3995 -0.4732 -1.2852
  298TMC3    C1 4485   0.241   2.973  15.978  0.9450 -1.1231 -0.4384
  298TMC3    C2 4486   0.177   2.869  15.916 -0.2446  0.4052 -0.9943
  298TMC3    C3 4487   0.070   2.910  15.832  0.2003 -0.3716 -0.1531
  298TMC3    C4 4488   0.194   3.103  15.968  0.3379 -0.0471 -0.4353
  298TMC3    C5 4489   0.084   3.129  15.883 -0.1612 -0.0006 -0.1386
  298TMC3    C6 4490   0.035   3.034  15.802  0.2309 -0.3574 -0.0556
  298TMC3     C 4491   0.340   2.938  16.083 -0.2571  0.4357 -0.5707
  298TMC3     O 4492   0.324   2.830  16.135 -0.1778  0.0014  0.3274
  298TMC3     H 4493   0.209   2.766  15.916 -0.7506  0.2548  2.0743
  298TMC3    H1 4494   0.243   3.184  16.020  0.1079  1.7683 -3.0138
  298TMC3    H2 4495   4.669   3.038  15.743 -0.6410 -0.6284  1.2612
  298TMC3    C7 4496   4.718   3.232  15.918  0.3505 -0.0410  0.0380
  298TMC3    C8 4497   0.002   2.803  15.760 -0.2545  0.3735 -0.3763
  298TMC3    O1 4498   4.718   3.265  16.040 -0.3795 -1.1244 -0.1316
  298TMC3    O2 4499   4.667   2.822  15.652 -0.1670 -0.1378  0.1789
  299MPD2     C 4500   1.335   2.671  10.735 -0.4932 -0.4696  0.4913
  299MPD2    C1 4501   1.406   2.703  10.623 -0.1890  0.8698  0.6350
  299MPD2    C2 4502   1.345   2.699  10.496  0.2327  0.0177  0.1627
  299MPD2    C3 4503   1.208   2.686  10.494 -0.3939  0.0820 -0.8758
  299MPD2    C4 4504   1.138   2.655  10.609  0.2831 -0.1503 -0.4554
  299MPD2    C5 4505   1.198   2.644  10.727  0.0464 -0.1620  0.7421
  299MPD2     H 4506   1.396   2.723  10.403 -0.3951 -1.1189 -0.4731
  299MPD2    H1 4507   1.033   2.628  10.601  0.2712 -0.5782  1.1926
  299MPD2    H2 4508   1.380   2.663  10.833 -0.7106 -1.0356  0.5471
  299MPD2    H3 4509   1.129   2.614  10.805  0.6605  0.7113  1.6309
  299MPD2     N 4510   1.131   2.657  10.380 -0.1560  0.5136 -0.1627
  299MPD2    H5 4511   1.040   2.618  10.403 -0.4831  1.8047  0.7286
  299MPD2    N1 4512   1.543   2.726  10.633 -0.9377  1.0041  0.3778
  299MPD2    H7 4513   1.588   2.714  10.723 -0.9541  0.2219  0.2828
  300TMC3    C1 4514   1.083   2.591  10.161 -0.4145 -0.8060 -0.8078
  300TMC3    C2 4515   1.100   2.632  10.032 -0.0284  0.2248  0.1710
  300TMC3    C3 4516   1.002   2.640   9.945 -0.0370  0.5313  0.3355
  300TMC3    C4 4517   0.964   2.540  10.201  0.0484 -0.1652  0.2879
  300TMC3    C5 4518   0.862   2.542  10.109 -0.0883 -0.6873  0.7974
  300TMC3    C6 4519   0.880   2.580   9.978 -0.8956 -0.2937 -0.0017
  300TMC3     C 4520   1.177   2.654  10.252  0.2772 -0.2371 -0.1231
  300TMC3     O 4521   1.283   2.699  10.210  0.2279 -0.5235 -0.1042
  300TMC3     H 4522   1.199   2.655   9.995 -0.0113 -1.9497 -1.1399
  300TMC3    H1 4523   0.952   2.495  10.299 -1.3582  0.2613  0.3082
  300TMC3    H2 4524   0.794   2.602   9.917 -0.5668  3.0147  0.7356
  300TMC3    C7 4525   0.735   2.479  10.141 -0.2770  0.0477  1.2677
  300TMC3    C8 4526   1.009   2.729   9.824  0.0524  0.6014  0.4904
  300TMC3    O1 4527   0.674   2.427  10.049  0.1240 -0.3461  0.1493
  300TMC3    O2 4528   1.069   2.674   9.731 -0.0154 -0.1683 -0.4047
  301MPD2     C 4529   3.168   3.775   1.530  0.4608  0.1355  0.4740
  301MPD2    C1 4530   3.098   3.736   1.416 -0.8633  0.2238  0.2285
  301MPD2    C2 4531   3.122   3.610   1.358  0.4444  0.7856  0.4887
  301MPD2    C3 4532   3.220   3.528   1.413  0.8364 -0.3839  0.9022
  301MPD2    C4 4533   3.292   3.570   1.523  0.0049  0.4597 -0.6943
  301MPD2    C5 4534   3.267   3.693   1.584  0.5318 -0.2091  0.1877
  301MPD2     H 4535   3.063   3.579   1.273  1.0006 -0.1374  0.4407
  301MPD2    H1 4536   3.367   3.508   1.571 -0.6984 -0.1239 -0.3451
  301MPD2    H2 4537   3.143   3.869   1.578  0.0660  0.3486 -0.1490
  301MPD2    H3 4538   3.326   3.723   1.670  0.9439  1.4142 -0.6520
  301MPD2     N 4539   3.239   3.395   1.367  0.2334 -0.4404 -0.1664
  301MPD2    H5 4540   3.303   3.344   1.427  0.6866  1.1538  0.7006
  301MPD2    N1 4541   3.001   3.818   1.348  0.0199  0.2058  0.8110
  301MPD2    H7 4542   2.954   3.780   1.267  0.5929  0.8064  0.2024
  302TMC3    C1 4543   3.221   3.202   1.230  0.9145  0.0834  0.4334
  302TMC3    C2 4544   3.338   3.154   1.285  0.0697  0.4185  0.8521
  302TMC3    C3 4545   3.401   3.055   1.221  0.3340  0.0767  0.3643
  302TMC3    C4 4546   3.154   3.146   1.128  0.0511  0.2075  0.1501
  302TMC3    C5 4547   3.206   3.031   1.081 -0.8314  0.8152 -0.1669
  302TMC3    C6 4548   3.329   2.986   1.119 -0.5153 -0.2638 -0.3722
  302TMC3     C 4549   3.174   3.334   1.262 -0.2576 -0.1620 -1.2164
  302TMC3     O 4550   3.068   3.378   1.203  0.3673  0.2083 -0.0882
  302TMC3     H 4551   3.381   3.195   1.375  0.5015  1.8441 -0.0010
  302TMC3    H1 4552   3.059   3.183   1.093 -0.4537  1.1762  2.5743
  302TMC3    H2 4553   3.363   2.901   1.061 -0.4589 -0.6928  0.2870
  302TMC3    C7 4554   3.144   2.979   0.959 -0.1439 -0.6378  0.1344
  302TMC3    C8 4555   3.524   2.982   1.273  0.3696 -0.0083  0.3982
  302TMC3    O1 4556   3.210   2.906   0.889 -0.4369 -0.5568 -0.0508
  302TMC3    O2 4557   3.513   2.859   1.265 -0.3066 -0.1013  0.3265
  303MPD2     C 4558   3.801   2.816  10.122 -0.2824 -0.1395  0.4127
  303MPD2    C1 4559   3.748   2.687  10.121  0.3727  0.0506  0.1287
  303MPD2    C2 4560   3.782   2.601  10.018 -0.7139 -0.3043  0.1488
  303MPD2    C3 4561   3.869   2.639   9.914 -0.6454  0.5157 -0.7645
  303MPD2    C4 4562   3.923   2.772   9.915  0.1619 -0.5219  1.0563
  303MPD2    C5 4563   3.888   2.851  10.025 -0.2053 -0.1415  0.3413
  303MPD2     H 4564   3.745   2.499  10.011 -0.9813 -0.2400  0.7012
  303MPD2    H1 4565   3.998   2.812   9.848 -0.2440 -0.6903  0.5011
  303MPD2    H2 4566   3.769   2.894  10.191  0.1974 -0.6620  1.2215
  303MPD2    H3 4567   3.927   2.952  10.026 -1.7013  0.4311  0.6198
  303MPD2     N 4568   3.888   2.561   9.796  0.1904 -0.0987  0.2743
  303MPD2    H5 4569   3.970   2.574   9.738 -0.9438  0.5562 -1.1805
  303MPD2    N1 4570   3.650   2.650  10.219  0.1322  0.2413  0.5482
  303MPD2    H7 4571   3.610   2.723  10.276  0.6888 -0.3238  1.6546
  304TMC3    C1 4572   3.485   2.517  10.318  0.8461  0.0812  0.0267
  304TMC3    C2 4573   3.380   2.572  10.247  0.1871  0.3886  0.1054
  304TMC3    C3 4574   3.256   2.527  10.257  0.1335 -0.0279  0.9181
  304TMC3    C4 4575   3.454   2.403  10.392  0.2763  0.2228 -0.5337
  304TMC3    C5 4576   3.329   2.356  10.403  0.6223 -0.1564  0.5229
  304TMC3    C6 4577   3.226   2.425  10.346 -0.1300  0.2524 -0.5106
  304TMC3     C 4578   3.612   2.521  10.242  0.1656 -0.2184 -0.1401
  304TMC3     O 4579   3.671   2.415  10.227  0.4880  0.2254 -0.1566
  304TMC3     H 4580   3.407   2.644  10.170 -0.3657  0.6625  0.1682
  304TMC3    H1 4581   3.535   2.345  10.435 -0.1349  0.1038  0.0739
  304TMC3    H2 4582   3.121   2.399  10.359  0.0767  0.5600  1.8509
  304TMC3    C7 4583   3.308   2.209  10.396  0.4289 -0.3652 -0.0163
  304TMC3    C8 4584   3.179   2.488  10.136 -0.1766  0.1004 -0.6425
  304TMC3    O1 4585   3.388   2.144  10.452  0.8479 -0.2464  0.5282
  304TMC3    O2 4586   3.104   2.392  10.146  0.3746 -0.0649  0.1627
  305MPD2     C 4587   1.129   4.019  13.959 -0.4279 -0.3259  0.3538
  305MPD2    C1 4588   1.264   3.984  13.952  0.0164  0.0390  0.3528
  305MPD2    C2 4589   1.305   3.923  13.841  0.1265  0.0874 -0.2449
  305MPD2    C3 4590   1.219   3.892  13.736 -0.3234 -0.5400 -0.0224
  305MPD2    C4 4591   1.084   3.907  13.758  0.8109 -0.2763 -0.0487
  305MPD2    C5 4592   1.048   3.970  13.865 -0.6702  0.8455  0.3481
  305MPD2     H 4593   1.412   3.914  13.826  0.4008  2.0932  0.4393
  305MPD2    H1 4594   1.008   3.868  13.691  0.1843 -0.5202  0.8119
  305MPD2    H2 4595   1.095   4.070  14.049 -0.6103 -0.6777  0.4855
  305MPD2    H3 4596   0.941   3.980  13.876 -1.0695 -1.9170 -1.0751
  305MPD2     N 4597   1.258   3.821  13.623 -0.0169 -0.0144 -0.3842
  305MPD2    H5 4598   1.196   3.837  13.544  0.2388 -0.2373 -0.6297
  305MPD2    N1 4599   1.350   4.031  14.057  0.3769  0.2679 -0.2662
  305MPD2    H7 4600   1.302   4.079  14.132 -0.2549  0.5220 -0.8323
  306TMC3    C1 4601   1.570   4.049  14.164  0.1021  0.2227 -0.2494
  306TMC3    C2 4602   1.665   3.975  14.238  0.6961  0.7374  0.4218
  306TMC3    C3 4603   1.712   4.031  14.350  0.7712 -0.7814  0.0807
  306TMC3    C4 4604   1.523   4.175  14.205  0.1389 -0.7957 -0.2464
  306TMC3    C5 4605   1.575   4.230  14.320 -0.2713  0.7125  0.3323
  306TMC3    C6 4606   1.670   4.158  14.391  0.0067  0.5262  0.1533
  306TMC3     C 4607   1.486   3.984  14.065  0.5247 -0.2013 -0.6289
  306TMC3     O 4608   1.541   3.910  13.993  0.0213 -0.2706  0.2454
  306TMC3     H 4609   1.693   3.874  14.209 -0.5449  0.4766  0.1181
  306TMC3    H1 4610   1.440   4.223  14.156  0.5995 -1.2658 -1.4902
  306TMC3    H2 4611   1.706   4.195  14.486  1.0884 -0.4771  0.1403
  306TMC3    C7 4612   1.520   4.359  14.363 -0.5330  0.4907 -0.6745
  306TMC3    C8 4613   1.802   3.957  14.438 -0.1523 -0.4646 -0.0356
  306TMC3    O1 4614   1.432   4.413  14.298 -0.9370 -0.0835  0.7489
  306TMC3    O2 4615   1.824   3.842  14.408  0.2571  0.0320 -0.3743
  307MPD2     C 4616   4.574   1.646   0.292 -0.3811 -0.5857 -0.2069
  307MPD2    C1 4617   4.505   1.765   0.285  0.2102  0.2780 -0.1369
  307MPD2    C2 4618   4.454   1.820   0.396 -0.5047 -0.2697 -0.2924
  307MPD2    C3 4619   4.438   1.751   0.510  0.0988  0.1297  0.5657
  307MPD2    C4 4620   4.498   1.623   0.517  1.3565 -0.0801 -0.2857
  307MPD2    C5 4621   4.559   1.573   0.403  0.1822 -0.0184  0.7199
  307MPD2     H 4622   4.417   1.922   0.395  0.1197 -0.0435 -0.4202
  307MPD2    H1 4623   4.499   1.569   0.611  0.1706 -0.8373 -0.7064
  307MPD2    H2 4624   4.619   1.593   0.209  0.7507 -0.7891  0.5433
  307MPD2    H3 4625   4.603   1.474   0.407  1.2817  0.3826 -1.4762
  307MPD2     N 4626   4.366   1.815   0.618 -0.3529 -0.0016  0.6105
  307MPD2    H5 4627   4.334   1.905   0.584  0.1510 -0.7610 -1.8728
  307MPD2    N1 4628   4.510   1.843   0.167 -0.0118 -0.3214 -0.1883
  307MPD2    H7 4629   4.462   1.932   0.172 -1.0871 -0.9648  1.0078
  308TMC3    C1 4630   4.033   1.860   0.916 -0.9159  0.4067  0.0248
  308TMC3    C2 4631   4.042   1.995   0.901 -0.3234 -0.2014 -0.0382
  308TMC3    C3 4632   4.149   2.049   0.840 -0.0918 -0.5314  0.1584
  308TMC3    C4 4633   4.141   1.783   0.872  0.4298 -0.3759 -0.1691
  308TMC3    C5 4634   4.246   1.845   0.806  0.0655  0.2586  0.5103
  308TMC3    C6 4635   4.255   1.978   0.791  0.1933 -1.3871  0.2224
  308TMC3     C 4636   3.904   1.802   0.880  0.3624 -0.2100  0.7538
  308TMC3     O 4637   3.894   1.680   0.889  0.2361  0.6389 -0.2972
  308TMC3     H 4638   3.959   2.060   0.928  0.3901 -0.2990  2.4137
  308TMC3    H1 4639   4.140   1.676   0.890 -1.4940 -0.3790 -0.2869
  308TMC3    H2 4640   4.330   2.039   0.742  0.4246 -1.4334  0.5173
  308TMC3    C7 4641   4.330   1.758   0.736  0.3110 -0.1701  0.2274
  308TMC3    C8 4642   4.132   2.189   0.802  0.2360 -0.1913 -0.2011
  308TMC3    O1 4643   4.337   1.635   0.758 -0.0191  0.0039  0.1704
  308TMC3    O2 4644   4.227   2.260   0.829 -0.2672  0.0789 -0.0641
  309MPD2     C 4645   3.385   2.240  17.156 -0.1557 -0.0889  0.5437
  309MPD2    C1 4646   3.282   2.219  17.073 -0.6705 -0.3772 -0.1241
  309MPD2    C2 4647   3.159   2.276  17.111  0.2913 -1.2061  0.1635
  309MPD2    C3 4648   3.139   2.350  17.223 -0.3024 -0.3661 -0.1980
  309MPD2    C4 4649   3.243   2.365  17.305 -1.0640 -0.0052  0.5521
  309MPD2    C5 4650   3.370   2.312  17.270  0.2543 -0.1452  0.8084
  309MPD2     H 4651   3.083   2.267  17.034  1.1639 -0.1967 -0.8211
  309MPD2    H1 4652   3.238   2.430  17.392 -0.0714 -3.2414  3.0286
  309MPD2    H2 4653   3.486   2.202  17.148  0.7430  2.0344  1.7208
  309MPD2    H3 4654   3.453   2.321  17.339 -0.1167 -0.4473  1.2926
  309MPD2     N 4655   3.019   2.407  17.256  0.1794 -0.1131  0.3900
  309MPD2    H5 4656   3.017   2.460  17.343 -2.1708 -1.0769  0.9191
  309MPD2    N1 4657   3.280   2.139  16.955  0.1668 -0.1790  0.3844
  309MPD2    H7 4658   3.192   2.145  16.904 -0.2727 -0.5676  1.0950
  310TMC3    C1 4659   3.350   2.016  16.770  0.4235 -0.3935  0.0124
  310TMC3    C2 4660   3.263   2.091  16.691 -0.9673 -0.5418  0.0072
  310TMC3    C3 4661   3.252   2.057  16.558  0.1136 -0.2432  0.3532
  310TMC3    C4 4662   3.438   1.926  16.721  0.1148 -0.1702  0.1348
  310TMC3    C5 4663   3.418   1.896  16.589  0.1597 -0.0410  0.0614
  310TMC3    C6 4664   3.322   1.955  16.503  0.5229  0.5321 -0.1293
  310TMC3     C 4665   3.390   2.072  16.899  0.5236  0.2870 -0.1026
  310TMC3     O 4666   3.507   2.059  16.934  0.5841 -0.6808  0.1343
  310TMC3     H 4667   3.220   2.185  16.721 -0.1902  0.0250 -0.6753
  310TMC3    H1 4668   3.496   1.857  16.780 -0.1560  2.0276  2.9510
  310TMC3    H2 4669   3.318   1.940  16.396  0.6289 -1.7295  0.1842
  310TMC3    C7 4670   3.526   1.818  16.522  0.2505  0.2989  0.7906
  310TMC3    C8 4671   3.184   2.141  16.461  0.3073 -0.0251  0.2722
  310TMC3    O1 4672   3.494   1.757  16.418  0.2015  0.4031 -0.8459
  310TMC3    O2 4673   3.247   2.168  16.359  0.3336 -0.7441  0.2290
  311MPD2     C 4674   0.494   3.798  12.384 -0.2949 -0.4303 -0.1367
  311MPD2    C1 4675   0.529   3.888  12.481 -0.1617 -1.1533  0.2845
  311MPD2    C2 4676   0.465   3.877  12.605  0.2960  0.7264 -0.0917
  311MPD2    C3 4677   0.403   3.756  12.642  0.1665  0.3586  0.2573
  311MPD2    C4 4678   0.399   3.658  12.545  0.3168 -0.0843 -0.5233
  311MPD2    C5 4679   0.442   3.676  12.418  0.3490 -0.6243  0.1778
  311MPD2     H 4680   0.487   3.945  12.686  0.7205  0.8683 -0.3227
  311MPD2    H1 4681   0.349   3.562  12.556  0.4089  0.0761  1.3564
  311MPD2    H2 4682   0.544   3.802  12.288 -0.0821 -0.8297 -0.0460
  311MPD2    H3 4683   0.448   3.605  12.336  0.3938  1.4563 -1.6089
  311MPD2     N 4684   0.358   3.749  12.781  0.3500  0.6068  0.4979
  311MPD2    H5 4685   0.363   3.836  12.835 -0.3131  0.6595  0.4810
  311MPD2    N1 4686   0.618   4.003  12.460 -0.1964 -0.2199 -0.1420
  311MPD2    H7 4687   0.638   4.067  12.536  0.6643 -1.3618  0.5886
  312TMC3    C1 4688   0.267   3.668  12.974  0.8573 -0.3108 -0.1587
  312TMC3    C2 4689   0.166   3.590  13.030 -0.4874 -0.1309 -0.4491
  312TMC3    C3 4690   0.106   3.636  13.143  0.1316 -0.2151 -0.2842
  312TMC3    C4 4691   0.293   3.794  13.022 -0.1529 -0.2277 -0.1382
  312TMC3    C5 4692   0.238   3.827  13.151 -0.1808 -0.0271 -0.3326
  312TMC3    C6 4693   0.140   3.750  13.208 -0.5634 -0.3540  0.4555
  312TMC3     C 4694   0.301   3.640  12.834 -0.6659 -0.4948 -0.4436
  312TMC3     O 4695   0.269   3.529  12.794  0.4663 -0.5904  0.2210
  312TMC3     H 4696   0.155   3.490  12.989 -0.5037  0.3407 -1.6104
  312TMC3    H1 4697   0.371   3.859  12.984 -0.0853 -2.5573 -3.9970
  312TMC3    H2 4698   0.074   3.790  13.285  0.4431  1.6669  0.2564
  312TMC3    C7 4699   0.248   3.961  13.205 -0.1219  0.2841  0.7476
  312TMC3    C8 4700   4.689   3.606  13.134 -0.3115 -0.8355  0.2033
  312TMC3    O1 4701   0.289   4.050  13.136 -0.1473  0.4983 -0.1252
  312TMC3    O2 4702   4.654   3.573  13.021 -0.1531  0.2813  0.3298
  313MPD2     C 4703   0.531   3.432  10.950  0.0368 -0.6700  0.2399
  313MPD2    C1 4704   0.401   3.379  10.969 -0.4250 -0.8309  0.3667
  313MPD2    C2 4705   0.345   3.294  10.865 -0.4658 -0.9340  0.1244
  313MPD2    C3 4706   0.414   3.275  10.745  0.2137  0.0541  0.0149
  313MPD2    C4 4707   0.532   3.352  10.723 -0.4570  0.4432  0.1763
  313MPD2    C5 4708   0.591   3.417  10.829 -0.4985 -0.0885  0.6770
  313MPD2     H 4709   0.252   3.241  10.883 -0.0851 -1.3122  0.9975
  313MPD2    H1 4710   0.594   3.345  10.634 -0.2830  0.2569  0.3161
  313MPD2    H2 4711   0.579   3.501  11.018  0.1292  1.6197 -2.1395
  313MPD2    H3 4712   0.681   3.472  10.803  0.6155 -1.0217  2.5958
  313MPD2     N 4713   0.379   3.177  10.657  0.1471  0.3374  0.3003
  313MPD2    H5 4714   0.302   3.119  10.687  0.8629 -0.6915  0.1529
  313MPD2    N1 4715   0.324   3.429  11.071 -0.3467  0.2354  0.5923
  313MPD2    H7 4716   0.367   3.485  11.144  0.0377 -1.0478  1.3330
  314TMC3    C1 4717   0.122   3.538  11.138  0.8383  0.7289  1.6266
  314TMC3    C2 4718   0.222   3.628  11.173  0.3745  0.1774  0.4507
  314TMC3    C3 4719   0.241   3.733  11.090  0.0507 -0.0914 -0.1565
  314TMC3    C4 4720   0.032   3.571  11.037 -0.2624 -0.1941  0.7450
  314TMC3    C5 4721   0.076   3.673  10.950 -0.6604 -0.7050  0.2164
  314TMC3    C6 4722   0.188   3.747  10.969  0.4184 -0.8133 -0.2205
  314TMC3     C 4723   0.186   3.415  11.089 -0.1188 -0.1398  0.1198
  314TMC3     O 4724   0.102   3.349  11.031  0.5642  0.3492 -0.0821
  314TMC3     H 4725   0.266   3.625  11.272 -1.2308  1.4326  1.1947
  314TMC3    H1 4726   4.671   3.506  11.021 -0.3346 -0.1649  1.0144
  314TMC3    H2 4727   0.226   3.820  10.898 -2.7337  0.2321 -0.8597
  314TMC3    C7 4728   0.041   3.635  10.819  0.1457 -0.3414 -0.0883
  314TMC3    C8 4729   0.359   3.822  11.115 -0.8110  0.2041 -0.5150
  314TMC3    O1 4730   4.649   3.607  10.792  0.2998  0.5436 -0.5484
  314TMC3    O2 4731   0.387   3.897  11.024 -0.1133 -0.3562  0.6602
  315MPD2     C 4732   4.429   2.544  17.178 -0.2886 -0.5318 -0.2997
  315MPD2    C1 4733   4.448   2.595  17.306 -0.7563  0.0178 -0.0562
  315MPD2    C2 4734   4.443   2.728  17.335 -0.4895  0.3029  0.8577
  315MPD2    C3 4735   4.431   2.822  17.235  1.3805  0.4849 -0.5594
  315MPD2    C4 4736   4.405   2.772  17.109  0.1827 -0.7622  0.2507
  315MPD2    C5 4737   4.408   2.638  17.085 -0.4065 -0.5403  0.1552
  315MPD2     H 4738   4.457   2.759  17.438 -0.0716  1.8924  0.3122
  315MPD2    H1 4739   4.380   2.842  17.030 -0.5369 -0.7857  0.4544
  315MPD2    H2 4740   4.435   2.438  17.154 -1.0186 -0.2771 -1.6080
  315MPD2    H3 4741   4.381   2.606  16.985 -0.5714  0.7643 -0.2134
  315MPD2     N 4742   4.445   2.958  17.274 -0.3385 -0.7955  0.2811
  315MPD2    H5 4743   4.460   2.981  17.372  1.7515 -0.2829 -0.1454
  315MPD2    N1 4744   4.482   2.510  17.413  0.1194 -0.4322  0.2678
  315MPD2    H7 4745   4.500   2.557  17.501 -0.3527 -0.4960  0.3994
  316TMC3    C1 4746   4.506   3.180  17.254 -0.2417  0.2622 -0.6135
  316TMC3    C2 4747   4.566   3.177  17.374 -0.5670 -0.2272 -0.2545
  316TMC3    C3 4748   4.619   3.299  17.406 -0.4720 -0.5558  0.6825
  316TMC3    C4 4749   4.492   3.294  17.173 -0.2428 -0.2606 -0.2175
  316TMC3    C5 4750   4.535   3.411  17.220  0.4330  0.2692 -0.1897
  316TMC3    C6 4751   4.597   3.419  17.340 -0.4092 -0.3600  0.5330
  316TMC3     C 4752   4.443   3.069  17.188  0.2590 -0.6932  0.2362
  316TMC3     O 4753   4.405   3.071  17.069 -0.3545  0.3611 -0.1416
  316TMC3     H 4754   4.583   3.088  17.433  1.2456  0.3387  0.0731
  316TMC3    H1 4755   4.416   3.287  17.096 -0.3567 -2.3814  0.0642
  316TMC3    H2 4756   4.640   3.515  17.366  2.3150 -0.7121 -2.5928
  316TMC3    C7 4757   4.455   3.529  17.188 -0.3980 -0.3159  0.4245
  316TMC3    C8 4758   4.635   3.317  17.550 -0.0589 -0.1092 -0.1503
  316TMC3    O1 4759   4.428   3.598  17.285 -0.5408 -0.2865 -0.1920
  316TMC3    O2 4760   4.621   3.432  17.594 -0.0958  0.4636 -0.3761
  317MPD2     C 4761   1.821   0.815  12.383  0.4653  0.0051 -0.4268
  317MPD2    C1 4762   1.774   0.692  12.416 -0.3137 -0.3542 -0.1995
  317MPD2    C2 4763   1.832   0.617  12.520 -0.8140  0.1289 -0.1000
  317MPD2    C3 4764   1.940   0.675  12.591 -0.1179 -0.7300  0.4347
  317MPD2    C4 4765   1.979   0.805  12.561 -0.4967  0.6327  0.4648
  317MPD2    C5 4766   1.910   0.878  12.464  0.2369 -0.7530 -0.4162
  317MPD2     H 4767   1.789   0.520  12.540  0.9269 -0.4301  0.9777
  317MPD2    H1 4768   2.060   0.853  12.614 -0.9581  0.2129  1.5626
  317MPD2    H2 4769   1.770   0.878  12.311  0.8088 -0.2249 -0.8712
  317MPD2    H3 4770   1.951   0.973  12.432  1.1957 -0.8640  0.4720
  317MPD2     N 4771   2.002   0.601  12.699  0.0572 -0.6090 -0.4322
  317MPD2    H5 4772   1.973   0.507  12.725  0.1808 -0.6091 -0.2968
  317MPD2    N1 4773   1.663   0.635  12.349  0.0898  0.5219 -0.6435
  317MPD2    H7 4774   1.636   0.542  12.381  0.1767  0.9219  0.5981
  318TMC3    C1 4775   2.182   0.531  12.829 -0.2668 -0.5166 -0.7211
  318TMC3    C2 4776   2.100   0.481  12.924  0.0934  0.3861  0.3669
  318TMC3    C3 4777   2.156   0.402  13.015  0.1270 -0.3332 -0.3254
  318TMC3    C4 4778   2.318   0.506  12.824  0.1032 -0.4684 -0.6616
  318TMC3    C5 4779   2.375   0.438  12.921  0.2543  0.6665 -0.1649
  318TMC3    C6 4780   2.294   0.391  13.028  0.8332 -0.5273  0.3754
  318TMC3     C 4781   2.132   0.632  12.738 -0.2423 -0.2332 -0.1174
  318TMC3     O 4782   2.209   0.722  12.701  0.2106 -0.3485  0.3977
  318TMC3     H 4783   1.995   0.510  12.918  0.7290  2.1548 -2.3873
  318TMC3    H1 4784   2.371   0.539  12.736 -0.1714  0.6308 -0.4225
  318TMC3    H2 4785   2.332   0.344  13.117  0.7733  0.2366  0.7999
  318TMC3    C7 4786   2.521   0.441  12.915  0.0674 -0.4432  0.3621
  318TMC3    C8 4787   2.079   0.318  13.104 -0.2966 -0.5059  0.1472
  318TMC3    O1 4788   2.575   0.501  12.825 -0.0614 -0.0641  0.8266
  318TMC3    O2 4789   2.134   0.259  13.199 -0.6426  0.2801  0.4967
  319MPD2     C 4790   2.685   1.703  16.468  0.6709 -0.5105  0.5407
  319MPD2    C1 4791   2.579   1.651  16.540 -0.3566 -0.0963  0.4571
  319MPD2    C2 4792   2.471   1.601  16.469  0.3498 -0.0908 -0.1936
  319MPD2    C3 4793   2.455   1.611  16.327  0.9414  0.4849  0.5482
  319MPD2    C4 4794   2.559   1.677  16.263 -0.1992  0.8323  0.2087
  319MPD2    C5 4795   2.675   1.707  16.331  0.2054  0.4029 -0.0997
  319MPD2     H 4796   2.396   1.548  16.528  2.0421 -0.6356  1.4481
  319MPD2    H1 4797   2.550   1.701  16.158 -0.2255  2.1393  0.5023
  319MPD2    H2 4798   2.777   1.741  16.512 -0.9115  1.2342  2.3834
  319MPD2    H3 4799   2.755   1.735  16.264  1.4194  1.5416  1.8218
  319MPD2     N 4800   2.332   1.578  16.259  0.3136  0.0808  0.2723
  319MPD2    H5 4801   2.323   1.611  16.163 -0.9479  0.8897  0.6665
  319MPD2    N1 4802   2.578   1.642  16.680 -0.5343  0.1221 -0.0993
  319MPD2    H7 4803   2.507   1.583  16.723 -3.0708  2.2448 -1.3905
  320TMC3    C1 4804   2.129   1.509  16.205  0.6403 -0.5782 -0.2072
  320TMC3    C2 4805   2.108   1.623  16.132 -0.2079  0.3526  0.0227
  320TMC3    C3 4806   1.998   1.631  16.056 -0.4179 -0.0904 -0.3731
  320TMC3    C4 4807   2.035   1.408  16.213  0.0579 -0.8862  0.2588
  320TMC3    C5 4808   1.928   1.415  16.121  0.4319  0.0801  1.4405
  320TMC3    C6 4809   1.907   1.529  16.046  0.0185  0.5774 -0.5574
  320TMC3     C 4810   2.229   1.503  16.305  0.2692  0.0269 -0.0192
  320TMC3     O 4811   2.212   1.442  16.412  0.2210 -0.4049  0.4242
  320TMC3     H 4812   2.167   1.714  16.137 -0.8756  0.6913  1.6109
  320TMC3    H1 4813   2.064   1.328  16.279  1.7833  1.2050  2.0541
  320TMC3    H2 4814   1.823   1.530  15.977 -0.3460 -1.4592 -0.1618
  320TMC3    C7 4815   1.855   1.293  16.069  0.3602 -0.9628 -0.0104
  320TMC3    C8 4816   1.973   1.758  15.996  0.2901 -0.3074  0.8662
  320TMC3    O1 4817   1.773   1.320  15.982  0.0573  0.2098 -0.5998
  320TMC3    O2 4818   2.066   1.842  15.998  0.1258 -0.0209 -0.6826
  321TMC3    C1 4819   2.628   1.679  16.901 -0.1160 -0.2502  0.5396
  321TMC3    C2 4820   2.530   1.582  16.928  0.2547 -0.0599 -0.3142
  321TMC3    C3 4821   2.482   1.584  17.056 -0.0768  0.3095 -0.2157
  321TMC3    C4 4822   2.674   1.785  16.990 -0.3279  0.1983 -0.2793
  321TMC3    C5 4823   2.601   1.791  17.110  1.2847  0.8598 -0.2611
  321TMC3    C6 4824   2.505   1.694  17.142 -0.2736  0.0205  0.3084
  321TMC3     C 4825   2.657   1.707  16.766 -0.5472  0.7344  0.2277
  321TMC3     O 4826   2.718   1.810  16.734 -0.1330 -0.5603 -0.0903
  321TMC3     H 4827   2.516   1.502  16.856  1.4086 -2.6339  2.2892
  321TMC3    H1 4828   2.754   1.853  16.965  2.4963 -2.8895  0.4595
  321TMC3    H2 4829   2.455   1.702  17.237 -0.1322  1.2373  0.2751
  321TMC3    C7 4830   2.682   1.807  17.229  0.4066  0.1234 -0.5574
  321TMC3    C8 4831   2.509   1.454  17.115 -0.1652 -0.0747  0.4509
  321TMC3    O1 4832   2.654   1.722  17.314 -0.0572 -0.0610 -0.2806
  321TMC3    O2 4833   2.482   1.351  17.050 -0.3321 -0.0653  0.3174
  322MPD2     C 4834   1.223   3.413  13.695 -0.1735  0.1045  0.9408
  322MPD2    C1 4835   1.234   3.390  13.829  0.3265 -0.6829 -0.2087
  322MPD2    C2 4836   1.220   3.260  13.870 -1.1089  0.9229 -0.5698
  322MPD2    C3 4837   1.226   3.155  13.782  0.2400 -0.2755  0.7124
  322MPD2    C4 4838   1.213   3.181  13.645  0.3987  0.1622 -0.2491
  322MPD2    C5 4839   1.209   3.312  13.606  0.4092  0.4918  0.5963
  322MPD2     H 4840   1.234   3.236  13.975 -2.2430  0.2341 -0.5732
  322MPD2    H1 4841   1.224   3.107  13.567  2.7791  0.5120 -0.2415
  322MPD2    H2 4842   1.221   3.517  13.663  2.8918  0.5196  2.1439
  322MPD2    H3 4843   1.192   3.330  13.500 -0.6620 -1.2843  0.4568
  322MPD2     N 4844   1.240   3.030  13.837  0.6288 -0.5263 -0.0179
  322MPD2    H5 4845   1.264   3.024  13.935  1.0883 -0.9736 -0.1639
  322MPD2    N1 4846   1.269   3.494  13.915 -0.2420 -0.2921 -0.2240
  322MPD2    H7 4847   1.307   3.578  13.873 -0.0744 -0.2755 -0.0410
  323TMC3    C1 4848   1.360   3.572  14.114  0.2023  0.2448  0.2045
  323TMC3    C2 4849   1.472   3.614  14.040 -0.5749  0.1583 -0.1689
  323TMC3    C3 4850   1.593   3.621  14.100  0.7390  0.4680 -0.1814
  323TMC3    C4 4851   1.372   3.556  14.248 -0.2999  0.3239 -0.0737
  323TMC3    C5 4852   1.499   3.571  14.303 -0.3945  0.2479 -0.0439
  323TMC3    C6 4853   1.613   3.598  14.234  0.2674 -0.2707 -0.3602
  323TMC3     C 4854   1.267   3.479  14.052 -0.3505  0.1557 -0.0666
  323TMC3     O 4855   1.210   3.395  14.119  0.9355  0.0273  0.1459
  323TMC3     H 4856   1.472   3.653  13.938 -2.4413  1.9638  0.5204
  323TMC3    H1 4857   1.286   3.533  14.310  0.9792  0.5373  1.7772
  323TMC3    H2 4858   1.710   3.578  14.278  1.0424 -1.1375 -2.4816
  323TMC3    C7 4859   1.515   3.500  14.420 -0.0164 -0.8318 -0.7198
  323TMC3    C8 4860   1.715   3.653  14.023  0.6434 -0.2091  0.3193
  323TMC3    O1 4861   1.445   3.400  14.433  0.0436  0.5086 -0.6798
  323TMC3    O2 4862   1.816   3.652  14.092 -0.0100 -0.1915  0.7093
  324MPD2     C 4863   3.048   4.209  14.228  0.3228  0.1638 -0.8881
  324MPD2    C1 4864   3.066   4.341  14.200  0.2477  0.3963 -0.3154
  324MPD2    C2 4865   2.950   4.423  14.187 -0.3783 -0.5556  1.0426
  324MPD2    C3 4866   2.826   4.365  14.196 -1.5365 -0.3476  0.6510
  324MPD2    C4 4867   2.820   4.231  14.227  0.0599 -0.3212  0.6335
  324MPD2    C5 4868   2.921   4.149  14.238 -0.5477  0.2964  0.0154
  324MPD2     H 4869   2.957   4.531  14.182 -0.9708 -0.6149 -1.1305
  324MPD2    H1 4870   2.720   4.188  14.236  0.0868 -0.3691  0.7076
  324MPD2    H2 4871   3.130   4.143  14.252 -0.3390 -0.3124  0.0738
  324MPD2    H3 4872   2.905   4.045  14.265  1.8135 -0.4765 -1.6074
  324MPD2     N 4873   2.702   4.436  14.205 -0.7730 -0.1870  0.0655
  324MPD2    H5 4874   2.621   4.388  14.244 -0.4087 -1.1030 -0.3122
  324MPD2    N1 4875   3.193   4.401  14.205  0.3686 -0.4280  0.5149
  324MPD2    H7 4876   3.184   4.501  14.192  0.0266 -0.4081  0.8991
  325TMC3    C1 4877   2.544   4.593  14.143 -0.2287 -1.3308  0.0843
  325TMC3    C2 4878   2.461   4.488  14.127  0.2134 -0.2344 -0.0589
  325TMC3    C3 4879   2.335   4.516  14.084 -0.2911  0.2992  0.0862
  325TMC3    C4 4880   2.509   0.005  14.125  0.3394  0.0256 -0.5656
  325TMC3    C5 4881   2.377   0.019  14.076  0.0563  0.9965  0.8424
  325TMC3    C6 4882   2.283   4.642  14.069 -1.3661  0.4140  0.6739
  325TMC3     C 4883   2.682   4.562  14.156  0.0247 -0.1452  0.1535
  325TMC3     O 4884   2.757   4.641  14.105  0.3444  0.0810  0.1005
  325TMC3     H 4885   2.498   4.386  14.135  0.0993 -0.3081 -0.4941
  325TMC3    H1 4886   2.574   0.091  14.136  0.9400 -0.3322 -1.3839
  325TMC3    H2 4887   2.187   4.663  14.024 -0.2704  2.0030 -0.9161
  325TMC3    C7 4888   2.353   0.155  14.023 -0.6167  0.6753 -0.5140
  325TMC3    C8 4889   2.261   4.401  14.046 -0.1261 -0.5930  0.2421
  325TMC3    O1 4890   2.448   0.227  14.045 -0.5682 -0.1497  0.1772
  325TMC3    O2 4891   2.314   4.293  14.027 -0.6515 -0.2358 -0.5786
  326MPD2     C 4892   4.510   0.865  11.323 -0.1569  0.8682 -0.1939
  326MPD2    C1 4893   4.453   0.915  11.211  0.1554  0.3267  0.1405
  326MPD2    C2 4894   4.522   1.018  11.149 -0.3535  1.0998  0.0566
  326MPD2    C3 4895   4.642   1.080  11.193 -0.4485 -0.1874 -0.7050
  326MPD2    C4 4896   4.697   1.023  11.308 -0.2616 -0.2252  0.6944
  326MPD2    C5 4897   4.622   0.925  11.371  0.3643 -0.7353 -0.3139
  326MPD2     H 4898   4.472   1.055  11.060 -1.2753 -2.5655 -0.9548
  326MPD2    H1 4899   0.072   1.047  11.345  0.7834 -1.5714 -1.2385
  326MPD2    H2 4900   4.469   0.775  11.368  0.0127 -0.5203 -2.7684
  326MPD2    H3 4901   4.652   0.893  11.470  0.0079  1.2986  0.4311
  326MPD2     N 4902   4.710   1.184  11.123 -0.0691 -0.7615  0.4403
  326MPD2    H5 4903   0.077   1.207  11.162 -0.4911  0.1393  0.8997
  326MPD2    N1 4904   4.334   0.872  11.156  0.2916  0.2574  0.0719
  326MPD2    H7 4905   4.293   0.920  11.077  1.1206 -0.1864 -0.6237
  327TMC3    C1 4906   4.146   0.768  11.122  0.5628 -0.5423  0.0010
  327TMC3    C2 4907   4.083   0.888  11.103  0.2140  0.1688 -1.1779
  327TMC3    C3 4908   4.057   0.936  10.979 -0.8337 -0.1301 -0.3648
  327TMC3    C4 4909   4.185   0.697  11.013 -0.1471  0.3803  0.2195
  327TMC3    C5 4910   4.152   0.745  10.885 -0.2610  0.0590 -1.7400
  327TMC3    C6 4911   4.078   0.859  10.865 -0.1503 -0.1289  0.2171
  327TMC3     C 4912   4.257   0.774  11.212 -0.0826 -0.1112 -0.4284
  327TMC3     O 4913   4.274   0.689  11.299  0.1211  0.0368  0.1706
  327TMC3     H 4914   4.053   0.916  11.203  0.4746  0.1290 -1.0876
  327TMC3    H1 4915   4.245   0.608  11.026 -0.4268 -0.2588 -2.9477
  327TMC3    H2 4916   4.064   0.916  10.774  0.3213 -0.7004 -0.2081
  327TMC3    C7 4917   4.258   0.721  10.789 -0.0832 -0.5841  0.4845
  327TMC3    C8 4918   3.984   1.064  10.958  0.1118  0.1029 -0.2921
  327TMC3    O1 4919   4.234   0.756  10.678  0.4112 -0.5807  0.2571
  327TMC3    O2 4920   3.911   1.075  10.859 -0.2271  0.1839 -0.1202
  328MPD2     C 4921   2.085   0.693  16.879  0.1593  0.3710  0.2101
  328MPD2    C1 4922   1.954   0.703  16.866 -0.4172  0.0593  0.4848
  328MPD2    C2 4923   1.894   0.826  16.844 -0.0573  0.5979  0.0200
  328MPD2    C3 4924   1.970   0.939  16.818  0.1992  0.8671 -0.0175
  328MPD2    C4 4925   2.108   0.919  16.814  0.1257 -0.3274  0.2575
  328MPD2    C5 4926   2.171   0.807  16.858 -0.0770  0.6542  0.0600
  328MPD2     H 4927   1.786   0.823  16.853 -0.1015  1.0385 -0.4004
  328MPD2    H1 4928   2.172   1.004  16.792  2.1995 -1.5794  1.4077
  328MPD2    H2 4929   2.137   0.600  16.900  0.0070  0.9996  3.2492
  328MPD2    H3 4930   2.278   0.803  16.875 -0.2019  2.1837  1.2570
  328MPD2     N 4931   1.915   1.068  16.772  0.5190 -0.5621  0.3324
  328MPD2    H5 4932   1.980   1.143  16.751  0.9747 -0.6827  1.2824
  328MPD2    N1 4933   1.877   0.582  16.888  0.0723 -0.0072 -0.2820
  328MPD2    H7 4934   1.925   0.496  16.914  1.0641  0.4165 -0.7046
  329TMC3    C1 4935   1.689   0.438  16.936 -0.3222 -0.1372 -0.3564
  329TMC3    C2 4936   1.738   0.402  17.056  0.4247 -0.0465 -1.0753
  329TMC3    C3 4937   1.649   0.351  17.148 -0.5498  0.3187 -0.0980
  329TMC3    C4 4938   1.573   0.382  16.888 -0.1360  0.2888  0.4104
  329TMC3    C5 4939   1.492   0.325  16.980  0.0151  0.9472 -0.4377
  329TMC3    C6 4940   1.522   0.319  17.109  0.2556  0.4138  0.7366
  329TMC3     C 4941   1.741   0.565  16.879 -1.1483 -0.2954 -0.2547
  329TMC3     O 4942   1.648   0.625  16.827 -0.3564  0.1540  0.4044
  329TMC3     H 4943   1.829   0.439  17.100  1.5942 -1.4181 -2.3520
  329TMC3    H1 4944   1.538   0.387  16.786  0.6491 -3.5295 -0.0331
  329TMC3    H2 4945   1.453   0.276  17.181  0.5781 -1.4009 -0.0527
  329TMC3    C7 4946   1.354   0.358  16.940  0.2224  0.5516  0.0325
  329TMC3    C8 4947   1.691   0.331  17.283 -0.5484  0.7426 -0.2436
  329TMC3    O1 4948   1.318   0.331  16.828 -0.2266 -0.0539 -0.3713
  329TMC3    O2 4949   1.807   0.297  17.295 -0.0911  0.1080  0.6536
  330TMC3    C1 4950   0.288   0.591   9.518 -0.4200 -0.6140 -0.2176
  330TMC3    C2 4951   0.208   0.522   9.430  0.0692 -0.3116  0.4028
  330TMC3    C3 4952   0.235   0.385   9.427  0.1699 -0.0586  0.7497
  330TMC3    C4 4953   0.392   0.532   9.594 -0.7880  0.0657  1.2717
  330TMC3    C5 4954   0.411   0.398   9.580 -0.8488  0.6374  0.4398
  330TMC3    C6 4955   0.335   0.328   9.494  0.1003 -1.3003  0.0371
  330TMC3     C 4956   0.261   0.738   9.545 -0.7742  0.1052  0.1484
  330TMC3     O 4957   0.332   0.803   9.624  0.1534 -0.1376  0.2054
  330TMC3     H 4958   0.126   0.571   9.379 -0.8886  0.4623  2.7017
  330TMC3    H1 4959   0.432   0.586   9.680  1.6857 -0.7287  0.6329
  330TMC3    H2 4960   0.352   0.221   9.491  2.0184 -1.0575  2.2180
  330TMC3    C7 4961   0.445   0.325   9.700  0.1963  0.6328 -0.0843
  330TMC3    C8 4962   0.133   0.307   9.359  0.4853 -0.4916 -0.2303
  330TMC3    O1 4963   0.374   0.227   9.724  0.3863  0.1433 -0.1196
  330TMC3    O2 4964   0.071   0.365   9.274  0.6819  0.2174 -0.7671
  331MPD2     C 4965   2.522   3.811  12.416  0.4378  0.2492 -0.5027
  331MPD2    C1 4966   2.615   3.854  12.328 -0.0822 -0.2031  0.0313
  331MPD2    C2 4967   2.668   3.763  12.234 -0.7678 -0.1941 -0.1141
  331MPD2    C3 4968   2.634   3.632  12.234 -0.5444 -0.0650  1.1329
  331MPD2    C4 4969   2.554   3.588  12.333 -1.1144 -0.0281  0.2076
  331MPD2    C5 4970   2.493   3.672  12.419 -0.2256  0.1541 -0.1080
  331MPD2     H 4971   2.721   3.803  12.149 -1.1869  2.6716  0.9510
  331MPD2    H1 4972   2.521   3.485  12.337 -2.0324  0.2994  1.2112
  331MPD2    H2 4973   2.472   3.877  12.486 -0.5288 -0.8440 -0.1637
  331MPD2    H3 4974   2.427   3.639  12.498 -0.6371  2.2653  0.4337
  331MPD2     N 4975   2.686   3.535  12.142 -0.0947  0.0540  0.3085
  331MPD2    H5 4976   2.664   3.438  12.165  1.7720 -0.3233  0.5136
  331MPD2    N1 4977   2.660   3.983  12.326  0.3470  0.1270 -0.0626
  331MPD2    H7 4978   2.727   4.003  12.252 -0.0580 -0.5970 -0.6257
  332TMC3    C1 4979   2.879   3.451  12.028  1.0034 -0.0707  0.6808
  332TMC3    C2 4980   2.962   3.477  11.919  0.1224  0.5205  0.7907
  332TMC3    C3 4981   3.093   3.467  11.951 -0.0600 -0.3163  0.3225
  332TMC3    C4 4982   2.918   3.384  12.139 -1.5151  0.1264 -0.2934
  332TMC3    C5 4983   3.052   3.369  12.157 -0.0884 -0.2828  0.7526
  332TMC3    C6 4984   3.143   3.414  12.064  0.3455  0.6040 -0.1116
  332TMC3     C 4985   2.785   3.557  12.047  0.6390  0.3670 -0.1798
  332TMC3     O 4986   2.826   3.662  12.000 -0.7102  1.0207 -0.1340
  332TMC3     H 4987   2.917   3.531  11.837  1.1083  1.7798  1.0803
  332TMC3    H1 4988   2.851   3.368  12.223 -0.3089 -0.7478  0.4949
  332TMC3    H2 4989   3.251   3.414  12.073  0.1732  2.2469  1.9551
  332TMC3    C7 4990   3.083   3.341  12.295 -0.1658  0.5030  0.2641
  332TMC3    C8 4991   3.191   3.534  11.869  0.3980  0.0039 -0.7613
  332TMC3    O1 4992   3.002   3.278  12.356 -0.0581  0.2819 -0.0547
  332TMC3    O2 4993   3.299   3.558  11.918  0.3630  0.1728  0.0705
  333MPD2     C 4994   3.266   4.407  11.064 -0.5479 -0.4428 -0.4655
  333MPD2    C1 4995   3.297   4.301  10.978 -0.2083 -0.2793 -0.0444
  333MPD2    C2 4996   3.214   4.193  10.995 -0.9773  0.7137  0.3559
  333MPD2    C3 4997   3.130   4.176  11.102  0.3593 -0.8585 -0.9449
  333MPD2    C4 4998   3.123   4.273  11.198 -0.1464 -0.0326  0.8858
  333MPD2    C5 4999   3.191   4.389  11.175  0.5232 -0.1135 -0.0884
  333MPD2     H 5000   3.213   4.109  10.926 -1.6197 -0.3940  1.7166
  333MPD2    H1 5001   3.049   4.273  11.278 -0.6243 -0.4480  0.4443
  333MPD2    H2 5002   3.330   4.493  11.048 -0.1787 -0.7936 -0.9106
  333MPD2    H3 5003   3.178   4.477  11.237  1.5371 -1.3767  1.9177
  333MPD2     N 5004   3.051   4.061  11.104  0.3562 -0.2680  0.3441
  333MPD2    H5 5005   3.051   4.003  11.021  0.0289  2.5814 -1.6390
  333MPD2    N1 5006   3.394   4.305  10.873 -0.2556  0.7472  0.1630
  333MPD2    H7 5007   3.434   4.395  10.847  0.4102  0.5692  0.5798
  334TMC3    C1 5008   3.517   4.211  10.699  0.0980  0.4777 -0.0041
  334TMC3    C2 5009   3.631   4.132  10.688 -0.0239 -0.3491  1.2039
  334TMC3    C3 5010   3.750   4.202  10.679 -0.2366  0.3549  0.3739
  334TMC3    C4 5011   3.525   4.341  10.653  0.1593  0.0360 -0.2347
  334TMC3    C5 5012   3.647   4.396  10.621  0.0551  0.0665 -0.5856
  334TMC3    C6 5013   3.761   4.326  10.632 -0.0308  0.0075  0.0309
  334TMC3     C 5014   3.437   4.185  10.813 -0.1917  1.0646 -0.1350
  334TMC3     O 5015   3.415   4.068  10.850  0.2745  0.3854 -0.0674
  334TMC3     H 5016   3.632   4.028  10.721  1.8691 -0.9522 -0.8103
  334TMC3    H1 5017   3.439   4.406  10.657 -0.6967 -1.0156 -1.5011
  334TMC3    H2 5018   3.853   4.380  10.615 -0.6176  0.7765 -0.7272
  334TMC3    C7 5019   3.667   4.521  10.557 -0.2854  0.2381  1.0613
  334TMC3    C8 5020   3.858   4.112  10.654  0.0450  0.0159 -0.4203
  334TMC3    O1 5021   3.776   4.571  10.580 -0.3785  0.0522 -0.0632
  334TMC3    O2 5022   3.824   3.999  10.623  0.1045 -0.0270 -0.9302
  335TMC3    C1 5023   2.875   0.443  17.578 -0.2361  0.1394 -0.2469
  335TMC3    C2 5024   2.746   0.458  17.530 -0.1538  0.3790  0.1396
  335TMC3    C3 5025   2.730   0.518  17.411  0.1965 -0.1056 -0.6337
  335TMC3    C4 5026   2.986   0.488  17.510  0.0062 -0.1126 -0.0603
  335TMC3    C5 5027   2.969   0.543  17.388  0.2446  0.2486  0.2888
  335TMC3    C6 5028   2.842   0.559  17.337  0.5052  0.2038 -0.9166
  335TMC3     C 5029   2.877   0.454   0.025 -0.4815 -0.6972 -0.2754
  335TMC3     O 5030   2.770   0.474   0.083  0.2297  0.4087 -0.0439
  335TMC3     H 5031   2.662   0.424  17.588 -2.8237  3.1560 -2.1077
  335TMC3    H1 5032   3.083   0.456  17.548  0.0179 -1.3610 -1.1441
  335TMC3    H2 5033   2.833   0.605  17.239 -0.5910 -0.3829 -1.0894
  335TMC3    C7 5034   3.076   0.568  17.292 -0.1837 -0.1738  0.5516
  335TMC3    C8 5035   2.604   0.573  17.362 -0.4950 -0.7567 -0.0602
  335TMC3    O1 5036   3.052   0.572  17.171 -0.0600 -0.8791  0.0503
  335TMC3    O2 5037   2.607   0.682  17.305  0.4002  0.5404 -0.0477
  336MPD2     C 5038   2.389   2.824  16.501  0.1732 -0.3888  0.0475
  336MPD2    C1 5039   2.404   2.832  16.364  0.4728  0.0778  0.2911
  336MPD2    C2 5040   2.407   2.718  16.289 -0.4991 -0.2251  0.6144
  336MPD2    C3 5041   2.415   2.588  16.353 -0.0943  0.5491 -0.2393
  336MPD2    C4 5042   2.406   2.582  16.491 -0.1311 -0.4012 -1.0844
  336MPD2    C5 5043   2.390   2.697  16.565 -0.5705 -0.3106 -0.1578
  336MPD2     H 5044   2.431   2.730  16.184  0.4147 -1.1902  0.7146
  336MPD2    H1 5045   2.406   2.489  16.546 -0.1009 -0.7450 -1.6655
  336MPD2    H2 5046   2.382   2.909  16.569  0.9717  0.8610 -1.4180
  336MPD2    H3 5047   2.369   2.691  16.671  1.2064 -0.4607  0.1829
  336MPD2     N 5048   2.422   2.465  16.284 -0.2252 -0.0155 -0.4206
  336MPD2    H5 5049   2.428   2.377  16.335  1.4906  0.3695  0.0386
  336MPD2    N1 5050   2.405   2.960  16.298 -0.2448  0.4089  0.4127
  336MPD2    H7 5051   2.432   2.962  16.200  1.6948 -0.8702  0.9181
  337TMC3    C1 5052   2.415   3.186  16.279  0.6638  0.0886  0.5775
  337TMC3    C2 5053   2.304   3.267  16.251  1.0728  0.4529  0.0785
  337TMC3    C3 5054   2.280   3.313  16.119 -0.0786 -0.1658  0.5758
  337TMC3    C4 5055   2.501   3.158  16.179  0.0797  0.3075  0.2311
  337TMC3    C5 5056   2.486   3.208  16.055 -0.8735  0.7422  0.0400
  337TMC3    C6 5057   2.383   3.297  16.027 -0.0150 -0.0412 -0.3662
  337TMC3     C 5058   2.380   3.077  16.365 -0.1684  0.0171  0.0438
  337TMC3     O 5059   2.329   3.107  16.472 -0.0050  0.0018  0.3265
  337TMC3     H 5060   2.229   3.272  16.330 -1.7910  0.7793 -2.6924
  337TMC3    H1 5061   2.578   3.085  16.199  1.7270  1.3855 -2.1123
  337TMC3    H2 5062   2.366   3.324  15.923 -0.1653  0.5741 -0.1806
  337TMC3    C7 5063   2.585   3.188  15.948 -0.4658 -0.1906 -0.4796
  337TMC3    C8 5064   2.158   3.387  16.097 -0.2870  0.5737  0.4444
  337TMC3    O1 5065   2.566   3.245  15.842  0.1748 -0.2381  0.5447
  337TMC3    O2 5066   2.113   3.440  16.199 -0.5790  0.7759  0.0533
  338MPD2     C 5067   3.085   2.630   1.053  0.0746  0.2428 -0.2287
  338MPD2    C1 5068   3.009   2.619   0.939  0.5693  0.7737  0.3258
  338MPD2    C2 5069   2.877   2.659   0.935 -0.6165  0.2719 -0.1103
  338MPD2    C3 5070   2.817   2.701   1.050  0.2244  0.2755  0.4159
  338MPD2    C4 5071   2.892   2.710   1.165  0.4049 -0.4111  0.5073
  338MPD2    C5 5072   3.027   2.676   1.171  0.2343 -0.2482 -0.3785
  338MPD2     H 5073   2.815   2.643   0.848  0.3253 -1.1320 -0.5355
  338MPD2    H1 5074   2.850   2.748   1.258 -0.1817 -0.0721  0.1016
  338MPD2    H2 5075   3.189   2.598   1.060  0.7519  2.7827  1.4513
  338MPD2    H3 5076   3.080   2.689   1.265 -1.9826 -0.5695  0.9465
  338MPD2     N 5077   2.677   2.724   1.044  0.0524 -0.0951  0.0234
  338MPD2    H5 5078   2.630   2.701   0.957  1.2623  1.7154 -1.1179
  338MPD2    N1 5079   3.058   2.565   0.814 -0.5762  0.7432 -0.5826
  338MPD2    H7 5080   2.990   2.561   0.739 -2.7434 -1.0797  1.4584
  339TMC3    C1 5081   2.471   2.781   1.121 -0.0221 -0.6662 -0.5106
  339TMC3    C2 5082   2.372   2.747   1.207  0.1948  0.4580 -0.1472
  339TMC3    C3 5083   2.243   2.740   1.159 -0.1064  0.2866 -0.8472
  339TMC3    C4 5084   2.444   2.807   0.991 -0.8479  0.1343  0.1333
  339TMC3    C5 5085   2.316   2.793   0.947  0.0305 -0.2136  0.0648
  339TMC3    C6 5086   2.220   2.748   1.028  1.2680  0.3417  0.3524
  339TMC3     C 5087   2.604   2.740   1.158 -0.7916  0.3034 -0.6579
  339TMC3     O 5088   2.629   2.713   1.275 -0.7598 -0.1980 -0.0244
  339TMC3     H 5089   2.392   2.729   1.312  0.0715  1.6721  0.0821
  339TMC3    H1 5090   2.521   2.858   0.933 -1.0969  1.1502  0.7018
  339TMC3    H2 5091   2.117   2.734   0.999  1.7101  1.0132 -1.5538
  339TMC3    C7 5092   2.290   2.824   0.808 -0.4559  0.4300 -0.0933
  339TMC3    C8 5093   2.122   2.708   1.239  0.6135 -0.1527 -0.1585
  339TMC3    O1 5094   2.382   2.835   0.728 -0.0897 -0.2592 -0.2328
  339TMC3    O2 5095   2.021   2.767   1.193  0.3818  0.2149  0.2778
  340MPD2     C 5096   3.237   0.898   9.952 -0.1527  0.1466 -0.3023
  340MPD2    C1 5097   3.230   0.768   9.920  0.3950 -0.1131  0.8976
  340MPD2    C2 5098   3.342   0.682   9.941  0.3055 -0.0408 -0.5558
  340MPD2    C3 5099   3.455   0.736   9.997  0.3699 -0.0383  0.7309
  340MPD2    C4 5100   3.462   0.871  10.022 -0.6354 -0.7483 -0.4124
  340MPD2    C5 5101   3.358   0.950   9.999 -0.7184  0.5545 -0.5935
  340MPD2     H 5102   3.338   0.578   9.912 -2.4566  0.2618 -1.3587
  340MPD2    H1 5103   3.555   0.908  10.063 -0.4272 -0.4912 -1.1212
  340MPD2    H2 5104   3.149   0.960   9.942 -2.2713 -2.8083 -0.0448
  340MPD2    H3 5105   3.365   1.057  10.015 -0.2528  0.5060 -0.4908
  340MPD2     N 5106   3.575   0.661  10.020  0.4140  0.3464  0.2345
  340MPD2    H5 5107   3.659   0.712  10.042  0.4533  0.7393 -0.8194
  340MPD2    N1 5108   3.112   0.722   9.859  0.1717 -0.6005 -0.6685
  340MPD2    H7 5109   3.036   0.788   9.848  1.0532  0.4412 -0.5100
  341TMC3    C1 5110   2.954   0.599   9.745 -0.3285 -0.1090  0.0115
  341TMC3    C2 5111   2.922   0.472   9.712  0.2254  0.1744 -0.2651
  341TMC3    C3 5112   2.910   0.427   9.588 -0.0768 -0.1470 -0.9777
  341TMC3    C4 5113   2.970   0.679   9.634  0.0364  0.4493 -0.1155
  341TMC3    C5 5114   2.982   0.637   9.509 -0.0446  0.5412 -0.6006
  341TMC3    C6 5115   2.943   0.502   9.478 -0.6274 -0.5261 -0.4078
  341TMC3     C 5116   3.075   0.598   9.824 -0.8855  0.2361 -0.1987
  341TMC3     O 5117   3.137   0.495   9.841  0.3537 -0.5058 -0.0495
  341TMC3     H 5118   2.909   0.399   9.791 -2.9995 -1.6925 -2.5215
  341TMC3    H1 5119   2.985   0.786   9.643 -1.7890  0.8924 -2.3872
  341TMC3    H2 5120   2.940   0.458   9.379  2.7433 -0.0393 -0.7218
  341TMC3    C7 5121   3.110   0.665   9.443  0.0442  0.8425 -0.4488
  341TMC3    C8 5122   2.843   0.294   9.581 -0.7103 -0.1662 -0.4314
  341TMC3    O1 5123   3.149   0.575   9.371  0.0932  0.1738 -0.1444
  341TMC3    O2 5124   2.847   0.218   9.679  0.8838 -0.0119  0.0592
  342MPD2     C 5125   0.908   3.555  16.688  0.2653 -0.4544 -0.0751
  342MPD2    C1 5126   0.928   3.587  16.818  0.0284 -0.7472 -0.6224
  342MPD2    C2 5127   0.897   3.715  16.863  0.1623 -0.1858 -0.0218
  342MPD2    C3 5128   0.849   3.815  16.776  0.1892  0.6274 -0.3173
  342MPD2    C4 5129   0.827   3.782  16.640  0.2186 -0.0154 -0.4641
  342MPD2    C5 5130   0.856   3.650  16.608  0.8956 -0.1466 -0.7134
  342MPD2     H 5131   0.912   3.730  16.969  0.5056 -0.0536 -0.0882
  342MPD2    H1 5132   0.797   3.842  16.555  0.7265 -1.8919 -1.9844
  342MPD2    H2 5133   0.927   3.463  16.633  1.8165 -0.3456  0.2927
  342MPD2    H3 5134   0.831   3.621  16.506  0.3566 -1.7551 -0.1181
  342MPD2     N 5135   0.805   3.942  16.816 -0.9737  0.3413 -0.0077
  342MPD2    H5 5136   0.769   4.007  16.747 -2.3896 -0.6575 -0.2265
  342MPD2    N1 5137   0.995   3.498  16.904  0.2668  0.0552 -0.4393
  342MPD2    H7 5138   0.997   3.530  17.000  3.5525 -2.1802  0.2157
  343TMC3    C1 5139   1.116   3.329  17.000 -0.6045 -0.2223 -0.2045
  343TMC3    C2 5140   1.225   3.240  16.991  0.0885  0.2185 -0.3479
  343TMC3    C3 5141   1.274   3.207  17.112 -0.1371 -0.0238 -0.7549
  343TMC3    C4 5142   1.064   3.382  17.118  0.0845 -0.0591 -0.1095
  343TMC3    C5 5143   1.104   3.330  17.236  0.8508  0.1905  0.1284
  343TMC3    C6 5144   1.217   3.248  17.235  0.4881 -0.1568  0.5202
  343TMC3     C 5145   1.059   3.381  16.879  0.4414 -0.1248 -1.2321
  343TMC3     O 5146   1.072   3.323  16.773  0.2104 -0.0971 -0.4668
  343TMC3     H 5147   1.284   3.216  16.903 -0.5206  1.5615 -1.1271
  343TMC3    H1 5148   0.969   3.433  17.126  1.5719  2.9650 -1.6589
  343TMC3    H2 5149   1.267   3.223  17.327 -1.4049 -3.0042  0.7796
  343TMC3    C7 5150   0.990   3.272  17.308  0.1254 -0.0117 -0.2316
  343TMC3    C8 5151   1.389   3.114  17.136 -0.5681  0.3572  0.0016
  343TMC3    O1 5152   0.871   3.283  17.269  0.1641 -0.2430  0.6377
  343TMC3    O2 5153   1.443   3.121  17.244  0.3001  0.1453  0.5231
  344MPD2     C 5154   2.204   3.245  10.571  0.3930 -0.2332 -0.4969
  344MPD2    C1 5155   2.071   3.270  10.532  0.3360 -0.6581  0.2064
  344MPD2    C2 5156   2.039   3.385  10.466 -0.4834  0.2119 -0.1212
  344MPD2    C3 5157   2.137   3.481  10.448 -0.3616  0.0527 -0.2760
  344MPD2    C4 5158   2.267   3.454  10.483  0.0493 -0.0667  0.5348
  344MPD2    C5 5159   2.300   3.339  10.541  0.3763 -0.1758 -0.5670
  344MPD2     H 5160   1.939   3.400  10.429 -0.7184  1.3028  0.9430
  344MPD2    H1 5161   2.346   3.524  10.457 -1.7681  2.2573  1.3368
  344MPD2    H2 5162   2.241   3.154  10.616 -1.3114 -0.1303  1.1113
  344MPD2    H3 5163   2.404   3.315  10.564 -0.3118 -0.6519  2.0691
  344MPD2     N 5164   2.109   3.602  10.388 -0.1420  0.5569 -0.2681
  344MPD2    H5 5165   2.186   3.669  10.396  0.7728 -0.2599 -2.4053
  344MPD2    N1 5166   1.963   3.177  10.560  0.3224  1.1944  0.0680
  344MPD2    H7 5167   1.869   3.200  10.531 -0.5293 -1.8811  0.4719
  345TMC3    C1 5168   2.017   3.785  10.290 -0.0265 -0.3971 -0.2545
  345TMC3    C2 5169   2.134   3.841  10.320 -0.2433  0.2484 -0.3694
  345TMC3    C3 5170   2.195   3.932  10.238 -0.5793  0.2790 -0.0913
  345TMC3    C4 5171   1.950   3.831  10.180 -0.6624 -0.0553 -0.3580
  345TMC3    C5 5172   2.016   3.916  10.091  0.5559  0.9806 -0.3628
  345TMC3    C6 5173   2.138   3.964  10.117 -0.0918 -0.3093  0.2135
  345TMC3     C 5174   1.993   3.645  10.324  0.3771 -0.5454  0.0480
  345TMC3     O 5175   1.885   3.587  10.305 -0.1232  0.8787 -0.3998
  345TMC3     H 5176   2.175   3.833  10.421  1.5049  2.7528 -0.8716
  345TMC3    H1 5177   1.858   3.781  10.148  0.7827 -1.9359 -1.5729
  345TMC3    H2 5178   2.180   4.046  10.059  0.3334 -0.2332  0.6238
  345TMC3    C7 5179   1.937   4.025  10.036 -0.1859  0.3533  0.7863
  345TMC3    C8 5180   2.264   4.035  10.308  0.1734  0.6389  0.4432
  345TMC3    O1 5181   1.986   4.139  10.034 -0.1686 -0.3786  0.0561
  345TMC3    O2 5182   2.267   4.026  10.430 -0.0584 -1.2241  0.4885
  346MPD2     C 5183   1.004   4.627  13.872 -0.7110  0.4221 -0.8387
  346MPD2    C1 5184   1.142   4.611  13.844 -0.2461  0.2739  0.5464
  346MPD2    C2 5185   1.224   4.723  13.848  0.1160 -0.5751 -0.5452
  346MPD2    C3 5186   1.177   0.122  13.880  0.0716 -0.0319  0.3881
  346MPD2    C4 5187   1.043   0.142  13.896 -0.0418 -0.2257 -0.5916
  346MPD2    C5 5188   0.961   0.034  13.901  0.7228  0.4296 -0.5261
  346MPD2     H 5189   1.328   4.695  13.835  0.1402  0.0170 -1.5495
  346MPD2    H1 5190   1.005   0.239  13.924  0.4096 -0.3041  0.2917
  346MPD2    H2 5191   0.927   4.551  13.870 -0.8525  0.4956  1.7462
  346MPD2    H3 5192   0.856   0.045  13.926  1.5477  0.7032  2.8038
  346MPD2     N 5193   1.281   0.217  13.900 -0.5364 -0.4780 -0.4988
  346MPD2    H5 5194   1.376   0.186  13.882 -0.2215  0.9846 -1.3388
  346MPD2    N1 5195   1.189   4.492  13.782 -0.2035 -0.1159  0.2312
  346MPD2    H7 5196   1.287   4.488  13.757  0.0979  1.4722  1.2175
  347TMC3    C1 5197   1.382   0.405  13.995 -0.0322 -0.6198 -0.0261
  347TMC3    C2 5198   1.498   0.385  13.918  0.0828  0.6393  0.0060
  347TMC3    C3 5199   1.615   0.444  13.970 -0.0839 -0.1428  0.4401
  347TMC3    C4 5200   1.376   0.476  14.104 -0.1761  0.6402  0.0461
  347TMC3    C5 5201   1.490   0.537  14.146  0.0506 -0.3257  0.0943
  347TMC3    C6 5202   1.614   0.527  14.079  0.3739 -0.1731 -0.2335
  347TMC3     C 5203   1.256   0.338  13.966  0.1699  0.2741  0.1432
  347TMC3     O 5204   1.155   0.390  14.008  0.0827 -0.2877  0.1161
  347TMC3     H 5205   1.490   0.337  13.822  1.2100 -1.6659  1.0449
  347TMC3    H1 5206   1.279   0.502  14.147 -0.7643 -0.9572 -0.3157
  347TMC3    H2 5207   1.696   0.585  14.120  2.0365 -1.5207 -1.6294
  347TMC3    C7 5208   1.481   0.614  14.263 -0.8828  0.3730  0.7849
  347TMC3    C8 5209   1.746   0.394  13.934 -0.3447  0.2576 -0.3291
  347TMC3    O1 5210   1.374   0.670  14.293 -0.0301 -0.1785  0.0043
  347TMC3    O2 5211   1.758   0.288  13.873  0.2412  0.0815 -0.6232
  348MPD2     C 5212   0.705   0.235  11.843 -0.0266  0.6128 -0.5765
  348MPD2    C1 5213   0.722   0.189  11.714 -0.3730  0.3352 -0.8445
  348MPD2    C2 5214   0.716   0.271  11.612  0.2875 -0.5923  0.1435
  348MPD2    C3 5215   0.679   0.398  11.632  0.3234  0.1769  0.1807
  348MPD2    C4 5216   0.660   0.448  11.756 -0.0541  0.1851 -0.5989
  348MPD2    C5 5217   0.681   0.371  11.858 -0.0393  0.5746 -0.3866
  348MPD2     H 5218   0.732   0.226  11.514 -0.9041  0.9140 -0.7474
  348MPD2    H1 5219   0.621   0.547  11.779 -1.4873 -0.6936  0.7447
  348MPD2    H2 5220   0.711   0.173  11.932  0.4333 -1.2512 -1.9127
  348MPD2    H3 5221   0.659   0.418  11.953  0.7062  2.3061 -1.0751
  348MPD2     N 5222   0.676   0.477  11.518 -0.5452 -0.0492  0.0249
  348MPD2    H5 5223   0.694   0.427  11.432  1.0538 -0.6552  0.7049
  348MPD2    N1 5224   0.735   0.046  11.690 -0.5218  0.2043 -0.0190
  348MPD2    H7 5225   0.767   0.018  11.598 -0.2818 -1.3571  0.5419
  349TMC3    C1 5226   0.740   4.543  11.725 -0.0890 -0.4504  0.2456
  349TMC3    C2 5227   0.744   4.442  11.816  0.0397  0.1479  0.5118
  349TMC3    C3 5228   0.747   4.310  11.771 -0.6621  0.4430 -0.3864
  349TMC3    C4 5229   0.716   4.519  11.591 -0.1611 -0.3079  0.1948
  349TMC3    C5 5230   0.710   4.384  11.556  1.1034  0.2739  0.1508
  349TMC3    C6 5231   0.709   4.281  11.645  0.6551 -0.4376  0.1105
  349TMC3     C 5232   0.702   4.672  11.778 -0.2388  0.7223  0.6008
  349TMC3     O 5233   0.649   4.681  11.887 -0.0744  0.3741  0.3619
  349TMC3     H 5234   0.760   4.454  11.923  1.9780 -0.8417  0.3463
  349TMC3    H1 5235   0.678   4.591  11.520  0.9543 -0.0891 -0.1911
  349TMC3    H2 5236   0.715   4.181  11.604  0.3616 -1.6677  3.1167
  349TMC3    C7 5237   0.630   4.362  11.442  0.3444  0.2572  1.1865
  349TMC3    C8 5238   0.794   4.204  11.860 -0.4922 -0.2073  0.0504
  349TMC3    O1 5239   0.529   4.292  11.451 -0.2050  0.5445  0.6338
  349TMC3    O2 5240   0.788   4.226  11.980  0.3400 -0.1514  0.0359
  350MPD2     C 5241   4.563   2.846   9.894  0.1072  0.5694 -0.1201
  350MPD2    C1 5242   4.626   2.724   9.919 -0.4029 -1.0708 -0.4034
  350MPD2    C2 5243   0.021   2.732   9.983  0.1394 -0.1951  0.1228
  350MPD2    C3 5244   0.073   2.858  10.017 -0.2799  0.6561 -0.3347
  350MPD2    C4 5245   0.005   2.976   9.992 -0.7461 -0.5483 -0.0999
  350MPD2    C5 5246   4.608   2.966   9.931  0.6857 -0.4736 -0.6473
  350MPD2     H 5247   0.087   2.647   9.997 -1.4289 -1.4560 -0.2140
  350MPD2    H1 5248   0.044   3.073  10.020  1.1267 -1.1818 -0.5359
  350MPD2    H2 5249   4.476   2.850   9.829 -1.3278  0.0328  1.7709
  350MPD2    H3 5250   4.556   3.054   9.893  0.6891 -0.1401  0.1133
  350MPD2     N 5251   0.201   2.856  10.092 -0.0703 -0.0307  0.2145
  350MPD2    H5 5252   0.222   2.762  10.126  1.2880 -0.2480 -1.2169
  350MPD2    N1 5253   4.568   2.589   9.908 -0.0399 -0.3013  0.1203
  350MPD2    H7 5254   4.629   2.511   9.930  0.5244  0.3592  0.9162
  351TMC3    C1 5255   4.399   2.427   9.890 -0.3350 -0.6062 -0.2129
  351TMC3    C2 5256   4.497   2.334   9.876  0.0631 -0.1304 -0.0918
  351TMC3    C3 5257   4.465   2.205   9.904  0.0611  0.1972 -0.2766
  351TMC3    C4 5258   4.271   2.404   9.914  0.3235  0.4218  0.9500
  351TMC3    C5 5259   4.238   2.272   9.922  0.8150 -0.3024  0.1500
  351TMC3    C6 5260   4.331   2.168   9.925  0.4945  0.8619  0.3245
  351TMC3     C 5261   4.437   2.566   9.880 -1.1972  0.3416  0.6145
  351TMC3     O 5262   4.346   2.648   9.874 -0.0567 -0.1274  0.6190
  351TMC3     H 5263   4.596   2.361   9.842  0.8796 -1.7505  0.9983
  351TMC3    H1 5264   4.192   2.478   9.911  0.6489  0.6852 -0.6379
  351TMC3    H2 5265   4.295   2.066   9.939  2.5263  0.4488  2.5853
  351TMC3    C7 5266   4.096   2.243   9.951  0.0433 -0.5983 -0.7617
  351TMC3    C8 5267   4.567   2.114   9.874 -0.3019  0.4304  0.1712
  351TMC3    O1 5268   4.033   2.337   9.997 -0.2451  0.1134  0.0463
  351TMC3    O2 5269   4.651   2.151   9.790  0.1771  0.0234  0.0646
  352MPD2     C 5270   2.913   0.044   1.084 -0.4615  0.4152  0.3712
  352MPD2    C1 5271   2.792   4.705   1.044  0.0772  0.5069 -0.2242
  352MPD2    C2 5272   2.779   4.566   1.065  0.2434 -0.6261 -0.4018
  352MPD2    C3 5273   2.879   4.493   1.117  0.2814  0.2604  0.4478
  352MPD2    C4 5274   3.000   4.557   1.154 -0.3093 -0.8208  0.0511
  352MPD2    C5 5275   3.013   4.692   1.143  0.7406  0.1785  0.2792
  352MPD2     H 5276   2.685   4.524   1.031  0.9151 -1.4583 -1.2489
  352MPD2    H1 5277   3.086   4.508   1.198 -0.7473 -2.3493 -0.7964
  352MPD2    H2 5278   2.922   0.152   1.078  1.1535  0.2787  0.4785
  352MPD2    H3 5279   3.107   0.017   1.165  0.4941  1.2901 -1.1641
  352MPD2     N 5280   2.874   4.352   1.143  0.3470  0.5201 -0.2460
  352MPD2    H5 5281   2.954   4.303   1.180 -1.4538 -1.4983  0.9522
  352MPD2    N1 5282   2.689   0.065   0.992  0.2705  0.1081 -0.3673
  352MPD2    H7 5283   2.702   0.165   1.001  1.0944 -0.0958  0.7472
  353TMC3    C1 5284   2.759   4.142   1.179  0.3924 -0.4911  0.5793
  353TMC3    C2 5285   2.854   4.115   1.275  0.3665 -0.9861  0.3077
  353TMC3    C3 5286   2.849   3.995   1.326 -0.1407  0.4356  0.1117
  353TMC3    C4 5287   2.657   4.060   1.139  0.3245  0.4932  0.4211
  353TMC3    C5 5288   2.650   3.939   1.200  0.6038 -0.3169  0.5601
  353TMC3    C6 5289   2.752   3.903   1.291  1.0617 -1.1715  0.1434
  353TMC3     C 5290   2.759   4.277   1.123 -0.0815 -0.5379 -0.2076
  353TMC3     O 5291   2.650   4.312   1.079  0.8535 -0.4790 -0.0551
  353TMC3     H 5292   2.925   4.190   1.309  0.0621  0.3537 -2.0398
  353TMC3    H1 5293   2.578   4.101   1.078 -0.3459  0.4172  1.2344
  353TMC3    H2 5294   2.754   3.798   1.320  1.0310 -1.4663 -0.8977
  353TMC3    C7 5295   2.562   3.830   1.148  0.5111  0.3656  0.7261
  353TMC3    C8 5296   2.976   3.952   1.386 -0.8946 -0.3286  1.4322
  353TMC3    O1 5297   2.537   3.817   1.028 -0.1350 -0.4745 -0.1413
  353TMC3    O2 5298   3.030   4.033   1.459 -0.1245  0.3458 -0.1886
  354TMC3    C1 5299   4.438   1.024  13.464 -0.3365 -0.1856  0.6418
  354TMC3    C2 5300   4.567   0.979  13.470 -0.0770  0.3038 -0.1215
  354TMC3    C3 5301   4.624   0.924  13.362 -0.1869  0.2424  0.1863
  354TMC3    C4 5302   4.360   1.011  13.351 -0.3238 -0.1328  0.0102
  354TMC3    C5 5303   4.416   0.942  13.248 -0.2039  0.4903  0.0236
  354TMC3    C6 5304   4.550   0.904  13.251 -0.5107 -0.2612  0.1188
  354TMC3     C 5305   4.367   0.993  13.584  0.0883 -1.0745  0.0782
  354TMC3     O 5306   4.427   0.926  13.665 -0.5411  0.3724 -0.6271
  354TMC3     H 5307   4.625   0.980  13.561 -0.3101 -2.7019  0.0648
  354TMC3    H1 5308   4.253   0.997  13.365 -1.0088  2.8730 -2.4219
  354TMC3    H2 5309   4.595   0.841  13.175  1.0870  1.4407 -0.3452
  354TMC3    C7 5310   4.378   0.986  13.120 -0.7377 -0.1571 -0.2718
  354TMC3    C8 5311   0.013   0.996  13.310 -0.3843  0.0153  0.5332
  354TMC3    O1 5312   4.281   1.065  13.119 -0.3508 -0.0244 -0.0532
  354TMC3    O2 5313   0.117   0.970  13.367  0.3983 -0.1404  0.8964
  355MPD2     C 5314   4.606   1.919  12.179  0.0569  0.1615 -0.1216
  355MPD2    C1 5315   4.634   1.929  12.045 -0.3514 -0.1658  0.9340
  355MPD2    C2 5316   0.036   1.951  11.995  0.9794  0.3448  0.5483
  355MPD2    C3 5317   0.138   1.982  12.089  0.0316 -0.1620 -0.0165
  355MPD2    C4 5318   0.104   1.982  12.221 -0.1857  0.2887 -0.1250
  355MPD2    C5 5319   4.711   1.935  12.267 -0.0670  0.4903 -0.0057
  355MPD2     H 5320   0.058   1.945  11.889  1.2482 -1.1997  0.6993
  355MPD2    H1 5321   0.176   2.009  12.297 -2.0275 -1.2270  2.1458
  355MPD2    H2 5322   4.513   1.891  12.226  0.7592 -0.0405  1.1424
  355MPD2    H3 5323   4.696   1.913  12.372 -1.1389  1.2614 -0.0015
  355MPD2     N 5324   0.274   2.003  12.057  0.2063  0.3929 -0.0981
  355MPD2    H5 5325   0.344   2.041  12.121 -0.1752  0.7869  0.0919
  355MPD2    N1 5326   4.518   1.903  11.963 -0.1102  0.3406 -0.4553
  355MPD2    H7 5327   4.448   1.850  12.014 -0.3215  1.3193  0.2868
  356TMC3    C1 5328   0.471   1.998  11.936  0.4069  0.5353 -0.3639
  356TMC3    C2 5329   0.517   2.035  11.814  0.4744 -0.1289 -0.3957
  356TMC3    C3 5330   0.641   2.092  11.819  0.0905  0.5509 -0.2698
  356TMC3    C4 5331   0.534   2.021  12.057  0.5100 -0.4978  0.0276
  356TMC3    C5 5332   0.660   2.072  12.051 -0.3374 -0.5150  0.2487
  356TMC3    C6 5333   0.716   2.108  11.929  0.4124  0.6435  0.0763
  356TMC3     C 5334   0.333   1.978  11.936 -0.4161 -0.0132 -0.7470
  356TMC3     O 5335   0.285   1.931  11.837  0.9538 -0.4098  0.1764
  356TMC3     H 5336   0.455   2.030  11.725 -2.7811 -1.7849  1.9876
  356TMC3    H1 5337   0.490   1.987  12.150  1.2124  0.6588  0.7786
  356TMC3    H2 5338   0.811   2.157  11.914  0.5928 -0.1304 -1.2371
  356TMC3    C7 5339   0.726   2.123  12.173 -0.6557  0.3793  0.2498
  356TMC3    C8 5340   0.693   2.123  11.689 -0.0341  0.0227 -0.2401
  356TMC3    O1 5341   0.737   2.048  12.269 -0.0395 -0.1141 -0.6322
  356TMC3    O2 5342   0.688   2.031  11.602 -0.3885  0.0832  0.0029
  357MPD2     C 5343   4.448   1.111   1.336  0.0365  0.2287  0.2595
  357MPD2    C1 5344   4.528   1.130   1.446 -0.2683  0.9523  0.4400
  357MPD2    C2 5345   4.510   1.062   1.567 -0.1423  0.7315 -0.2428
  357MPD2    C3 5346   4.403   0.973   1.582 -0.0215  0.5129  0.2427
  357MPD2    C4 5347   4.318   0.964   1.473 -0.7645  0.6115  0.2395
  357MPD2    C5 5348   4.338   1.032   1.358  0.1312 -0.5296 -0.2557
  357MPD2     H 5349   4.582   1.064   1.648  2.0368  0.7294 -2.1868
  357MPD2    H1 5350   4.227   0.906   1.477 -0.1894 -0.4044 -1.5257
  357MPD2    H2 5351   4.466   1.167   1.245 -2.3307  2.6085  1.2569
  357MPD2    H3 5352   4.286   1.015   1.264 -0.0990  2.1561 -0.5927
  357MPD2     N 5353   4.373   0.892   1.697 -0.4194 -0.0546 -0.0454
  357MPD2    H5 5354   4.289   0.835   1.694  1.5244 -2.8274 -1.7590
  357MPD2    N1 5355   4.635   1.220   1.414  0.7855 -0.5064  1.5571
  357MPD2    H7 5356   4.636   1.240   1.314  1.1828 -0.1922  1.6211
  358TMC3    C1 5357   0.136   1.286   1.430  0.7810 -0.6700  0.5717
  358TMC3    C2 5358   0.162   1.230   1.305 -0.9440 -1.0742 -0.2273
  358TMC3    C3 5359   0.286   1.248   1.255 -0.0322  0.0743  0.6160
  358TMC3    C4 5360   0.230   1.349   1.507 -1.6183 -0.2504  0.4321
  358TMC3    C5 5361   0.351   1.371   1.445 -0.0570  0.2729  0.9828
  358TMC3    C6 5362   0.383   1.318   1.318  0.5231 -0.6907 -0.0823
  358TMC3     C 5363   0.013   1.253   1.496 -0.5350  1.5011 -0.1949
  358TMC3     O 5364   4.724   1.273   1.615 -0.8160 -0.0762  0.0668
  358TMC3     H 5365   0.090   1.171   1.250 -0.6627 -0.6488 -1.0507
  358TMC3    H1 5366   0.212   1.376   1.610 -1.2727 -0.6848  0.6062
  358TMC3    H2 5367   0.458   1.362   1.254 -0.0617 -0.0885 -0.3513
  358TMC3    C7 5368   0.460   1.402   1.539 -0.1528  0.2304  0.3965
  358TMC3    C8 5369   0.317   1.189   1.130 -0.2902 -0.1355  0.5765
  358TMC3    O1 5370   0.432   1.445   1.650  0.0411 -0.2278 -0.3432
  358TMC3    O2 5371   0.369   1.244   1.033 -0.3714 -0.4356  0.3420
  359MPD2     C 5372   0.495   0.695  12.554  0.5898  0.2573 -0.7899
  359MPD2    C1 5373   0.410   0.781  12.481  0.3217  0.1245 -0.3725
  359MPD2    C2 5374   0.277   0.756  12.500  0.0810  0.2222  0.0591
  359MPD2    C3 5375   0.228   0.665  12.595 -0.1807  0.2903 -0.7387
  359MPD2    C4 5376   0.317   0.600  12.668  0.0373 -0.0549 -0.3753
  359MPD2    C5 5377   0.450   0.600  12.645 -0.0609  0.2366 -0.4293
  359MPD2     H 5378   0.209   0.797  12.426 -0.8258  0.5100  1.0435
  359MPD2    H1 5379   0.281   0.545  12.755  1.0712 -1.5227 -0.8850
  359MPD2    H2 5380   0.603   0.710  12.554  0.6685 -0.3139  0.4009
  359MPD2    H3 5381   0.526   0.553  12.706 -0.3939  1.1814  0.7187
  359MPD2     N 5382   0.092   0.637  12.622 -0.1322  0.0944  0.7781
  359MPD2    H5 5383   0.072   0.569  12.696  1.5454 -0.4500  0.7203
  359MPD2    N1 5384   0.448   0.886  12.393  0.0959  0.0336 -0.9705
  359MPD2    H7 5385   0.372   0.932  12.343 -0.3516  1.7680  1.2570
  360TMC3    C1 5386   0.573   1.019  12.258 -0.0847  0.3948 -0.4819
  360TMC3    C2 5387   0.683   1.094  12.230 -0.0628 -0.0552 -0.5840
  360TMC3    C3 5388   0.708   1.147  12.108 -0.0468 -0.0729  0.6235
  360TMC3    C4 5389   0.488   0.995  12.156  0.2857  0.0909  0.1031
  360TMC3    C5 5390   0.508   1.045  12.032  0.5442  0.5346 -0.6902
  360TMC3    C6 5391   0.622   1.128  12.004 -0.0743 -0.0048  0.2608
  360TMC3     C 5392   0.564   0.952  12.387  0.2132  0.8940 -0.0252
  360TMC3     O 5393   0.666   0.945  12.457 -0.3591  0.2470  0.4716
  360TMC3     H 5394   0.736   1.110  12.323 -0.9071  1.2373 -0.3193
  360TMC3    H1 5395   0.407   0.924  12.162 -1.2213  1.5606 -3.1497
  360TMC3    H2 5396   0.634   1.180  11.909  0.9703 -1.1210 -0.2284
  360TMC3    C7 5397   0.425   1.003  11.912  0.2615  0.5643  0.0806
  360TMC3    C8 5398   0.849   1.169  12.072  0.5599 -0.0060  0.0520
  360TMC3    O1 5399   0.438   1.075  11.814 -0.6978  0.0370 -0.3568
  360TMC3    O2 5400   0.926   1.194  12.163  0.9204  0.4116 -0.0418
  361MPD2     C 5401   1.844   3.994  16.557 -0.1359 -0.2292  0.0385
  361MPD2    C1 5402   1.786   4.022  16.681  0.8864 -0.3671 -0.2311
  361MPD2    C2 5403   1.821   3.944  16.799 -0.0567  0.2360  0.3101
  361MPD2    C3 5404   1.891   3.823  16.778 -0.5839  0.1254 -1.2460
  361MPD2    C4 5405   1.936   3.791  16.644 -0.5004 -0.4111  0.0378
  361MPD2    C5 5406   1.919   3.878  16.538 -0.2028  0.3557  0.5129
  361MPD2     H 5407   1.773   3.966  16.894 -1.3402  2.4051 -0.8536
  361MPD2    H1 5408   2.001   3.706  16.631 -0.2751 -0.0901 -0.8916
  361MPD2    H2 5409   1.816   4.050  16.468 -1.5616  0.1531  0.7176
  361MPD2    H3 5410   1.962   3.850  16.443 -0.2323 -2.3982  1.3089
  361MPD2     N 5411   1.934   3.736  16.886  0.4655 -0.1176  0.0070
  361MPD2    H5 5412   1.983   3.651  16.862 -0.2766 -0.7650  0.7595
  361MPD2    N1 5413   1.690   4.135  16.700  0.2548 -0.2319 -0.2945
  361MPD2    H7 5414   1.665   4.145  16.798  0.9277  1.5433 -0.3126
  362TMC3    C1 5415   1.568   4.328  16.651  0.4491 -0.2808  0.5168
  362TMC3    C2 5416   1.588   4.365  16.782  1.0282  0.6799 -0.4595
  362TMC3    C3 5417   1.552   4.496  16.816  0.5443  0.5273  0.2760
  362TMC3    C4 5418   1.504   4.414  16.563  0.2814  0.3511  0.3263
  362TMC3    C5 5419   1.480   4.547  16.594 -0.6980  0.1381 -0.0779
  362TMC3    C6 5420   1.504   4.587  16.728 -0.2513  0.2140 -0.1210
  362TMC3     C 5421   1.632   4.211  16.598 -0.4739 -0.2646 -0.5429
  362TMC3     O 5422   1.630   4.205  16.477  0.6536 -0.1024  0.2435
  362TMC3     H 5423   1.640   4.304  16.855  0.8215 -0.3211 -1.1552
  362TMC3    H1 5424   1.495   4.380  16.461 -4.0581  0.0291  0.8020
  362TMC3    H2 5425   1.500   4.691  16.761 -1.2492  0.0631  0.2234
  362TMC3    C7 5426   1.450   4.638  16.492  0.5288 -0.0021  0.2620
  362TMC3    C8 5427   1.536   4.527  16.960 -0.1861  0.1244 -0.5228
  362TMC3    O1 5428   1.481   4.605  16.377 -0.2409 -0.3568 -0.3079
  362TMC3    O2 5429   1.614   4.468  17.036  0.0963 -0.5238  0.5634
  363TMC3    C1 5430   0.873   2.378   9.328 -0.6872 -0.0256  0.7502
  363TMC3    C2 5431   0.807   2.258   9.325 -0.3749  0.4915  0.3597
  363TMC3    C3 5432   0.669   2.274   9.346 -0.6469 -0.0964  0.2590
  363TMC3    C4 5433   0.826   2.507   9.325 -0.1570 -0.6002 -0.4421
  363TMC3    C5 5434   0.684   2.509   9.319 -0.2811  0.7767 -0.4257
  363TMC3    C6 5435   0.608   2.397   9.333  0.4977  0.3623  0.4446
  363TMC3     C 5436   1.017   2.377   9.333 -0.0617 -0.2692  0.0059
  363TMC3     O 5437   1.076   2.478   9.375 -0.0655  0.4781 -0.4161
  363TMC3     H 5438   0.845   2.157   9.315 -1.6249 -0.0190  0.7243
  363TMC3    H1 5439   0.883   2.598   9.307  0.3050 -1.1589 -1.8150
  363TMC3    H2 5440   0.502   2.402   9.308  0.8349 -0.7207 -1.2066
  363TMC3    C7 5441   0.628   2.641   9.342 -0.0162  0.5898  1.1458
  363TMC3    C8 5442   0.598   2.165   9.412  0.2479 -0.1399 -0.2715
  363TMC3    O1 5443   0.711   2.728   9.352 -0.3137 -0.7478  0.7363
  363TMC3    O2 5444   0.483   2.193   9.438  0.0469 -0.0181  0.3564
  364MPD2     C 5445   3.900   1.545  11.101 -0.5030 -0.3715 -0.1661
  364MPD2    C1 5446   3.878   1.482  10.977 -0.0054  0.0021  1.1398
  364MPD2    C2 5447   3.910   1.347  10.978 -0.5635  0.0025  0.2252
  364MPD2    C3 5448   3.959   1.281  11.082  0.1707 -0.1934  0.0368
  364MPD2    C4 5449   3.961   1.338  11.205  0.2185 -0.8846  0.5002
  364MPD2    C5 5450   3.936   1.474  11.214 -0.5646 -0.3901  0.3950
  364MPD2     H 5451   3.904   1.294  10.883  1.8225 -0.4270  0.3140
  364MPD2    H1 5452   3.998   1.285  11.292 -2.3522 -1.5359  1.2041
  364MPD2    H2 5453   3.875   1.650  11.115 -2.2820 -0.5029 -2.3510
  364MPD2    H3 5454   3.950   1.530  11.306 -1.3237  1.2797 -0.4932
  364MPD2     N 5455   3.984   1.140  11.077 -0.0999 -0.0142 -0.0905
  364MPD2    H5 5456   4.041   1.116  11.158 -1.5057 -1.0424  0.5790
  364MPD2    N1 5457   3.855   1.559  10.863  0.2475 -0.2187 -0.0711
  364MPD2    H7 5458   3.869   1.659  10.875 -0.3139 -0.2566  0.8623
  365TMC3    C1 5459   3.852   1.613  10.627 -0.6282  0.5855  0.2946
  365TMC3    C2 5460   3.895   1.573  10.498  0.1219  0.7940 -0.2337
  365TMC3    C3 5461   3.913   1.679  10.409  0.1340 -0.3671  0.9000
  365TMC3    C4 5462   3.832   1.746  10.661  0.5466 -0.1294 -0.1159
  365TMC3    C5 5463   3.849   1.838  10.564 -0.1339  0.8640 -0.5568
  365TMC3    C6 5464   3.890   1.809  10.443 -0.5004 -0.5514 -0.3517
  365TMC3     C 5465   3.859   1.508  10.731  0.2837  0.7149 -1.1472
  365TMC3     O 5466   3.854   1.391  10.698 -0.1444 -0.3708  0.0156
  365TMC3     H 5467   3.901   1.467  10.477 -1.3875  0.9117 -1.2476
  365TMC3    H1 5468   3.808   1.761  10.765 -0.2649 -0.7535 -0.2138
  365TMC3    H2 5469   3.917   1.887  10.372  0.8454 -1.8024 -1.2328
  365TMC3    C7 5470   3.822   1.972  10.594 -0.1597  0.1855 -1.0548
  365TMC3    C8 5471   4.027   1.660  10.314  0.0310 -0.3403  0.5121
  365TMC3    O1 5472   3.837   2.053  10.502 -0.3254  0.6025 -0.2296
  365TMC3    O2 5473   4.067   1.762  10.263 -0.5096  0.2536 -0.2299
  366MPD2     C 5474   1.667   2.030  15.337  0.2858  0.6397 -0.6084
  366MPD2    C1 5475   1.794   2.068  15.389 -0.5011 -0.1112  0.0601
  366MPD2    C2 5476   1.898   1.981  15.366 -0.7589  0.3210  0.1752
  366MPD2    C3 5477   1.882   1.873  15.288  0.4038 -0.3722  0.3868
  366MPD2    C4 5478   1.760   1.838  15.235 -0.4781 -0.1164  0.5417
  366MPD2    C5 5479   1.655   1.916  15.266  0.4050 -0.0266  0.4033
  366MPD2     H 5480   1.996   2.012  15.400 -1.7324  2.6629  0.8511
  366MPD2    H1 5481   1.735   1.752  15.174 -0.2988 -1.1668  1.9479
  366MPD2    H2 5482   1.581   2.093  15.353  0.5216  0.7624  0.1926
  366MPD2    H3 5483   1.558   1.890  15.225  1.1887 -0.4326 -1.1908
  366MPD2     N 5484   1.998   1.804  15.255 -0.2405 -0.3706 -0.2495
  366MPD2    H5 5485   2.080   1.847  15.297  0.9112 -1.6174 -1.1884
  366MPD2    N1 5486   1.820   2.189  15.457  0.4598 -0.0297 -0.3949
  366MPD2    H7 5487   1.919   2.207  15.471 -0.1936  3.8530 -0.6277
  367TMC3    C1 5488   1.817   2.414  15.501  0.0960 -0.0094 -0.0921
  367TMC3    C2 5489   1.945   2.399  15.557 -1.0675  0.1484  0.4286
  367TMC3    C3 5490   2.029   2.512  15.548  0.0575 -0.0001 -0.2968
  367TMC3    C4 5491   1.778   2.524  15.426 -0.5696 -0.1102  0.1562
  367TMC3    C5 5492   1.869   2.623  15.409  0.7275  0.7610 -0.2567
  367TMC3    C6 5493   1.997   2.622  15.465  0.5658 -0.0274  0.0822
  367TMC3     C 5494   1.736   2.299  15.485 -0.3105 -0.1534  0.8728
  367TMC3     O 5495   1.619   2.307  15.452 -0.2361 -0.0782 -0.2817
  367TMC3     H 5496   1.976   2.310  15.609 -1.7126  0.3385  1.1345
  367TMC3    H1 5497   1.674   2.537  15.398 -1.0902  0.2935  2.2844
  367TMC3    H2 5498   2.065   2.700  15.432 -0.0949  1.3903  2.0644
  367TMC3    C7 5499   1.839   2.736  15.316 -0.2574  0.3315 -0.3774
  367TMC3    C8 5500   2.168   2.492  15.565  0.1894 -0.6777 -0.7933
  367TMC3    O1 5501   1.926   2.824  15.313  0.5647  0.3750 -0.3304
  367TMC3    O2 5502   2.224   2.536  15.664  0.2605  0.3532 -0.2827
  368MPD2     C 5503   3.382   4.304  13.048  0.8753  0.1606 -0.1408
  368MPD2    C1 5504   3.370   4.418  12.969 -0.2896 -1.3187  0.4422
  368MPD2    C2 5505   3.483   4.447  12.899 -0.7149  0.2799 -0.4396
  368MPD2    C3 5506   3.605   4.375  12.903  0.3587  0.0625 -0.3134
  368MPD2    C4 5507   3.608   4.278  12.998 -0.5815  0.3262 -0.4254
  368MPD2    C5 5508   3.500   4.241  13.073 -0.1795 -0.3941 -0.3515
  368MPD2     H 5509   3.486   4.531  12.830 -1.7458 -1.0353 -2.1025
  368MPD2    H1 5510   3.698   4.218  13.008 -1.3826 -0.5972  1.2128
  368MPD2    H2 5511   3.302   4.280  13.117  0.9640  1.9642  0.5896
  368MPD2    H3 5512   3.499   4.153  13.137  3.7580  1.8390  2.7675
  368MPD2     N 5513   3.724   4.408  12.821  0.3475 -0.1080  0.3483
  368MPD2    H5 5514   3.807   4.350  12.833  0.4928 -0.7633 -3.8771
  368MPD2    N1 5515   3.248   4.497  12.970  0.4854  0.1740  0.2098
  368MPD2    H7 5516   3.177   4.464  13.033 -0.3977  2.3887  0.3578
  369TMC3    C1 5517   3.093   4.672  12.913  0.0329  0.6171 -0.4748
  369TMC3    C2 5518   3.072   0.042  12.821 -0.5726 -0.1323  0.3125
  369TMC3    C3 5519   2.943   0.071  12.786 -1.1061  0.2210  0.9536
  369TMC3    C4 5520   2.993   4.590  12.962 -0.0295  0.6264  0.8188
  369TMC3    C5 5521   2.874   4.606  12.908  0.0990  0.0412  0.5095
  369TMC3    C6 5522   2.838   4.713  12.821  0.0937  0.6810 -0.4933
  369TMC3     C 5523   3.233   4.616  12.909  0.1859 -0.3865  0.4704
  369TMC3     O 5524   3.306   4.670  12.829 -0.3749 -0.0249 -0.1163
  369TMC3     H 5525   3.152   0.104  12.782 -0.9528  0.4516  0.4584
  369TMC3    H1 5526   3.011   4.525  13.046  0.4782  0.0704  0.2846
  369TMC3    H2 5527   2.738   0.016  12.789 -0.7881 -0.1809  1.5868
  369TMC3    C7 5528   2.757   4.546  12.973  0.4983  0.0889  0.2549
  369TMC3    C8 5529   2.914   0.175  12.690  0.1650 -0.1526  0.2760
  369TMC3    O1 5530   2.766   4.508  13.089  0.1696  0.3914  0.0605
  369TMC3    O2 5531   2.808   0.168  12.627 -0.1168 -0.0394  0.2180
  370TMC3    C1 5532   2.477   0.203  16.156 -0.1771  0.4572  0.1378
  370TMC3    C2 5533   2.408   0.142  16.252  0.5843 -0.2935 -0.1864
  370TMC3    C3 5534   2.358   0.018  16.213  0.5680 -0.1407 -0.2260
  370TMC3    C4 5535   2.484   0.154  16.026 -0.5519 -1.0711 -0.1743
  370TMC3    C5 5536   2.428   0.033  15.993 -0.4009  0.4913 -0.8520
  370TMC3    C6 5537   2.372   4.679  16.088 -0.0924 -0.0948 -0.3282
  370TMC3     C 5538   2.549   0.327  16.195 -0.0893 -0.4482 -0.1964
  370TMC3     O 5539   2.590   0.338  16.313  0.3627  0.0993 -0.2087
  370TMC3     H 5540   2.403   0.191  16.349 -4.5406 -0.3875 -0.4401
  370TMC3    H1 5541   2.546   0.203  15.952 -0.9172  1.4505  1.1754
  370TMC3    H2 5542   2.333   4.583  16.056  1.2163 -0.0073 -2.1761
  370TMC3    C7 5543   2.456   4.710  15.858  0.5365  0.5992  0.4190
  370TMC3    C8 5544   2.319   4.652  16.313  0.5127  0.6653 -0.0506
  370TMC3    O1 5545   2.446   0.064  15.762 -0.1868 -0.1766  0.2280
  370TMC3    O2 5546   2.295   4.537  16.281  0.3929  0.5348 -0.4137
  371TMC3    C1 5547   3.853   3.047  15.708  0.7907  0.5462  0.2178
  371TMC3    C2 5548   3.721   3.076  15.731  0.5008  0.1204 -0.0259
  371TMC3    C3 5549   3.665   3.194  15.677 -0.0315 -0.3775  0.4585
  371TMC3    C4 5550   3.931   3.129  15.626  0.5266  0.0593  0.2386
  371TMC3    C5 5551   3.874   3.242  15.572  0.0480  0.7084  0.0408
  371TMC3    C6 5552   3.742   3.273  15.597 -0.5470 -0.5618  0.8598
  371TMC3     C 5553   3.893   2.909  15.681 -0.1188  0.3528 -0.5985
  371TMC3     O 5554   3.990   2.878  15.605 -0.1154 -0.1823 -0.4559
  371TMC3     H 5555   3.656   3.010  15.788  3.0622 -1.0774  1.5085
  371TMC3    H1 5556   4.038   3.113  15.620  0.2536 -1.1242 -1.1714
  371TMC3    H2 5557   3.709   3.363  15.547  1.7917 -0.7392 -0.9864
  371TMC3    C7 5558   3.949   3.330  15.486 -0.2719 -0.3373 -0.4483
  371TMC3    C8 5559   3.528   3.223  15.703 -0.3014 -0.3304  0.8471
  371TMC3    O1 5560   3.900   3.441  15.466 -0.0715 -0.0241 -0.2263
  371TMC3    O2 5561   3.459   3.133  15.751  0.8440  0.0313 -0.7642
  372MPD2     C 5562   3.704   4.295  13.536  0.0693 -0.1765  0.2552
  372MPD2    C1 5563   3.742   4.204  13.629  0.2656  0.5217  0.3774
  372MPD2    C2 5564   3.648   4.101  13.649  0.8125  0.1468  0.3134
  372MPD2    C3 5565   3.546   4.087  13.557  0.4347 -0.4857  0.3603
  372MPD2    C4 5566   3.512   4.177  13.460  0.6673  0.0733  0.5057
  372MPD2    C5 5567   3.587   4.289  13.467 -0.2464  0.1140  0.7152
  372MPD2     H 5568   3.682   4.024  13.717  1.4849 -2.3002 -2.8116
  372MPD2    H1 5569   3.427   4.176  13.392  0.8446 -0.1930  0.2920
  372MPD2    H2 5570   3.770   4.380  13.518 -0.9548 -0.1043 -3.3370
  372MPD2    H3 5571   3.572   4.377  13.405  0.8502  0.6650  1.2406
  372MPD2     N 5572   3.474   3.970  13.570  0.3745 -1.1889  0.2318
  372MPD2    H5 5573   3.524   3.898  13.621  1.2394 -0.5682  0.2556
  372MPD2    N1 5574   3.859   4.210  13.707 -0.1442  0.2103 -0.4773
  372MPD2    H7 5575   3.877   4.128  13.765  1.1956 -0.3813 -1.7220
  373TMC3    C1 5576   3.293   3.811  13.544 -0.4872 -0.3284  0.2140
  373TMC3    C2 5577   3.155   3.788  13.567 -0.0077 -0.9608  0.2942
  373TMC3    C3 5578   3.106   3.657  13.568 -0.6656 -0.1246 -0.6678
  373TMC3    C4 5579   3.378   3.709  13.525  0.0695  0.0577 -0.7775
  373TMC3    C5 5580   3.326   3.587  13.506  0.1105 -0.2077 -0.4347
  373TMC3    C6 5581   3.198   3.560  13.533 -0.5752 -0.7107  0.5949
  373TMC3     C 5582   3.340   3.951  13.542  0.4223  0.4692  0.6975
  373TMC3     O 5583   3.256   4.038  13.518 -0.5295 -0.3087 -0.9549
  373TMC3     H 5584   3.079   3.865  13.575  0.9411  0.1014 -1.0456
  373TMC3    H1 5585   3.484   3.723  13.507  0.3901 -1.4879 -0.0055
  373TMC3    H2 5586   3.173   3.456  13.550  1.4717 -1.3244 -0.1705
  373TMC3    C7 5587   3.421   3.481  13.508 -0.2756  0.4241  0.2616
  373TMC3    C8 5588   3.044   3.616  13.692  0.7559  0.4546  0.5144
  373TMC3    O1 5589   3.395   3.383  13.438  0.1115 -0.9789  0.3590
  373TMC3    O2 5590   2.977   3.712  13.723  0.5228 -0.4713  0.4286
  374TMC3    C1 5591   4.488   0.002   9.693 -1.1846  0.1794  0.3327
  374TMC3    C2 5592   4.553   0.122   9.698 -0.1138  0.8142  0.2429
  374TMC3    C3 5593   4.539   0.203   9.589  0.5745 -0.0557 -0.5979
  374TMC3    C4 5594   4.414   4.687   9.585  0.3357 -0.5853 -0.0188
  374TMC3    C5 5595   4.395   0.051   9.485  0.7962  0.1251  0.1946
  374TMC3    C6 5596   4.455   0.176   9.485 -0.0460  0.4048  0.0485
  374TMC3     C 5597   4.513   4.633   9.799  0.6873 -0.3462  0.6576
  374TMC3     O 5598   4.562   4.689   9.897 -0.2920 -0.3214  0.0312
  374TMC3     H 5599   4.622   0.147   9.777 -0.8423  1.5447  0.6518
  374TMC3    H1 5600   4.347   4.604   9.603  2.1903 -1.9175  0.6992
  374TMC3    H2 5601   4.444   0.247   9.404 -1.7503 -0.7200 -0.7156
  374TMC3    C7 5602   4.305   0.025   9.378  0.3962  0.1569  0.1339
  374TMC3    C8 5603   4.597   0.332   9.589 -0.3800 -0.1857  0.0192
  374TMC3    O1 5604   4.271   0.125   9.316 -0.0291  0.3125 -0.7038
  374TMC3    O2 5605   4.548   0.420   9.518  0.4242 -0.2359  0.0831
  375MPD2     C 5606   3.902   0.102  16.654 -0.0354 -0.8531  0.5232
  375MPD2    C1 5607   3.882   0.188  16.545  0.0705  0.3706 -0.0636
  375MPD2    C2 5608   3.946   0.163  16.423  0.0518  0.3028 -0.0363
  375MPD2    C3 5609   4.048   0.068  16.417 -0.2887  0.5586 -0.6519
  375MPD2    C4 5610   4.074   4.715  16.526 -0.5310 -0.2932 -0.2975
  375MPD2    C5 5611   4.010   0.012  16.639  0.2039  0.0051  0.3374
  375MPD2     H 5612   3.923   0.220  16.334 -1.9784  2.2243  1.7287
  375MPD2    H1 5613   4.152   4.640  16.520  1.4836  1.5922  2.3872
  375MPD2    H2 5614   3.843   0.106  16.745  0.3479 -0.4994  0.7582
  375MPD2    H3 5615   4.040   4.691  16.733 -3.1950 -1.9165  0.5125
  375MPD2     N 5616   4.123   0.022  16.303  0.6863  0.1223  0.4918
  375MPD2    H5 5617   4.205   4.689  16.323  1.9285  1.5760 -0.4111
  375MPD2    N1 5618   3.784   0.297  16.546  0.3098  0.1243  0.3196
  375MPD2    H7 5619   3.769   0.345  16.458 -0.1842  1.3896  1.0992
  376TMC3    C1 5620   4.210   0.029  16.085 -0.8945  0.5172  0.0212
  376TMC3    C2 5621   4.340   0.034  16.129 -0.9279  0.2861  0.4055
  376TMC3    C3 5622   4.445   0.051  16.041 -0.3169  1.2129 -0.4649
  376TMC3    C4 5623   4.186   0.034  15.954  0.8630 -0.3350 -0.2660
  376TMC3    C5 5624   4.294   0.045  15.870 -0.1536 -0.0423 -0.0371
  376TMC3    C6 5625   4.426   0.051  15.905  0.3749 -0.4543 -0.4898
  376TMC3     C 5626   4.097   0.058  16.171  0.1126  1.0787  0.4114
  376TMC3     O 5627   4.000   0.115  16.117 -0.3678  0.3626  0.4094
  376TMC3     H 5628   4.363   0.042  16.235  0.5139 -0.1843  0.1241
  376TMC3    H1 5629   4.084   0.022  15.917  0.6059  2.9243 -0.6718
  376TMC3    H2 5630   4.509   0.060  15.836  0.1998  1.3654 -0.4610
  376TMC3    C7 5631   4.272   0.117  15.744  0.1500 -0.6815 -0.2377
  376TMC3    C8 5632   4.576   0.108  16.079 -0.0104  0.8075  0.9029
  376TMC3    O1 5633   4.341   0.214  15.726  0.4183 -0.6469  0.4507
  376TMC3    O2 5634   4.652   0.151  15.997  0.0279 -0.4800  0.7950
  377MPD2     C 5635   2.003   4.718  12.304 -0.4819  0.2111 -0.1190
  377MPD2    C1 5636   2.102   4.635  12.356  0.3903  0.2324  0.2960
  377MPD2    C2 5637   2.060   4.531  12.438 -0.1789  0.5319  1.0914
  377MPD2    C3 5638   1.923   4.502  12.457  0.6829  0.4417  0.1085
  377MPD2    C4 5639   1.833   4.580  12.392 -0.3719  0.2041  0.0502
  377MPD2    C5 5640   1.873   4.685  12.321  0.1051  0.0700  0.1939
  377MPD2     H 5641   2.132   4.477  12.499 -0.8410 -1.1262  0.4146
  377MPD2    H1 5642   1.728   4.567  12.414  0.0296 -3.2759 -0.0646
  377MPD2    H2 5643   2.021   0.083  12.245 -0.0010 -0.5022 -1.0436
  377MPD2    H3 5644   1.795   0.028  12.290 -0.1780  0.1185  0.9975
  377MPD2     N 5645   1.867   4.400  12.538 -0.3123  0.0291 -0.0354
  377MPD2    H5 5646   1.767   4.382  12.532 -0.8959  2.8458  1.1721
  377MPD2    N1 5647   2.241   4.666  12.332  0.2263 -0.7989  0.0936
  377MPD2    H7 5648   2.267   0.028  12.286 -1.7508  0.7684  1.9559
  378TMC3    C1 5649   2.616   0.088  12.279  0.0541 -0.4138  0.5153
  378TMC3    C2 5650   2.494   0.030  12.282  0.0279  0.5430 -1.4524
  378TMC3    C3 5651   2.477   4.650  12.371 -0.5048 -0.1399  0.2319
  378TMC3    C4 5652   2.713   0.041  12.367  0.3942  0.0704  0.4408
  378TMC3    C5 5653   2.694   4.656  12.446 -0.2106  0.4440 -0.3450
  378TMC3    C6 5654   2.574   4.594  12.446  0.5977 -0.3603 -0.2227
  378TMC3     C 5655   2.640   0.184  12.169  0.3313 -0.2409 -0.6121
  378TMC3     O 5656   2.542   0.226  12.113 -0.1510  0.1026  0.0250
  378TMC3     H 5657   2.413   0.060  12.216 -2.2032  0.5736  1.2847
  378TMC3    H1 5658   2.807   0.093  12.383  0.7897 -0.2179 -0.9102
  378TMC3    H2 5659   2.564   4.505  12.507  1.7928 -0.0708  0.3990
  378TMC3    C7 5660   2.789   4.581  12.525  0.0853 -0.4978  0.1769
  378TMC3    C8 5661   2.344   4.591  12.385  0.1029 -0.7846 -0.5312
  378TMC3    O1 5662   2.743   4.538  12.631 -0.1549 -0.0974  0.0528
  378TMC3    O2 5663   2.340   4.481  12.437  0.4111  0.4800 -0.3443
  379MPD2     C 5664   2.794   2.443  16.328  0.5751  0.4741  0.7774
  379MPD2    C1 5665   2.909   2.410  16.251 -0.3469  0.8615  0.5925
  379MPD2    C2 5666   3.010   2.334  16.312  0.2288 -0.3107 -0.1144
  379MPD2    C3 5667   2.983   2.283  16.439 -0.5312 -0.2743  0.0240
  379MPD2    C4 5668   2.873   2.323  16.516 -0.9521  0.3402  0.8476
  379MPD2    C5 5669   2.786   2.414  16.460 -0.5189  0.0905  0.4142
  379MPD2     H 5670   3.104   2.306  16.266  0.1828  1.2202 -1.1495
  379MPD2    H1 5671   2.842   2.270  16.605 -3.1934  0.1494 -0.0540
  379MPD2    H2 5672   2.714   2.504  16.287  0.8286  1.0090  1.0762
  379MPD2    H3 5673   2.693   2.441  16.510 -0.6939  3.1144 -1.5193
  379MPD2     N 5674   3.060   2.186  16.503  0.0284 -0.0288 -0.1799
  379MPD2    H5 5675   3.023   2.154  16.592  0.6720 -0.5768 -0.1061
  379MPD2    N1 5676   2.914   2.477  16.124  0.0267  0.0444 -0.5044
  379MPD2    H7 5677   2.828   2.525  16.100  0.4248  0.1614 -1.7090
  380TMC3    C1 5678   2.987   2.524  15.896  0.3614 -0.6427  0.1545
  380TMC3    C2 5679   3.085   2.561  15.813  0.1669  0.0436 -0.3322
  380TMC3    C3 5680   3.049   2.603  15.690 -0.1523 -0.1034  0.1278
  380TMC3    C4 5681   2.856   2.499  15.854 -0.2454 -0.0600 -0.0365
  380TMC3    C5 5682   2.824   2.520  15.723 -0.2433  0.7506  0.2755
  380TMC3    C6 5683   2.922   2.587  15.646  0.1128 -0.5456 -0.0411
  380TMC3     C 5684   3.023   2.480  16.035  0.0443  1.1167  0.8114
  380TMC3     O 5685   3.133   2.431  16.051  0.3010 -0.4400  0.0446
  380TMC3     H 5686   3.181   2.583  15.859 -0.0463  1.0351 -0.3593
  380TMC3    H1 5687   2.782   2.450  15.917  0.8134 -0.7962  0.6337
  380TMC3    H2 5688   2.899   2.604  15.541  0.6618  0.0371 -0.0736
  380TMC3    C7 5689   2.698   2.484  15.671 -0.2354  0.3085 -0.2878
  380TMC3    C8 5690   3.130   2.692  15.614  0.0779  0.4548 -0.0741
  380TMC3    O1 5691   2.601   2.488  15.749 -0.2882 -0.7143 -0.4542
  380TMC3    O2 5692   3.083   2.751  15.515  0.2284  0.2420  0.5504
  381TMC3    C1 5693   2.440   3.925  16.236 -0.2044  0.8088 -0.4041
  381TMC3    C2 5694   2.520   4.021  16.196 -0.9848 -0.4329  0.7001
  381TMC3    C3 5695   2.483   4.156  16.205 -0.3195  0.4970 -0.3392
  381TMC3    C4 5696   2.325   3.963  16.309 -0.1600 -0.1826  0.2526
  381TMC3    C5 5697   2.299   4.097  16.329  0.4466 -0.6125 -0.4716
  381TMC3    C6 5698   2.376   4.190  16.271  0.3512 -0.0578 -0.3495
  381TMC3     C 5699   2.503   3.806  16.280  0.2283 -0.1809 -0.2797
  381TMC3     O 5700   2.477   3.770  16.393 -0.0789 -0.2015 -0.2934
  381TMC3     H 5701   2.614   4.005  16.145 -1.0514  1.2425  0.0507
  381TMC3    H1 5702   2.246   3.897  16.343 -0.0139 -0.1414  0.6768
  381TMC3    H2 5703   2.347   4.294  16.272  3.1387  0.7118 -0.0978
  381TMC3    C7 5704   2.161   4.140  16.337 -0.6773  0.2106  0.5474
  381TMC3    C8 5705   2.572   4.263  16.161  0.4898  0.9243  0.0059
  381TMC3    O1 5706   2.082   4.098  16.255  0.0645 -0.7742 -0.5912
  381TMC3    O2 5707   2.623   4.244  16.050 -0.1431 -0.5960  0.3524
  382MPD2     C 5708   2.340   1.973  16.921 -0.0841 -0.0345 -0.1859
  382MPD2    C1 5709   2.323   1.996  17.057  0.6596 -0.5479 -0.1988
  382MPD2    C2 5710   2.242   1.913  17.128  0.3479 -0.0248 -0.3895
  382MPD2    C3 5711   2.175   1.808  17.068  0.0117 -0.1805 -0.0152
  382MPD2    C4 5712   2.199   1.780  16.936  0.7123  0.4117 -0.6639
  382MPD2    C5 5713   2.289   1.858  16.865  0.6838  0.3936  0.1729
  382MPD2     H 5714   2.218   1.938  17.231 -0.6281 -0.0637 -0.6123
  382MPD2    H1 5715   2.164   1.691  16.885  0.6362  0.6824 -1.0922
  382MPD2    H2 5716   2.406   2.025  16.853 -0.2759  0.6343  0.1440
  382MPD2    H3 5717   2.305   1.836  16.760 -0.7392 -1.8170  0.4174
  382MPD2     N 5718   2.072   1.740  17.131 -0.0938 -0.0362 -0.0678
  382MPD2    H5 5719   2.018   1.667  17.086 -1.4280  0.7999  0.1798
  382MPD2    N1 5720   2.367   2.117  17.118 -0.4000 -0.1710 -0.2021
  382MPD2    H7 5721   2.337   2.128  17.214  2.2171  0.1130  0.5757
  383TMC3    C1 5722   1.895   1.702  17.289  0.1962 -0.1419  0.1747
  383TMC3    C2 5723   1.846   1.612  17.203  0.4652  0.2558  0.7699
  383TMC3    C3 5724   1.715   1.571  17.213 -0.2169 -0.5992  0.2467
  383TMC3    C4 5725   1.815   1.760  17.386 -0.0605 -0.7943 -0.5660
  383TMC3    C5 5726   1.688   1.714  17.391 -0.4508 -0.0440 -0.1576
  383TMC3    C6 5727   1.638   1.622  17.315  0.2052  0.3260 -0.5423
  383TMC3     C 5728   2.019   1.772  17.260 -0.0324 -0.6797 -0.1746
  383TMC3     O 5729   2.063   1.837  17.348 -0.3383  0.0504  0.2321
  383TMC3     H 5730   1.916   1.559  17.138  0.4105 -2.2803  2.7750
  383TMC3    H1 5731   1.844   1.841  17.452 -1.1794 -1.7298  1.0759
  383TMC3    H2 5732   1.533   1.601  17.329 -0.0665  1.9536 -0.1289
  383TMC3    C7 5733   1.612   1.752  17.504  0.6500  0.6028 -0.0269
  383TMC3    C8 5734   1.672   1.451  17.152  0.7010 -0.2824 -0.1041
  383TMC3    O1 5735   1.525   1.675  17.538 -0.0593  0.4066  0.0767
  383TMC3    O2 5736   1.762   1.372  17.122 -0.2384 -0.1510 -0.7783
  384MPD2     C 5737   3.682   3.068  12.601  0.1141  0.0444 -0.0523
  384MPD2    C1 5738   3.646   2.936  12.583  0.3948 -0.9124 -0.6909
  384MPD2    C2 5739   3.725   2.858  12.503 -0.2625  0.6002  0.4682
  384MPD2    C3 5740   3.844   2.896  12.443  0.4655 -0.0791 -0.0727
  384MPD2    C4 5741   3.877   3.030  12.463  1.2331  0.4006 -0.3108
  384MPD2    C5 5742   3.799   3.111  12.544 -0.7504  0.7589 -0.5246
  384MPD2     H 5743   3.693   2.756  12.484  0.4139  0.2127  1.4437
  384MPD2    H1 5744   3.969   3.072  12.423  0.9669 -0.2427 -1.5849
  384MPD2    H2 5745   3.622   3.137  12.659 -1.0610 -0.0347 -1.1646
  384MPD2    H3 5746   3.831   3.213  12.563  0.6827  0.2730 -0.3233
  384MPD2     N 5747   3.936   2.818  12.372  0.4146 -0.4755  0.8008
  384MPD2    H5 5748   4.023   2.858  12.338  1.0745  0.7399  3.9199
  384MPD2    N1 5749   3.533   2.875  12.642  0.4749  0.2178 -0.6065
  384MPD2    H7 5750   3.515   2.778  12.619  3.3445 -0.9478  2.2057
  385TMC3    C1 5751   4.047   2.630  12.280 -0.2629  0.8063  0.0897
  385TMC3    C2 5752   4.008   2.521  12.201  0.0243  0.0814 -0.1825
  385TMC3    C3 5753   4.030   2.388  12.248 -0.3718  0.3458  0.0586
  385TMC3    C4 5754   4.139   2.597  12.383 -0.0398 -0.1718  0.3192
  385TMC3    C5 5755   4.156   2.464  12.424 -0.2027  0.2148 -0.1351
  385TMC3    C6 5756   4.098   2.358  12.361  0.3608 -0.2266 -0.6679
  385TMC3     C 5757   3.926   2.685  12.345 -0.5407  0.1841 -0.4612
  385TMC3     O 5758   3.847   2.610  12.392  0.1820 -0.1238 -0.1248
  385TMC3     H 5759   3.923   2.534  12.135  0.0550 -1.1747 -0.4663
  385TMC3    H1 5760   4.177   2.679  12.444  0.2805  1.9544 -2.7662
  385TMC3    H2 5761   4.117   2.257  12.396  1.9565  0.0476 -0.7427
  385TMC3    C7 5762   4.132   2.448  12.560 -0.2400  0.5261 -0.0931
  385TMC3    C8 5763   3.921   2.291  12.237 -0.5145 -0.3856 -0.9757
  385TMC3    O1 5764   4.222   2.410  12.639 -0.4706 -0.0020  0.5518
  385TMC3    O2 5765   3.891   2.234  12.343  0.0706  0.6323  0.0597
  386TMC3    C1 5766   3.422   0.586  11.598 -0.1074 -0.4315  0.2344
  386TMC3    C2 5767   3.515   0.558  11.505 -0.3841 -0.3719  0.0825
  386TMC3    C3 5768   3.501   0.629  11.390  0.3532 -0.0603 -0.5118
  386TMC3    C4 5769   3.316   0.668  11.584 -0.2244  0.8473 -0.0482
  386TMC3    C5 5770   3.301   0.726  11.463  0.8759 -0.2967 -0.1431
  386TMC3    C6 5771   3.397   0.713  11.371 -0.2818 -0.4647 -0.0918
  386TMC3     C 5772   3.410   0.500  11.715  0.4786  0.2721  0.1296
  386TMC3     O 5773   3.292   0.477  11.742 -0.2192 -0.4850 -0.4629
  386TMC3     H 5774   3.592   0.484  11.525 -1.7594 -1.6967  0.4746
  386TMC3    H1 5775   3.237   0.689  11.656  0.1613 -0.3811  0.7353
  386TMC3    H2 5776   3.383   0.760  11.274  0.6878  0.3165  0.1446
  386TMC3    C7 5777   3.175   0.785  11.422 -0.1173 -0.0366  0.4942
  386TMC3    C8 5778   3.611   0.624  11.287  0.0697  0.2183  0.3486
  386TMC3    O1 5779   3.149   0.821  11.309  0.7069  0.2361 -0.3642
  386TMC3    O2 5780   3.587   0.694  11.187 -0.3727 -0.1252  0.2642
  387MPD2     C 5781   1.527   0.762   9.546 -0.2658  0.0326 -0.3657
  387MPD2    C1 5782   1.640   0.740   9.616  0.3319  0.0552  0.4580
  387MPD2    C2 5783   1.651   0.625   9.689 -0.7016  0.1162  0.0305
  387MPD2    C3 5784   1.553   0.529   9.687 -1.0280  0.1460 -0.0480
  387MPD2    C4 5785   1.436   0.556   9.615 -0.0739 -0.4320 -0.9649
  387MPD2    C5 5786   1.426   0.674   9.545 -0.5136 -0.9961  0.1066
  387MPD2     H 5787   1.739   0.614   9.752  0.6945  1.4869 -1.6745
  387MPD2    H1 5788   1.358   0.481   9.604  1.2461 -2.0240  0.5146
  387MPD2    H2 5789   1.507   0.853   9.490  1.2332  1.8682  2.0803
  387MPD2    H3 5790   1.332   0.694   9.494 -0.8933  0.0122  1.2039
  387MPD2     N 5791   1.582   0.411   9.761  0.8062  0.1826  0.3685
  387MPD2    H5 5792   1.666   0.404   9.817  1.1607  1.0406 -0.0640
  387MPD2    N1 5793   1.764   0.818   9.614 -0.0103 -0.0434  0.0126
  387MPD2    H7 5794   1.832   0.780   9.679 -1.9777  2.7309  3.7441
  388TMC3    C1 5795   1.946   0.921   9.527  0.5033 -0.1337 -0.1581
  388TMC3    C2 5796   1.978   1.053   9.524  0.5200  0.0380 -0.4931
  388TMC3    C3 5797   2.094   1.085   9.590 -0.1512 -0.1713  0.2216
  388TMC3    C4 5798   2.019   0.822   9.591 -0.4138 -0.7178  0.3471
  388TMC3    C5 5799   2.133   0.863   9.646  0.5683 -0.1695  0.8352
  388TMC3    C6 5800   2.174   0.993   9.647  0.0329 -0.7039  0.6113
  388TMC3     C 5801   1.803   0.907   9.525 -0.2284 -0.7705  0.0282
  388TMC3     O 5802   1.730   0.977   9.450 -0.2101  0.1895  0.6852
  388TMC3     H 5803   1.907   1.123   9.482  0.8675 -1.0176 -2.8192
  388TMC3    H1 5804   1.985   0.718   9.592 -4.7649  0.6977 -0.6224
  388TMC3    H2 5805   2.270   1.009   9.693  0.5800 -1.0000 -0.4177
  388TMC3    C7 5806   2.198   0.771   9.735  0.0424  0.0115 -0.5452
  388TMC3    C8 5807   2.121   1.231   9.600 -0.3133  0.4294  0.0933
  388TMC3    O1 5808   2.258   0.816   9.832  0.3457  0.7292  0.4714
  388TMC3    O2 5809   2.072   1.313   9.520 -0.5016 -0.6323  0.2429
  389MPD2     C 5810   1.146   3.197  11.155 -0.0044  0.2760  0.6812
  389MPD2    C1 5811   1.077   3.101  11.087  0.5994  0.3087 -0.1401
  389MPD2    C2 5812   0.982   3.021  11.154 -0.2332 -0.7229  0.4376
  389MPD2    C3 5813   0.942   3.051  11.282  0.0511  0.2543 -0.6974
  389MPD2    C4 5814   1.005   3.156  11.339 -0.2243  0.0720 -0.1759
  389MPD2    C5 5815   1.111   3.227  11.281 -0.2568 -0.4644  0.9027
  389MPD2     H 5816   0.928   2.945  11.099 -1.1413 -1.0522  1.8015
  389MPD2    H1 5817   0.981   3.182  11.442  1.5323  0.0429  0.2452
  389MPD2    H2 5818   1.224   3.253  11.106 -0.0091 -0.5725 -0.2824
  389MPD2    H3 5819   1.162   3.304  11.337  0.4646 -0.4434  0.2077
  389MPD2     N 5820   0.834   2.990  11.348  0.5023 -0.5433 -0.1192
  389MPD2    H5 5821   0.803   3.031  11.435  1.0197  1.0563 -0.6900
  389MPD2    N1 5822   1.122   3.082  10.953 -0.8996  0.0236 -0.5239
  389MPD2    H7 5823   1.200   3.138  10.920 -1.3615  0.8489 -0.2182
  390TMC3    C1 5824   0.648   2.823  11.378 -0.5206  0.6591 -0.5907
  390TMC3    C2 5825   0.598   2.891  11.485 -0.2434 -0.2722 -0.2292
  390TMC3    C3 5826   0.462   2.883  11.507 -0.8239  0.3027 -0.2644
  390TMC3    C4 5827   0.577   2.729  11.309 -0.1797 -0.7108 -0.1759
  390TMC3    C5 5828   0.440   2.718  11.334  0.0981 -0.2281  0.5294
  390TMC3    C6 5829   0.387   2.796  11.434  0.0544  0.6830  0.2715
  390TMC3     C 5830   0.779   2.866  11.315  0.0435 -0.1262 -0.5799
  390TMC3     O 5831   0.832   2.792  11.229  0.1710  0.1731 -0.3278
  390TMC3     H 5832   0.660   2.956  11.545  0.1995 -2.0571  1.2622
  390TMC3    H1 5833   0.618   2.677  11.223  1.1408  0.0039  0.0339
  390TMC3    H2 5834   0.280   2.784  11.444 -0.0491 -0.2615 -1.8775
  390TMC3    C7 5835   0.367   2.605  11.284 -0.3404  0.6174  0.0239
  390TMC3    C8 5836   0.420   2.882  11.638 -0.1714 -0.4290  0.7318
  390TMC3    O1 5837   0.430   2.509  11.249  0.3463  0.3314 -0.4804
  390TMC3    O2 5838   0.377   2.990  11.671 -0.3497  0.6722 -0.1852
  391MPD2     C 5839   0.506   0.237  10.963  0.2255 -0.7589  0.3212
  391MPD2    C1 5840   0.592   0.344  10.940 -0.1514 -0.4006 -0.0018
  391MPD2    C2 5841   0.616   0.371  10.810 -0.6587 -0.1073 -0.3986
  391MPD2    C3 5842   0.553   0.309  10.704 -0.4857 -0.0761 -0.0626
  391MPD2    C4 5843   0.471   0.201  10.721 -0.2815  0.2151 -0.3039
  391MPD2    C5 5844   0.443   0.167  10.851 -0.1430 -0.5264  0.3186
  391MPD2     H 5845   0.690   0.446  10.784 -2.0166  0.9817 -1.1407
  391MPD2    H1 5846   0.419   0.146  10.643 -1.7634  1.8195 -0.4436
  391MPD2    H2 5847   0.478   0.205  11.063  0.4219  1.9952  1.2644
  391MPD2    H3 5848   0.386   0.078  10.876 -0.7112 -0.6596 -1.4904
  391MPD2     N 5849   0.573   0.368  10.577 -0.0816  0.0568  0.2540
  391MPD2    H5 5850   0.653   0.430  10.570 -0.9376  1.1229 -0.0704
  391MPD2    N1 5851   0.648   0.416  11.052 -0.3157  0.9870  0.4046
  391MPD2    H7 5852   0.642   0.370  11.143 -2.3361  0.1037 -0.1685
  392TMC3    C1 5853   0.520   0.420  10.351 -0.1315 -0.0779  0.0419
  392TMC3    C2 5854   0.422   0.405  10.261 -0.1284 -0.0809  0.0834
  392TMC3    C3 5855   0.416   0.487  10.148  0.2643  0.1362 -0.1142
  392TMC3    C4 5856   0.608   0.521  10.348 -0.4447  0.6294 -0.6110
  392TMC3    C5 5857   0.597   0.602  10.241 -0.0060  0.7215  0.6081
  392TMC3    C6 5858   0.513   0.583  10.132  0.1857  0.5629  0.5621
  392TMC3     C 5859   0.485   0.348  10.475 -0.6027 -0.5310 -0.5974
  392TMC3     O 5860   0.371   0.304  10.481 -0.1344  0.5709  0.5048
  392TMC3     H 5861   0.356   0.319  10.264 -1.3310  0.8176 -0.3758
  392TMC3    H1 5862   0.679   0.554  10.422 -1.6475 -0.6511  1.1114
  392TMC3    H2 5863   0.519   0.635  10.037 -0.5904  0.1388  0.2800
  392TMC3    C7 5864   0.676   0.721  10.245 -0.3944  0.5768 -0.1078
  392TMC3    C8 5865   0.314   0.461  10.048 -0.3288 -0.0757 -0.2019
  392TMC3    O1 5866   0.743   0.741  10.346 -0.3472 -0.6837 -0.2295
  392TMC3    O2 5867   0.263   0.352  10.049 -0.0951  0.6506  0.4228
  393TMC3    C1 5868   4.139   2.869  10.684  0.1929 -0.0985  0.3622
  393TMC3    C2 5869   4.170   2.937  10.800 -0.7945 -0.3415 -0.0678
  393TMC3    C3 5870   4.206   2.861  10.905 -0.6801 -0.2551  1.0893
  393TMC3    C4 5871   4.163   2.737  10.670 -0.2153  0.5296 -0.5689
  393TMC3    C5 5872   4.195   2.664  10.778 -0.2113  0.6303  0.0937
  393TMC3    C6 5873   4.225   2.725  10.897  0.3574  0.4888 -0.3658
  393TMC3     C 5874   4.118   2.944  10.564 -0.1634  0.4364  1.3165
  393TMC3     O 5875   4.135   2.885  10.463  0.0572 -0.2287  0.0735
  393TMC3     H 5876   4.163   3.045  10.808  2.5632 -0.0256 -1.5060
  393TMC3    H1 5877   4.153   2.686  10.575 -0.2811 -1.5228  0.5231
  393TMC3    H2 5878   4.246   2.657  10.978  0.6408 -0.2195 -1.0336
  393TMC3    C7 5879   4.280   2.555  10.745 -0.0968 -0.5228 -0.3069
  393TMC3    C8 5880   4.209   2.932  11.029 -0.1230 -0.1227  0.0556
  393TMC3    O1 5881   4.216   2.451  10.710  0.5813 -0.2584  0.2506
  393TMC3    O2 5882   4.157   2.878  11.123 -0.4063  0.1515  0.3513
  394TMC3    C1 5883   1.122   2.998  10.731  0.2507  0.1426  0.2978
  394TMC3    C2 5884   1.036   2.962  10.632 -0.0471 -0.7735 -0.0345
  394TMC3    C3 5885   1.058   3.000  10.504 -0.0116 -0.3999  0.1092
  394TMC3    C4 5886   1.236   3.067  10.705 -0.1249  0.4510 -0.0649
  394TMC3    C5 5887   1.250   3.115  10.577  0.1535  0.0694 -1.1797
  394TMC3    C6 5888   1.166   3.070  10.475 -0.0066 -0.5690  0.1427
  394TMC3     C 5889   1.061   2.997  10.863  0.2174 -0.0955  0.0588
  394TMC3     O 5890   0.957   2.933  10.869 -0.0682 -0.0655  0.1005
  394TMC3     H 5891   0.953   2.895  10.653 -1.0699  0.8909  1.1861
  394TMC3    H1 5892   1.310   3.093  10.779 -2.0830  2.1917  1.2705
  394TMC3    H2 5893   1.179   3.093  10.370 -1.5574 -0.1580  0.0486
  394TMC3    C7 5894   1.354   3.212  10.548  0.0684  0.0782  0.2220
  394TMC3    C8 5895   0.952   2.979  10.409 -0.1706  0.4439  0.4216
  394TMC3    O1 5896   1.407   3.275  10.637  0.3292  1.1208 -0.0244
  394TMC3    O2 5897   0.840   2.948  10.455 -0.0099 -0.0163  0.3551
  395TMC3    C1 5898   4.692   0.336  14.350  0.4059  0.1694 -0.4474
  395TMC3    C2 5899   4.621   0.277  14.450 -0.1708 -0.0540 -0.2967
  395TMC3    C3 5900   4.592   0.351  14.560 -0.0640  0.1834 -0.0206
  395TMC3    C4 5901   0.025   0.457  14.378  0.7825 -0.8386  0.5990
  395TMC3    C5 5902   4.722   0.527  14.497  0.4691  0.8983  0.2703
  395TMC3    C6 5903   4.647   0.471  14.596  0.3966 -0.2001 -0.3223
  395TMC3     C 5904   0.047   0.251  14.273  0.1006  0.8286 -0.4631
  395TMC3     O 5905   4.713   0.183  14.186 -0.1465 -0.6957 -0.3047
  395TMC3     H 5906   4.566   0.184  14.441  0.0871 -0.3237  1.0250
  395TMC3    H1 5907   0.094   0.501  14.308 -1.0504 -0.1856 -0.8108
  395TMC3    H2 5908   4.611   0.524  14.684 -0.7454  1.4119 -1.7540
  395TMC3    C7 5909   0.062   0.649  14.543  0.0847 -0.0662  0.0472
  395TMC3    C8 5910   4.526   0.280  14.670 -0.5375  0.0534 -0.4695
  395TMC3    O1 5911   0.074   0.648  14.666  0.0756 -0.0863 -0.1163
  395TMC3    O2 5912   4.446   0.346  14.735  0.3859  0.1199 -0.1771
  396MPD2     C 5913   4.710   1.034  17.084 -0.3531  0.8857 -0.1959
  396MPD2    C1 5914   4.707   1.146  17.162  0.3060 -0.2916 -0.3224
  396MPD2    C2 5915   4.686   1.267  17.097 -0.0961 -0.9266  0.3674
  396MPD2    C3 5916   4.687   1.275  16.962 -0.5518 -0.3218 -0.6954
  396MPD2    C4 5917   4.696   1.161  16.887  0.3648 -0.2667 -0.7170
  396MPD2    C5 5918   4.698   1.038  16.950  0.1940  0.8554  0.2992
  396MPD2     H 5919   4.695   1.363  17.146 -1.2854 -0.2875 -0.6733
  396MPD2    H1 5920   4.683   1.159  16.779  1.5103 -0.2941 -0.8561
  396MPD2    H2 5921   0.007   0.933  17.120 -0.5719  1.1550  0.6938
  396MPD2    H3 5922   4.714   0.948  16.893  0.2147  1.3352 -0.4514
  396MPD2     N 5923   4.677   1.404  16.912  0.4490 -0.3034 -0.1079
  396MPD2    H5 5924   4.693   1.484  16.972 -3.1311  0.1891  0.1858
  396MPD2    N1 5925   0.002   1.137  17.305 -0.2802 -0.2280 -0.2221
  396MPD2    H7 5926   0.025   1.045  17.342 -1.9914  1.0143  3.9305
  397TMC3    C1 5927   0.104   1.222  17.484 -0.0561 -0.5169  0.0485
  397TMC3    C2 5928   0.225   1.231  17.431  0.2509 -0.4271  0.5839
  397TMC3    C3 5929   0.315   1.133  17.468 -0.2075 -0.3897 -0.5385
  397TMC3    C4 5930   0.070   1.133  17.581 -0.4560  0.4311  0.2117
  397TMC3    C5 5931   0.169   1.053  17.637 -0.0787 -0.6067 -0.5687
  397TMC3    C6 5932   0.296   1.057  17.583 -0.3723  0.2821 -0.3561
  397TMC3     C 5933   0.011   1.252  17.388 -0.7530 -0.2269 -0.4807
  397TMC3     O 5934   4.707   1.369  17.368  0.3833  0.5126 -0.2260
  397TMC3     H 5935   0.222   1.291  17.341 -0.1203 -0.6407  0.4545
  397TMC3    H1 5936   4.692   1.105  17.602 -0.1126 -1.1466 -0.2037
  397TMC3    H2 5937   0.369   0.978  17.598 -0.0332  0.6879  0.1252
  397TMC3    C7 5938   0.130   0.948   0.023 -0.0310  0.3823 -0.0877
  397TMC3    C8 5939   0.356   1.051  17.355  0.5201  0.4951  0.2546
  397TMC3    O1 5940   0.012   0.920   0.030  0.1834 -0.4296  0.0479
  397TMC3    O2 5941   0.378   0.931  17.380 -0.3630  0.5377  0.0794
  398MPD2     C 5942   2.887   2.029   0.113  0.3127 -0.5389  0.1018
  398MPD2    C1 5943   2.988   1.985   0.194  0.7513 -0.3429  0.0906
  398MPD2    C2 5944   3.107   2.043   0.184  0.5949 -0.2007  0.1348
  398MPD2    C3 5945   3.129   2.152   0.099 -0.1738  0.3671  0.1351
  398MPD2    C4 5946   3.024   2.206   0.032 -0.0491  0.4407  0.4044
  398MPD2    C5 5947   2.903   2.136   0.031 -0.4266 -0.1582  0.4559
  398MPD2     H 5948   3.193   1.990   0.224 -0.3667 -2.2127 -0.4443
  398MPD2    H1 5949   3.034   2.282  17.654  0.5884  0.5481  0.5851
  398MPD2    H2 5950   2.788   1.983   0.118  1.4148 -2.9273  0.0911
  398MPD2    H3 5951   2.822   2.160  17.662 -1.2644 -1.1159  1.1069
  398MPD2     N 5952   3.258   2.204   0.095  0.3374  0.0202 -0.4273
  398MPD2    H5 5953   3.322   2.157   0.158  0.8755  1.7698  0.3397
  398MPD2    N1 5954   2.978   1.875   0.271 -0.4416  0.2368  0.1504
  398MPD2    H7 5955   3.050   1.855   0.338  0.4171  0.5153 -0.6883
  399TMC3    C1 5956   2.903   1.663   0.342 -0.7657  0.3471  0.0912
  399TMC3    C2 5957   3.032   1.625   0.375 -0.5015  1.0133 -0.6097
  399TMC3    C3 5958   3.056   1.511   0.449 -0.1070  0.2027  0.1949
  399TMC3    C4 5959   2.804   1.571   0.372 -0.3953 -0.8085 -0.5543
  399TMC3    C5 5960   2.831   1.455   0.440  0.8614  0.4098 -0.1701
  399TMC3    C6 5961   2.961   1.419   0.468  1.3362 -0.3474  0.0972
  399TMC3     C 5962   2.873   1.787   0.277  0.5743 -0.6907 -0.3007
  399TMC3     O 5963   2.758   1.789   0.233 -0.1830 -0.1044 -0.1366
  399TMC3     H 5964   3.116   1.691   0.356  1.1009 -1.0795 -0.7940
  399TMC3    H1 5965   2.701   1.592   0.345 -0.3316 -1.1382 -1.0546
  399TMC3    H2 5966   2.983   1.331   0.528  1.2780  0.5032  1.3631
  399TMC3    C7 5967   2.722   1.363   0.454  0.5293 -0.5242  0.3760
  399TMC3    C8 5968   3.192   1.486   0.492  0.7110  0.1382  0.3199
  399TMC3    O1 5969   2.606   1.406   0.442  0.0298 -0.2061  0.0158
  399TMC3    O2 5970   3.271   1.583   0.500 -0.1713  0.3309 -0.0089
  400TMC3    C1 5971   1.738   1.234  16.727  0.8605  0.0350  0.0182
  400TMC3    C2 5972   1.615   1.243  16.679 -0.9901 -0.3834  0.0002
  400TMC3    C3 5973   1.546   1.362  16.687  0.6069 -0.8393 -0.2651
  400TMC3    C4 5974   1.805   1.335  16.782  0.6428 -0.3004 -0.3495
  400TMC3    C5 5975   1.741   1.453  16.793  0.7722  0.4285 -0.0985
  400TMC3    C6 5976   1.617   1.472  16.742  0.1911  0.2176 -0.0260
  400TMC3     C 5977   1.778   1.094  16.764 -0.2088 -0.2037  0.6674
  400TMC3     O 5978   1.682   1.024  16.779  1.0086  0.2952 -0.0394
  400TMC3     H 5979   1.570   1.152  16.640 -0.8023  0.0312 -1.2036
  400TMC3    H1 5980   1.906   1.331  16.821  0.2831 -0.9301  0.5078
  400TMC3    H2 5981   1.559   1.564  16.738 -1.4826 -0.8425 -0.1095
  400TMC3    C7 5982   1.814   1.570  16.847 -0.1749  0.3914 -0.1684
  400TMC3    C8 5983   1.401   1.372  16.673  0.5897  0.2329  0.4878
  400TMC3    O1 5984   1.935   1.577  16.862  0.2360 -0.8475 -0.3212
  400TMC3    O2 5985   1.349   1.480  16.691 -0.1066 -0.5243 -0.2665
  401MPD2     C 5986   4.653   3.844  17.133 -0.5748 -0.3238  0.3675
  401MPD2    C1 5987   4.603   3.882  17.257  0.0606 -0.5265 -0.1714
  401MPD2    C2 5988   4.665   3.835  17.372  0.2524  0.4586  0.3375
  401MPD2    C3 5989   0.035   3.736  17.364 -0.0911 -0.0341  0.3002
  401MPD2    C4 5990   0.075   3.683  17.243 -0.3076 -0.5436  0.2457
  401MPD2    C5 5991   0.023   3.742  17.130 -0.1945 -0.1554  0.3268
  401MPD2     H 5992   4.621   3.860  17.468 -0.1890  0.1208  0.2197
  401MPD2    H1 5993   0.148   3.603  17.230 -0.4882 -0.8523  1.2077
  401MPD2    H2 5994   4.620   3.891  17.041 -0.1829  0.4973  0.6453
  401MPD2    H3 5995   0.069   3.717  17.035 -0.4867  0.2840  0.0712
  401MPD2     N 5996   0.073   3.681  17.488  0.0316  0.1025  0.1118
  401MPD2    H5 5997   0.031   3.725  17.569  2.0276 -0.1662  1.2871
  401MPD2    N1 5998   4.501   3.976  17.279 -0.1284 -0.6834  0.2183
  401MPD2    H7 5999   4.484   3.998  17.377 -0.0864 -0.7656  0.2437
  402TMC3    C1 6000   0.192   3.553  17.644  0.1940 -0.2034 -0.0473
  402TMC3    C2 6001   0.121   3.602   0.049 -0.3101 -0.1303 -0.4699
  402TMC3    C3 6002   0.147   3.552   0.175  0.1223 -0.5224 -0.3313
  402TMC3    C4 6003   0.297   3.474  17.666  1.1747 -0.7443  0.4932
  402TMC3    C5 6004   0.333   3.428   0.089  0.1699  0.3502 -0.0116
  402TMC3    C6 6005   0.252   3.465   0.196 -1.2437 -1.0198  0.2054
  402TMC3     C 6006   0.165   3.580  17.506  0.2919 -0.1445 -0.9307
  402TMC3     O 6007   0.233   3.514  17.427  0.0454  0.6569 -0.1810
  402TMC3     H 6008   0.036   3.666   0.031 -1.9830 -2.1445  0.2576
  402TMC3    H1 6009   0.346   3.431  17.580  1.3600 -0.5275  0.4901
  402TMC3    H2 6010   0.283   3.444   0.298  0.0129 -0.5600 -0.0720
  402TMC3    C7 6011   0.441   3.325   0.103 -0.1307 -0.0690  0.1632
  402TMC3    C8 6012   0.043   3.552   0.280  0.3366  0.0816  0.1666
  402TMC3    O1 6013   0.487   3.282  17.699  0.6292  0.2565  0.2638
  402TMC3    O2 6014   0.083   3.521   0.392  0.5251 -0.0418  0.0487
  403MPD2     C 6015   3.096   2.546  13.456  0.1463  0.0588 -0.2818
  403MPD2    C1 6016   3.124   2.429  13.520  0.7597  0.4714 -0.0236
  403MPD2    C2 6017   3.217   2.434  13.620 -0.0523 -0.2826 -0.5909
  403MPD2    C3 6018   3.278   2.560  13.659 -0.5488 -0.3579  0.3180
  403MPD2    C4 6019   3.257   2.672  13.583  0.4892 -0.1753  0.0103
  403MPD2    C5 6020   3.162   2.663  13.485  0.5374 -0.1124 -0.3510
  403MPD2     H 6021   3.244   2.350  13.684 -2.1958  0.8626  1.7881
  403MPD2    H1 6022   3.308   2.765  13.604 -0.8907  0.4014  0.7606
  403MPD2    H2 6023   3.025   2.541  13.374 -2.8155  0.3768  2.3017
  403MPD2    H3 6024   3.134   2.755  13.434  2.1499  0.6938  0.2262
  403MPD2     N 6025   3.374   2.563  13.768 -0.6018  0.1149 -0.0477
  403MPD2    H5 6026   3.394   2.475  13.815  3.0575  1.1231  0.2988
  403MPD2    N1 6027   3.046   2.319  13.486  0.4336  0.5727 -0.2631
  403MPD2    H7 6028   2.989   2.338  13.404 -1.6161  0.9541  1.2639
  404TMC3    C1 6029   3.022   2.092  13.432 -0.3988  0.0321  0.4602
  404TMC3    C2 6030   3.022   1.969  13.485  0.8288 -0.0233  0.2190
  404TMC3    C3 6031   2.994   1.864  13.397 -0.2384  0.1816 -0.0436
  404TMC3    C4 6032   3.003   2.118  13.299 -0.4497  0.1577  0.0679
  404TMC3    C5 6033   2.985   2.014  13.214  0.2651 -0.2477  0.2957
  404TMC3    C6 6034   2.977   1.884  13.264  0.2405 -0.3557 -0.8673
  404TMC3     C 6035   3.077   2.190  13.521  0.1242  0.4704  0.1529
  404TMC3     O 6036   3.150   2.144  13.604  0.0000 -0.4138  0.2450
  404TMC3     H 6037   3.031   1.953  13.592  2.2659 -0.4097  0.0457
  404TMC3    H1 6038   2.988   2.221  13.267 -0.4154  0.9523  2.5807
  404TMC3    H2 6039   2.957   1.797  13.202 -0.0364 -0.6621 -0.3456
  404TMC3    C7 6040   2.989   2.024  13.071 -0.5756  1.0168 -0.1624
  404TMC3    C8 6041   2.991   1.725  13.442  0.0686 -0.0929  0.6753
  404TMC3    O1 6042   2.938   1.928  13.013 -0.0547 -0.1987  0.3984
  404TMC3    O2 6043   3.063   1.657  13.373  0.1400  0.4061 -0.1015
  405MPD2     C 6044   3.389   2.556  14.356  0.0465  0.5230  0.0004
  405MPD2    C1 6045   3.323   2.517  14.242  0.2988  0.1429 -0.5040
  405MPD2    C2 6046   3.264   2.617  14.169  0.9817  0.3190 -0.2426
  405MPD2    C3 6047   3.282   2.749  14.197  0.1461  0.2383  0.9298
  405MPD2    C4 6048   3.360   2.789  14.303  0.5410  0.4618  0.0110
  405MPD2    C5 6049   3.417   2.687  14.379 -0.6240  0.5482 -0.1669
  405MPD2     H 6050   3.198   2.588  14.088 -1.5665  1.5703  1.3566
  405MPD2    H1 6051   3.375   2.891  14.336  1.0248  0.9262 -1.6241
  405MPD2    H2 6052   3.413   2.480  14.430  0.6152  0.7088  0.0057
  405MPD2    H3 6053   3.455   2.724  14.474  0.4140  0.4772 -0.5572
  405MPD2     N 6054   3.213   2.835  14.109 -0.2804 -0.1351 -0.3500
  405MPD2    H5 6055   3.143   2.786  14.054  0.4879 -0.9241 -0.6252
  405MPD2    N1 6056   3.297   2.384  14.208 -0.8547  0.7726  0.6467
  405MPD2    H7 6057   3.330   2.321  14.281 -0.0614 -0.5116 -0.8198
  406TMC3    C1 6058   2.904   3.145  13.991  0.0950 -0.2671 -0.0345
  406TMC3    C2 6059   2.893   3.098  13.863  0.4523 -0.2532  0.1222
  406TMC3    C3 6060   2.983   3.006  13.826  0.7654  0.1836  0.1612
  406TMC3    C4 6061   3.002   3.103  14.077  0.1672  0.2367  0.0511
  406TMC3    C5 6062   3.097   3.014  14.026 -1.1618  0.0151 -0.3677
  406TMC3    C6 6063   3.088   2.965  13.900  0.2872  0.9393  0.7935
  406TMC3     C 6064   2.825   3.256  14.018  0.6453 -0.3956 -0.4489
  406TMC3     O 6065   2.791   3.318  13.920  0.1728 -0.4956  0.4822
  406TMC3     H 6066   2.800   3.110  13.809  1.2845 -0.8652 -1.4479
  406TMC3    H1 6067   3.014   3.139  14.179  1.4292 -0.2931  0.0875
  406TMC3    H2 6068   3.176   2.912  13.865  1.1974  2.0207  1.3895
  406TMC3    C7 6069   3.206   2.971  14.112 -0.1298  0.3039  0.3759
  406TMC3    C8 6070   2.934   2.912  13.731 -0.2137  0.5105  0.1743
  406TMC3    O1 6071   3.250   3.044  14.202 -0.2165  0.0577 -0.3215
  406TMC3    O2 6072   2.825   2.930  13.674  0.2968  0.4239 -0.1465
  407MPD2     C 6073   0.958   4.607   9.771  0.1114  0.2761  0.7174
  407MPD2    C1 6074   1.091   4.617   9.787  0.0515  0.2364  0.1080
  407MPD2    C2 6075   1.139   4.709   9.872  0.1048 -0.0236 -0.0575
  407MPD2    C3 6076   1.054   0.080   9.919 -0.0694 -0.0581  0.5506
  407MPD2    C4 6077   0.925   0.082   9.887 -0.5040 -0.7118  0.2257
  407MPD2    C5 6078   0.875   4.706   9.810  0.0248  0.0604 -0.1279
  407MPD2     H 6079   1.245   4.711   9.893 -0.1554  0.8936  1.1837
  407MPD2    H1 6080   0.861   0.160   9.927 -0.1667  0.7373 -2.0604
  407MPD2    H2 6081   0.914   4.526   9.713 -0.1099  0.6931  0.3079
  407MPD2    H3 6082   0.768   4.707   9.790  0.1468 -1.7893 -0.8806
  407MPD2     N 6083   1.101   0.198   9.986  0.2803  0.1656 -0.3459
  407MPD2    H5 6084   1.040   0.276  10.008 -0.6111 -0.8305  0.6958
  407MPD2    N1 6085   1.185   4.525   9.729  0.4040  0.2683 -0.2888
  407MPD2    H7 6086   1.283   4.542   9.750  0.7111  0.4103 -1.8776
  408TMC3    C1 6087   1.275   4.354   9.600  0.9868 -0.4792 -0.2210
  408TMC3    C2 6088   1.384   4.421   9.592 -0.4443  0.0274  0.3957
  408TMC3    C3 6089   1.495   4.348   9.552  0.5732  0.1872  0.5163
  408TMC3    C4 6090   1.265   4.218   9.586 -1.2411  0.3042 -0.1011
  408TMC3    C5 6091   1.380   4.151   9.553 -0.1235  0.2632 -0.0765
  408TMC3    C6 6092   1.501   4.218   9.540 -0.3196  0.1483  0.5191
  408TMC3     C 6093   1.156   4.416   9.651  0.5804  0.5934 -0.6813
  408TMC3     O 6094   1.056   4.344   9.655 -0.3072  0.0600  0.0200
  408TMC3     H 6095   1.381   4.529   9.593 -0.2222  0.0200  2.1315
  408TMC3    H1 6096   1.175   4.158   9.598 -1.5596  0.7244 -0.3974
  408TMC3    H2 6097   1.593   4.171   9.507 -1.5849 -1.4992 -0.6811
  408TMC3    C7 6098   1.389   4.005   9.551 -0.2592 -0.0898  0.3747
  408TMC3    C8 6099   1.616   4.419   9.548  0.3582  0.4913 -0.0244
  408TMC3    O1 6100   1.470   3.960   9.469 -0.0055 -0.0549  0.1348
  408TMC3    O2 6101   1.613   4.525   9.488 -0.4996  0.4819 -0.9828
  409MPD2     C 6102   0.562   0.578  16.861 -0.3669 -0.6693 -0.2037
  409MPD2    C1 6103   0.604   0.635  16.981 -0.8294  0.0042  0.3333
  409MPD2    C2 6104   0.615   0.767  16.984 -0.6828 -0.0851 -0.2353
  409MPD2    C3 6105   0.612   0.847  16.868  0.2543  0.5569 -0.1106
  409MPD2    C4 6106   0.576   0.786  16.751  0.4936 -0.1963 -0.2027
  409MPD2    C5 6107   0.550   0.655  16.748 -0.6170  0.0019 -0.2757
  409MPD2     H 6108   0.657   0.805  17.077 -2.0120  1.4036 -0.2612
  409MPD2    H1 6109   0.564   0.851  16.665 -1.1226 -0.0824  0.1081
  409MPD2    H2 6110   0.532   0.476  16.840  2.7082 -2.1818  2.7695
  409MPD2    H3 6111   0.518   0.616  16.652 -2.1546  2.1255 -0.6263
  409MPD2     N 6112   0.647   0.985  16.864 -0.4783  0.1520 -0.4562
  409MPD2    H5 6113   0.662   1.033  16.775 -3.6032  0.3327 -0.8711
  409MPD2    N1 6114   0.641   0.551  17.091  0.3440 -0.0980 -0.4057
  409MPD2    H7 6115   0.669   0.601  17.175  0.5233 -0.7164 -0.0970
  410TMC3    C1 6116   0.743   1.188  16.926 -0.8925 -0.5218 -0.1900
  410TMC3    C2 6117   0.858   1.236  16.985  0.0847  0.2871  1.5736
  410TMC3    C3 6118   0.912   1.350  16.945  0.6114 -0.1265 -0.8027
  410TMC3    C4 6119   0.688   1.250  16.818  0.3670 -0.5761  0.5406
  410TMC3    C5 6120   0.746   1.368  16.781  0.3116  0.4116  0.3205
  410TMC3    C6 6121   0.854   1.418  16.839  0.3376 -0.1947 -0.3905
  410TMC3     C 6122   0.689   1.057  16.972 -0.2726 -0.2767 -0.3338
  410TMC3     O 6123   0.708   1.018  17.087  0.6883  0.2124 -0.7855
  410TMC3     H 6124   0.908   1.181  17.065 -0.5580 -2.4586  0.0822
  410TMC3    H1 6125   0.592   1.221  16.778  0.5249 -0.1738 -0.1340
  410TMC3    H2 6126   0.910   1.500  16.795 -1.7966  0.9943 -0.8738
  410TMC3    C7 6127   0.719   1.406  16.649  0.6297 -0.3400 -0.2662
  410TMC3    C8 6128   1.049   1.378  16.989  0.6504  0.2769 -0.3732
  410TMC3    O1 6129   0.663   1.320  16.586 -0.0655  0.2298 -0.4560
  410TMC3    O2 6130   1.073   1.496  17.006  0.7149  0.9021  0.0888
  411MPD2     C 6131   0.392   1.746  14.671  0.4254 -0.3476 -0.4504
  411MPD2    C1 6132   0.374   1.850  14.580 -0.5428  0.0651  0.6725
  411MPD2    C2 6133   0.347   1.822  14.451  0.1310  1.0811  0.3191
  411MPD2    C3 6134   0.336   1.692  14.409 -0.3232 -0.3223 -0.3767
  411MPD2    C4 6135   0.370   1.592  14.495  0.4584  0.2506  0.3957
  411MPD2    C5 6136   0.391   1.619  14.624  0.7187 -0.1155  0.7945
  411MPD2     H 6137   0.325   1.904  14.385  0.2776  0.2874 -0.7168
  411MPD2    H1 6138   0.341   1.489  14.476  1.0672  0.2699 -0.6360
  411MPD2    H2 6139   0.411   1.765  14.776  0.5888  0.0058 -0.5419
  411MPD2    H3 6140   0.378   1.534  14.690 -0.3235 -0.4800  0.1234
  411MPD2     N 6141   0.286   1.647  14.279  0.0269 -0.5346  0.3731
  411MPD2    H5 6142   0.309   1.550  14.259  0.6317 -0.3760  0.3187
  411MPD2    N1 6143   0.388   1.985  14.627  0.6475  0.5580  0.9027
  411MPD2    H7 6144   0.387   2.007  14.726  0.8543 -0.3961  1.1096
  412TMC3    C1 6145   0.245   1.679  14.047 -0.3683  0.1691 -0.5180
  412TMC3    C2 6146   0.229   1.768  13.946 -0.1742  0.7543 -0.0966
  412TMC3    C3 6147   0.233   1.725  13.817  0.1993 -0.6863 -0.5134
  412TMC3    C4 6148   0.237   1.545  14.030  0.4206  0.0113 -0.2022
  412TMC3    C5 6149   0.226   1.504  13.899  0.0581 -0.2538  0.1636
  412TMC3    C6 6150   0.219   1.592  13.793 -0.1004 -0.5796 -0.9558
  412TMC3     C 6151   0.244   1.734  14.180  0.2098  0.2702  0.5571
  412TMC3     O 6152   0.220   1.857  14.190 -0.4637  0.2207 -0.1858
  412TMC3     H 6153   0.237   1.873  13.969 -0.7446  0.7633  0.0668
  412TMC3    H1 6154   0.271   1.481  14.110  1.1108  1.6688  0.8320
  412TMC3    H2 6155   0.198   1.558  13.692  0.8115 -1.2850 -0.9045
  412TMC3    C7 6156   0.321   1.403  13.877  0.3655 -0.0011 -0.1786
  412TMC3    C8 6157   0.339   1.791  13.742  0.0569 -0.1285 -0.2565
  412TMC3    O1 6158   0.391   1.431  13.781 -0.5283  0.0301 -0.1432
  412TMC3    O2 6159   0.335   1.913  13.732  0.7669  0.2230 -0.2046
  413MPD2     C 6160   2.234   4.346  15.480 -0.1888  0.0004 -0.1355
  413MPD2    C1 6161   2.239   4.413  15.359  0.3055 -0.7087  0.3726
  413MPD2    C2 6162   2.343   4.380  15.276  0.4817  0.2557  0.3160
  413MPD2    C3 6163   2.431   4.274  15.301  0.0574  0.2993  0.2357
  413MPD2    C4 6164   2.414   4.200  15.418 -0.5905  0.0901  0.2400
  413MPD2    C5 6165   2.315   4.237  15.506  0.3741  0.4612  1.2092
  413MPD2     H 6166   2.369   4.446  15.194 -0.1326 -0.5679 -0.5265
  413MPD2    H1 6167   2.466   4.108  15.440  1.8903  1.2771 -0.5867
  413MPD2    H2 6168   2.153   4.365  15.549  0.5903 -3.3300  1.7014
  413MPD2    H3 6169   2.305   4.190  15.603  0.2346 -1.1671  0.4034
  413MPD2     N 6170   2.530   4.224  15.216 -0.1764 -0.4890  0.8545
  413MPD2    H5 6171   2.582   4.141  15.245 -1.2377 -0.4502  2.8990
  413MPD2    N1 6172   2.137   4.513  15.331  0.3019  0.1807  0.5850
  413MPD2    H7 6173   2.061   4.514  15.398 -0.9638 -0.1712 -0.8362
  414TMC3    C1 6174   2.674   4.204  15.023 -0.1505 -0.9212 -0.3919
  414TMC3    C2 6175   2.761   4.121  15.084 -0.2789  0.1386 -0.5697
  414TMC3    C3 6176   2.826   4.037  15.002  0.2659 -0.0304  0.9030
  414TMC3    C4 6177   2.662   4.224  14.888  0.0405  0.2796  0.2093
  414TMC3    C5 6178   2.726   4.129  14.807 -0.2262  0.8453  0.3354
  414TMC3    C6 6179   2.805   4.030  14.864  0.0804 -0.4523  0.8300
  414TMC3     C 6180   2.573   4.284  15.100  0.2479 -0.0790  0.2008
  414TMC3     O 6181   2.525   4.377  15.041 -0.5920  0.5942  0.0075
  414TMC3     H 6182   2.775   4.118  15.191  1.5930 -3.3249 -0.9120
  414TMC3    H1 6183   2.592   4.294  14.844 -0.1957 -0.0262  0.0946
  414TMC3    H2 6184   2.869   3.970  14.800  1.3416  1.5834  0.1842
  414TMC3    C7 6185   2.743   4.160  14.663  0.5098 -0.4301 -0.0095
  414TMC3    C8 6186   2.919   3.948  15.069 -0.0633  0.1212  0.5361
  414TMC3    O1 6187   2.809   4.075  14.599 -0.0820 -0.2825 -0.2692
  414TMC3    O2 6188   2.917   3.833  15.025 -0.2400  0.4094  0.0433
  415TMC3    C1 6189   3.829   2.399   9.629 -0.4766 -0.0121 -0.9793
  415TMC3    C2 6190   3.963   2.406   9.585 -0.4195 -0.4248 -0.6440
  415TMC3    C3 6191   4.018   2.300   9.516  0.3765 -0.0531 -0.0657
  415TMC3    C4 6192   3.751   2.290   9.597 -0.4763 -0.6858 -0.6554
  415TMC3    C5 6193   3.807   2.191   9.525 -0.5892 -0.4780 -0.1452
  415TMC3    C6 6194   3.939   2.193   9.479  0.9069  0.5355  0.0968
  415TMC3     C 6195   3.796   2.466   9.753  0.0384  0.0721  0.5145
  415TMC3     O 6196   3.689   2.431   9.792  0.4700  0.1852 -0.0178
  415TMC3     H 6197   4.005   2.506   9.587  1.3932 -1.1862 -1.1063
  415TMC3    H1 6198   3.652   2.284   9.642 -1.9083  0.1954 -3.7079
  415TMC3    H2 6199   3.981   2.111   9.421 -0.1421  0.4126 -0.4905
  415TMC3    C7 6200   3.727   2.095   9.450 -0.4250 -0.5035 -0.2584
  415TMC3    C8 6201   4.164   2.300   9.485 -1.1679  0.0046  0.3382
  415TMC3    O1 6202   3.781   2.016   9.373 -0.8702 -0.2451 -0.2906
  415TMC3    O2 6203   4.205   2.194   9.438 -0.0345 -0.2347  0.2664
  416MPD2     C 6204   0.460   1.567  11.431  0.4631 -0.6657 -0.2126
  416MPD2    C1 6205   0.342   1.485  11.406  0.0342 -0.1022 -0.2214
  416MPD2    C2 6206   0.345   1.398  11.298  0.3631 -0.7574  0.7549
  416MPD2    C3 6207   0.463   1.374  11.235 -1.0130 -0.0878 -0.1348
  416MPD2    C4 6208   0.577   1.422  11.281 -0.3461 -0.4470 -0.4378
  416MPD2    C5 6209   0.575   1.526  11.371  0.4926 -0.3265 -0.1102
  416MPD2     H 6210   0.257   1.351  11.257 -0.4594 -1.4986  3.3707
  416MPD2    H1 6211   0.670   1.405  11.228 -0.5127 -0.4395 -0.7309
  416MPD2    H2 6212   0.453   1.658  11.489 -1.2795 -2.3839  2.2588
  416MPD2    H3 6213   0.665   1.586  11.381  1.4196 -1.5252 -1.3487
  416MPD2     N 6214   0.479   1.274  11.138  0.1948 -0.1874  0.3416
  416MPD2    H5 6215   0.573   1.243  11.117  1.5858  3.3886  1.1938
  416MPD2    N1 6216   0.226   1.501  11.483  0.5746 -0.3011 -0.0297
  416MPD2    H7 6217   0.225   1.570  11.557 -0.7483  1.1769 -1.4306
  417TMC3    C1 6218   4.724   1.472  11.519  0.0480 -0.0029 -0.1029
  417TMC3    C2 6219   0.019   1.534  11.639 -0.4912 -0.2013 -0.3004
  417TMC3    C3 6220   4.629   1.590  11.697  0.3388 -0.1889  0.7222
  417TMC3    C4 6221   4.604   1.460  11.456  0.5481 -0.1645 -0.2200
  417TMC3    C5 6222   4.492   1.521  11.511  0.3907  0.1566  0.4285
  417TMC3    C6 6223   4.506   1.586  11.635 -0.4814 -0.2288  0.7991
  417TMC3     C 6224   0.117   1.417  11.464  0.1169 -0.1823  0.3016
  417TMC3     O 6225   0.105   1.313  11.405  0.8158 -0.3574  0.3097
  417TMC3     H 6226   0.113   1.516  11.690 -0.0391  1.1029 -0.6801
  417TMC3    H1 6227   4.606   1.413  11.359 -1.0752  0.2453 -0.4497
  417TMC3    H2 6228   4.417   1.643  11.658  1.0676  1.7857  1.7630
  417TMC3    C7 6229   4.385   1.560  11.412  0.5051 -0.6535 -0.1881
  417TMC3    C8 6230   4.631   1.610  11.833  0.0537  0.2782 -0.6819
  417TMC3    O1 6231   4.335   1.672  11.405  0.1941  0.1800  0.2212
  417TMC3    O2 6232   4.532   1.588  11.907 -0.2933  0.3143 -0.0246
  418TMC3    C1 6233   3.635   2.460   0.014 -0.1613  0.1844 -0.8811
  418TMC3    C2 6234   3.510   2.428  17.679  0.0163  0.1050  0.0260
  418TMC3    C3 6235   3.437   2.351   0.071 -0.0232  0.1552  0.2563
  418TMC3    C4 6236   3.688   2.431   0.135  0.5671  0.6567  0.2797
  418TMC3    C5 6237   3.611   2.359   0.227 -0.4576  0.2241 -0.6595
  418TMC3    C6 6238   3.480   2.321   0.197  0.3270  0.3419 -1.3064
  418TMC3     C 6239   3.730   2.482  17.607  1.0092  0.6989 -0.7058
  418TMC3     O 6240   3.679   2.552  17.520  0.0897  0.0748  1.1138
  418TMC3     H 6241   3.460   2.464  17.589  1.6936 -1.1812 -1.4195
  418TMC3    H1 6242   3.791   2.452   0.162  0.0442  1.0435  1.9830
  418TMC3    H2 6243   3.425   2.260   0.267  0.6596 -0.4185 -1.7120
  418TMC3    C7 6244   3.660   2.334   0.363 -0.4481  0.0136 -0.0989
  418TMC3    C8 6245   3.306   2.318   0.029  0.0254  0.0590  0.2806
  418TMC3    O1 6246   3.623   2.228   0.417  0.1635 -0.0422 -0.3604
  418TMC3    O2 6247   3.246   2.377  17.642  0.4048 -0.3343  0.0313
  419MPD2     C 6248   2.667   0.943  12.360 -0.1281  0.2180 -0.4348
  419MPD2    C1 6249   2.558   1.022  12.366 -0.1481 -0.0346  0.2422
  419MPD2    C2 6250   2.514   1.049  12.487  0.0483  0.1635 -0.8681
  419MPD2    C3 6251   2.564   1.002  12.606 -0.1001 -0.3526 -0.4193
  419MPD2    C4 6252   2.663   0.909  12.598  0.1413  0.2014 -0.2442
  419MPD2    C5 6253   2.718   0.887  12.473 -0.8318  0.3858  0.0718
  419MPD2     H 6254   2.436   1.124  12.488 -0.6149 -0.5501  0.6280
  419MPD2    H1 6255   2.702   0.861  12.687 -1.6177  2.2963  1.6488
  419MPD2    H2 6256   2.710   0.918  12.264  0.5629  0.6932 -0.2523
  419MPD2    H3 6257   2.797   0.813  12.469  0.4548  1.7412  0.6938
  419MPD2     N 6258   2.498   1.047  12.723 -0.4348  0.2864 -0.0054
  419MPD2    H5 6259   2.419   1.111  12.719  0.8835  1.9519  0.8323
  419MPD2    N1 6260   2.492   1.085  12.258 -0.0994  0.0780 -0.7318
  419MPD2    H7 6261   2.419   1.151  12.282 -0.1604 -0.1577 -0.2668
  420TMC3    C1 6262   2.382   1.024  12.936 -0.5555  0.1633  0.4367
  420TMC3    C2 6263   2.341   1.153  12.931 -0.1709 -0.2536  0.0605
  420TMC3    C3 6264   2.207   1.185  12.945 -0.4144 -0.4561 -0.3130
  420TMC3    C4 6265   2.288   0.930  12.976  0.0147  0.2589  0.1410
  420TMC3    C5 6266   2.156   0.963  12.982 -0.1925  0.1637 -0.5545
  420TMC3    C6 6267   2.110   1.091  12.972  0.2088  0.4407 -0.1244
  420TMC3     C 6268   2.494   0.982  12.849 -0.0606  0.2052 -0.4879
  420TMC3     O 6269   2.547   0.874  12.872 -0.5244 -0.8402 -0.1497
  420TMC3     H 6270   2.411   1.223  12.887  0.5734 -1.0174  0.0241
  420TMC3    H1 6271   2.311   0.825  12.982 -1.6189 -0.0662  0.5967
  420TMC3    H2 6272   2.003   1.108  12.973  0.0238 -0.8004  1.0609
  420TMC3    C7 6273   2.064   0.848  12.990 -0.0197  0.6647 -0.1440
  420TMC3    C8 6274   2.163   1.322  12.943  0.4553  0.2948 -0.7612
  420TMC3    O1 6275   2.091   0.748  13.062 -0.3945  0.0658 -0.0288
  420TMC3    O2 6276   2.043   1.335  12.908 -0.2420  0.5998  0.3847
  421TMC3    C1 6277   3.537   2.651  13.927 -0.7361  0.0813 -0.5372
  421TMC3    C2 6278   3.603   2.754  13.991 -0.4931  0.0230  0.2124
  421TMC3    C3 6279   3.705   2.735  14.083  0.6137 -0.1991  0.6033
  421TMC3    C4 6280   3.556   2.521  13.966  0.0358 -0.3516 -0.1918
  421TMC3    C5 6281   3.637   2.504  14.080 -0.3952  0.0946  0.6974
  421TMC3    C6 6282   3.711   2.605  14.128  0.2172 -0.3772 -0.0738
  421TMC3     C 6283   3.430   2.672  13.832  0.1866 -0.0089 -0.1895
  421TMC3     O 6284   3.393   2.791  13.822 -0.3451  0.1143  0.3492
  421TMC3     H 6285   3.590   2.852  13.946 -4.7330 -0.8152 -0.3502
  421TMC3    H1 6286   3.492   2.437  13.942  0.6289 -0.7224 -0.4796
  421TMC3    H2 6287   3.779   2.588  14.211 -0.4088 -0.5060  0.4049
  421TMC3    C7 6288   3.685   2.376  14.119 -0.4332 -0.0089  0.1632
  421TMC3    C8 6289   3.768   2.845  14.152 -0.7331 -0.2522  0.2555
  421TMC3    O1 6290   3.743   2.365  14.230  0.2628  0.1957  0.0593
  421TMC3    O2 6291   3.814   2.826  14.262  0.2781  0.2130 -0.2686
  422TMC3    C1 6292   0.997   4.138  12.369  0.3650  0.5831 -1.1083
  422TMC3    C2 6293   0.993   4.165  12.503 -0.0348 -0.3594  0.0845
  422TMC3    C3 6294   0.877   4.214  12.560 -0.4465  0.8481 -0.2630
  422TMC3    C4 6295   0.881   4.135  12.287 -0.0791 -0.1191  0.8675
  422TMC3    C5 6296   0.767   4.148  12.362 -1.0535  0.1488 -0.0569
  422TMC3    C6 6297   0.763   4.204  12.485 -0.1093  0.1269 -0.3394
  422TMC3     C 6298   1.120   4.092  12.302 -0.4960 -0.5083  0.5915
  422TMC3     O 6299   1.128   4.126  12.184  0.0162  0.1218  0.2626
  422TMC3     H 6300   1.079   4.155  12.568  0.4543  1.7533 -0.2403
  422TMC3    H1 6301   0.883   4.100  12.185  0.6609  2.9289 -0.1517
  422TMC3    H2 6302   0.669   4.238  12.528  0.5027 -0.0470  1.1508
  422TMC3    C7 6303   0.677   4.036  12.346 -0.0663  0.5749  0.5510
  422TMC3    C8 6304   0.895   4.314  12.659 -0.0662 -0.5568 -0.0224
  422TMC3    O1 6305   0.688   3.961  12.248 -0.8319  0.5468  0.3473
  422TMC3    O2 6306   1.006   4.362  12.664  0.0855 -0.4672  0.0230
  423MPD2     C 6307   2.102   0.137   0.407 -0.6345  0.1859  0.7527
  423MPD2    C1 6308   2.239   0.105   0.425  0.1623 -0.3277 -0.0493
  423MPD2    C2 6309   2.300   0.031   0.327  0.0952  1.1308  0.1534
  423MPD2    C3 6310   2.241   0.002   0.207  0.5838  0.0226  0.4851
  423MPD2    C4 6311   2.115   0.051   0.183  1.0725  0.9099 -0.7424
  423MPD2    C5 6312   2.047   0.112   0.283 -0.6372 -0.2610 -0.6267
  423MPD2     H 6313   2.397   4.713   0.349 -0.5160  0.0423  0.7716
  423MPD2    H1 6314   2.070   0.052   0.084 -1.4839 -0.9386  0.4259
  423MPD2    H2 6315   2.053   0.174   0.496 -1.0068  1.1212  0.1679
  423MPD2    H3 6316   1.954   0.157   0.248 -1.1183 -1.2338 -0.6020
  423MPD2     N 6317   2.302   4.656   0.095 -0.4971 -0.4349 -0.2550
  423MPD2    H5 6318   2.247   4.655   0.010 -1.4172  0.1433  0.3313
  423MPD2    N1 6319   2.312   0.143   0.543 -0.4775  0.6542  0.7064
  423MPD2    H7 6320   2.410   0.118   0.553 -0.1200  1.4079 -0.9911
  424TMC3    C1 6321   2.342   0.241   0.750  0.6532  0.0184  0.4866
  424TMC3    C2 6322   2.435   0.139   0.778  0.2440  0.0384  0.0112
  424TMC3    C3 6323   2.492   0.136   0.899  0.4590 -0.8015 -0.2957
  424TMC3    C4 6324   2.317   0.342   0.841  0.0025  0.3253 -0.5548
  424TMC3    C5 6325   2.380   0.332   0.959 -0.6324 -0.4549  0.5493
  424TMC3    C6 6326   2.471   0.237   0.993  0.1530 -0.8624  0.2277
  424TMC3     C 6327   2.268   0.240   0.629 -0.2598  0.2299  0.3364
  424TMC3     O 6328   2.188   0.330   0.605  0.3443 -1.1268 -0.3860
  424TMC3     H 6329   2.451   0.058   0.708 -0.8797  0.5321 -0.8194
  424TMC3    H1 6330   2.255   0.426   0.810 -1.1993 -0.5094 -0.4325
  424TMC3    H2 6331   2.518   0.235   1.090  1.3682 -2.1641 -0.3862
  424TMC3    C7 6332   2.318   0.399   1.071 -0.5886  0.5713 -0.2218
  424TMC3    C8 6333   2.578   0.019   0.929 -0.1112 -0.5034  0.0554
  424TMC3    O1 6334   2.390   0.427   1.166  1.0648 -0.5056 -0.0657
  424TMC3    O2 6335   2.556   4.632   0.881  0.3324 -0.1148 -0.8081
  425MPD2     C 6336   1.230   4.017  17.562  0.0312 -0.4179 -0.8553
  425MPD2    C1 6337   1.268   3.993  17.429 -0.4335  0.1908  0.0826
  425MPD2    C2 6338   1.204   4.064  17.329 -0.1178  0.4473  0.2823
  425MPD2    C3 6339   1.102   4.156  17.366 -0.3949 -0.5851  0.2602
  425MPD2    C4 6340   1.069   4.179  17.497 -0.0677 -0.2978  0.5160
  425MPD2    C5 6341   1.138   4.110  17.596 -0.4022  0.6478  0.4532
  425MPD2     H 6342   1.226   4.036  17.227  0.0634  1.2032  0.1148
  425MPD2    H1 6343   0.992   4.247  17.530 -0.9421  0.9242 -4.0503
  425MPD2    H2 6344   1.298   3.969  17.632 -2.1872 -2.3609 -0.0215
  425MPD2    H3 6345   1.125   4.139  17.699  0.8162 -0.7837  1.0036
  425MPD2     N 6346   1.036   4.214  17.257 -0.2766  0.2823 -0.5205
  425MPD2    H5 6347   1.076   4.199  17.165 -0.4741 -1.8254 -0.2648
  425MPD2    N1 6348   1.370   3.900  17.410  1.1420 -0.3168 -0.4824
  425MPD2    H7 6349   1.388   3.858  17.500 -2.6685  0.5341  0.6613
  426TMC3    C1 6350   1.506   3.746  17.292 -0.0801  0.1105  0.5691
  426TMC3    C2 6351   1.552   3.705  17.172  0.1772  1.0062 -0.2092
  426TMC3    C3 6352   1.574   3.577  17.144  0.0018 -0.2618 -0.2082
  426TMC3    C4 6353   1.475   3.654  17.389 -0.0044 -0.3813  0.0267
  426TMC3    C5 6354   1.503   3.523  17.365  0.0758  0.4121 -1.2853
  426TMC3    C6 6355   1.562   3.487  17.248  0.3144 -0.1221 -1.1930
  426TMC3     C 6356   1.414   3.863  17.286 -0.4286 -0.4173  0.2399
  426TMC3     O 6357   1.417   3.920  17.177  0.2459  0.0627  0.0664
  426TMC3     H 6358   1.561   3.780  17.094  0.2993 -0.0698 -1.2355
  426TMC3    H1 6359   1.416   3.684  17.475 -1.0968 -1.8061 -0.2303
  426TMC3    H2 6360   1.555   3.380  17.232 -1.4207 -0.3710  1.1786
  426TMC3    C7 6361   1.463   3.427  17.461 -0.3742 -0.3162  0.2017
  426TMC3    C8 6362   1.524   3.544  17.017 -0.5698 -0.4292 -0.2017
  426TMC3    O1 6363   1.539   3.333  17.481 -0.2602  0.2278  0.0808
  426TMC3    O2 6364   1.442   3.616  16.971  0.0154  0.1252 -0.5559
  427MPD2     C 6365   4.025   0.992  14.866  0.2506 -0.1447 -0.0459
  427MPD2    C1 6366   4.116   1.054  14.947 -0.5351 -0.8494  0.7894
  427MPD2    C2 6367   4.097   1.184  14.992 -0.0486 -0.7395  0.0669
  427MPD2    C3 6368   3.975   1.244  14.960  0.0739 -0.0364 -0.6337
  427MPD2    C4 6369   3.890   1.186  14.872  0.1827 -0.0333  0.3618
  427MPD2    C5 6370   3.912   1.058  14.825 -0.3650  0.7956 -0.2255
  427MPD2     H 6371   4.164   1.232  15.062 -0.2304  2.0398 -1.6387
  427MPD2    H1 6372   3.789   1.228  14.873  0.2992  0.2567 -0.2529
  427MPD2    H2 6373   4.035   0.892  14.827  0.0020 -0.2998  0.2849
  427MPD2    H3 6374   3.841   1.002  14.765  1.0772 -0.3454 -0.8591
  427MPD2     N 6375   3.923   1.364  15.024  0.1013 -0.1392  0.5056
  427MPD2    H5 6376   3.844   1.403  14.974 -0.2396 -1.6271 -0.1284
  427MPD2    N1 6377   4.250   0.997  14.968  0.5761 -0.2141 -0.2664
  427MPD2    H7 6378   4.321   1.061  15.003 -0.2558 -0.3034  1.6041
  428TMC3    C1 6379   4.426   0.840  14.974 -0.3479 -0.1396 -0.1718
  428TMC3    C2 6380   4.465   0.711  15.010 -0.4146  1.1752  0.4242
  428TMC3    C3 6381   4.597   0.679  15.001 -0.9099 -0.3262 -0.0838
  428TMC3    C4 6382   4.517   0.927  14.919 -0.4031  0.6347  0.0796
  428TMC3    C5 6383   4.649   0.890  14.920 -0.4810  0.1801 -0.2636
  428TMC3    C6 6384   4.691   0.763  14.957 -0.1261  0.1826  0.1817
  428TMC3     C 6385   4.289   0.864  14.953  0.4454  0.1875  0.7554
  428TMC3     O 6386   4.223   0.767  14.937  0.1671  0.7802 -0.3072
  428TMC3     H 6387   4.393   0.652  15.066  0.9737  1.0264  2.0748
  428TMC3    H1 6388   4.479   1.019  14.877 -0.3461  0.4021 -0.4884
  428TMC3    H2 6389   0.070   0.732  14.949  0.0071  0.8011 -0.4911
  428TMC3    C7 6390   0.012   1.003  14.942 -0.2006 -0.2564  0.0722
  428TMC3    C8 6391   4.657   0.546  15.040 -0.2762  0.3150  1.0832
  428TMC3    O1 6392   0.092   0.992  15.034 -0.8959  0.2514 -0.1929
  428TMC3    O2 6393   0.034   0.509  14.983  0.4037  0.1591  0.1562
  429MPD2     C 6394   0.949   1.609   0.123 -1.1542 -0.6288  0.6670
  429MPD2    C1 6395   1.059   1.570   0.056 -0.5031 -0.0041 -0.0482
  429MPD2    C2 6396   1.132   1.658  17.680  0.0119 -0.1355 -0.8088
  429MPD2    C3 6397   1.080   1.790  17.660 -0.9431 -0.8010  0.2092
  429MPD2    C4 6398   0.968   1.825   0.030  0.2866 -0.3670 -0.2437
  429MPD2    C5 6399   0.905   1.734   0.106 -0.1207  0.0391  0.3087
  429MPD2     H 6400   1.226   1.632  17.633  0.7114 -0.0541  0.5395
  429MPD2    H1 6401   0.916   1.921   0.032  1.6483  0.3632  0.0908
  429MPD2    H2 6402   0.895   1.538   0.185 -1.2462  0.5901  1.9833
  429MPD2    H3 6403   0.823   1.775   0.164  0.8838  0.5596  1.3681
  429MPD2     N 6404   1.143   1.867  17.568 -0.9576 -0.7737 -0.9366
  429MPD2    H5 6405   1.235   1.842  17.533 -0.3026 -0.6549  0.7072
  429MPD2    N1 6406   1.119   1.439   0.068 -0.1077 -0.1620 -0.3792
  429MPD2    H7 6407   1.210   1.432   0.025  0.2407 -0.7319  0.4490
  430TMC3    C1 6408   1.191   2.050  17.418  0.3183  0.5810  0.8168
  430TMC3    C2 6409   1.150   2.172  17.362  0.2579  0.5695  0.1716
  430TMC3    C3 6410   1.239   2.235  17.282  0.1521 -0.6977  0.5578
  430TMC3    C4 6411   1.317   2.008  17.404  0.5621 -0.1360 -0.6958
  430TMC3    C5 6412   1.401   2.068  17.322 -0.0321 -0.0110  0.1173
  430TMC3    C6 6413   1.364   2.188  17.263  0.1879  0.5406 -0.2488
  430TMC3     C 6414   1.101   1.984  17.518 -0.5173  0.8971 -0.4746
  430TMC3     O 6415   0.995   2.042  17.538  0.7130  0.0247  0.3999
  430TMC3     H 6416   1.046   2.202  17.369  0.6179  1.5745  1.2786
  430TMC3    H1 6417   1.356   1.913  17.438  4.2205  1.2144 -1.1494
  430TMC3    H2 6418   1.421   2.226  17.179  1.0715  2.2240  1.1205
  430TMC3    C7 6419   1.473   1.979  17.235 -0.5506  0.4498  0.3577
  430TMC3    C8 6420   1.169   2.266  17.154 -0.5326  0.0622  0.1198
  430TMC3    O1 6421   1.442   1.862  17.239  0.4536  1.2683  0.7963
  430TMC3    O2 6422   1.064   2.201  17.129 -0.1738 -0.0804 -0.1479
  431MPD2     C 6423   2.131   1.657  12.490 -0.0982 -0.0704  0.3311
  431MPD2    C1 6424   2.195   1.705  12.379 -0.5139  0.0071  0.0933
  431MPD2    C2 6425   2.199   1.626  12.264  0.8670 -0.1126  0.5218
  431MPD2    C3 6426   2.133   1.503  12.266 -0.3410  0.5187 -0.5406
  431MPD2    C4 6427   2.061   1.460  12.383 -0.2864  0.0403 -0.3062
  431MPD2    C5 6428   2.062   1.537  12.491 -0.2826 -0.0277  0.1936
  431MPD2     H 6429   2.243   1.666  12.174  0.6155 -0.0333  0.4359
  431MPD2    H1 6430   2.018   1.361  12.385  1.7610 -0.8539 -0.4201
  431MPD2    H2 6431   2.122   1.714  12.581  0.5909  0.1076  0.2936
  431MPD2    H3 6432   2.021   1.499  12.584  0.1330  1.7077  1.0821
  431MPD2     N 6433   2.145   1.409  12.161 -0.0946 -0.2383  0.3305
  431MPD2    H5 6434   2.115   1.315  12.181  0.9959 -0.6798 -0.0899
  431MPD2    N1 6435   2.261   1.829  12.388  0.5416  0.6717 -0.2430
  431MPD2    H7 6436   2.304   1.869  12.305 -0.4960  0.0654 -1.0799
  432TMC3    C1 6437   2.254   1.303  11.988 -0.9465  0.1354 -0.2227
  432TMC3    C2 6438   2.272   1.287  11.855  0.0382  0.0898  0.2220
  432TMC3    C3 6439   2.383   1.217  11.817 -0.1610  0.3469  0.0684
  432TMC3    C4 6440   2.344   1.251  12.078 -0.3797  0.3283 -0.5797
  432TMC3    C5 6441   2.441   1.165  12.037 -0.6054 -0.2449 -0.0892
  432TMC3    C6 6442   2.466   1.154  11.905  0.0876 -0.5377  0.1863
  432TMC3     C 6443   2.207   1.429  12.041  0.4050 -0.5127 -0.4193
  432TMC3     O 6444   2.224   1.536  11.982  0.2801 -1.1772 -0.3301
  432TMC3     H 6445   2.209   1.333  11.779  0.0445 -1.8397 -0.9518
  432TMC3    H1 6446   2.344   1.282  12.182 -0.2277  1.5281 -0.9469
  432TMC3    H2 6447   2.529   1.073  11.868  0.2544 -0.5901  0.5922
  432TMC3    C7 6448   2.529   1.089  12.124 -0.3793  0.7224 -0.1487
  432TMC3    C8 6449   2.415   1.245  11.677  1.0634  0.1160 -0.4696
  432TMC3    O1 6450   2.620   1.031  12.076  0.2277 -0.3238  0.9845
  432TMC3    O2 6451   2.327   1.260  11.596  0.1716  0.2979 -0.0771
  433MPD2     C 6452   0.893   0.119  10.965 -0.0959 -0.7623 -0.6234
  433MPD2    C1 6453   1.011   0.174  10.927 -0.7624 -0.2781 -0.1116
  433MPD2    C2 6454   1.068   0.278  10.999  0.4592 -0.1738 -0.9278
  433MPD2    C3 6455   1.020   0.308  11.126 -1.0354  0.7084  0.1768
  433MPD2    C4 6456   0.914   0.233  11.175 -0.8391  1.0021  0.3135
  433MPD2    C5 6457   0.847   0.146  11.096  0.5638  0.5599 -0.7470
  433MPD2     H 6458   1.149   0.345  10.971 -1.3966  1.6406 -1.9046
  433MPD2    H1 6459   0.867   0.251  11.271  1.7053  0.0882  1.7212
  433MPD2    H2 6460   0.846   0.038  10.912  3.0497 -2.4353 -0.8443
  433MPD2    H3 6461   0.761   0.100  11.142  1.3112 -0.6941 -0.6040
  433MPD2     N 6462   1.089   0.408  11.201  0.1862  0.5627  0.1015
  433MPD2    H5 6463   1.161   0.460  11.152  1.9704 -1.1703  0.9259
  433MPD2    N1 6464   1.070   0.122  10.809 -1.0633  0.0457  0.4011
  433MPD2    H7 6465   1.037   0.032  10.774  0.9095  1.5457 -5.2639
  434TMC3    C1 6466   1.252   0.110  10.650 -0.2728  0.5752  0.4677
  434TMC3    C2 6467   1.388   0.114  10.674  0.8224  0.0359 -0.6944
  434TMC3    C3 6468   1.467   0.002  10.661 -0.2890  0.0264 -0.2681
  434TMC3    C4 6469   1.187   4.721  10.605  0.4251  0.1872 -0.3023
  434TMC3    C5 6470   1.267   4.612  10.596  0.2767  0.1018  0.0944
  434TMC3    C6 6471   1.402   4.609  10.621 -0.1998 -0.2689  0.3863
  434TMC3     C 6472   1.174   0.190  10.747 -0.0547 -0.4030 -0.1192
  434TMC3     O 6473   1.208   0.308  10.751  0.0861  0.4027 -0.3795
  434TMC3     H 6474   1.426   0.207  10.716  0.4241  0.4388 -1.2118
  434TMC3    H1 6475   1.086   0.009  10.568 -0.4540 -1.4005  1.5533
  434TMC3    H2 6476   1.464   4.521  10.629 -0.7897 -0.8523 -1.4230
  434TMC3    C7 6477   1.215   4.500  10.519  1.0231  0.5700 -0.1612
  434TMC3    C8 6478   1.561   0.002  10.768  0.0622 -0.3085 -0.1731
  434TMC3    O1 6479   1.126   4.526  10.438  0.4704  0.2203  0.0780
  434TMC3    O2 6480   1.529   0.054  10.872  0.1841  0.0865  0.4585
  435MPD2     C 6481   2.437   0.047  15.246 -0.1861  0.0950  0.8775
  435MPD2    C1 6482   2.441   0.114  15.366 -0.8063  0.3603  0.1013
  435MPD2    C2 6483   2.561   0.119  15.431 -0.4727  1.2130 -0.2923
  435MPD2    C3 6484   2.674   0.049  15.384 -0.1476 -0.0068 -0.5418
  435MPD2    C4 6485   2.670   4.717  15.255 -0.4779  0.1327  0.2395
  435MPD2    C5 6486   2.549   4.721  15.193 -0.5911 -0.1229  0.4902
  435MPD2     H 6487   2.561   0.167  15.527  0.6972 -0.0274  0.3454
  435MPD2    H1 6488   2.744   4.663  15.198  0.8239  0.2580  1.8120
  435MPD2    H2 6489   2.342   0.040  15.193  0.5789  2.0544 -0.7520
  435MPD2    H3 6490   2.544   4.681  15.093  1.2439  1.3563 -0.1827
  435MPD2     N 6491   2.786   0.056  15.461 -0.0209 -0.1901  0.3653
  435MPD2    H5 6492   2.766   0.096  15.552 -1.0846 -0.8309  0.4170
  435MPD2    N1 6493   2.332   0.169  15.434 -0.1225  0.1494  0.2483
  435MPD2    H7 6494   2.338   0.205  15.528 -0.8647 -0.0247  0.3648
  436TMC3    C1 6495   1.998   0.198  15.669 -0.5915 -0.1383 -0.1525
  436TMC3    C2 6496   2.105   0.173  15.585 -0.5860 -0.5157  0.1522
  436TMC3    C3 6497   2.103   0.231  15.461  0.7939  0.5160  0.5073
  436TMC3    C4 6498   1.893   0.282  15.640 -0.0022  0.5743  0.2242
  436TMC3    C5 6499   1.885   0.314  15.509  0.0636 -0.5247 -1.0183
  436TMC3    C6 6500   1.985   0.292  15.419 -0.1979  0.1264 -0.5786
  436TMC3     C 6501   2.010   0.134  15.802 -0.2836 -0.3089 -0.1973
  436TMC3     O 6502   2.076   0.032  15.818 -0.0127  0.0629 -0.3050
  436TMC3     H 6503   2.189   0.122  15.631 -0.9515 -2.3589 -1.2372
  436TMC3    H1 6504   1.801   0.280  15.697 -0.0619  1.1125  0.1442
  436TMC3    H2 6505   1.967   0.325  15.317 -3.9166  2.5622  0.8593
  436TMC3    C7 6506   1.757   0.371  15.471 -0.3154  0.1489  0.0624
  436TMC3    C8 6507   2.213   0.201  15.369  0.2458 -0.0637 -0.2734
  436TMC3    O1 6508   1.720   0.361  15.355  0.3506  0.2562 -0.2251
  436TMC3    O2 6509   2.192   0.199  15.247 -0.1693  0.0051  0.0908
  437TMC3    C1 6510   1.918   2.645  12.406 -0.2445 -0.3540 -0.8988
  437TMC3    C2 6511   1.850   2.682  12.294 -0.6272 -0.6646 -0.0924
  437TMC3    C3 6512   1.925   2.735  12.194 -1.0216  0.3908 -0.1072
  437TMC3    C4 6513   2.056   2.646  12.420 -0.6009 -0.0534  0.4970
  437TMC3    C5 6514   2.125   2.689  12.307 -0.1782  0.3636 -0.0953
  437TMC3    C6 6515   2.060   2.748  12.202 -0.9951  0.2329  0.0422
  437TMC3     C 6516   1.834   2.574  12.504 -0.2797  0.3147 -0.3044
  437TMC3     O 6517   1.719   2.610  12.516  0.2412 -0.5754 -0.4516
  437TMC3     H 6518   1.742   2.687  12.285 -0.7311  0.2186  1.7625
  437TMC3    H1 6519   2.097   2.632  12.519 -1.7197  0.3463  1.0130
  437TMC3    H2 6520   2.117   2.799  12.125  0.5331 -1.5022  0.0130
  437TMC3    C7 6521   2.265   2.692  12.316  0.0879  0.0894 -0.0953
  437TMC3    C8 6522   1.852   2.765  12.067 -0.6749 -0.5867 -0.5236
  437TMC3    O1 6523   2.323   2.768  12.236 -0.1570 -0.9109  0.3751
  437TMC3    O2 6524   1.731   2.744  12.073 -0.4207 -0.5102  0.0968
  438MPD2     C 6525   4.299   3.236  16.662 -0.3631 -0.1183 -0.1985
  438MPD2    C1 6526   4.338   3.109  16.643 -0.8818  0.1892  0.4693
  438MPD2    C2 6527   4.290   3.004  16.712 -0.5305  0.8431  0.4215
  438MPD2    C3 6528   4.181   3.021  16.787 -0.3864 -0.6500 -0.1914
  438MPD2    C4 6529   4.141   3.149  16.815 -0.4949 -0.1780  0.0704
  438MPD2    C5 6530   4.198   3.255  16.745  0.0314  0.5539 -0.1074
  438MPD2     H 6531   4.324   2.904  16.690  0.4039  1.4464 -0.8451
  438MPD2    H1 6532   4.058   3.171  16.882  0.7247  0.1521  1.4747
  438MPD2    H2 6533   4.334   3.309  16.590 -0.2974  0.7891  0.7480
  438MPD2    H3 6534   4.166   3.358  16.746  0.9628  0.8481 -2.3867
  438MPD2     N 6535   4.098   2.922  16.844  0.1749  0.6953 -0.0198
  438MPD2    H5 6536   4.024   2.948  16.908 -1.0297 -0.1092 -1.0811
  438MPD2    N1 6537   4.434   3.072  16.550  0.0457  0.2638 -1.1811
  438MPD2    H7 6538   4.474   2.979  16.555 -0.5540  0.0504 -0.5582
  439TMC3    C1 6539   4.603   3.089  16.405 -0.4008 -0.5550 -0.4364
  439TMC3    C2 6540   4.595   3.081  16.266  0.3012  0.0167 -0.6721
  439TMC3    C3 6541   4.677   2.989  16.208 -0.6623 -0.0087  0.1760
  439TMC3    C4 6542   4.685   3.023  16.488  0.0121 -0.1708  0.2129
  439TMC3    C5 6543   0.040   2.935  16.423  0.5618 -0.1252  0.2282
  439TMC3    C6 6544   0.037   2.918  16.288  0.6355  0.4575  0.1764
  439TMC3     C 6545   4.489   3.156  16.456  0.6550 -0.1252 -0.4722
  439TMC3     O 6546   4.442   3.250  16.395 -0.1990  0.5614 -0.0999
  439TMC3     H 6547   4.541   3.152  16.205  2.2197  2.6630  0.6916
  439TMC3    H1 6548   4.693   3.029  16.596  2.8014 -2.3069  0.1193
  439TMC3    H2 6549   0.101   2.844  16.241  3.2328  3.1770 -0.5552
  439TMC3    C7 6550   0.125   2.859  16.509 -0.4326 -0.6287  0.0867
  439TMC3    C8 6551   4.611   2.913  16.109  0.3707  0.7301 -0.4409
  439TMC3    O1 6552   0.165   2.926  16.607  0.0778 -0.5390 -0.0821
  439TMC3    O2 6553   4.648   2.796  16.111  0.3770 -0.2735  0.2515
  440MPD2     C 6554   2.658   3.388  14.747 -0.5664 -0.2498 -0.0747
  440MPD2    C1 6555   2.702   3.470  14.849 -0.2804  0.0575 -0.3335
  440MPD2    C2 6556   2.808   3.430  14.921  0.0964 -0.3537 -0.5046
  440MPD2    C3 6557   2.889   3.324  14.886 -0.4936 -0.5758 -0.8518
  440MPD2    C4 6558   2.855   3.250  14.772 -0.5566  0.5739  0.0317
  440MPD2    C5 6559   2.737   3.279  14.702  0.7999 -0.1821 -0.3510
  440MPD2     H 6560   2.832   3.484  15.012  0.5801 -1.9135  0.2828
  440MPD2    H1 6561   2.923   3.172  14.741 -0.7286 -0.8847  3.3462
  440MPD2    H2 6562   2.563   3.401  14.697 -0.9170  0.2874  0.7567
  440MPD2    H3 6563   2.705   3.210  14.625  0.0656  0.8235 -0.9540
  440MPD2     N 6564   3.003   3.294  14.954  0.1266 -0.1297 -0.2793
  440MPD2    H5 6565   3.047   3.210  14.918 -2.2194 -0.7080 -1.7920
  440MPD2    N1 6566   2.636   3.596  14.881  0.3074  0.3615 -0.7509
  440MPD2    H7 6567   2.670   3.646  14.962 -1.3673 -1.6373  1.1972
  441TMC3    C1 6568   3.202   3.326  15.070  0.2602 -0.4253 -0.1828
  441TMC3    C2 6569   3.300   3.426  15.083 -0.0748  0.8137 -0.6213
  441TMC3    C3 6570   3.390   3.421  15.186  0.1875  0.6147  0.7261
  441TMC3    C4 6571   3.186   3.231  15.169  0.4003  0.3246 -0.1733
  441TMC3    C5 6572   3.278   3.233  15.271  0.0816  0.2097  1.3634
  441TMC3    C6 6573   3.380   3.318  15.275  0.0583  0.5565  0.0624
  441TMC3     C 6574   3.072   3.375  15.040  0.0969 -0.4246 -0.1996
  441TMC3     O 6575   3.053   3.494  15.053  1.0063  0.1425 -0.1859
  441TMC3     H 6576   3.300   3.510  15.013  0.9529  2.4447  1.3464
  441TMC3    H1 6577   3.117   3.148  15.167 -1.6561  2.0080  0.7986
  441TMC3    H2 6578   3.447   3.330  15.359 -2.4060  0.2379  2.0452
  441TMC3    C7 6579   3.279   3.120  15.348  0.1991  0.2128  0.3630
  441TMC3    C8 6580   3.392   3.554  15.256 -0.7725  0.1078  0.0820
  441TMC3    O1 6581   3.170   3.071  15.379  0.0498  0.5310  0.0217
  441TMC3    O2 6582   3.488   3.567  15.330  0.5622  0.6125 -0.6839
  442MPD2     C 6583   1.275   4.020  16.435 -0.5650  0.2156  0.4474
  442MPD2    C1 6584   1.172   3.971  16.361 -0.4746 -0.0562  0.4209
  442MPD2    C2 6585   1.167   3.839  16.325 -0.8679  0.4138  0.0263
  442MPD2    C3 6586   1.253   3.752  16.390 -0.0261 -0.2541 -0.2308
  442MPD2    C4 6587   1.359   3.802  16.472  0.0326  0.2429 -0.1342
  442MPD2    C5 6588   1.366   3.935  16.497  0.7361 -0.1075 -0.4705
  442MPD2     H 6589   1.071   3.814  16.282 -0.8595 -2.1002  1.4956
  442MPD2    H1 6590   1.432   3.739  16.520  0.2764 -0.2404 -1.1318
  442MPD2    H2 6591   1.297   4.120  16.470 -0.0593 -0.4106  1.9003
  442MPD2    H3 6592   1.437   3.978  16.566  1.7223 -0.7091 -1.1180
  442MPD2     N 6593   1.248   3.613  16.373 -0.1053 -0.9913 -0.1703
  442MPD2    H5 6594   1.323   3.555  16.409  1.9132  1.4482 -0.4002
  442MPD2    N1 6595   1.075   4.052  16.306  0.0068 -0.4998 -0.4699
  442MPD2    H7 6596   1.012   4.014  16.236 -0.6324 -0.4505  0.0808
  443TMC3    C1 6597   0.926   4.237  16.289 -0.0887 -0.3429 -0.7094
  443TMC3    C2 6598   0.867   4.173  16.186 -0.5643  0.0973 -0.5641
  443TMC3    C3 6599   0.755   4.224  16.132 -0.1701 -0.1927 -0.5671
  443TMC3    C4 6600   0.871   4.345  16.345 -0.4341 -0.7404  0.5465
  443TMC3    C5 6601   0.760   4.397  16.295  0.6536  0.2180  0.7083
  443TMC3    C6 6602   0.697   4.335  16.191  0.0843  0.0870 -0.4480
  443TMC3     C 6603   1.049   4.186  16.345 -0.4771 -0.3754  0.4110
  443TMC3     O 6604   1.118   4.263  16.413 -0.7077  0.3886 -0.0007
  443TMC3     H 6605   0.922   4.102  16.126  1.3680 -0.3971  1.7908
  443TMC3    H1 6606   0.916   4.396  16.429 -1.6626 -1.0791  1.4222
  443TMC3    H2 6607   0.593   4.361  16.174 -0.1320 -1.6034 -1.7106
  443TMC3    C7 6608   0.674   4.430  16.407  0.0398 -0.0802  0.2128
  443TMC3    C8 6609   0.687   4.135  16.030  0.0255  0.0316 -0.2206
  443TMC3    O1 6610   0.700   4.371  16.510  0.4702 -0.0028 -0.0306
  443TMC3    O2 6611   0.726   4.020  16.022  0.5929 -0.4325 -0.4433
  444MPD2     C 6612   1.578   2.884  17.150 -0.2556  0.3179 -0.4750
  444MPD2    C1 6613   1.477   2.892  17.054  0.1285 -0.2645 -0.3977
  444MPD2    C2 6614   1.457   2.779  16.976  0.0348  0.4473  0.2841
  444MPD2    C3 6615   1.524   2.658  16.993 -1.2289 -0.9671 -0.4040
  444MPD2    C4 6616   1.611   2.651  17.096  0.0855  0.2742 -0.3853
  444MPD2    C5 6617   1.633   2.762  17.178 -0.4355  0.0076  0.2895
  444MPD2     H 6618   1.388   2.788  16.893  0.5545 -0.5524 -0.2595
  444MPD2    H1 6619   1.672   2.564  17.119  1.6075  1.5197  0.3224
  444MPD2    H2 6620   1.599   2.966  17.217 -2.1950  0.4569 -0.0324
  444MPD2    H3 6621   1.703   2.750  17.260 -0.2318  2.8563  0.5139
  444MPD2     N 6622   1.511   2.553  16.899  0.3525 -0.2381  0.3001
  444MPD2    H5 6623   1.456   2.574  16.816  0.5014  1.3700  0.6203
  444MPD2    N1 6624   1.393   3.009  17.044  0.0192  0.4339  0.2435
  444MPD2    H7 6625   1.325   3.004  16.969  2.5928 -0.5479 -2.0211
  445TMC3    C1 6626   1.537   2.329  16.811  0.1183  0.6135  0.0718
  445TMC3    C2 6627   1.443   2.359  16.717  0.4605  0.8345 -0.4759
  445TMC3    C3 6628   1.431   2.275  16.609  0.0465 -0.0755 -0.0555
  445TMC3    C4 6629   1.623   2.228  16.795 -0.0478  0.1482 -0.2545
  445TMC3    C5 6630   1.605   2.143  16.690  0.0326 -0.3161  0.5868
  445TMC3    C6 6631   1.509   2.163  16.593  0.2235  0.0354 -0.0758
  445TMC3     C 6632   1.558   2.425  16.915  0.4480 -0.3778 -0.3430
  445TMC3     O 6633   1.631   2.374  17.002 -0.5771  0.2992 -0.5105
  445TMC3     H 6634   1.367   2.435  16.732 -0.3214 -0.6447  3.1316
  445TMC3    H1 6635   1.698   2.194  16.865 -0.1549 -0.4140 -0.4115
  445TMC3    H2 6636   1.508   2.104  16.503  1.1791  1.0382 -0.7406
  445TMC3    C7 6637   1.746   2.121  16.639  0.0529  0.3576 -0.1364
  445TMC3    C8 6638   1.357   2.336  16.493  0.4965 -0.2784  0.1785
  445TMC3    O1 6639   1.823   2.215  16.635  0.0649 -0.2775 -0.1311
  445TMC3    O2 6640   1.328   2.453  16.487 -0.4078 -0.0698  0.0266
  446MPD2     C 6641   1.215   0.001  11.338  0.6962 -0.6360 -0.0030
  446MPD2    C1 6642   1.233   4.702  11.204  0.6356  0.3696  0.1795
  446MPD2    C2 6643   1.341   0.026  11.134  0.4325 -0.0845 -0.3149
  446MPD2    C3 6644   1.435   0.094  11.209 -0.3341 -0.3001 -0.1329
  446MPD2    C4 6645   1.410   0.126  11.342  0.3477 -0.2521  0.2645
  446MPD2    C5 6646   1.301   0.080  11.407 -0.4631 -0.2663 -0.3082
  446MPD2     H 6647   1.351   0.006  11.028  2.8103 -0.1923 -0.0676
  446MPD2    H1 6648   1.476   0.198  11.390  2.0564 -3.4580  2.7155
  446MPD2    H2 6649   1.133   4.692  11.400  0.1832  0.4215 -0.1139
  446MPD2    H3 6650   1.296   0.112  11.510  0.9441 -1.6811  0.2098
  446MPD2     N 6651   1.539   0.147  11.134  0.8995 -0.0852  0.5222
  446MPD2    H5 6652   1.537   0.145  11.033 -0.0340  2.5334  0.4995
  446MPD2    N1 6653   1.152   4.615  11.135 -0.3778 -1.1640  0.4845
  446MPD2    H7 6654   1.160   4.611  11.034 -1.3730 -0.2172  0.3773
  447TMC3    C1 6655   1.735   0.270  11.097 -1.3588  0.3717  0.1752
  447TMC3    C2 6656   1.690   0.299  10.971  0.5403 -0.0150  0.0276
  447TMC3    C3 6657   1.794   0.310  10.881  0.1994  0.3121  0.0001
  447TMC3    C4 6658   1.861   0.281  11.142  0.9144  0.0854 -0.0513
  447TMC3    C5 6659   1.957   0.286  11.046 -0.6158 -1.0238 -0.1971
  447TMC3    C6 6660   1.930   0.299  10.914  0.7569  0.2164  0.0350
  447TMC3     C 6661   1.653   0.204  11.193 -0.7360 -0.2330 -0.0848
  447TMC3     O 6662   1.676   0.211  11.312  0.0439 -0.0119 -0.0561
  447TMC3     H 6663   1.584   0.302  10.953  0.6446  1.8236 -0.3046
  447TMC3    H1 6664   1.872   0.227  11.235 -1.4007  0.5965  0.5091
  447TMC3    H2 6665   1.997   0.305  10.829 -1.2854  0.7744 -1.5261
  447TMC3    C7 6666   2.096   0.292  11.086  0.1827 -0.2998  1.0119
  447TMC3    C8 6667   1.746   0.321  10.741  0.0243  0.3855  0.2303
  447TMC3    O1 6668   2.175   0.249  11.001 -0.0540  0.2203  0.2733
  447TMC3    O2 6669   1.630   0.355  10.720  0.4778 -0.0595  0.7043
  448TMC3    C1 6670   3.284   4.353  16.737  0.1084 -0.2028  0.1024
  448TMC3    C2 6671   3.358   4.310  16.627 -0.0969 -0.4253 -0.6935
  448TMC3    C3 6672   3.401   4.178  16.632  0.1408  0.1455 -0.4340
  448TMC3    C4 6673   3.260   4.272  16.840  0.8456 -1.4001 -0.3134
  448TMC3    C5 6674   3.312   4.148  16.842  0.3135  0.5869  0.1619
  448TMC3    C6 6675   3.388   4.100  16.745  0.7994 -0.6084 -0.4386
  448TMC3     C 6676   3.239   4.489  16.748 -0.2845  0.4945 -0.5046
  448TMC3     O 6677   3.308   4.567  16.681  0.2280  0.0851 -0.1902
  448TMC3     H 6678   3.382   4.380  16.548 -1.8001  0.4247 -0.4810
  448TMC3    H1 6679   3.202   4.298  16.928 -2.0925 -0.0423 -2.6619
  448TMC3    H2 6680   3.446   4.009  16.758  0.9513 -0.4331  0.1027
  448TMC3    C7 6681   3.314   4.090  16.978  0.4932 -0.0503  0.5398
  448TMC3    C8 6682   3.523   4.149  16.545 -0.8538 -0.0585 -0.7557
  448TMC3    O1 6683   3.212   4.109  17.046  0.0904 -0.2530 -0.5130
  448TMC3    O2 6684   3.610   4.075  16.592 -0.0900  0.2915 -0.0606
  449MPD2     C 6685   0.758   2.534  13.930 -0.6288 -0.5863  0.2423
  449MPD2    C1 6686   0.677   2.647  13.931 -0.0820 -0.1830  0.5946
  449MPD2    C2 6687   0.539   2.634  13.954 -0.0324 -0.0918 -0.8711
  449MPD2    C3 6688   0.479   2.512  13.967 -0.4050 -0.3408 -0.0815
  449MPD2    C4 6689   0.550   2.396  13.958 -0.3762  0.5950 -0.1493
  449MPD2    C5 6690   0.685   2.415  13.953  0.3025 -0.5301  0.2380
  449MPD2     H 6691   0.471   2.719  13.955 -1.8570 -1.5834  1.0018
  449MPD2    H1 6692   0.510   2.296  13.964  1.3808 -0.2066 -1.4556
  449MPD2    H2 6693   0.866   2.534  13.936 -0.4645  0.8290 -2.5846
  449MPD2    H3 6694   0.746   2.327  13.970  0.8852  0.0283  1.0319
  449MPD2     N 6695   0.338   2.515  13.956  0.0412 -0.4498 -0.4124
  449MPD2    H5 6696   0.293   2.606  13.953  2.2284  0.6244 -0.6558
  449MPD2    N1 6697   0.725   2.782  13.903 -0.1407 -0.9345 -0.5531
  449MPD2    H7 6698   0.652   2.851  13.886  0.9994 -0.1038 -2.0420
  450TMC3    C1 6699   0.865   2.947  13.815  0.3608  0.4467  0.3595
  450TMC3    C2 6700   0.938   2.938  13.690  0.0683  0.5982  0.1430
  450TMC3    C3 6701   0.873   2.995  13.584 -0.3847 -0.1088  0.3491
  450TMC3    C4 6702   0.755   3.024  13.827 -0.2412  0.6507 -0.1539
  450TMC3    C5 6703   0.692   3.075  13.716 -0.3768 -0.2976 -0.0470
  450TMC3    C6 6704   0.757   3.069  13.592 -0.0637  0.4485  0.5037
  450TMC3     C 6705   0.856   2.815  13.880  0.8153  0.6507  0.1705
  450TMC3     O 6706   0.954   2.742  13.885 -0.6886 -0.1409  0.0308
  450TMC3     H 6707   1.013   2.861  13.679  1.4524  2.0424 -0.5224
  450TMC3    H1 6708   0.729   3.037  13.932 -2.5495 -0.1559 -0.6042
  450TMC3    H2 6709   0.714   3.116  13.505  1.9807 -0.5702 -1.0557
  450TMC3    C7 6710   0.558   3.041  13.721  0.2624  0.4632  0.0436
  450TMC3    C8 6711   0.931   2.994  13.454 -0.1683 -0.1330  0.7132
  450TMC3    O1 6712   0.545   2.955  13.807 -0.0961 -0.1123 -0.5168
  450TMC3    O2 6713   0.862   3.032  13.364 -0.9246  0.0153 -0.5031
  451MPD2     C 6714   2.138   1.787   2.017  0.1786  0.1203  0.0262
  451MPD2    C1 6715   2.130   1.784   1.877  1.5958 -0.2348 -0.1457
  451MPD2    C2 6716   2.097   1.662   1.812  0.1095 -0.4119 -0.2989
  451MPD2    C3 6717   2.068   1.554   1.892  0.3946  0.1862  0.3517
  451MPD2    C4 6718   2.077   1.564   2.027  0.7029  0.2110 -0.2550
  451MPD2    C5 6719   2.109   1.677   2.088 -0.3764 -0.3620 -0.3750
  451MPD2     H 6720   2.111   1.648   1.706  1.2914 -0.3383 -0.1545
  451MPD2    H1 6721   2.055   1.481   2.093  2.5816  0.4597  0.6944
  451MPD2    H2 6722   2.188   1.870   2.064  0.4735  0.2825 -0.5741
  451MPD2    H3 6723   2.131   1.668   2.194 -0.0265 -1.0982 -0.5042
  451MPD2     N 6724   2.036   1.426   1.839 -0.2518  0.1765  0.1431
  451MPD2    H5 6725   2.014   1.352   1.904  2.8718 -1.0496 -0.1745
  451MPD2    N1 6726   2.158   1.904   1.809 -0.4447  0.1982  0.1605
  451MPD2    H7 6727   2.178   1.988   1.863  0.4564  0.0747  0.0084
  452TMC3    C1 6728   1.944   1.275   1.685 -0.4557  0.6397 -0.2463
  452TMC3    C2 6729   1.870   1.218   1.789 -0.4313 -0.5274 -0.3028
  452TMC3    C3 6730   1.771   1.134   1.745 -0.4242  0.0077 -0.0899
  452TMC3    C4 6731   1.938   1.236   1.554 -0.0051 -0.6689 -0.2425
  452TMC3    C5 6732   1.847   1.137   1.526 -0.5900 -0.4729 -0.1983
  452TMC3    C6 6733   1.761   1.085   1.618 -0.3824 -0.2500 -0.3515
  452TMC3     C 6734   2.024   1.397   1.710 -0.4562 -0.0874  0.4290
  452TMC3     O 6735   2.051   1.459   1.606  0.0319  0.4019  0.5848
  452TMC3     H 6736   1.861   1.274   1.881 -0.4350  1.5648 -1.5692
  452TMC3    H1 6737   2.014   1.265   1.483 -0.4994  0.5449 -0.2748
  452TMC3    H2 6738   1.699   0.999   1.598 -2.6662  0.6981  2.8232
  452TMC3    C7 6739   1.819   1.119   1.386  0.5194 -0.0606  0.2049
  452TMC3    C8 6740   1.690   1.079   1.842 -0.0348  0.2745  0.3048
  452TMC3    O1 6741   1.909   1.137   1.303  0.2043  0.2703  0.0293
  452TMC3    O2 6742   1.593   1.015   1.808 -0.4743  0.3497 -0.4727
  453TMC3    C1 6743   3.580   3.500  11.559 -0.5062 -0.4038  0.3921
  453TMC3    C2 6744   3.475   3.417  11.601 -0.1773 -0.3987 -0.2928
  453TMC3    C3 6745   3.373   3.382  11.521  0.6504 -0.7060 -0.1075
  453TMC3    C4 6746   3.575   3.547  11.431  0.1487 -0.2338  0.4004
  453TMC3    C5 6747   3.465   3.519  11.350  0.4170 -0.3768 -0.0367
  453TMC3    C6 6748   3.358   3.436  11.389 -0.1514  0.6373 -0.5629
  453TMC3     C 6749   3.660   3.557  11.667  0.4224 -0.9562 -0.2064
  453TMC3     O 6750   3.622   3.545  11.781  0.1209  0.0340  0.4541
  453TMC3     H 6751   3.479   3.384  11.704  0.4450  0.6420  0.0169
  453TMC3    H1 6752   3.641   3.626  11.397 -1.6982  2.0477  2.2281
  453TMC3    H2 6753   3.275   3.418  11.322  0.5821  0.6308 -1.4821
  453TMC3    C7 6754   3.468   3.589  11.226  1.0448 -0.2287 -0.6553
  453TMC3    C8 6755   3.260   3.311  11.572  0.1355  0.3549 -0.1450
  453TMC3    O1 6756   3.363   3.610  11.168  0.3339  0.6260 -0.5332
  453TMC3    O2 6757   3.148   3.316  11.524 -0.1466  0.0680  0.2483
  454MPD2     C 6758   2.164   2.299  16.546  0.3317 -0.0068 -0.6869
  454MPD2    C1 6759   2.103   2.422  16.545 -0.3882  0.2383  0.1302
  454MPD2    C2 6760   2.076   2.483  16.667 -0.0339  0.3424  0.3079
  454MPD2    C3 6761   2.085   2.409  16.786 -0.1429 -0.6197 -0.0882
  454MPD2    C4 6762   2.141   2.283  16.783  0.4047  0.5588  0.1547
  454MPD2    C5 6763   2.169   2.224  16.664 -0.2473 -0.0067 -0.3216
  454MPD2     H 6764   2.028   2.579  16.655  1.6305  1.3202  1.5032
  454MPD2    H1 6765   2.153   2.226  16.874 -1.7376  0.9006  0.6543
  454MPD2    H2 6766   2.191   2.245  16.457  3.3684 -0.2669  0.3835
  454MPD2    H3 6767   2.206   2.123  16.660 -1.0867 -0.2853 -1.1166
  454MPD2     N 6768   2.032   2.467  16.905 -0.3123  0.3557 -0.4351
  454MPD2    H5 6769   2.063   2.413  16.985  0.3011 -1.4753 -1.8933
  454MPD2    N1 6770   2.068   2.486  16.421 -0.5598  0.5175 -1.0466
  454MPD2    H7 6771   2.047   2.585  16.428 -1.0778  0.4007 -0.9388
  455TMC3    C1 6772   1.861   2.629  16.810  0.0966  0.2451  0.1603
  455TMC3    C2 6773   1.849   2.760  16.818 -0.0856 -0.0999 -0.5032
  455TMC3    C3 6774   1.765   2.824  16.722 -0.4425 -0.7986 -0.0255
  455TMC3    C4 6775   1.793   2.559  16.711  0.0885 -0.1044 -0.6153
  455TMC3    C5 6776   1.720   2.629  16.612 -0.1743  0.6635 -0.0017
  455TMC3    C6 6777   1.702   2.764  16.618  0.3470 -0.2534 -0.1216
  455TMC3     C 6778   1.945   2.570  16.921  0.0521 -0.6810 -0.3964
  455TMC3     O 6779   1.911   2.610  17.031 -0.0418 -0.0495 -0.1894
  455TMC3     H 6780   1.899   2.814  16.899 -0.4658  2.3088 -1.8705
  455TMC3    H1 6781   1.810   2.452  16.702  0.2315 -0.1478  0.1522
  455TMC3    H2 6782   1.638   2.820  16.551 -0.6139  1.0267  1.8594
  455TMC3    C7 6783   1.665   2.567  16.491  0.0783  0.1385 -0.1589
  455TMC3    C8 6784   1.713   2.955  16.778 -0.5106 -0.7527  0.0100
  455TMC3    O1 6785   1.593   2.636  16.421  0.1557  0.5293 -0.1203
  455TMC3    O2 6786   1.788   3.008  16.856 -0.3716  0.4861 -0.0746
  456MPD2     C 6787   4.486   3.411  15.706  0.2153  0.2164  0.2309
  456MPD2    C1 6788   4.534   3.363  15.832 -0.1755  0.1894  0.3873
  456MPD2    C2 6789   4.473   3.403  15.957  0.4146  0.2582  0.4053
  456MPD2    C3 6790   4.368   3.496  15.960 -0.1459  0.0130 -0.1054
  456MPD2    C4 6791   4.337   3.556  15.837  0.6259 -0.0573  0.6441
  456MPD2    C5 6792   4.389   3.510  15.715  0.8279  1.3792  0.4552
  456MPD2     H 6793   4.515   3.358  16.046  5.0040  1.7193 -1.0182
  456MPD2    H1 6794   4.278   3.647  15.839  4.3056  2.2949  2.6836
  456MPD2    H2 6795   4.524   3.386  15.608  1.6222 -1.1108  1.1074
  456MPD2    H3 6796   4.361   3.563  15.626  1.0634 -0.0091 -0.4530
  456MPD2     N 6797   4.317   3.545  16.083 -0.1279 -0.2438 -0.1983
  456MPD2    H5 6798   4.370   3.520  16.167 -3.5674 -1.0640  1.7281
  456MPD2    N1 6799   4.638   3.274  15.812 -0.0370 -1.2007  0.0582
  456MPD2    H7 6800   4.669   3.253  15.718  0.5824  1.5838 -0.3386
  457TMC3    C1 6801   4.182   3.674  16.231  0.8210  0.3080 -0.3999
  457TMC3    C2 6802   4.108   3.782  16.229 -0.2149  0.1917  0.0270
  457TMC3    C3 6803   4.046   3.808  16.343  0.4954 -0.2340 -0.1388
  457TMC3    C4 6804   4.216   3.601  16.345 -0.1068 -0.1152  0.1490
  457TMC3    C5 6805   4.154   3.645  16.462 -0.4037 -0.3414 -0.1619
  457TMC3    C6 6806   4.056   3.738  16.459 -0.1702  0.1628 -0.0580
  457TMC3     C 6807   4.213   3.631  16.094 -0.3346  0.4763  0.0226
  457TMC3     O 6808   4.134   3.660  16.003 -0.1417  0.6015  0.4025
  457TMC3     H 6809   4.096   3.836  16.136  0.5792  0.5097  0.1116
  457TMC3    H1 6810   4.285   3.518  16.340  0.6202  0.3642  1.9740
  457TMC3    H2 6811   3.988   3.756  16.541 -0.8246 -1.0719 -0.3229
  457TMC3    C7 6812   4.235   3.633  16.584 -0.4575 -0.0171 -0.5373
  457TMC3    C8 6813   3.954   3.927  16.359  0.4590  0.3777 -0.9038
  457TMC3    O1 6814   4.326   3.554  16.585 -0.0782 -0.2700 -0.0433
  457TMC3    O2 6815   3.933   3.965  16.474  0.2769  0.1237  0.6016
  458MPD2     C 6816   2.677   2.595  12.599 -0.3527  0.0908 -0.5302
  458MPD2    C1 6817   2.576   2.513  12.644 -0.2421 -0.1020  0.6765
  458MPD2    C2 6818   2.445   2.519  12.589  0.6568 -0.1072 -0.0166
  458MPD2    C3 6819   2.434   2.599  12.476  0.3078  0.6136  0.7272
  458MPD2    C4 6820   2.548   2.639  12.410 -0.4200  0.3835 -0.0739
  458MPD2    C5 6821   2.672   2.645  12.477 -0.2528 -0.2407 -0.1800
  458MPD2     H 6822   2.355   2.482  12.637 -0.1932  0.5528 -1.0802
  458MPD2    H1 6823   2.538   2.674  12.308  2.0464  1.3477  0.0007
  458MPD2    H2 6824   2.771   2.601  12.654 -0.6972 -1.7487  0.2457
  458MPD2    H3 6825   2.759   2.689  12.430  0.4143 -1.2770  0.0699
  458MPD2     N 6826   2.304   2.616  12.424 -0.1020  0.6399  0.2959
  458MPD2    H5 6827   2.238   2.565  12.481 -1.2836  0.7807 -0.9625
  458MPD2    N1 6828   2.601   2.457  12.775  0.1467  0.8414  0.4339
  458MPD2    H7 6829   2.690   2.485  12.816  0.7347  2.2464 -1.7696
  459TMC3    C1 6830   2.531   2.366  12.981 -0.1481  0.0830 -0.2830
  459TMC3    C2 6831   2.599   2.464  13.051  0.4369  0.2252  0.3901
  459TMC3    C3 6832   2.650   2.419  13.173 -0.6926 -0.2813  0.4194
  459TMC3    C4 6833   2.528   2.235  13.015  0.2836 -0.4548 -0.8484
  459TMC3    C5 6834   2.598   2.191  13.128 -0.6623  0.0354 -0.4891
  459TMC3    C6 6835   2.645   2.286  13.213  0.4997  0.2661 -0.5876
  459TMC3     C 6836   2.507   2.381  12.840  0.0072 -0.5093  0.5153
  459TMC3     O 6837   2.406   2.323  12.796  0.2218  0.8552 -0.0402
  459TMC3     H 6838   2.603   2.566  13.017 -0.6170 -0.5556 -2.0774
  459TMC3    H1 6839   2.475   2.160  12.959  0.1178 -2.0235  1.4029
  459TMC3    H2 6840   2.691   2.242  13.300 -1.4199 -0.0661  0.2643
  459TMC3    C7 6841   2.607   2.049  13.151 -1.0628  0.0429 -0.3137
  459TMC3    C8 6842   2.767   2.493  13.227  0.2249 -0.3923  0.1588
  459TMC3    O1 6843   2.630   1.989  13.045  0.2292  0.9723  0.5496
  459TMC3    O2 6844   2.860   2.428  13.266  0.1787 -0.3700 -0.4887
  460MPD2     C 6845   1.952   0.268  10.440  0.2370  0.0065 -0.6090
  460MPD2    C1 6846   1.836   0.297  10.511  0.3734  0.9301 -1.1164
  460MPD2    C2 6847   1.725   0.344  10.442 -0.2687 -0.0357 -0.5616
  460MPD2    C3 6848   1.737   0.379  10.305 -0.2477  0.1581 -0.0319
  460MPD2    C4 6849   1.855   0.359  10.233  0.8166 -0.3807  0.4990
  460MPD2    C5 6850   1.956   0.297  10.306 -0.4989 -0.5936  0.2862
  460MPD2     H 6851   1.624   0.347  10.480  1.2578  1.3042  3.3993
  460MPD2    H1 6852   1.856   0.382  10.127 -0.4168  1.3036  0.8408
  460MPD2    H2 6853   2.038   0.221  10.488  1.1553  0.3490 -1.9285
  460MPD2    H3 6854   2.044   0.264  10.252 -0.1857  1.1284 -0.2725
  460MPD2     N 6855   1.622   0.434  10.239 -0.6740 -0.2157 -0.1034
  460MPD2    H5 6856   1.538   0.425  10.296 -0.7491 -1.5850 -0.4141
  460MPD2    N1 6857   1.841   0.286  10.649  0.3305 -0.1608  0.0653
  460MPD2    H7 6858   1.934   0.258  10.680  0.5377  1.8438  1.2275
  461TMC3    C1 6859   1.458   0.494  10.092 -0.1030  0.3418  0.4699
  461TMC3    C2 6860   1.392   0.375  10.108  0.5528  0.3559  0.2560
  461TMC3    C3 6861   1.261   0.365  10.059 -0.3569  0.2748  0.1343
  461TMC3    C4 6862   1.412   0.589  10.000 -0.3490 -0.0087 -1.3037
  461TMC3    C5 6863   1.295   0.560   9.937 -0.7787  0.5621  0.5654
  461TMC3    C6 6864   1.217   0.451   9.966  0.0230 -0.3932  0.5651
  461TMC3     C 6865   1.603   0.482  10.115  0.5551 -0.4631 -0.3070
  461TMC3     O 6866   1.690   0.521  10.035  0.1652  0.4059  0.4781
  461TMC3     H 6867   1.430   0.293  10.167 -0.3637 -1.3041 -1.4426
  461TMC3    H1 6868   1.473   0.674   9.973  0.5445 -0.8421 -1.9269
  461TMC3    H2 6869   1.128   0.430   9.907  0.1234 -1.1737  0.6917
  461TMC3    C7 6870   1.213   0.678   9.915 -0.5549 -0.0550 -0.2117
  461TMC3    C8 6871   1.229   0.224  10.033 -0.5952 -0.0083  0.1587
  461TMC3    O1 6872   1.133   0.672   9.821  0.1491 -0.0367  0.0058
  461TMC3    O2 6873   1.330   0.153  10.020 -0.1734  0.3057  0.0999
  462TMC3    C1 6874   1.211   0.661   0.439 -0.4099  0.3944  0.1491
  462TMC3    C2 6875   1.322   0.592   0.395 -0.6635  0.2011 -0.2472
  462TMC3    C3 6876   1.309   0.495   0.300 -0.3719 -0.8914  0.2087
  462TMC3    C4 6877   1.088   0.631   0.387  0.1427 -0.2634  0.4628
  462TMC3    C5 6878   1.076   0.524   0.294 -0.1721  0.7155 -0.2255
  462TMC3    C6 6879   1.192   0.466   0.240  0.8611  0.5893  0.8351
  462TMC3     C 6880   1.222   0.790   0.513 -0.5679  0.5962 -0.1411
  462TMC3     O 6881   1.126   0.825   0.575 -0.3109  0.3805  0.5898
  462TMC3     H 6882   1.421   0.607   0.435 -0.6576 -1.1946  0.2620
  462TMC3    H1 6883   1.007   0.693   0.421  1.0537  2.1568 -1.7703
  462TMC3    H2 6884   1.176   0.381   0.176 -0.0126  3.1926 -2.4098
  462TMC3    C7 6885   0.951   0.443   0.282  0.3534  0.5716  0.6252
  462TMC3    C8 6886   1.426   0.421   0.256  0.9104  0.3334  0.1447
  462TMC3    O1 6887   0.933   0.370   0.184  0.4632 -0.2172 -0.0468
  462TMC3    O2 6888   1.518   0.404   0.333  0.1076  0.5653 -0.0423
  463MPD2     C 6889   1.548   0.425   1.899 -0.0761  0.2290  0.3641
  463MPD2    C1 6890   1.522   0.422   1.763  0.2696 -0.5397 -0.0191
  463MPD2    C2 6891   1.594   0.508   1.677  0.3756 -0.0695  0.7443
  463MPD2    C3 6892   1.681   0.602   1.729  0.8451 -0.2976  0.0866
  463MPD2    C4 6893   1.705   0.605   1.864  0.8743 -0.4638 -0.6106
  463MPD2    C5 6894   1.647   0.510   1.944 -0.5272  0.3723  0.0341
  463MPD2     H 6895   1.580   0.489   1.571 -1.4027  0.4105  0.8862
  463MPD2    H1 6896   1.774   0.672   1.914 -0.4988  0.4091  0.1184
  463MPD2    H2 6897   1.506   0.359   1.974  0.7654  0.1275  0.7538
  463MPD2    H3 6898   1.672   0.519   2.049  1.0701  0.9315 -0.4078
  463MPD2     N 6899   1.763   0.677   1.642 -0.3789  0.2511 -0.6574
  463MPD2    H5 6900   1.844   0.725   1.681  0.2363  1.4352 -3.4293
  463MPD2    N1 6901   1.432   0.324   1.708  0.0385 -0.5175 -0.7959
  463MPD2    H7 6902   1.395   0.340   1.615 -0.2148  1.1052 -0.4239
  464TMC3    C1 6903   1.318   0.129   1.668  0.8038  0.3269  0.0037
  464TMC3    C2 6904   1.347   0.150   1.531  0.4828 -0.5252 -0.0485
  464TMC3    C3 6905   1.279   0.062   1.447 -0.2524 -0.2249  0.7596
  464TMC3    C4 6906   1.232   0.032   1.707 -0.2151  1.0164  0.4768
  464TMC3    C5 6907   1.167   4.675   1.622 -0.2012  0.3838  0.1283
  464TMC3    C6 6908   1.194   4.685   1.487 -0.8216  0.7306  0.5010
  464TMC3     C 6909   1.385   0.214   1.771  0.2603 -0.2851 -0.0173
  464TMC3     O 6910   1.375   0.193   1.894  0.3523  0.6495 -0.6936
  464TMC3     H 6911   1.402   0.233   1.489 -2.0570  0.3988 -1.5335
  464TMC3    H1 6912   1.220   0.015   1.813  2.2261 -1.0374  0.4225
  464TMC3    H2 6913   1.143   4.631   1.408  0.0268  1.0525 -0.2670
  464TMC3    C7 6914   1.087   4.564   1.675 -0.4889  0.2185 -0.2501
  464TMC3    C8 6915   1.323   0.067   1.310 -0.0839  0.1987 -0.4745
  464TMC3    O1 6916   1.081   4.562   1.797  0.1344 -0.1202  0.9910
  464TMC3    O2 6917   1.428   0.132   1.285  0.0105 -0.6616  0.1796
  465MPD2     C 6918   4.067   3.188  16.015 -0.0472 -0.1952  0.1310
  465MPD2    C1 6919   3.981   3.097  16.065  0.3327  0.2543 -0.0303
  465MPD2    C2 6920   3.847   3.125  16.061  0.3998 -0.2526 -0.6425
  465MPD2    C3 6921   3.800   3.244  16.006  0.3979  0.3515 -0.4782
  465MPD2    C4 6922   3.889   3.329  15.947 -0.0261  0.4575  0.4919
  465MPD2    C5 6923   4.024   3.301  15.948  0.3155  0.3278  0.1825
  465MPD2     H 6924   3.777   3.053  16.100 -0.8406  2.2022  1.6738
  465MPD2    H1 6925   3.856   3.421  15.901 -2.0476 -1.0816 -1.1568
  465MPD2    H2 6926   4.173   3.169  16.027  0.0847  0.3759 -0.1255
  465MPD2    H3 6927   4.094   3.364  15.895  0.5085 -1.3614 -1.5778
  465MPD2     N 6928   3.661   3.267  16.013  0.9111 -0.1190 -0.5031
  465MPD2    H5 6929   3.610   3.184  16.043  0.1496  0.6783  0.4104
  465MPD2    N1 6930   4.018   2.982  16.137 -0.0099  0.6706 -0.4035
  465MPD2    H7 6931   3.946   2.915  16.160 -0.8873  1.6299 -0.3646
  466TMC3    C1 6932   3.250   3.312  16.074 -0.4271  0.0798  0.4284
  466TMC3    C2 6933   3.186   3.438  16.065 -0.0609  0.1208  0.0833
  466TMC3    C3 6934   3.257   3.540  16.015 -0.2891 -0.4501 -0.0894
  466TMC3    C4 6935   3.380   3.296  16.045 -0.0221 -0.8846  0.1858
  466TMC3    C5 6936   3.454   3.398  15.987 -0.3197 -0.1750  0.4913
  466TMC3    C6 6937   3.396   3.522  15.984  0.2809 -0.0807 -0.3386
  466TMC3     C 6938   3.173   3.209  16.147 -0.0748  0.2401  0.0729
  466TMC3     O 6939   3.081   3.254  16.210 -0.2405 -0.6510 -0.2565
  466TMC3     H 6940   3.082   3.454  16.089 -0.4374 -1.6921 -0.3304
  466TMC3    H1 6941   3.425   3.199  16.064 -0.3674 -1.3357 -1.3740
  466TMC3    H2 6942   3.456   3.607  15.955  1.5888 -0.0691  2.4057
  466TMC3    C7 6943   3.601   3.387  15.986  0.0611 -0.1430 -0.1426
  466TMC3    C8 6944   3.208   3.673  16.010 -0.5527  0.4417 -0.7581
  466TMC3    O1 6945   3.654   3.491  15.953  0.8903 -0.0103 -0.5414
  466TMC3    O2 6946   3.251   3.751  15.926  0.0436 -0.7680 -0.4515
  467TMC3    C1 6947   4.676   1.382  13.425  0.0448  0.0807  0.8951
  467TMC3    C2 6948   4.608   1.439  13.320  0.0464  0.8020  0.1658
  467TMC3    C3 6949   4.492   1.510  13.346  0.2307  0.0739  0.4403
  467TMC3    C4 6950   4.632   1.385  13.551  0.3424  0.7284 -0.1220
  467TMC3    C5 6951   4.509   1.438  13.571 -0.4085  1.0359  0.1429
  467TMC3    C6 6952   4.441   1.506  13.470 -0.5739  0.1398 -0.2632
  467TMC3     C 6953   0.090   1.415  13.408 -0.4233  0.8368  0.5253
  467TMC3     O 6954   0.107   1.509  13.332 -0.0024  0.1968 -0.2155
  467TMC3     H 6955   4.649   1.431  13.220 -2.4124 -0.2125 -0.7684
  467TMC3    H1 6956   4.695   1.349  13.632  0.1099 -0.0951 -0.3101
  467TMC3    H2 6957   4.344   1.551  13.487 -0.2487  0.3257  1.1321
  467TMC3    C7 6958   4.445   1.428  13.700  0.3413  0.4827  0.5511
  467TMC3    C8 6959   4.482   1.645  13.284 -0.5181 -0.6244  0.0104
  467TMC3    O1 6960   4.512   1.369  13.784  0.6468 -0.1616 -0.2892
  467TMC3    O2 6961   4.441   1.740  13.351  0.6454  0.4209 -0.5276
  468MPD2     C 6962   3.522   0.256  10.378  0.4977  0.0520  0.0738
  468MPD2    C1 6963   3.647   0.214  10.422  0.6384 -0.2640  0.1328
  468MPD2    C2 6964   3.653   0.079  10.456 -0.1154  0.1108  0.2613
  468MPD2    C3 6965   3.543   4.720  10.476 -0.3271  0.1421  0.4509
  468MPD2    C4 6966   3.425   0.040  10.426 -0.0184 -0.2338 -0.2370
  468MPD2    C5 6967   3.415   0.167  10.386 -0.8638 -0.2871  0.3629
  468MPD2     H 6968   3.756   0.044  10.464  0.0443  0.8503  1.4654
  468MPD2    H1 6969   3.341   4.697  10.412 -0.4789  0.1828  0.5356
  468MPD2    H2 6970   3.495   0.351  10.334  1.8940  1.7312  2.8718
  468MPD2    H3 6971   3.319   0.200  10.347 -1.6098 -0.4240  2.0809
  468MPD2     N 6972   3.555   4.585  10.514 -0.7058  0.3623 -0.5136
  468MPD2    H5 6973   3.468   4.533  10.520 -0.1435 -0.7613 -2.2361
  468MPD2    N1 6974   3.766   0.290  10.419 -0.0716 -0.3164  0.1786
  468MPD2    H7 6975   3.852   0.240  10.438 -0.4435 -1.9146 -2.2179
  469TMC3    C1 6976   3.899   0.488  10.424 -0.5157  0.4497  0.0696
  469TMC3    C2 6977   3.937   0.445  10.547 -0.2766  0.1332 -0.2439
  469TMC3    C3 6978   3.940   0.543  10.641  0.1030 -0.8263  0.2163
  469TMC3    C4 6979   3.875   0.621  10.398 -0.1673 -0.4555 -0.2538
  469TMC3    C5 6980   3.859   0.709  10.501  0.2749  0.0147  0.1168
  469TMC3    C6 6981   3.902   0.670  10.622 -0.4494  0.5991 -0.3608
  469TMC3     C 6982   3.773   0.423  10.385  0.5848  0.2008 -0.2313
  469TMC3     O 6983   3.689   0.505  10.356  0.9374  0.0695  0.1766
  469TMC3     H 6984   3.967   0.343  10.569 -0.5381  0.8519  3.3420
  469TMC3    H1 6985   3.852   0.652  10.297 -1.6520 -2.0600 -0.3978
  469TMC3    H2 6986   3.911   0.749  10.696 -1.5710 -0.1245  0.5466
  469TMC3    C7 6987   3.766   0.818  10.506 -0.0426  0.7711  0.1453
  469TMC3    C8 6988   3.981   0.494  10.770  0.2649 -0.0744 -0.0867
  469TMC3    O1 6989   3.793   0.920  10.570 -0.0697 -0.1026 -0.6520
  469TMC3    O2 6990   4.053   0.398  10.770 -0.4029 -0.2774 -0.4074
  470TMC3    C1 6991   1.297   1.286   1.285  0.0644 -0.2268 -0.0094
  470TMC3    C2 6992   1.347   1.310   1.157  0.7012  0.2220  0.6438
  470TMC3    C3 6993   1.470   1.364   1.149 -0.1308 -0.3618  0.0038
  470TMC3    C4 6994   1.357   1.332   1.401 -0.4697 -0.3074 -0.3245
  470TMC3    C5 6995   1.482   1.388   1.390 -0.3120 -0.0752 -0.5200
  470TMC3    C6 6996   1.539   1.399   1.267  0.4137  0.7642 -0.2448
  470TMC3     C 6997   1.169   1.230   1.301  0.2792 -0.0177  0.7887
  470TMC3     O 6998   1.139   1.182   1.410 -0.4997  0.6781  0.4106
  470TMC3     H 6999   1.288   1.283   1.070  0.2469 -0.3259  1.1218
  470TMC3    H1 7000   1.314   1.301   1.496  1.0109  1.9854  1.0707
  470TMC3    H2 7001   1.641   1.435   1.271 -0.2814  3.0698 -3.4137
  470TMC3    C7 7002   1.558   1.446   1.501 -0.1333  0.7174  0.2822
  470TMC3    C8 7003   1.507   1.439   1.028  0.2317  0.4968 -0.0841
  470TMC3    O1 7004   1.674   1.483   1.477 -0.0631 -0.1965 -0.2972
  470TMC3    O2 7005   1.425   1.452   0.934 -0.0694 -0.3508 -0.4498
  471MPD2     C 7006   1.075   2.589  16.783 -0.2558 -0.0383 -1.1793
  471MPD2    C1 7007   1.037   2.460  16.798  0.1088  0.8170 -0.2664
  471MPD2    C2 7008   1.079   2.389  16.906 -0.3189 -0.6727 -0.2576
  471MPD2    C3 7009   1.159   2.455  16.999 -0.0391 -0.1541  0.0233
  471MPD2    C4 7010   1.187   2.585  16.991  0.1022 -0.3405 -0.2625
  471MPD2    C5 7011   1.137   2.653  16.880  0.3773  0.1208 -0.2465
  471MPD2     H 7012   1.042   2.287  16.914 -0.0009 -0.6777  1.1146
  471MPD2    H1 7013   1.235   2.641  17.071  0.8961 -2.9084  1.0572
  471MPD2    H2 7014   1.048   2.656  16.702 -1.4507  0.2898 -0.5041
  471MPD2    H3 7015   1.167   2.755  16.856  0.0417  0.4737  0.8344
  471MPD2     N 7016   1.208   2.392  17.113  0.1827 -0.1259 -0.2963
  471MPD2    H5 7017   1.275   2.442  17.170 -0.4850 -0.0609  0.4307
  471MPD2    N1 7018   0.962   2.395  16.694  0.3700 -0.6593  0.6696
  471MPD2    H7 7019   0.956   2.294  16.706 -1.9473 -0.6854 -0.6114
  472TMC3    C1 7020   0.872   2.379  16.468 -0.3988 -0.1560  0.0403
  472TMC3    C2 7021   0.749   2.413  16.405 -0.3835  0.6166  0.2387
  472TMC3    C3 7022   0.699   2.316  16.321  0.1499 -0.2843  0.4274
  472TMC3    C4 7023   0.910   2.250  16.463  0.2938  0.1568 -0.1531
  472TMC3    C5 7024   0.854   2.162  16.380 -0.1271 -0.7741  0.3511
  472TMC3    C6 7025   0.749   2.189  16.298  0.0034  0.2700  0.5578
  472TMC3     C 7026   0.915   2.458  16.581  0.1960  0.6757  0.6161
  472TMC3     O 7027   0.888   2.579  16.573  0.7663 -0.0417 -0.2738
  472TMC3     H 7028   0.709   2.513  16.422  1.0423  1.2703 -0.1920
  472TMC3    H1 7029   1.002   2.219  16.512 -0.9124 -0.3304  1.7669
  472TMC3    H2 7030   0.697   2.122  16.231  0.0016  0.8382 -0.0075
  472TMC3    C7 7031   0.866   2.018  16.417  0.4976  0.9363  0.9483
  472TMC3    C8 7032   0.557   2.308  16.299 -0.2619  0.4117  0.0863
  472TMC3    O1 7033   0.925   1.992  16.520  0.4029  0.0396  1.1482
  472TMC3    O2 7034   0.500   2.411  16.280 -0.2571 -0.2358  0.2142
  473MPD2     C 7035   0.724   4.167  14.094 -0.4285 -0.3020 -0.1085
  473MPD2    C1 7036   0.804   4.233  14.012 -0.5687  0.5457 -0.4792
  473MPD2    C2 7037   0.893   4.320  14.063 -0.7764  0.1018  0.0252
  473MPD2    C3 7038   0.907   4.340  14.203 -0.1280  0.5833 -0.0869
  473MPD2    C4 7039   0.828   4.267  14.292 -0.1916  0.0318  0.7976
  473MPD2    C5 7040   0.736   4.184  14.232  0.2694 -0.4497  0.7949
  473MPD2     H 7041   0.955   4.377  13.994 -0.3940  1.1432  1.2313
  473MPD2    H1 7042   0.822   4.286  14.398 -0.5528  2.3816  0.3433
  473MPD2    H2 7043   0.644   4.101  14.062 -0.2363 -0.9824  0.8179
  473MPD2    H3 7044   0.663   4.138  14.298 -0.2955  1.0449  1.2304
  473MPD2     N 7045   0.999   4.427  14.260  0.2172 -0.1103  0.2716
  473MPD2    H5 7046   0.990   4.451  14.358 -0.5135 -1.1523  0.4696
  473MPD2    N1 7047   0.809   4.217  13.873  0.0715  0.2452  0.2923
  473MPD2    H7 7048   0.872   4.269  13.813 -0.6686  0.3180 -0.4205
  474TMC3    C1 7049   1.115   4.618  14.238  0.1694  0.5250 -0.3914
  474TMC3    C2 7050   0.991   4.683  14.238  0.0325 -0.3387  0.0975
  474TMC3    C3 7051   0.990   0.095  14.235  0.5792 -0.2578 -0.0724
  474TMC3    C4 7052   1.231   4.684  14.230 -0.0458  0.0079  0.5646
  474TMC3    C5 7053   1.230   0.096  14.242  0.1734  0.1853  0.1820
  474TMC3    C6 7054   1.113   0.160  14.249  0.2686  0.6772  0.0259
  474TMC3     C 7055   1.105   4.485  14.191 -0.2772 -0.0669  0.3812
  474TMC3     O 7056   1.168   4.447  14.093  0.1906  0.5908 -0.0056
  474TMC3     H 7057   0.894   4.637  14.243 -1.3402  2.2276 -2.6546
  474TMC3    H1 7058   1.324   4.629  14.236  0.1040  0.1771 -0.2021
  474TMC3    H2 7059   1.110   0.268  14.242 -2.4257  0.5448 -0.8731
  474TMC3    C7 7060   1.350   0.149  14.294 -0.7282 -0.0688  0.7642
  474TMC3    C8 7061   0.872   0.163  14.196 -0.2448 -0.9439  0.2612
  474TMC3    O1 7062   1.458   0.096  14.265 -0.1761 -0.5054 -0.6643
  474TMC3    O2 7063   0.772   0.099  14.184  0.3149 -0.1820 -0.2433
  475MPD2     C 7064   4.705   2.424  10.494 -0.8321  0.5648 -0.5730
  475MPD2    C1 7065   4.708   2.559  10.534  0.3457 -0.1755  0.5633
  475MPD2    C2 7066   4.609   2.613  10.608 -0.2386  0.3159  0.2272
  475MPD2    C3 7067   4.503   2.538  10.647 -0.6062 -0.2440 -0.0949
  475MPD2    C4 7068   4.505   2.406  10.618 -0.5077 -0.0308 -0.1828
  475MPD2    C5 7069   4.603   2.350  10.548 -0.2715 -0.0578 -0.6192
  475MPD2     H 7070   4.606   2.722  10.613 -2.3952  0.3188 -1.4428
  475MPD2    H1 7071   4.423   2.342  10.646  0.4905  0.5118  3.9797
  475MPD2    H2 7072   0.056   2.377  10.433 -0.3988  0.4250  0.0677
  475MPD2    H3 7073   4.611   2.242  10.535 -1.0399 -0.3148  0.9772
  475MPD2     N 7074   4.403   2.605  10.712 -0.9229 -0.2671  0.2169
  475MPD2    H5 7075   4.428   2.692  10.758 -0.6558  0.0740 -0.5807
  475MPD2    N1 7076   0.100   2.635  10.502 -0.2352  0.6788  0.3815
  475MPD2    H7 7077   0.171   2.597  10.441 -0.1771  0.8816  0.3233
  476TMC3    C1 7078   0.237   2.835  10.489  0.2178  0.7715 -0.1253
  476TMC3    C2 7079   0.237   2.832  10.352  1.0633 -0.9447  0.5323
  476TMC3    C3 7080   0.321   2.920  10.283 -0.2988  0.8689  0.8139
  476TMC3    C4 7081   0.312   2.934  10.554 -0.5164  0.1818 -1.2753
  476TMC3    C5 7082   0.386   3.022  10.478  0.2563  0.7626  0.2551
  476TMC3    C6 7083   0.391   3.020  10.343 -0.0533 -0.3587 -0.4653
  476TMC3     C 7084   0.130   2.762  10.561 -0.9796 -0.2585 -1.0483
  476TMC3     O 7085   0.095   2.822  10.665  0.2725 -0.1331 -0.8063
  476TMC3     H 7086   0.177   2.754  10.307 -0.7210  0.3329  0.6885
  476TMC3    H1 7087   0.312   2.938  10.662  0.3964  1.0377 -1.3123
  476TMC3    H2 7088   0.454   3.080  10.278 -0.1973 -0.0384 -0.3089
  476TMC3    C7 7089   0.444   3.133  10.543  0.7957  0.4988 -0.3718
  476TMC3    C8 7090   0.272   2.960  10.142 -0.6765 -0.3289 -0.2677
  476TMC3    O1 7091   0.534   3.187  10.480  0.3756 -0.3459 -0.0574
  476TMC3    O2 7092   0.271   3.079  10.111 -0.1461 -0.5063  0.0457
  477MPD2     C 7093   2.173   4.428  12.016 -0.1524 -0.8694  0.1339
  477MPD2    C1 7094   2.167   4.382  11.889  0.3324 -0.1511 -0.5282
  477MPD2    C2 7095   2.175   4.239  11.871 -0.1661 -0.4337 -0.1383
  477MPD2    C3 7096   2.181   4.157  11.982  0.1724 -0.5610  0.0901
  477MPD2    C4 7097   2.199   4.213  12.104 -0.1610  0.2978 -0.2953
  477MPD2    C5 7098   2.200   4.351  12.115 -0.3121 -0.0018 -0.4766
  477MPD2     H 7099   2.169   4.189  11.775 -2.5810 -0.3529 -0.0105
  477MPD2    H1 7100   2.221   4.152  12.190  2.7160  1.1295 -0.4528
  477MPD2    H2 7101   2.170   4.534  12.037  1.0834 -1.0449  1.1475
  477MPD2    H3 7102   2.216   4.398  12.212 -2.3610 -0.8833  0.3022
  477MPD2     N 7103   2.166   4.017  11.974 -0.6977 -0.6554 -0.2323
  477MPD2    H5 7104   2.165   3.979  11.880  1.8543 -0.5170 -0.3157
  477MPD2    N1 7105   2.140   4.470  11.786 -0.0343  0.1345 -0.3538
  477MPD2    H7 7106   2.118   4.562  11.823 -0.0248 -0.1330  0.3197
  478TMC3    C1 7107   2.058   4.545  11.572 -0.2431  0.2889 -0.8711
  478TMC3    C2 7108   1.995   4.647  11.647  0.3100  0.5032  0.1780
  478TMC3    C3 7109   1.925   0.007  11.573 -0.7838 -0.1064  0.1367
  478TMC3    C4 7110   2.064   4.538  11.438 -0.7447  0.1943 -0.5851
  478TMC3    C5 7111   1.981   4.631  11.371 -0.2532 -0.4764 -0.4741
  478TMC3    C6 7112   1.910   4.723  11.435  0.5698 -0.3498 -0.5268
  478TMC3     C 7113   2.107   4.431  11.656  0.5539 -0.1689 -0.5604
  478TMC3     O 7114   2.130   4.330  11.589 -0.2142 -0.2585  0.7842
  478TMC3     H 7115   1.991   4.650  11.755  0.1594 -2.0657  0.2402
  478TMC3    H1 7116   2.116   4.458  11.386  0.5571  0.8855 -0.3462
  478TMC3    H2 7117   1.876   0.084  11.378  1.7521 -0.7138 -1.7973
  478TMC3    C7 7118   2.026   4.665  11.236 -0.7322  0.2692  0.6070
  478TMC3    C8 7119   1.926   0.140  11.624  0.2063  0.5319  0.3875
  478TMC3    O1 7120   2.146   4.674  11.218  0.3121  0.3576 -0.0475
  478TMC3    O2 7121   2.009   0.156  11.712 -0.5487 -0.2231  0.2624
  479MPD2     C 7122   0.041   1.320  14.768 -0.7607 -0.7102  0.3698
  479MPD2    C1 7123   0.048   1.232  14.872 -0.3649  0.1586 -0.4439
  479MPD2    C2 7124   0.110   1.276  14.983  0.1836 -0.2985  0.3720
  479MPD2    C3 7125   0.161   1.399  15.005 -0.4061  0.3415 -0.4337
  479MPD2    C4 7126   0.146   1.483  14.900 -0.3448  0.2519  0.5812
  479MPD2    C5 7127   0.087   1.449  14.788  0.6001 -0.6419  0.6657
  479MPD2     H 7128   0.130   1.212  15.068  2.2162  0.6117  0.5749
  479MPD2    H1 7129   0.180   1.586  14.909  0.4022  0.1608 -1.3056
  479MPD2    H2 7130   0.001   1.286  14.674  0.7205 -0.9309 -0.1885
  479MPD2    H3 7131   0.100   1.514  14.703 -1.9161 -1.0649 -0.0609
  479MPD2     N 7132   0.223   1.443  15.121  0.1235 -0.0268 -0.1184
  479MPD2    H5 7133   0.247   1.541  15.128  0.2888 -0.0835  0.1286
  479MPD2    N1 7134   4.709   1.108  14.861 -0.1628 -1.0616  0.2053
  479MPD2    H7 7135   4.653   1.083  14.780  1.0841 -1.3620 -0.5649
  480TMC3    C1 7136   0.441   1.462  15.528  0.2878  0.4625 -0.6064
  480TMC3    C2 7137   0.384   1.586  15.561  1.1987  0.1205  0.3037
  480TMC3    C3 7138   0.296   1.641  15.470 -0.3770 -0.3083 -0.3758
  480TMC3    C4 7139   0.405   1.394  15.419  0.2151  0.2079  0.8565
  480TMC3    C5 7140   0.312   1.448  15.337  0.4475  0.0813  0.6392
  480TMC3    C6 7141   0.258   1.573  15.359  0.8451 -0.1340  0.2871
  480TMC3     C 7142   0.488   1.382  15.640  0.3107 -0.6686  0.5915
  480TMC3     O 7143   0.496   1.263  15.622 -1.1669  0.0242  0.2726
  480TMC3     H 7144   0.409   1.651  15.644  0.6645  0.0272  0.5309
  480TMC3    H1 7145   0.447   1.295  15.403  1.0318  0.7328 -0.2517
  480TMC3    H2 7146   0.183   1.613  15.291  0.7231  3.4841  2.5172
  480TMC3    C7 7147   0.263   1.366  15.226 -0.0263 -0.7604  0.1108
  480TMC3    C8 7148   0.255   1.780  15.478  0.0362  0.2679 -0.0692
  480TMC3    O1 7149   0.273   1.248  15.242 -0.0630 -0.7572 -0.8012
  480TMC3    O2 7150   0.229   1.820  15.592 -0.1904 -0.2229 -0.2395
  481MPD2     C 7151   1.829   0.693  13.659  0.0296 -0.1880 -0.2218
  481MPD2    C1 7152   1.700   0.659  13.675  0.3251 -0.9413  0.3696
  481MPD2    C2 7153   1.624   0.725  13.773  0.2791  0.7654 -0.4555
  481MPD2    C3 7154   1.694   0.811  13.852 -0.0855  0.1230 -0.3931
  481MPD2    C4 7155   1.828   0.834  13.844  1.1299 -0.5165  1.0017
  481MPD2    C5 7156   1.905   0.780  13.742  0.1658  1.3889  0.4656
  481MPD2     H 7157   1.516   0.721  13.765  0.4854  0.7656 -3.1718
  481MPD2    H1 7158   1.865   0.918  13.901  0.8463  1.1923 -1.3324
  481MPD2    H2 7159   1.889   0.650  13.579  1.4858  1.3734  0.0453
  481MPD2    H3 7160   2.010   0.798  13.724  0.3651  1.0031  1.2798
  481MPD2     N 7161   1.618   0.901  13.936  0.3663  0.2592  0.0488
  481MPD2    H5 7162   1.670   0.970  13.989  0.9607  0.0051 -0.1992
  481MPD2    N1 7163   1.642   0.583  13.567  0.3403  0.7814 -0.1394
  481MPD2    H7 7164   1.700   0.535  13.498 -0.3282 -0.7130  0.3357
  482TMC3    C1 7165   1.487   0.456  13.452  0.2008 -0.3197  0.0788
  482TMC3    C2 7166   1.390   0.358  13.463 -0.5426  0.1762  0.2687
  482TMC3    C3 7167   1.331   0.304  13.349  0.5045 -0.4476  0.7701
  482TMC3    C4 7168   1.515   0.511  13.326  0.8903  0.2420 -0.4133
  482TMC3    C5 7169   1.463   0.447  13.218  0.2281  0.5818 -0.3680
  482TMC3    C6 7170   1.365   0.350  13.224  0.3123 -0.1543  0.3354
  482TMC3     C 7171   1.513   0.542  13.562 -0.1847 -1.6753  0.3861
  482TMC3     O 7172   1.434   0.536  13.653  0.2820  0.5253  0.4108
  482TMC3     H 7173   1.380   0.311  13.561 -0.7612 -1.3541 -0.4859
  482TMC3    H1 7174   1.569   0.605  13.320  1.7557 -0.1983  0.3990
  482TMC3    H2 7175   1.316   0.318  13.133 -0.7440  0.8036  0.5744
  482TMC3    C7 7176   1.503   0.493  13.086 -0.1145 -0.3788  0.3436
  482TMC3    C8 7177   1.278   0.168  13.351 -0.0445  0.5406 -0.0830
  482TMC3    O1 7178   1.426   0.463  12.996 -0.5197  0.2126 -0.2708
  482TMC3    O2 7179   1.308   0.105  13.453  0.1066  0.2511  0.8261
  483TMC3    C1 7180   4.327   4.138  17.240  0.0385 -0.5730  0.0389
  483TMC3    C2 7181   4.328   4.277  17.230  0.6953 -0.5719 -0.3519
  483TMC3    C3 7182   4.239   4.354  17.292 -0.1994 -0.7531 -0.3933
  483TMC3    C4 7183   4.233   4.073  17.311  0.0071  0.8563 -0.4242
  483TMC3    C5 7184   4.144   4.150  17.379  0.1159 -0.0220  0.0167
  483TMC3    C6 7185   4.145   4.286  17.375 -0.2500 -0.0831 -0.3081
  483TMC3     C 7186   4.443   4.060  17.192  0.2116 -0.4269  0.1873
  483TMC3     O 7187   4.475   4.092  17.076 -0.0388  0.6574 -0.7081
  483TMC3     H 7188   4.414   4.319  17.179 -0.0127  1.2652 -0.0441
  483TMC3    H1 7189   4.231   3.966  17.325 -1.0164  1.0859  1.2212
  483TMC3    H2 7190   4.075   4.344  17.435 -0.2261 -1.0506  0.6520
  483TMC3    C7 7191   4.077   4.078  17.488 -0.7099  0.2363 -0.6616
  483TMC3    C8 7192   4.284   4.490  17.335 -0.0550 -0.4381  0.0667
  483TMC3    O1 7193   4.137   3.971  17.516 -0.1518  0.2836 -0.2139
  483TMC3    O2 7194   4.385   4.535  17.281  0.1297  0.9112 -0.0304
  484MPD2     C 7195   2.817   2.857  13.284  0.1918  0.1385  0.1028
  484MPD2    C1 7196   2.852   2.726  13.244 -0.5862  0.2135 -0.1422
  484MPD2    C2 7197   2.969   2.708  13.178 -0.8740  0.2844  0.6566
  484MPD2    C3 7198   3.061   2.805  13.163  0.6083  0.2196 -0.7823
  484MPD2    C4 7199   3.031   2.930  13.215  0.1418  0.3518 -0.3523
  484MPD2    C5 7200   2.905   2.957  13.259 -0.1334 -0.7239  0.1451
  484MPD2     H 7201   2.987   2.606  13.146 -2.6463 -0.0333  0.6600
  484MPD2    H1 7202   3.106   3.006  13.197 -0.6018  1.3242  0.6123
  484MPD2    H2 7203   2.722   2.878  13.332  0.8902  0.4520  1.3654
  484MPD2    H3 7204   2.888   3.060  13.289 -1.0513 -0.6608 -0.5538
  484MPD2     N 7205   3.182   2.790  13.098  0.6815 -1.0329 -0.3896
  484MPD2    H5 7206   3.228   2.874  13.065  0.8766 -0.6853  0.7579
  484MPD2    N1 7207   2.747   2.633  13.225 -0.5997 -0.3052 -0.4609
  484MPD2    H7 7208   2.653   2.670  13.232 -0.7476 -0.4006 -2.1216
  485TMC3    C1 7209   3.343   2.695  12.966  0.2695 -0.4008 -0.4343
  485TMC3    C2 7210   3.364   2.587  12.886  0.3645 -0.2781  0.3241
  485TMC3    C3 7211   3.384   2.601  12.753 -0.2847 -0.4880 -0.0574
  485TMC3    C4 7212   3.352   2.819  12.908  0.1638 -0.4192 -0.1107
  485TMC3    C5 7213   3.357   2.830  12.773 -0.3083  0.5225 -1.1309
  485TMC3    C6 7214   3.366   2.722  12.691  0.0975  0.7721  0.1038
  485TMC3     C 7215   3.240   2.674  13.064  0.2124 -0.1654 -0.7607
  485TMC3     O 7216   3.202   2.559  13.088 -0.2767  0.2770 -0.1653
  485TMC3     H 7217   3.349   2.492  12.935  2.8170 -1.7294 -1.7988
  485TMC3    H1 7218   3.353   2.901  12.978  3.1986  1.5985 -2.5260
  485TMC3    H2 7219   3.346   2.735  12.585 -0.2683 -1.5779 -0.1133
  485TMC3    C7 7220   3.452   2.922  12.740  0.0283 -0.5518  0.5163
  485TMC3    C8 7221   3.507   2.540  12.708 -0.5793 -1.0928 -0.2076
  485TMC3    O1 7222   3.469   3.015  12.816  0.5656  0.4741  0.7131
  485TMC3    O2 7223   3.547   2.585  12.602  0.0573  0.4575  0.4640
  486MPD2     C 7224   0.522   1.714  12.471 -0.0746 -0.4869 -0.0054
  486MPD2    C1 7225   0.405   1.669  12.523 -0.0600 -0.2060  0.3286
  486MPD2    C2 7226   0.304   1.760  12.561  0.1348 -1.4124 -0.6031
  486MPD2    C3 7227   0.328   1.893  12.555  0.4448 -0.5729 -0.5113
  486MPD2    C4 7228   0.447   1.941  12.500  0.3414  0.0214 -0.6728
  486MPD2    C5 7229   0.541   1.849  12.460  0.3585 -0.3629 -0.6568
  486MPD2     H 7230   0.208   1.723  12.596 -0.5063 -1.1783 -2.0737
  486MPD2    H1 7231   0.475   2.045  12.489 -0.9460  0.5017  0.6009
  486MPD2    H2 7232   0.598   1.647  12.434 -0.8554 -0.9240 -0.8222
  486MPD2    H3 7233   0.627   1.894  12.411  0.7908  2.5583  2.7489
  486MPD2     N 7234   0.225   1.982  12.585 -0.3292  0.2118  0.1346
  486MPD2    H5 7235   0.136   1.940  12.612  1.3621 -0.8723  3.9493
  486MPD2    N1 7236   0.397   1.526  12.534  0.6022  0.7092 -0.0149
  486MPD2    H7 7237   0.482   1.482  12.500  0.6364  0.1488  0.7857
  487TMC3    C1 7238   0.317   1.314  12.596 -0.0983 -0.2575 -0.1862
  487TMC3    C2 7239   0.215   1.224  12.563  0.1352  0.0648  0.0684
  487TMC3    C3 7240   0.225   1.091  12.599 -0.3389 -1.2071  0.4320
  487TMC3    C4 7241   0.443   1.276  12.639  0.0629  0.0649  0.3979
  487TMC3    C5 7242   0.446   1.145  12.678  0.1022  0.2417  0.2254
  487TMC3    C6 7243   0.340   1.057  12.663 -0.1498 -0.1420 -0.7865
  487TMC3     C 7244   0.291   1.452  12.577  0.5770 -0.0754  0.4958
  487TMC3     O 7245   0.178   1.483  12.603  0.0737 -0.7185  0.7012
  487TMC3     H 7246   0.128   1.258  12.508  0.6305 -1.2001 -1.4777
  487TMC3    H1 7247   0.521   1.350  12.652  0.5239 -0.3270 -0.0772
  487TMC3    H2 7248   0.360   0.951  12.671 -0.7027 -0.1488  0.5579
  487TMC3    C7 7249   0.520   1.126  12.797  0.2171  0.1681  0.2718
  487TMC3    C8 7250   0.113   1.022  12.662  0.2450 -0.0638 -0.0692
  487TMC3    O1 7251   0.612   1.198  12.823  0.0479 -0.3967 -0.1361
  487TMC3    O2 7252   0.147   0.953  12.757  0.5634  0.2014  0.3970
  488MPD2     C 7253   0.575   3.438  16.449 -0.6694  0.4184 -0.1655
  488MPD2    C1 7254   0.531   3.547  16.376 -0.1333  0.6238  0.4305
  488MPD2    C2 7255   0.446   3.639  16.439 -0.6977  0.5809 -0.4337
  488MPD2    C3 7256   0.425   3.631  16.577  0.1898  0.7546  0.3517
  488MPD2    C4 7257   0.479   3.522  16.650 -0.1897 -0.1684 -0.2692
  488MPD2    C5 7258   0.548   3.428  16.584  0.2706 -0.6349  0.0595
  488MPD2     H 7259   0.411   3.725  16.383  1.0647  0.9448 -1.0014
  488MPD2    H1 7260   0.470   3.498  16.755 -0.4511  1.0436 -0.0161
  488MPD2    H2 7261   0.640   3.362  16.409  0.4277  1.3155 -0.0859
  488MPD2    H3 7262   0.613   3.364  16.642  4.3699  3.6423  0.2606
  488MPD2     N 7263   0.345   3.735  16.635  0.0829  0.0442  0.2537
  488MPD2    H5 7264   0.293   3.795  16.571  0.1743 -2.5091 -2.1621
  488MPD2    N1 7265   0.567   3.572  16.245 -0.1212 -0.0713  0.2015
  488MPD2    H7 7266   0.541   3.665  16.213  0.3479  0.4682  1.3896
  489TMC3    C1 7267   0.262   3.884  16.804  0.5833  0.0949 -0.4579
  489TMC3    C2 7268   0.238   3.968  16.699 -0.7536 -1.1359  0.6060
  489TMC3    C3 7269   0.218   4.105  16.733 -0.2993 -0.4256  0.7885
  489TMC3    C4 7270   0.233   3.919  16.933  0.1529 -0.1187  0.1223
  489TMC3    C5 7271   0.209   4.052  16.957  0.0426  0.2400 -0.8961
  489TMC3    C6 7272   0.197   4.143  16.858  0.4581 -0.1754 -0.1107
  489TMC3     C 7273   0.334   3.754  16.772  0.2827 -0.4300  0.4222
  489TMC3     O 7274   0.378   3.686  16.869  1.2188 -0.1500 -0.4282
  489TMC3     H 7275   0.269   3.953  16.596  0.1037  0.1233  0.6786
  489TMC3    H1 7276   0.263   3.848  17.010 -0.8372 -0.9882 -0.3054
  489TMC3    H2 7277   0.184   4.248  16.881 -0.4603 -0.5044  0.8420
  489TMC3    C7 7278   0.197   4.085  17.097  0.2797  0.2831 -0.2435
  489TMC3    C8 7279   0.274   4.201  16.639  0.3488  0.4555 -0.3488
  489TMC3    O1 7280   0.261   4.015  17.176 -0.5357  0.9873  0.1085
  489TMC3    O2 7281   0.315   4.158  16.532  0.4228 -0.3314  0.1151
  490MPD2     C 7282   1.028   2.722  17.285 -0.5045 -0.2442 -0.0799
  490MPD2    C1 7283   1.027   2.629  17.384 -0.2427  0.0575 -0.4058
  490MPD2    C2 7284   1.123   2.657  17.483 -0.2101 -0.0458  0.1502
  490MPD2    C3 7285   1.226   2.753  17.474  0.9671 -0.7242 -0.1287
  490MPD2    C4 7286   1.235   2.824  17.355 -0.1412 -0.5500 -0.3589
  490MPD2    C5 7287   1.129   2.815  17.269 -0.4552  0.4039  0.3527
  490MPD2     H 7288   1.122   2.591  17.569  1.3705 -3.8907 -2.7874
  490MPD2    H1 7289   1.311   2.898  17.333 -2.5284  2.6739  2.2932
  490MPD2    H2 7290   0.947   2.715  17.214 -0.6634  1.5691 -0.0854
  490MPD2    H3 7291   1.119   2.890  17.192 -2.9265  0.5783  0.8458
  490MPD2     N 7292   1.334   2.761  17.564 -0.6537 -0.2210  0.3224
  490MPD2    H5 7293   1.399   2.836  17.541  0.5989 -0.9769  1.3591
  490MPD2    N1 7294   0.935   2.531  17.401  0.0840  0.1146  0.0289
  490MPD2    H7 7295   0.928   2.476  17.487 -3.7126 -1.2754 -1.1892
  491TMC3    C1 7296   0.789   2.363  17.341 -0.1216 -0.0054  0.0938
  491TMC3    C2 7297   0.741   2.363  17.467 -0.0127 -0.0408 -0.9785
  491TMC3    C3 7298   0.678   2.250  17.513 -0.7164 -0.1712  0.4412
  491TMC3    C4 7299   0.758   2.258  17.257  0.8539 -1.1454 -0.2237
  491TMC3    C5 7300   0.696   2.146  17.307 -0.2062  0.0805 -0.8397
  491TMC3    C6 7301   0.650   2.141  17.433 -0.2516  0.7401  0.0239
  491TMC3     C 7302   0.859   2.477  17.299 -0.7021  0.3858  0.8872
  491TMC3     O 7303   0.841   2.512  17.183  0.0075 -0.4184  0.1966
  491TMC3     H 7304   0.747   2.452  17.528 -2.4505 -0.7910  0.3230
  491TMC3    H1 7305   0.789   2.259  17.154 -1.3651 -0.1104 -0.8930
  491TMC3    H2 7306   0.587   2.056  17.456 -0.0252  0.6189  0.1946
  491TMC3    C7 7307   0.630   2.064  17.207 -0.2814 -0.2304 -0.2221
  491TMC3    C8 7308   0.619   2.262  17.643 -0.4812  0.6317 -0.6855
  491TMC3    O1 7309   0.590   2.121  17.106  0.4927  0.0830 -0.0593
  491TMC3    O2 7310   0.663   2.352   0.015  0.1636  0.2947  0.5049
  492MPD2     C 7311   1.987   2.851  11.241 -0.1388  0.7223  0.3545
  492MPD2    C1 7312   1.886   2.792  11.162 -0.4478 -0.1142 -0.2358
  492MPD2    C2 7313   1.765   2.743  11.228 -0.4780 -0.2490  0.5895
  492MPD2    C3 7314   1.757   2.735  11.370  0.2450 -0.7095  0.3007
  492MPD2    C4 7315   1.867   2.789  11.442  0.5138 -0.3393 -0.3015
  492MPD2    C5 7316   1.975   2.851  11.376 -0.8097  0.1965  0.2868
  492MPD2     H 7317   1.687   2.704  11.165 -0.1651  2.0223 -1.1982
  492MPD2    H1 7318   1.869   2.792  11.550 -0.6915 -0.8823 -0.2580
  492MPD2    H2 7319   2.079   2.888  11.196 -0.6411  2.8301  1.0666
  492MPD2    H3 7320   2.050   2.908  11.429 -2.2756  2.7422 -0.3945
  492MPD2     N 7321   1.648   2.683  11.446  0.2607  0.1879 -0.6644
  492MPD2    H5 7322   1.665   2.676  11.546 -2.2930  0.1882 -0.2234
  492MPD2    N1 7323   1.906   2.792  11.028 -0.4322  0.6999  0.1153
  492MPD2    H7 7324   1.991   2.827  10.985 -0.1485  1.2224  1.0918
  493TMC3    C1 7325   1.854   2.781  10.797  0.4227 -1.0869 -0.1443
  493TMC3    C2 7326   1.881   2.914  10.789  0.0927  0.1008 -0.1726
  493TMC3    C3 7327   1.857   2.988  10.673 -0.0320 -0.8706 -0.6899
  493TMC3    C4 7328   1.796   2.722  10.695 -0.0547 -0.0995  0.2344
  493TMC3    C5 7329   1.767   2.793  10.582 -0.2603 -0.1909 -0.2177
  493TMC3    C6 7330   1.807   2.924  10.562 -0.3042  0.6014 -0.2989
  493TMC3     C 7331   1.816   2.741  10.935  0.1686 -0.7314 -0.4101
  493TMC3     O 7332   1.729   2.653  10.943 -0.2884  0.0751 -0.7742
  493TMC3     H 7333   1.919   2.970  10.874  0.2620 -1.7167  0.9507
  493TMC3    H1 7334   1.757   2.621  10.701 -0.1964  0.0055  0.9724
  493TMC3    H2 7335   1.796   2.973  10.466 -0.9129  1.7658  0.3646
  493TMC3    C7 7336   1.631   2.764  10.531  0.3380  0.1362 -0.1144
  493TMC3    C8 7337   1.975   3.080  10.653  0.2384 -0.0229 -0.0561
  493TMC3    O1 7338   1.600   2.814  10.423 -0.1727  0.0203  0.1739
  493TMC3    O2 7339   2.072   3.055  10.724 -0.0881  0.2459 -0.3714
  494TMC3    C1 7340   2.347   4.139   0.140  0.1524 -0.2923 -0.2416
  494TMC3    C2 7341   2.351   4.006   0.166  0.0609  0.5587 -0.3081
  494TMC3    C3 7342   2.264   3.928   0.101 -0.6547 -0.1573  0.0503
  494TMC3    C4 7343   2.280   4.194   0.041 -0.0694 -0.8701 -0.0317
  494TMC3    C5 7344   2.187   4.119  17.689  0.3266  0.4349 -0.6340
  494TMC3    C6 7345   2.169   3.984   0.018  0.5091 -0.0026  0.4265
  494TMC3     C 7346   2.409   4.226   0.239  0.2847  0.4069  0.0457
  494TMC3     O 7347   2.510   4.177   0.285 -0.2662  0.2062  0.2802
  494TMC3     H 7348   2.411   3.968   0.248  0.5535 -0.1523 -0.9963
  494TMC3    H1 7349   2.282   4.301   0.022 -2.0361 -0.4254  2.2416
  494TMC3    H2 7350   2.105   3.930  17.648  0.8020  1.4291 -0.9494
  494TMC3    C7 7351   2.117   4.170  17.570 -0.1477  0.7901 -0.0937
  494TMC3    C8 7352   2.237   3.802   0.174 -0.2114 -0.6772  0.4524
  494TMC3    O1 7353   2.188   4.221  17.487 -0.4951  0.5793 -0.1595
  494TMC3    O2 7354   2.320   3.758   0.248  0.1535  0.3824  0.3939
  495TMC3    C1 7355   0.367   2.208  14.602  0.0825 -0.3686  0.4875
  495TMC3    C2 7356   0.246   2.234  14.551  0.4164  0.2643  0.4038
  495TMC3    C3 7357   0.135   2.227  14.636  0.3327 -0.4004 -0.3954
  495TMC3    C4 7358   0.385   2.195  14.737  0.1991  0.2154 -0.2892
  495TMC3    C5 7359   0.270   2.195  14.822  0.0475 -0.9458  0.2284
  495TMC3    C6 7360   0.138   2.210  14.771 -0.2169 -0.3661 -0.4672
  495TMC3     C 7361   0.409   2.090  14.540 -0.8043 -0.0868 -0.0005
  495TMC3     O 7362   0.448   2.089  14.425 -0.3751  0.3291  0.0291
  495TMC3     H 7363   0.245   2.217  14.444 -1.5250  1.1509  0.2834
  495TMC3    H1 7364   0.479   2.157  14.775  1.2893  0.2837 -2.8948
  495TMC3    H2 7365   0.049   2.223  14.832  0.2368 -1.0167  0.3326
  495TMC3    C7 7366   0.278   2.151  14.961  0.1255 -0.3243 -0.1217
  495TMC3    C8 7367   0.024   2.168  14.572  0.0945  0.0495 -0.3394
  495TMC3    O1 7368   0.384   2.096  14.984  0.1223  0.2735  0.1714
  495TMC3    O2 7369   4.677   2.101  14.645 -0.7599 -0.1036  0.0969
  496MPD2     C 7370   2.668   1.648  15.182 -0.0554  0.3036  0.5399
  496MPD2    C1 7371   2.593   1.562  15.107 -0.5140  0.4505 -0.3388
  496MPD2    C2 7372   2.481   1.503  15.157  0.4319 -0.5649  0.8152
  496MPD2    C3 7373   2.436   1.539  15.284  0.0979 -0.4352 -0.5467
  496MPD2    C4 7374   2.518   1.618  15.358 -0.0323  0.0559 -0.2092
  496MPD2    C5 7375   2.635   1.666  15.316  0.4174 -0.0889  0.7115
  496MPD2     H 7376   2.414   1.442  15.098 -0.0607  0.0410  0.7488
  496MPD2    H1 7377   2.489   1.621  15.463 -1.0111  2.4422 -0.5602
  496MPD2    H2 7378   2.760   1.686  15.140 -1.2038 -1.5131 -3.6535
  496MPD2    H3 7379   2.693   1.733  15.378 -3.1532  1.5067  2.3412
  496MPD2     N 7380   2.323   1.494  15.349  0.8412 -0.2418  0.1117
  496MPD2    H5 7381   2.316   1.499  15.450 -1.0132  2.6626 -0.1566
  496MPD2    N1 7382   2.647   1.533  14.975 -0.4607  0.4674 -0.6967
  496MPD2    H7 7383   2.730   1.587  14.952  0.5355  0.2479  2.4048
  497TMC3    C1 7384   2.121   1.400  15.394  0.7495  0.1741  0.7515
  497TMC3    C2 7385   1.995   1.440  15.377 -0.0620  0.1488 -0.1536
  497TMC3    C3 7386   1.902   1.414  15.476  0.3447 -0.5969 -0.3827
  497TMC3    C4 7387   2.170   1.356  15.516  0.3852 -0.1428 -0.1446
  497TMC3    C5 7388   2.082   1.333  15.614 -0.8479 -0.3165  0.3761
  497TMC3    C6 7389   1.945   1.355  15.591 -0.3171 -0.4602  0.2416
  497TMC3     C 7390   2.216   1.442  15.287 -0.6813 -0.0514  0.4228
  497TMC3     O 7391   2.178   1.456  15.171 -0.2516  0.7383 -0.2169
  497TMC3     H 7392   1.971   1.490  15.283 -2.6371 -0.1578  0.3399
  497TMC3    H1 7393   2.276   1.333  15.520  0.4796  0.2146 -0.5146
  497TMC3    H2 7394   1.872   1.344  15.671  0.2517  1.1899  1.0002
  497TMC3    C7 7395   2.118   1.282  15.740 -0.4657  0.4050 -0.2074
  497TMC3    C8 7396   1.801   1.513  15.504 -0.2401  0.2016  0.3108
  497TMC3    O1 7397   2.040   1.199  15.780  0.1054  0.6904  0.1277
  497TMC3    O2 7398   1.793   1.563  15.614 -0.1368 -1.0635 -0.2321
  498MPD2     C 7399   4.630   2.520   9.459  0.3983 -0.4872  0.1340
  498MPD2    C1 7400   4.551   2.605   9.523  0.0810 -0.1881  0.4006
  498MPD2    C2 7401   4.418   2.573   9.551  0.3771  0.2996 -0.4681
  498MPD2    C3 7402   4.365   2.449   9.505  0.2250 -0.0745 -0.0418
  498MPD2    C4 7403   4.452   2.373   9.429 -0.3693 -0.5041 -0.6208
  498MPD2    C5 7404   4.589   2.396   9.423  0.4461  0.0600 -0.7857
  498MPD2     H 7405   4.352   2.648   9.594 -2.7118 -1.0234 -2.8543
  498MPD2    H1 7406   4.415   2.283   9.382 -1.4886 -0.6141  0.4781
  498MPD2    H2 7407   0.012   2.534   9.442  0.6141  0.9714  2.7652
  498MPD2    H3 7408   4.657   2.329   9.371  1.0219  1.6775 -2.1274
  498MPD2     N 7409   4.233   2.412   9.535 -0.5567  0.0850  0.2052
  498MPD2    H5 7410   4.181   2.479   9.591 -0.7962  0.4980 -0.5011
  498MPD2    N1 7411   4.599   2.724   9.581  0.2463 -0.0662  0.3936
  498MPD2    H7 7412   4.527   2.792   9.605  0.1638  0.2804 -0.8430
  499TMC3    C1 7413   0.035   2.889   9.654 -0.2166 -0.3447 -0.0755
  499TMC3    C2 7414   0.165   2.908   9.693 -0.3130 -0.3999  0.2876
  499TMC3    C3 7415   0.234   3.016   9.646 -0.7737 -0.2152  0.2836
  499TMC3    C4 7416   4.692   2.982   9.583 -0.4577  0.0954  0.3739
  499TMC3    C5 7417   0.039   3.094   9.553 -0.7953 -0.1288 -1.6026
  499TMC3    C6 7418   0.168   3.114   9.581  0.5228 -0.6615 -0.1868
  499TMC3     C 7419   0.007   2.751   9.599  0.3613 -0.6041  0.0113
  499TMC3     O 7420   0.099   2.674   9.609 -0.0304 -0.2734  0.7230
  499TMC3     H 7421   0.217   2.827   9.743  1.2170  0.0211 -0.6591
  499TMC3    H1 7422   4.597   2.963   9.533 -1.5538  1.3480  1.9879
  499TMC3    H2 7423   0.232   3.185   9.531 -0.9990  0.9981  0.2228
  499TMC3    C7 7424   4.701   3.201   9.479  0.2822  0.5319  0.2322
  499TMC3    C8 7425   0.381   3.012   9.663 -0.0988  0.0372  0.2617
  499TMC3    O1 7426   4.597   3.175   9.421 -0.1126  0.4326 -0.7173
  499TMC3    O2 7427   0.426   2.904   9.702 -0.0073  0.2520  0.1981
  500MPD2     C 7428   1.029   3.350  10.842  0.3190 -0.1058  0.8926
  500MPD2    C1 7429   1.085   3.412  10.735 -0.3796 -0.7354  0.4579
  500MPD2    C2 7430   1.026   3.382  10.613 -0.0254 -0.4417  0.6069
  500MPD2    C3 7431   0.904   3.308  10.602  0.0625 -0.3915 -0.8960
  500MPD2    C4 7432   0.854   3.246  10.719 -0.2268 -0.1072  0.2951
  500MPD2    C5 7433   0.912   3.278  10.836 -0.0035  0.2273  0.4077
  500MPD2     H 7434   1.075   3.437  10.533 -2.2392  0.7766  0.0635
  500MPD2    H1 7435   0.763   3.187  10.719  1.2329 -2.3759 -0.2465
  500MPD2    H2 7436   1.073   3.367  10.939  1.5601 -1.9123  0.6378
  500MPD2    H3 7437   0.878   3.228  10.926  2.4708 -1.4283  0.4395
  500MPD2     N 7438   0.830   3.296  10.481  0.8928  0.0330  0.4234
  500MPD2    H5 7439   0.738   3.254  10.486  0.1389  1.5919 -0.2602
  500MPD2    N1 7440   1.204   3.489  10.743 -0.4189 -0.2402  0.0008
  500MPD2    H7 7441   1.235   3.539  10.660  0.4506  0.7257  0.9244
  501TMC3    C1 7442   1.404   3.575  10.834 -0.1379 -0.2534 -0.4697
  501TMC3    C2 7443   1.382   3.693  10.776  0.0165  0.6216 -0.5714
  501TMC3    C3 7444   1.479   3.777  10.759 -0.0388 -0.7386  0.2317
  501TMC3    C4 7445   1.527   3.541  10.890  0.2559 -0.4357 -0.5114
  501TMC3    C5 7446   1.627   3.640  10.886  0.1955 -0.5705  0.4617
  501TMC3    C6 7447   1.605   3.759  10.820 -0.3900  0.3217  0.4945
  501TMC3     C 7448   1.285   3.492  10.854  0.1180  0.4710 -0.2699
  501TMC3     O 7449   1.292   3.429  10.961  0.2914  0.1043 -0.1833
  501TMC3     H 7450   1.277   3.720  10.765 -0.3814 -0.8226 -0.4229
  501TMC3    H1 7451   1.543   3.444  10.937 -2.5394 -1.5410 -1.8151
  501TMC3    H2 7452   1.683   3.833  10.812 -0.4864  0.4740  0.9769
  501TMC3    C7 7453   1.766   3.594  10.913 -0.3315  0.1912  0.2941
  501TMC3    C8 7454   1.451   3.914  10.704  0.3611 -0.3202  0.3556
  501TMC3    O1 7455   1.762   3.486  10.970  0.1327 -0.0538 -0.2618
  501TMC3    O2 7456   1.514   4.007  10.745 -0.5353 -0.2470  0.3895
  502TMC3    C1 7457   4.428   2.003  14.997  0.6101  0.1523  0.6504
  502TMC3    C2 7458   4.505   2.115  14.975  0.3039 -0.3805  0.2358
  502TMC3    C3 7459   4.437   2.229  14.995 -0.8295 -0.3790  0.2026
  502TMC3    C4 7460   4.288   2.005  15.016  1.4122 -0.7674 -0.1384
  502TMC3    C5 7461   4.230   2.124  15.032  0.4388  0.0775 -0.3959
  502TMC3    C6 7462   4.301   2.237  15.030  0.3253  0.3809  0.5502
  502TMC3     C 7463   4.494   1.917  15.097  0.1937  0.4465 -0.5655
  502TMC3     O 7464   4.602   1.866  15.074  0.5702 -0.4903 -0.3749
  502TMC3     H 7465   4.612   2.109  14.963  0.3554  1.8871 -0.4373
  502TMC3    H1 7466   4.242   1.908  15.028  0.5299 -0.3624 -0.2466
  502TMC3    H2 7467   4.249   2.332  15.034  2.5001  1.6630 -1.9671
  502TMC3    C7 7468   4.134   2.132  15.138 -1.0088 -0.0288 -1.0571
  502TMC3    C8 7469   4.525   2.337  15.019  0.5632  0.0323  0.2470
  502TMC3    O1 7470   4.128   2.037  15.216 -0.8786 -0.2913 -0.2872
  502TMC3    O2 7471   4.623   2.343  14.949  0.4086 -0.4422  0.5160
  503MPD2     C 7472   2.183   3.059  16.891 -0.8300 -0.7942  0.2297
  503MPD2    C1 7473   2.253   3.120  16.996  0.3136  0.1843  0.0714
  503MPD2    C2 7474   2.361   3.049  17.056  0.0156  0.1210  0.1441
  503MPD2    C3 7475   2.390   2.917  17.016  0.4295  0.6000 -0.2331
  503MPD2    C4 7476   2.323   2.867  16.907  0.1241  0.4422 -0.0085
  503MPD2    C5 7477   2.217   2.934  16.850  0.1136 -0.9698  0.0190
  503MPD2     H 7478   2.412   3.100  17.136 -0.4097 -1.3217  1.3468
  503MPD2    H1 7479   2.340   2.765  16.874 -0.6143  0.6762 -1.1397
  503MPD2    H2 7480   2.101   3.105  16.837 -0.8404 -1.9587 -0.7575
  503MPD2    H3 7481   2.157   2.889  16.771  1.9902  0.8788 -2.4341
  503MPD2     N 7482   2.497   2.849  17.080  0.1637 -0.0326  0.2743
  503MPD2    H5 7483   2.528   2.896  17.164  1.6679  1.2175 -0.9821
  503MPD2    N1 7484   2.209   3.239  17.065  0.0156  0.0112 -0.0403
  503MPD2    H7 7485   2.259   3.260  17.151  0.0167 -0.9428  0.1925
  504TMC3    C1 7486   2.641   2.682  17.161 -0.0136 -0.0125 -0.2409
  504TMC3    C2 7487   2.618   2.718  17.293  0.4311 -0.6832  1.1906
  504TMC3    C3 7488   2.698   2.649  17.391 -0.0075 -0.1272  0.2815
  504TMC3    C4 7489   2.734   2.590  17.128 -0.0604 -0.0437  0.0467
  504TMC3    C5 7490   2.813   2.528  17.221 -0.4335  0.3298  0.0144
  504TMC3    C6 7491   2.794   2.561  17.355 -0.0998  1.1805 -0.1158
  504TMC3     C 7492   2.551   2.726  17.054  0.2499 -0.1728  0.3619
  504TMC3     O 7493   2.553   2.660  16.949  0.4901 -0.1096  0.0826
  504TMC3     H 7494   2.541   2.787  17.323  1.0791  1.4293 -1.9902
  504TMC3    H1 7495   2.762   2.573  17.024  2.0331  1.2955  0.4025
  504TMC3    H2 7496   2.841   2.502  17.432 -0.8837  0.2201 -0.3869
  504TMC3    C7 7497   2.902   2.420  17.179  0.4250  0.0614  0.4153
  504TMC3    C8 7498   2.662   2.664  17.527  0.8022 -0.8290 -0.4714
  504TMC3    O1 7499   2.873   2.363  17.074 -0.2762 -0.2563  0.7811
  504TMC3    O2 7500   2.554   2.714  17.543  0.1801 -0.3518  0.4439
  505MPD2     C 7501   3.044   2.542   9.653 -0.6919  0.3093  0.1876
  505MPD2    C1 7502   3.020   2.437   9.743  0.5055  0.2395 -0.5427
  505MPD2    C2 7503   3.080   2.445   9.871 -0.2803 -0.6687 -0.2745
  505MPD2    C3 7504   3.149   2.564   9.911 -0.6272 -0.4381  0.2283
  505MPD2    C4 7505   3.164   2.665   9.820  0.1506  0.1894  0.4100
  505MPD2    C5 7506   3.112   2.654   9.697  0.5992  0.1042  0.3033
  505MPD2     H 7507   3.068   2.357   9.933  0.0877 -0.3282  0.2706
  505MPD2    H1 7508   3.212   2.759   9.847  2.4117 -0.3244 -1.8414
  505MPD2    H2 7509   3.008   2.546   9.551 -1.8186 -0.3233  0.5636
  505MPD2    H3 7510   3.119   2.736   9.626  1.5283 -2.4065 -2.5320
  505MPD2     N 7511   3.200   2.580  10.043  0.1335 -0.6413  0.0352
  505MPD2    H5 7512   3.240   2.670  10.065  0.1240 -0.5491 -0.3363
  505MPD2    N1 7513   2.943   2.327   9.702  1.0560 -0.1324  0.1772
  505MPD2    H7 7514   2.929   2.319   9.602  1.1436 -0.9448  0.2331
  506TMC3    C1 7515   2.847   2.115   9.725 -0.3363 -0.0144 -0.5197
  506TMC3    C2 7516   2.916   2.058   9.619 -0.1961  0.6331  0.4997
  506TMC3    C3 7517   2.935   1.923   9.620 -0.5479 -0.1832  0.1310
  506TMC3    C4 7518   2.787   2.031   9.817  0.1204 -0.1108  0.2129
  506TMC3    C5 7519   2.810   1.895   9.815 -0.0240 -0.5288 -0.0531
  506TMC3    C6 7520   2.882   1.844   9.717  0.5182  0.6481 -0.6469
  506TMC3     C 7521   2.887   2.237   9.783 -0.3956  0.7741  0.2962
  506TMC3     O 7522   2.883   2.232   9.903 -0.0680 -0.2789 -0.2172
  506TMC3     H 7523   2.957   2.122   9.542  0.3200  0.1459  0.3683
  506TMC3    H1 7524   2.712   2.064   9.888  1.3299  0.8800  1.0339
  506TMC3    H2 7525   2.896   1.737   9.718  1.0858  0.7211 -1.0332
  506TMC3    C7 7526   2.865   1.851   9.944 -0.1444  0.1320  0.5971
  506TMC3    C8 7527   3.042   1.858   9.550  0.3776 -0.3004  0.7337
  506TMC3    O1 7528   2.902   1.737   9.954 -0.7091 -0.0361 -0.6790
  506TMC3    O2 7529   3.031   1.741   9.521 -0.1302 -0.0134 -0.0433
  507TMC3    C1 7530   3.009   2.133  14.188  0.2780  0.4458 -0.6923
  507TMC3    C2 7531   2.945   2.114  14.064  0.1640  0.2480  0.0070
  507TMC3    C3 7532   3.015   2.127  13.951  0.7187 -0.7162  0.7633
  507TMC3    C4 7533   3.145   2.160  14.198 -0.3543  0.2231 -0.4864
  507TMC3    C5 7534   3.202   2.201  14.082 -0.7677  0.1604 -0.9233
  507TMC3    C6 7535   3.141   2.179  13.957  0.6556  0.6942  0.1876
  507TMC3     C 7536   2.938   2.187  14.303  0.1534 -0.0894 -0.3026
  507TMC3     O 7537   2.987   2.175  14.413 -0.1225 -0.3499  0.6702
  507TMC3     H 7538   2.837   2.125  14.055  0.0643 -1.5554 -0.9862
  507TMC3    H1 7539   3.187   2.157  14.298 -0.9640  0.6249 -0.2206
  507TMC3    H2 7540   3.201   2.193  13.868  1.6618  0.4070  0.8196
  507TMC3    C7 7541   3.246   2.338  14.086  0.1120  0.0182  0.1876
  507TMC3    C8 7542   2.937   2.210  13.859  0.1811 -1.0668 -0.5965
  507TMC3    O1 7543   3.227   2.395  13.981 -0.0678  0.3149  0.2575
  507TMC3    O2 7544   2.834   2.153  13.822  0.2501 -0.5073 -0.3398
  508MPD2     C 7545   4.061   0.017  15.457  0.4950 -0.2272 -0.4606
  508MPD2    C1 7546   4.148   0.098  15.529 -0.4074  0.8459  0.4779
  508MPD2    C2 7547   4.180   0.223  15.482  0.5788 -0.0600  0.8251
  508MPD2    C3 7548   4.127   0.263  15.360  0.4432 -0.0254  0.2019
  508MPD2    C4 7549   4.046   0.177  15.288 -0.5855 -0.0199  0.9202
  508MPD2    C5 7550   4.011   0.055  15.339 -1.1224  0.4310  0.0768
  508MPD2     H 7551   4.244   0.296  15.529  0.9589  0.9117 -1.1953
  508MPD2    H1 7552   4.021   0.196  15.184  1.9209 -1.1336  0.1346
  508MPD2    H2 7553   4.036   4.644  15.496 -1.4693  0.5570  0.2145
  508MPD2    H3 7554   3.957   4.706  15.281 -0.4894 -0.4775  0.6329
  508MPD2     N 7555   4.144   0.398  15.327 -0.5075  0.2590 -0.5485
  508MPD2    H5 7556   4.198   0.444  15.399  1.5174  1.0865 -2.5877
  508MPD2    N1 7557   4.186   0.051  15.659  0.8182 -0.6475  0.3228
  508MPD2    H7 7558   4.148   4.686  15.686  1.7703 -1.7125 -1.8093
  509TMC3    C1 7559   4.014   0.819  15.225  0.2402  0.2986  0.5821
  509TMC3    C2 7560   4.123   0.877  15.278 -0.4658 -0.0245 -0.0877
  509TMC3    C3 7561   4.226   0.793  15.318 -0.5105  0.7173  0.0915
  509TMC3    C4 7562   4.003   0.692  15.196  0.1195 -0.0087  0.3716
  509TMC3    C5 7563   4.108   0.612  15.236 -0.1524 -0.4225 -0.3390
  509TMC3    C6 7564   4.223   0.660  15.293 -0.5520 -0.5906  0.1624
  509TMC3     C 7565   3.903   0.906  15.217 -0.9352  0.1565 -0.3989
  509TMC3     O 7566   3.808   0.855  15.154  0.0176 -0.5318  0.7267
  509TMC3     H 7567   4.135   0.983  15.293 -1.8886  0.2456 -0.8751
  509TMC3    H1 7568   3.908   0.648  15.166 -1.1151  2.8821  0.0297
  509TMC3    H2 7569   4.314   0.603  15.306  0.5951  1.8839  2.9068
  509TMC3    C7 7570   4.088   0.467  15.222 -0.1780  1.1197  0.7242
  509TMC3    C8 7571   4.361   0.849  15.329  0.4386 -0.3405 -0.2978
  509TMC3    O1 7572   3.993   0.431  15.153 -0.1708 -0.2872 -0.0412
  509TMC3    O2 7573   4.448   0.766  15.302 -0.6241 -0.2378  0.0615
  510MPD2     C 7574   2.163   2.133  14.457  0.1467  0.6573  0.1529
  510MPD2    C1 7575   2.112   2.023  14.531  0.0808  0.4334  0.6780
  510MPD2    C2 7576   2.134   1.893  14.473  0.4279 -0.3043  0.1566
  510MPD2    C3 7577   2.210   1.879  14.356 -0.5352 -0.1259  0.3643
  510MPD2    C4 7578   2.250   1.992  14.287  0.6022 -0.2037  0.5109
  510MPD2    C5 7579   2.219   2.118  14.336  0.1674  0.7540 -0.1096
  510MPD2     H 7580   2.099   1.796  14.505 -0.4133  0.2047  0.8195
  510MPD2    H1 7581   2.301   2.004  14.192  1.3552 -2.3103  0.6476
  510MPD2    H2 7582   2.148   2.234  14.491  0.2573 -0.3733  3.2149
  510MPD2    H3 7583   2.251   2.211  14.290 -0.2048  0.1395 -1.6246
  510MPD2     N 7584   2.239   1.748  14.309 -0.4036 -0.1969 -0.4801
  510MPD2    H5 7585   2.214   1.668  14.365  2.7531 -0.2223  0.8864
  510MPD2    N1 7586   2.010   2.046  14.625 -0.7045  0.0871 -0.1622
  510MPD2    H7 7587   1.961   2.133  14.607 -3.1306 -1.1365  0.5543
  511TMC3    C1 7588   1.800   1.988  14.706  0.2270  0.0719 -0.6047
  511TMC3    C2 7589   1.738   2.024  14.823  0.4200  0.0153  0.5376
  511TMC3    C3 7590   1.600   2.007  14.829  1.0358 -0.2526 -0.0536
  511TMC3    C4 7591   1.738   1.958  14.588  0.6116 -0.0086 -0.1657
  511TMC3    C5 7592   1.601   1.933  14.601  0.0482 -0.5393 -0.2263
  511TMC3    C6 7593   1.537   1.948  14.723  0.2080  0.0730 -1.0207
  511TMC3     C 7594   1.942   1.951  14.685 -0.7537  0.5648 -0.0384
  511TMC3     O 7595   1.975   1.832  14.695  0.4218  0.3347  0.1071
  511TMC3     H 7596   1.795   2.057  14.909 -2.4794 -0.5284  2.6453
  511TMC3    H1 7597   1.789   1.936  14.495  1.8448  0.7896  0.3182
  511TMC3    H2 7598   1.429   1.948  14.720  0.1652  4.1066  0.4730
  511TMC3    C7 7599   1.537   1.860  14.489  0.1504  0.4599 -0.2583
  511TMC3    C8 7600   1.529   2.057  14.946  0.0263 -0.3895  0.1808
  511TMC3    O1 7601   1.570   1.891  14.377 -0.3005 -0.1807 -0.0579
  511TMC3    O2 7602   1.591   2.136  15.017  0.1171  0.4095 -0.3702
  512TMC3    C1 7603   0.898   1.412  12.749 -0.0766 -0.0479  0.3617
  512TMC3    C2 7604   0.929   1.379  12.877 -0.3456  0.2895  0.4832
  512TMC3    C3 7605   0.965   1.243  12.891 -0.7798  0.3374 -0.0976
  512TMC3    C4 7606   0.920   1.337  12.639  0.5923  0.0715  0.8397
  512TMC3    C5 7607   0.949   1.203  12.665  0.3400 -0.2858  0.0396
  512TMC3    C6 7608   0.969   1.156  12.794 -0.1859  0.7158 -0.3412
  512TMC3     C 7609   0.819   1.527  12.737 -0.1665 -0.2179  0.3975
  512TMC3     O 7610   0.842   1.612  12.650  0.3261 -0.1889 -0.2771
  512TMC3     H 7611   0.909   1.444  12.961  1.2249  2.0067 -0.4621
  512TMC3    H1 7612   0.917   1.384  12.541  0.0075 -1.3843  0.1540
  512TMC3    H2 7613   0.990   1.051  12.811 -0.6868  0.7454  0.4463
  512TMC3    C7 7614   1.035   1.146  12.561  0.2822  0.7321 -0.0409
  512TMC3    C8 7615   1.021   1.199  13.017  0.0272 -0.1546 -0.6160
  512TMC3    O1 7616   1.118   1.217  12.508  0.2623  0.0092  0.5391
  512TMC3    O2 7617   1.007   1.079  13.038  0.4695 -0.5914 -0.1380
  513MPD2     C 7618   3.477   0.303  12.798  0.4851 -0.1790  0.7145
  513MPD2    C1 7619   3.506   0.435  12.774 -0.2809  0.7444  0.5185
  513MPD2    C2 7620   3.440   0.533  12.849 -0.2993 -0.5824  0.4444
  513MPD2    C3 7621   3.366   0.491  12.961 -0.7502  0.0686 -0.3727
  513MPD2    C4 7622   3.353   0.356  12.993 -0.1896  0.1379 -0.1112
  513MPD2    C5 7623   3.407   0.261  12.905 -0.2275  0.7589 -0.0697
  513MPD2     H 7624   3.466   0.638  12.839 -1.8563 -0.1659  0.8010
  513MPD2    H1 7625   3.315   0.322  13.088 -0.7713  3.3621  0.7750
  513MPD2    H2 7626   3.525   0.231  12.733  0.0296  0.1889 -0.0368
  513MPD2    H3 7627   3.423   0.159  12.937  0.7003  0.8585 -0.2043
  513MPD2     N 7628   3.327   0.599  13.046  0.2518 -0.6420 -0.1774
  513MPD2    H5 7629   3.357   0.692  13.021  1.4512 -0.9658  0.0657
  513MPD2    N1 7630   3.588   0.469  12.656  0.8112  0.3172  0.2607
  513MPD2    H7 7631   3.617   0.389  12.601  2.3630  1.0687 -0.0092
  514TMC3    C1 7632   3.714   0.619  12.517  0.3802 -0.1117  0.0594
  514TMC3    C2 7633   3.652   0.582  12.403 -0.0780  0.4366 -0.7616
  514TMC3    C3 7634   3.631   0.666  12.297 -0.4502 -0.4525 -0.8461
  514TMC3    C4 7635   3.767   0.746  12.518 -0.1149  0.2783 -0.4089
  514TMC3    C5 7636   3.750   0.834  12.418  0.6692  0.5737  0.3419
  514TMC3    C6 7637   3.681   0.797  12.307  0.5308 -0.5979  0.2634
  514TMC3     C 7638   3.625   0.603  12.632 -0.4559 -0.4611  0.1225
  514TMC3     O 7639   3.596   0.708  12.685  0.4537  0.1080 -0.0620
  514TMC3     H 7640   3.600   0.487  12.408 -3.8702  2.5573 -0.3966
  514TMC3    H1 7641   3.813   0.771  12.613 -0.9359 -0.4097  0.1652
  514TMC3    H2 7642   3.649   0.873  12.236 -1.5560 -0.9187  0.8784
  514TMC3    C7 7643   3.711   0.963  12.460  0.6292  0.1578  0.0778
  514TMC3    C8 7644   3.508   0.642  12.223 -0.3381  0.6517 -0.6644
  514TMC3    O1 7645   3.704   1.054  12.380  0.0434 -0.4812  0.2649
  514TMC3    O2 7646   3.423   0.573  12.275  0.8341 -0.0964 -0.7475
  515MPD2     C 7647   0.926   3.678  15.073 -0.5612 -0.2649 -0.1491
  515MPD2    C1 7648   0.977   3.545  15.071 -0.1024 -0.6349  0.0219
  515MPD2    C2 7649   1.094   3.521  15.131 -0.5512  0.8766 -0.0789
  515MPD2    C3 7650   1.176   3.621  15.185  0.3380  0.5716  0.3766
  515MPD2    C4 7651   1.131   3.752  15.176  0.2973 -0.2870 -0.6503
  515MPD2    C5 7652   1.007   3.783  15.118  0.3398 -0.2733  0.2454
  515MPD2     H 7653   1.125   3.419  15.149  1.1473  1.3759 -0.1453
  515MPD2    H1 7654   1.188   3.825  15.231  2.4277 -2.7018  0.3652
  515MPD2    H2 7655   0.835   3.700  15.018 -1.2809 -0.0115  1.1453
  515MPD2    H3 7656   0.974   3.885  15.128 -1.0093 -0.3129 -3.7430
  515MPD2     N 7657   1.309   3.620  15.218 -0.3145 -0.0058 -0.4631
  515MPD2    H5 7658   1.354   3.707  15.244 -0.9925 -0.1794  1.2756
  515MPD2    N1 7659   0.906   3.430  15.025 -0.0636  0.3659  0.4377
  515MPD2    H7 7660   0.950   3.340  15.036 -0.4611  0.1387  0.1563
  516TMC3    C1 7661   0.756   3.316  14.884 -0.1979 -0.2435  0.4970
  516TMC3    C2 7662   0.695   3.316  14.765  0.1902  0.3230  0.8358
  516TMC3    C3 7663   0.648   3.198  14.710  0.2774  0.5459  0.4470
  516TMC3    C4 7664   0.776   3.207  14.956 -0.0041 -0.2814 -0.0787
  516TMC3    C5 7665   0.717   3.092  14.911  0.0535 -0.6192  0.2033
  516TMC3    C6 7666   0.652   3.083  14.786 -0.4620  0.6539  0.5549
  516TMC3     C 7667   0.798   3.442  14.942  0.0167 -0.3154 -0.1852
  516TMC3     O 7668   0.761   3.537  14.878  0.2445 -0.0031 -0.1678
  516TMC3     H 7669   0.709   3.400  14.698  2.4782 -1.2161 -0.5994
  516TMC3    H1 7670   0.805   3.211  15.060 -1.8230 -0.1543  0.4258
  516TMC3    H2 7671   0.622   2.985  14.751 -0.4778  0.6471  0.5879
  516TMC3    C7 7672   0.674   2.997  15.008 -0.3632  0.2424 -0.6544
  516TMC3    C8 7673   0.552   3.200  14.605  0.0198 -0.3333  0.0314
  516TMC3    O1 7674   0.724   3.003  15.119 -0.5537 -0.0176 -0.3852
  516TMC3    O2 7675   0.519   3.094  14.555 -0.0967  0.3567  0.1627
  517MPD2     C 7676   0.268   4.523  17.034  0.1151 -0.1899 -0.0979
  517MPD2    C1 7677   0.356   4.502  17.137  0.8270 -1.0537 -0.1935
  517MPD2    C2 7678   0.346   4.581  17.252 -0.4198 -0.0401 -0.5307
  517MPD2    C3 7679   0.242   4.678  17.266  0.5788 -1.4287  0.0806
  517MPD2    C4 7680   0.164   4.698  17.153 -0.5546  0.3216  0.2261
  517MPD2    C5 7681   0.176   4.627  17.034 -0.1272  0.2989 -0.8073
  517MPD2     H 7682   0.417   4.568  17.333  0.6963  0.7211 -1.3765
  517MPD2    H1 7683   0.084   0.047  17.162  0.9899  1.9240  0.9456
  517MPD2    H2 7684   0.279   4.481  16.935 -0.0869  1.0469 -0.6421
  517MPD2    H3 7685   0.117   4.651  16.946  0.1797  0.4226 -0.9771
  517MPD2     N 7686   0.219   0.028  17.383 -0.0420 -0.2427 -0.1508
  517MPD2    H5 7687   0.146   0.097  17.368  0.8774  0.6521 -0.5212
  517MPD2    N1 7688   0.470   4.416  17.129  0.6975  0.3855 -0.8979
  517MPD2    H7 7689   0.523   4.405  17.215 -1.3307  0.1057  0.2993
  518TMC3    C1 7690   0.649   4.294  17.030 -0.0592 -0.1018 -0.1583
  518TMC3    C2 7691   0.681   4.187  16.945  0.1308  0.4438  0.2629
  518TMC3    C3 7692   0.801   4.119  16.962 -0.7313  0.2120  0.0671
  518TMC3    C4 7693   0.734   4.340  17.124 -0.0918  0.7041 -0.4854
  518TMC3    C5 7694   0.848   4.274  17.132  0.0851 -0.4373  0.5033
  518TMC3    C6 7695   0.880   4.163  17.056 -0.0075  0.0504 -0.2066
  518TMC3     C 7696   0.511   4.346  17.016 -0.0611  0.1026 -0.0045
  518TMC3     O 7697   0.449   4.329  16.912  0.8241  1.0619 -0.2444
  518TMC3     H 7698   0.611   4.147  16.873 -2.9152  1.2410  2.8294
  518TMC3    H1 7699   0.721   4.424  17.190  0.2710 -1.4813  2.3785
  518TMC3    H2 7700   0.966   4.099  17.071 -0.9605 -1.0181  0.6989
  518TMC3    C7 7701   0.904   4.265  17.257 -0.3075 -0.0518  0.9621
  518TMC3    C8 7702   0.811   3.983  16.944  0.5103  0.2376 -0.0444
  518TMC3    O1 7703   0.836   4.292  17.358 -0.0072 -0.1292 -0.0699
  518TMC3    O2 7704   0.823   3.921  17.049  0.6058 -0.7595 -0.1054
  519MPD2     C 7705   2.419   3.175  14.062  0.1261  0.0015 -0.4400
  519MPD2    C1 7706   2.321   3.100  14.131  0.1435  0.4243  0.0221
  519MPD2    C2 7707   2.304   2.960  14.117  0.4854 -0.8190  0.3461
  519MPD2    C3 7708   2.367   2.901  14.006 -0.3341  0.4576  0.0613
  519MPD2    C4 7709   2.459   2.979  13.932 -0.1078  0.1910  0.3094
  519MPD2    C5 7710   2.487   3.110  13.964  0.6865  1.1277 -0.3955
  519MPD2     H 7711   2.229   2.901  14.169  0.1475  0.9166  1.8065
  519MPD2    H1 7712   2.513   2.930  13.851 -1.6418 -0.0255 -0.5754
  519MPD2    H2 7713   2.431   3.283  14.062  2.3242 -0.2456  1.8503
  519MPD2    H3 7714   2.559   3.160  13.901  1.4860  0.6101  0.0992
  519MPD2     N 7715   2.358   2.766  13.983  0.3163 -0.2684  0.3751
  519MPD2    H5 7716   2.321   2.706  14.056  0.8846 -0.4280  0.5293
  519MPD2    N1 7717   2.223   3.177  14.204  0.1386 -0.6883 -0.1724
  519MPD2    H7 7718   2.221   3.276  14.185  1.3312 -0.3667  1.3992
  520TMC3    C1 7719   2.350   2.567  13.864  0.4473  0.4416 -0.3845
  520TMC3    C2 7720   2.288   2.521  13.742  0.5876  0.4754 -0.2008
  520TMC3    C3 7721   2.270   2.386  13.733 -0.1881  0.3148  0.8467
  520TMC3    C4 7722   2.399   2.490  13.967 -0.2759  0.1534  0.2242
  520TMC3    C5 7723   2.384   2.354  13.942 -0.4282  0.2696  0.3898
  520TMC3    C6 7724   2.324   2.304  13.828  0.9535 -0.2683  0.3979
  520TMC3     C 7725   2.377   2.715  13.856  0.3112 -0.7357 -0.1055
  520TMC3     O 7726   2.384   2.768  13.745  0.0544  0.2455  0.3578
  520TMC3     H 7727   2.230   2.581  13.673 -0.2438 -0.9857 -0.7736
  520TMC3    H1 7728   2.427   2.530  14.064  0.7938  0.5228 -0.2479
  520TMC3    H2 7729   2.291   2.201  13.828  0.3728 -0.0890  1.2369
  520TMC3    C7 7730   2.461   2.267  14.028  0.3020 -0.0470  0.2276
  520TMC3    C8 7731   2.159   2.337  13.656 -0.2712  0.3946 -0.7069
  520TMC3    O1 7732   2.491   2.315  14.138 -0.6184  0.2508  0.2502
  520TMC3    O2 7733   2.165   2.221  13.616  0.1591 -0.3598 -0.2555
  521MPD2     C 7734   3.385   0.741  17.369  0.4800  0.8456  0.6746
  521MPD2    C1 7735   3.300   0.673  17.289 -0.0814  0.5145 -0.1138
  521MPD2    C2 7736   3.331   0.656  17.155  0.3068  0.4282  0.7192
  521MPD2    C3 7737   3.444   0.717  17.103  0.2381  0.0113  0.3714
  521MPD2    C4 7738   3.512   0.804  17.177  1.3678 -0.0946 -0.2879
  521MPD2    C5 7739   3.492   0.810  17.314  0.0763  0.3818 -0.1897
  521MPD2     H 7740   3.273   0.589  17.092  0.2008  1.3927 -0.2076
  521MPD2    H1 7741   3.599   0.859  17.145  1.3653 -0.3972 -0.8148
  521MPD2    H2 7742   3.360   0.754  17.473  2.2458  0.4493  1.1451
  521MPD2    H3 7743   3.547   0.877  17.379 -0.5278  0.0904  0.6153
  521MPD2     N 7744   3.477   0.674  16.971  0.0477 -0.3274 -0.8219
  521MPD2    H5 7745   3.426   0.592  16.939 -0.7916 -0.3613  0.6114
  521MPD2    N1 7746   3.192   0.610  17.354  0.2479 -0.0373 -0.1664
  521MPD2    H7 7747   3.188   0.614  17.455 -2.0431 -2.7281 -0.1399
  522TMC3    C1 7748   3.601   0.665  16.782 -0.4210 -0.1743  0.2683
  522TMC3    C2 7749   3.640   0.535  16.781  0.1986 -0.0251 -0.4694
  522TMC3    C3 7750   3.669   0.481  16.663 -0.4697  0.1421 -0.1168
  522TMC3    C4 7751   3.598   0.744  16.666  0.1579 -0.5159 -0.1926
  522TMC3    C5 7752   3.637   0.681  16.548 -0.7183  0.0732 -0.2974
  522TMC3    C6 7753   3.667   0.548  16.543  0.7836  0.6669  0.0378
  522TMC3     C 7754   3.573   0.735  16.898  0.2003  0.4713  0.4116
  522TMC3     O 7755   3.657   0.823  16.919  0.6942 -0.5952  0.6257
  522TMC3     H 7756   3.630   0.479  16.873 -0.0005 -2.0951 -1.7328
  522TMC3    H1 7757   3.578   0.851  16.658  2.4749 -0.0438  0.3694
  522TMC3    H2 7758   3.700   0.510  16.447 -0.3130 -0.0384 -0.0599
  522TMC3    C7 7759   3.630   0.761  16.427 -0.6799 -0.1875  1.0798
  522TMC3    C8 7760   3.733   0.347  16.665  0.0141  0.4253  0.2392
  522TMC3    O1 7761   3.735   0.750  16.362 -0.9085  0.4894 -0.4438
  522TMC3    O2 7762   3.756   0.308  16.779  0.0271 -0.2768 -0.1983
  523MPD2     C 7763   1.216   1.002  10.098  0.0140 -0.4768 -0.1067
  523MPD2    C1 7764   1.187   0.913  10.000  0.8042  0.4751  0.2497
  523MPD2    C2 7765   1.106   0.952   9.890  0.6493  0.6505 -0.4568
  523MPD2    C3 7766   1.057   1.083   9.889 -0.2174  0.0253 -0.2994
  523MPD2    C4 7767   1.084   1.169   9.991  0.3414 -0.4410 -0.2676
  523MPD2    C5 7768   1.161   1.130  10.096 -0.2348  0.9213 -0.5111
  523MPD2     H 7769   1.082   0.884   9.810 -3.7790  0.2803  1.2022
  523MPD2    H1 7770   1.041   1.267   9.979  0.1584 -0.3130  1.5492
  523MPD2    H2 7771   1.264   0.985  10.194  0.1338 -0.4228 -0.1580
  523MPD2    H3 7772   1.184   1.204  10.171 -1.4611 -1.4540  2.2397
  523MPD2     N 7773   0.977   1.135   9.787  0.5540  0.0773 -0.0003
  523MPD2    H5 7774   0.968   1.236   9.788 -0.6179 -0.0291 -0.2280
  523MPD2    N1 7775   1.232   0.777  10.013 -0.0793  0.8881 -0.1937
  523MPD2    H7 7776   1.305   0.756  10.080 -2.0619  0.3401  1.8081
  524TMC3    C1 7777   0.878   1.170   9.583  0.1406 -0.1512 -0.3494
  524TMC3    C2 7778   0.875   1.145   9.454 -0.8534  0.3527 -0.3990
  524TMC3    C3 7779   0.820   1.236   9.368 -0.2854 -1.0016  0.6244
  524TMC3    C4 7780   0.818   1.276   9.642 -0.6326 -0.4051 -0.4506
  524TMC3    C5 7781   0.767   1.362   9.552 -0.1329  0.3186  0.5405
  524TMC3    C6 7782   0.779   1.353   9.416  0.2662  0.1927 -0.0395
  524TMC3     C 7783   0.922   1.068   9.677 -0.3934  0.2697 -0.3157
  524TMC3     O 7784   0.922   0.947   9.654 -0.5671 -0.4986  1.1400
  524TMC3     H 7785   0.889   1.041   9.427  2.1815  1.3893 -2.8352
  524TMC3    H1 7786   0.795   1.291   9.747  1.6218 -0.7602  0.0731
  524TMC3    H2 7787   0.743   1.432   9.350  0.3301  2.8768  3.1112
  524TMC3    C7 7788   0.681   1.469   9.604  0.0802 -0.1161 -0.0247
  524TMC3    C8 7789   0.817   1.207   9.229  0.5339 -0.1620  0.5096
  524TMC3    O1 7790   0.639   1.450   9.716 -0.2440 -0.0269 -0.1407
  524TMC3    O2 7791   0.882   1.113   9.186  0.3000  0.2723 -0.6364
  525MPD2     C 7792   3.545   2.173  15.011 -0.5104 -0.2228 -0.2461
  525MPD2    C1 7793   3.673   2.138  15.029  0.3167  0.7090  0.0330
  525MPD2    C2 7794   3.767   2.173  14.932  0.1621 -0.2144  0.1740
  525MPD2    C3 7795   3.724   2.246  14.821 -0.3054 -0.0101  0.1148
  525MPD2    C4 7796   3.596   2.269  14.794 -0.5705  0.1549  0.3252
  525MPD2    C5 7797   3.502   2.239  14.897 -0.5548  0.0812  0.3800
  525MPD2     H 7798   3.869   2.145  14.956  0.9851  0.1986 -2.8411
  525MPD2    H1 7799   3.554   2.328  14.713  0.3658 -2.9121 -2.3794
  525MPD2    H2 7800   3.467   2.151  15.082  0.8381 -1.1877  0.9209
  525MPD2    H3 7801   3.398   2.261  14.880  0.0740  0.3080 -3.1070
  525MPD2     N 7802   3.809   2.308  14.739  0.0096  0.5261 -0.7070
  525MPD2    H5 7803   3.771   2.361  14.661 -1.0583 -0.4254 -0.8302
  525MPD2    N1 7804   3.717   2.064  15.143 -0.2369  0.2170 -0.3410
  525MPD2    H7 7805   3.815   2.034  15.141 -0.4045 -0.5010  1.9051
  526TMC3    C1 7806   3.716   1.989  15.367  0.1510 -0.0782 -0.2132
  526TMC3    C2 7807   3.641   1.963  15.476  0.3604 -0.5037 -0.7745
  526TMC3    C3 7808   3.712   1.933  15.595  0.2183  0.7121  0.1749
  526TMC3    C4 7809   3.847   1.942  15.354  0.5224  0.3587  0.2320
  526TMC3    C5 7810   3.909   1.890  15.469  0.8628 -0.4736  0.3556
  526TMC3    C6 7811   3.847   1.905  15.597  0.5747 -0.2897 -1.1500
  526TMC3     C 7812   3.640   2.039  15.254 -0.1984 -0.5476 -0.5359
  526TMC3     O 7813   3.533   2.086  15.281  0.1691  0.3857  0.3655
  526TMC3     H 7814   3.533   1.974  15.478  0.4212  0.0371 -0.4032
  526TMC3    H1 7815   3.896   1.947  15.257 -0.9761 -1.7098 -0.6032
  526TMC3    H2 7816   3.897   1.872  15.687 -2.8909  3.0759  1.9915
  526TMC3    C7 7817   4.025   1.805  15.473  0.2634 -0.3049  0.6488
  526TMC3    C8 7818   3.670   1.986  15.722  0.0647  0.1244  0.4928
  526TMC3    O1 7819   4.060   1.745  15.573  0.4303  0.1200 -0.2250
  526TMC3    O2 7820   3.752   2.007  15.808  0.1231  0.2265 -0.0365
  527MPD2     C 7821   1.897   0.435   1.358  0.1559 -0.4867  0.2491
  527MPD2    C1 7822   1.855   0.426   1.230  0.2470  0.4945 -0.0200
  527MPD2    C2 7823   1.954   0.423   1.134  0.5469  0.2473 -0.3040
  527MPD2    C3 7824   2.089   0.424   1.170 -0.0655  0.0082  0.4955
  527MPD2    C4 7825   2.128   0.429   1.297 -0.3491 -0.6579 -0.2478
  527MPD2    C5 7826   2.026   0.439   1.392  0.3512  0.2285  0.6207
  527MPD2     H 7827   1.931   0.418   1.028 -1.5474 -2.7823  0.2717
  527MPD2    H1 7828   2.230   0.414   1.332 -1.4381 -2.9193  1.9377
  527MPD2    H2 7829   1.825   0.437   1.439 -1.1919  0.2899 -0.9772
  527MPD2    H3 7830   2.041   0.449   1.499 -3.6668 -1.2395  1.2951
  527MPD2     N 7831   2.180   0.414   1.061 -0.4728 -0.2114  0.6407
  527MPD2    H5 7832   2.143   0.385   0.970 -1.3144  2.2696  0.1933
  527MPD2    N1 7833   1.718   0.428   1.218  0.6465 -0.0710  0.7305
  527MPD2    H7 7834   1.666   0.445   1.303 -1.7718  0.7451 -0.8895
  528TMC3    C1 7835   1.504   0.393   1.113 -0.3744 -0.0556  0.5314
  528TMC3    C2 7836   1.447   0.433   1.233 -0.4662 -0.4338 -1.0265
  528TMC3    C3 7837   1.315   0.469   1.234  0.3065  0.1962  0.1567
  528TMC3    C4 7838   1.430   0.364   1.001 -0.3840 -0.2870  0.3221
  528TMC3    C5 7839   1.301   0.393   1.005  0.4292 -0.1622  0.1738
  528TMC3    C6 7840   1.243   0.440   1.123 -0.2600 -0.2274  0.4019
  528TMC3     C 7841   1.649   0.398   1.101  0.1167  0.2583 -0.2081
  528TMC3     O 7842   1.692   0.389   0.983 -0.6252 -0.1235  0.1019
  528TMC3     H 7843   1.508   0.438   1.323 -2.2155  1.1048  0.0722
  528TMC3    H1 7844   1.487   0.343   0.911  1.9260  2.1826  1.2131
  528TMC3    H2 7845   1.139   0.470   1.134 -0.4548 -1.4831  1.9680
  528TMC3    C7 7846   1.204   0.351   0.900 -0.0581 -0.4688 -0.0839
  528TMC3    C8 7847   1.256   0.459   1.371 -0.2817  0.0388  0.3226
  528TMC3    O1 7848   1.087   0.376   0.928  0.3699 -0.1595 -0.6546
  528TMC3    O2 7849   1.340   0.485   1.464 -0.0064  0.2400  0.7162
  529MPD2     C 7850   3.028   2.940   0.244 -0.2861  0.5917  0.0882
  529MPD2    C1 7851   3.132   3.026   0.267 -0.1001  0.1883 -0.2421
  529MPD2    C2 7852   3.136   3.145   0.194 -0.5278  0.0577  0.2974
  529MPD2    C3 7853   3.032   3.186   0.116 -0.1717 -0.4036 -0.3653
  529MPD2    C4 7854   2.924   3.097   0.098 -0.2091  0.2840 -1.1101
  529MPD2    C5 7855   2.923   2.974   0.158 -0.0013  0.5058 -0.2014
  529MPD2     H 7856   3.222   3.208   0.214 -2.5186  2.1877  2.0871
  529MPD2    H1 7857   2.848   3.115   0.023 -0.8733  0.4693 -0.4033
  529MPD2    H2 7858   3.033   2.847   0.299  1.2161  0.2402 -0.6462
  529MPD2    H3 7859   2.840   2.905   0.151  0.1834  0.1438  1.2584
  529MPD2     N 7860   3.023   3.315   0.054 -0.1873 -0.1595 -0.0066
  529MPD2    H5 7861   2.959   3.322  17.675  0.1591  0.5504 -0.2171
  529MPD2    N1 7862   3.242   3.003   0.353 -0.2433  0.3402 -0.5261
  529MPD2    H7 7863   3.306   3.081   0.363  0.1893 -0.0976  0.1102
  530TMC3    C1 7864   3.381   2.891   0.500 -0.5380  0.0846  0.0809
  530TMC3    C2 7865   3.401   2.999   0.578 -0.0283  0.8226  0.3345
  530TMC3    C3 7866   3.479   2.979   0.688  0.5380 -0.0744 -0.1928
  530TMC3    C4 7867   3.448   2.778   0.515  0.8611  0.1135 -0.7226
  530TMC3    C5 7868   3.526   2.759   0.626 -0.2844 -0.0101 -0.5035
  530TMC3    C6 7869   3.537   2.857   0.721  0.5818  0.2514 -0.1507
  530TMC3     C 7870   3.267   2.887   0.421 -1.2000 -0.4571 -0.0920
  530TMC3     O 7871   3.211   2.780   0.409  0.3082 -0.1813  0.0054
  530TMC3     H 7872   3.350   3.094   0.567  1.8447  1.9078  0.9282
  530TMC3    H1 7873   3.426   2.700   0.443 -0.4369  0.0506 -0.2574
  530TMC3    H2 7874   3.594   2.843   0.812  1.3126  0.9169 -0.5097
  530TMC3    C7 7875   3.566   2.617   0.649 -0.5469  0.2401  0.2635
  530TMC3    C8 7876   3.497   3.085   0.786 -0.9031  0.4957 -0.4914
  530TMC3    O1 7877   3.509   2.533   0.584  0.0143 -0.1808  0.3464
  530TMC3    O2 7878   3.421   3.179   0.788  0.4629 -0.3357 -0.4098
  531MPD2     C 7879   3.513   1.234  12.852  0.1483  0.5171 -0.0788
  531MPD2    C1 7880   3.499   1.103  12.885 -0.1282 -0.1088 -0.5287
  531MPD2    C2 7881   3.556   1.013  12.791  0.6933  0.2749  0.2362
  531MPD2    C3 7882   3.608   1.051  12.667 -0.1182 -0.0884  0.9815
  531MPD2    C4 7883   3.613   1.186  12.635 -0.0906  1.1366  0.0960
  531MPD2    C5 7884   3.571   1.277  12.733 -0.2241 -0.1163  0.2087
  531MPD2     H 7885   3.559   0.910  12.824  1.9332 -0.3562 -1.8753
  531MPD2    H1 7886   3.652   1.228  12.543 -0.6418  1.1150 -0.1440
  531MPD2    H2 7887   3.476   1.307  12.922 -0.4328 -0.5429  0.7299
  531MPD2    H3 7888   3.573   1.383  12.713  1.4489 -0.0047  0.9617
  531MPD2     N 7889   3.652   0.949  12.584 -0.6820  0.0975 -0.5230
  531MPD2    H5 7890   3.643   0.852  12.611 -2.0976  0.4118  0.1614
  531MPD2    N1 7891   3.445   1.067  13.012 -0.3202 -0.4093 -0.4130
  531MPD2    H7 7892   3.413   1.145  13.068 -0.7820  0.5062 -1.9544
  532TMC3    C1 7893   3.347   0.930  13.171 -0.0939 -0.5044  0.3279
  532TMC3    C2 7894   3.270   0.815  13.158 -0.4187  0.2605 -0.2539
  532TMC3    C3 7895   3.288   0.712  13.238  0.7377  0.1476  0.3594
  532TMC3    C4 7896   3.426   0.940  13.278 -0.3633 -0.0285 -0.1977
  532TMC3    C5 7897   3.441   0.836  13.371  0.0186  0.1235  0.3452
  532TMC3    C6 7898   3.370   0.722  13.348  0.1462  0.1154  0.0638
  532TMC3     C 7899   3.417   0.935  13.046  0.0020  0.1389  0.0442
  532TMC3     O 7900   3.427   0.835  12.978  0.0146 -0.4402 -0.2642
  532TMC3     H 7901   3.218   0.811  13.063  1.2740  0.9578 -1.2090
  532TMC3    H1 7902   3.495   1.021  13.295  1.1121 -0.9721 -1.6833
  532TMC3    H2 7903   3.387   0.632  13.405 -2.2737 -0.0289  0.5635
  532TMC3    C7 7904   3.539   0.845  13.470  0.0971 -0.5592 -0.2713
  532TMC3    C8 7905   3.281   0.579  13.175  0.0647 -0.0736 -0.3165
  532TMC3    O1 7906   3.551   0.951  13.527 -0.3856 -0.2106  0.4768
  532TMC3    O2 7907   3.268   0.477  13.240  0.1919  0.0742 -0.3179
  533TMC3    C1 7908   3.996   2.402  14.636 -0.6013 -0.2881 -0.1467
  533TMC3    C2 7909   4.086   2.491  14.675 -0.4243  0.7560  0.0451
  533TMC3    C3 7910   4.100   2.604  14.596  0.0605  0.0321 -0.5952
  533TMC3    C4 7911   3.905   2.426  14.536  0.4360  0.3730 -0.3604
  533TMC3    C5 7912   3.895   2.552  14.482  0.0031  0.0456  0.2244
  533TMC3    C6 7913   3.995   2.644  14.515  0.4827 -0.3668  0.6429
  533TMC3     C 7914   3.943   2.327  14.747  0.0953  0.0059 -0.0062
  533TMC3     O 7915   4.015   2.285  14.839  0.0997 -0.3436 -0.1056
  533TMC3     H 7916   4.153   2.478  14.759  0.2194 -0.1000 -0.6000
  533TMC3    H1 7917   3.832   2.354  14.502 -0.9221  1.5202  0.1221
  533TMC3    H2 7918   4.010   2.736  14.461 -0.5553 -0.1996  0.6445
  533TMC3    C7 7919   3.767   2.599  14.524  1.0489  0.5522 -0.1131
  533TMC3    C8 7920   4.232   2.667  14.591  0.7430  0.3298  0.0114
  533TMC3    O1 7921   3.701   2.527  14.590 -0.4723  0.2592  0.3042
  533TMC3    O2 7922   4.307   2.648  14.688 -0.0464 -0.2721  0.3791
  534MPD2     C 7923   0.920   4.329   1.741 -0.1436  0.5113 -0.8068
  534MPD2    C1 7924   0.964   4.356   1.610  0.3476  0.4369  0.2264
  534MPD2    C2 7925   0.931   4.272   1.510 -0.1691  0.1789 -0.5505
  534MPD2    C3 7926   0.841   4.168   1.539 -0.0261  0.5322 -0.1301
  534MPD2    C4 7927   0.785   4.147   1.665 -0.1012  0.4780 -0.2769
  534MPD2    C5 7928   0.830   4.226   1.769 -0.3584 -0.4174  0.2495
  534MPD2     H 7929   0.972   4.285   1.410 -3.5095  1.7785 -1.6930
  534MPD2    H1 7930   0.721   4.063   1.686  0.9069 -0.2870 -0.2353
  534MPD2    H2 7931   0.948   4.395   1.822  1.9602 -0.6993 -0.5516
  534MPD2    H3 7932   0.798   4.196   1.868 -2.3413 -0.0472 -0.2816
  534MPD2     N 7933   0.796   4.076   1.441 -0.3357  0.1195 -0.2944
  534MPD2    H5 7934   0.739   4.003   1.483  0.2930 -0.1628  0.0774
  534MPD2    N1 7935   1.042   4.467   1.584  0.6249  0.2389 -0.2988
  534MPD2    H7 7936   1.073   4.479   1.488  1.5102 -1.2768 -0.2097
  535TMC3    C1 7937   0.756   3.976   1.235 -0.1255 -0.3503 -0.1897
  535TMC3    C2 7938   0.620   3.990   1.257 -0.0273 -0.0336 -0.1514
  535TMC3    C3 7939   0.530   3.947   1.161 -0.1982 -0.1155 -0.1149
  535TMC3    C4 7940   0.798   3.922   1.119 -0.3683 -0.1641 -0.5653
  535TMC3    C5 7941   0.705   3.880   1.022 -0.3023  0.0326 -0.3913
  535TMC3    C6 7942   0.570   3.894   1.038 -0.5107 -0.1709  0.4179
  535TMC3     C 7943   0.842   4.058   1.315 -0.9753  1.1285  0.3226
  535TMC3     O 7944   0.936   4.115   1.257  0.4748  0.8381  0.5384
  535TMC3     H 7945   0.582   4.040   1.346 -1.0906  2.5239 -2.0438
  535TMC3    H1 7946   0.905   3.932   1.105 -0.0533 -1.0328  1.1815
  535TMC3    H2 7947   0.496   3.874   0.962  0.0132 -0.6174  0.0224
  535TMC3    C7 7948   0.766   3.851   0.891  0.0455  0.5447 -0.1487
  535TMC3    C8 7949   0.392   4.003   1.167 -0.2872 -0.0374 -0.2105
  535TMC3    O1 7950   0.876   3.802   0.896  0.0344 -0.3388  0.1849
  535TMC3    O2 7951   0.374   4.105   1.239  0.1982 -0.3323  0.5842
  536MPD2     C 7952   4.700   2.203  16.507  0.6416  0.0587  0.0274
  536MPD2    C1 7953   4.641   2.087  16.473 -0.2535 -1.3323 -0.1604
  536MPD2    C2 7954   4.547   2.086  16.374 -0.8169  0.0557  0.2169
  536MPD2    C3 7955   4.514   2.207  16.306  0.1701 -0.2444 -0.9010
  536MPD2    C4 7956   4.569   2.324  16.349 -1.1563  0.5643 -0.6417
  536MPD2    C5 7957   4.667   2.321  16.447  0.2021  0.3332  0.6680
  536MPD2     H 7958   4.497   1.993  16.349  0.7309 -0.2210 -1.8666
  536MPD2    H1 7959   4.542   2.414  16.294  1.3524  2.1353  0.6638
  536MPD2    H2 7960   0.045   2.200  16.590 -1.0140 -2.0336  1.3445
  536MPD2    H3 7961   4.718   2.413  16.473  0.4158 -0.1490  1.9233
  536MPD2     N 7962   4.409   2.217  16.210  0.2214 -0.7399  0.6509
  536MPD2    H5 7963   4.384   2.309  16.175 -0.4639 -1.2923 -0.2935
  536MPD2    N1 7964   4.697   1.980  16.547  0.3706 -0.4493 -0.2680
  536MPD2    H7 7965   0.038   2.004  16.620  1.4638 -1.8567 -0.7904
  537TMC3    C1 7966   0.031   1.762  16.624  0.2552  0.1074 -0.9722
  537TMC3    C2 7967   0.132   1.815  16.704  0.0922 -0.2620 -0.2531
  537TMC3    C3 7968   0.165   1.745  16.814 -0.5170 -0.0118  0.6259
  537TMC3    C4 7969   4.698   1.641  16.645  0.3588 -0.5340  0.1663
  537TMC3    C5 7970   0.018   1.569  16.755  0.0954 -0.3325  0.3321
  537TMC3    C6 7971   0.113   1.617  16.840 -0.4637 -0.8858  0.4357
  537TMC3     C 7972   4.672   1.844  16.535 -0.0156  0.1738 -0.2254
  537TMC3     O 7973   4.596   1.796  16.452  0.6381 -0.2285  0.4706
  537TMC3     H 7974   0.187   1.907  16.683  0.3828  0.0508  1.9013
  537TMC3    H1 7975   4.618   1.612  16.578  0.7553 -0.8356 -0.1720
  537TMC3    H2 7976   0.131   1.560  16.930 -2.0965 -2.7099 -0.3783
  537TMC3    C7 7977   4.675   1.438  16.780 -0.4882 -0.5011  0.6219
  537TMC3    C8 7978   0.276   1.793  16.896 -0.2706 -0.8273  0.0879
  537TMC3    O1 7979   4.646   1.366  16.690  0.4010  0.3297 -0.1203
  537TMC3    O2 7980   0.308   1.910  16.895 -0.1533 -0.5850  0.2649
  538TMC3    C1 7981   1.824   0.773  10.910 -0.4755  0.3605  0.2930
  538TMC3    C2 7982   1.874   0.673  10.836  0.5513  0.2246 -0.2403
  538TMC3    C3 7983   1.872   0.690  10.701 -0.6868  0.1538 -0.0399
  538TMC3    C4 7984   1.752   0.882  10.856  1.2347 -0.8974  0.4037
  538TMC3    C5 7985   1.772   0.898  10.725 -1.0624  0.1035 -0.0610
  538TMC3    C6 7986   1.826   0.805  10.644 -0.0134  0.0233 -0.1120
  538TMC3     C 7987   1.817   0.742  11.049 -0.0365  0.0959  0.2707
  538TMC3     O 7988   1.719   0.775  11.110  0.3909  0.6782 -0.2551
  538TMC3     H 7989   1.886   0.571  10.871  1.2324  1.2639  2.5080
  538TMC3    H1 7990   1.712   0.965  10.914 -3.0087 -0.5855 -2.9825
  538TMC3    H2 7991   1.836   0.810  10.537  0.5801 -0.6550 -0.0854
  538TMC3    C7 7992   1.683   1.001  10.668 -0.3017 -0.2412  0.9410
  538TMC3    C8 7993   1.979   0.616  10.631  0.3895 -0.9636 -0.4126
  538TMC3    O1 7994   1.586   1.035  10.734  0.1469  0.0935  0.9226
  538TMC3    O2 7995   2.007   0.502  10.674  0.1411 -0.3858 -0.1105
  539MPD2     C 7996   1.838   0.389  11.740 -0.3465  0.1216 -0.7543
  539MPD2    C1 7997   1.786   0.341  11.628 -0.4681  0.1154 -0.5946
  539MPD2    C2 7998   1.687   0.402  11.553  0.8846  0.4404 -0.0875
  539MPD2    C3 7999   1.641   0.519  11.605  0.5864  0.1790 -0.5240
  539MPD2    C4 8000   1.688   0.577  11.720  0.2520  0.1435  0.4096
  539MPD2    C5 8001   1.788   0.512  11.785  0.7486 -0.2272  0.1353
  539MPD2     H 8002   1.645   0.363  11.461  1.5983  1.6587 -0.9338
  539MPD2    H1 8003   1.645   0.666  11.764  2.6900  1.0607  0.9310
  539MPD2    H2 8004   1.914   0.342  11.801 -0.7105 -1.1696 -1.2909
  539MPD2    H3 8005   1.839   0.554  11.871  0.0107 -0.2169  0.5616
  539MPD2     N 8006   1.550   0.600  11.529 -0.1077  0.2916 -0.7065
  539MPD2    H5 8007   1.518   0.681  11.580  1.9438  1.1405 -0.7702
  539MPD2    N1 8008   1.832   0.217  11.569  0.0875  0.2032  0.4873
  539MPD2    H7 8009   1.784   0.186  11.485  1.4349  0.3784 -0.3413
  540TMC3    C1 8010   1.366   0.642  11.381 -0.1774  0.0483 -0.1651
  540TMC3    C2 8011   1.285   0.549  11.329 -0.1108 -0.0385  0.1053
  540TMC3    C3 8012   1.158   0.554  11.368 -0.0668  0.5527  0.5355
  540TMC3    C4 8013   1.324   0.747  11.462  0.3814  0.8380  0.3344
  540TMC3    C5 8014   1.188   0.746  11.497  0.3677  0.0304 -0.8857
  540TMC3    C6 8015   1.111   0.646  11.454  0.1195 -0.2506  0.3269
  540TMC3     C 8016   1.504   0.580  11.403  0.5585 -0.3829 -0.1049
  540TMC3     O 8017   1.535   0.492  11.319 -0.3040 -0.4733  0.1040
  540TMC3     H 8018   1.321   0.465  11.270 -1.7153 -0.1842 -0.6642
  540TMC3    H1 8019   1.394   0.822  11.496  0.6687  0.7582 -0.0877
  540TMC3    H2 8020   1.009   0.629  11.487  1.4955 -0.2838  4.6489
  540TMC3    C7 8021   1.139   0.828  11.611  0.2404 -0.7973  0.3523
  540TMC3    C8 8022   1.069   0.438  11.332 -0.6021 -0.5611 -1.1549
  540TMC3    O1 8023   1.045   0.783  11.676 -0.5075 -0.1130 -0.5879
  540TMC3    O2 8024   0.980   0.395  11.408 -0.1752 -0.4315  0.2175
  541MPD2     C 8025   0.181   1.170  13.130  0.2742 -0.4043  1.0455
  541MPD2    C1 8026   0.047   1.171  13.139  0.6249 -0.5342  0.2448
  541MPD2    C2 8027   4.703   1.251  13.047 -0.4294  1.2480 -0.1579
  541MPD2    C3 8028   0.047   1.322  12.950  0.3669  0.6954 -0.3052
  541MPD2    C4 8029   0.182   1.304  12.938  0.6774  0.2277 -0.9123
  541MPD2    C5 8030   0.250   1.241  13.038 -0.3088 -0.2539 -0.6251
  541MPD2     H 8031   4.596   1.237  13.052  0.0086 -2.2798 -0.3331
  541MPD2    H1 8032   0.240   1.370  12.874 -0.1647  0.7348 -1.1518
  541MPD2    H2 8033   0.238   1.110  13.200 -0.4076 -0.6867  1.3578
  541MPD2    H3 8034   0.358   1.249  13.036 -0.0756 -2.8264  1.5891
  541MPD2     N 8035   4.701   1.397  12.846  0.1417  0.2224  0.2150
  541MPD2    H5 8036   0.024   1.426  12.761  1.0896 -1.4760  0.1731
  541MPD2    N1 8037   4.689   1.094  13.221  0.3123  0.0693  1.0098
  541MPD2    H7 8038   4.587   1.098  13.222  0.2915 -0.5836  1.6785
  542TMC3    C1 8039   4.512   1.464  12.730 -0.1706 -0.1348 -0.0532
  542TMC3    C2 8040   4.577   1.456  12.610  0.6851  0.0625 -0.0692
  542TMC3    C3 8041   4.496   1.446  12.494 -0.4047 -0.3582  0.1934
  542TMC3    C4 8042   4.379   1.482  12.741 -0.0369 -0.1754 -0.8974
  542TMC3    C5 8043   4.306   1.479  12.628  0.0484  0.5823 -0.0820
  542TMC3    C6 8044   4.358   1.441  12.506 -0.0634  0.2186  0.1537
  542TMC3     C 8045   4.572   1.422  12.856  0.7453  0.1154  0.3979
  542TMC3     O 8046   4.503   1.419  12.958 -0.1110 -0.0072 -0.4458
  542TMC3     H 8047   4.685   1.452  12.603  0.5946  1.5104 -2.3081
  542TMC3    H1 8048   4.342   1.521  12.835  0.8065 -1.0651 -0.1817
  542TMC3    H2 8049   4.301   1.433  12.415 -1.5085  0.5343  1.0366
  542TMC3    C7 8050   4.190   1.574  12.628  0.9533  0.4402  0.0395
  542TMC3    C8 8051   4.549   1.486  12.366  0.2896 -0.5604  0.2745
  542TMC3    O1 8052   4.139   1.608  12.738 -0.1733 -0.3961 -0.4115
  542TMC3    O2 8053   4.469   1.488  12.272 -0.0482 -0.2447  0.1717
  543TMC3    C1 8054   4.008   2.702  16.882 -0.4336  0.2727 -0.0076
  543TMC3    C2 8055   4.031   2.568  16.913  0.6082  0.1846 -0.2601
  543TMC3    C3 8056   3.923   2.496  16.947 -0.1435 -0.1204  0.1383
  543TMC3    C4 8057   3.881   2.757  16.887  0.2066  0.8624 -0.3140
  543TMC3    C5 8058   3.782   2.669  16.914 -0.5289 -0.0339 -0.8155
  543TMC3    C6 8059   3.798   2.542  16.945  0.2637 -0.2856 -0.5733
  543TMC3     C 8060   4.117   2.783  16.832 -0.3965  0.2728  0.2493
  543TMC3     O 8061   4.209   2.718  16.785  0.3190 -0.0180  0.5107
  543TMC3     H 8062   4.131   2.529  16.931  1.3804  1.8076 -0.9050
  543TMC3    H1 8063   3.850   2.860  16.880 -2.5529 -0.0476 -1.6078
  543TMC3    H2 8064   3.713   2.475  16.946  1.5747 -1.9472 -0.3510
  543TMC3    C7 8065   3.642   2.705  16.890  0.8110 -0.2533  0.8206
  543TMC3    C8 8066   3.950   2.380  17.030  0.8447 -0.6570  0.0818
  543TMC3    O1 8067   3.553   2.634  16.931 -0.2644 -0.1158 -0.2197
  543TMC3    O2 8068   4.053   2.315  17.008 -0.1827  0.0459  0.1268
  544MPD2     C 8069   3.810   2.036  17.374 -0.6956 -0.0519  0.9767
  544MPD2    C1 8070   3.923   2.036  17.300  0.6325 -0.6888 -0.5536
  544MPD2    C2 8071   3.947   2.153  17.222  0.2070  0.8596 -0.4785
  544MPD2    C3 8072   3.851   2.256  17.216  0.0855 -0.1259  0.4324
  544MPD2    C4 8073   3.736   2.248  17.290  0.1871  0.5165  0.1282
  544MPD2    C5 8074   3.719   2.138  17.371  0.0879  0.1428 -0.0891
  544MPD2     H 8075   4.038   2.155  17.163  0.4739 -2.9728 -0.1699
  544MPD2    H1 8076   3.669   2.333  17.281 -0.4314  0.2253  1.9924
  544MPD2    H2 8077   3.789   1.945  17.429  2.1492 -0.5261  1.2576
  544MPD2    H3 8078   3.635   2.141  17.440  0.3296  3.2284  0.0673
  544MPD2     N 8079   3.855   2.368  17.125  0.1065  0.2508  0.1189
  544MPD2    H5 8080   3.780   2.437  17.123 -0.5045 -0.4658 -2.3803
  544MPD2    N1 8081   4.006   1.924  17.310 -0.2555 -0.4231 -0.1733
  544MPD2    H7 8082   3.988   1.859  17.385  0.6328 -0.7322 -0.2322
  545TMC3    C1 8083   4.195   1.782  17.245  0.1747 -0.1925 -0.3968
  545TMC3    C2 8084   4.235   1.707  17.139  0.8734  0.3577 -0.6618
  545TMC3    C3 8085   4.284   1.586  17.160  0.5806  0.1118 -0.9865
  545TMC3    C4 8086   4.194   1.728  17.370  0.0685 -0.5576  0.1588
  545TMC3    C5 8087   4.239   1.600  17.386 -0.0577 -0.0086 -0.3641
  545TMC3    C6 8088   4.288   1.520  17.281 -0.9302 -0.5026 -0.7212
  545TMC3     C 8089   4.109   1.896  17.215 -0.2082 -0.3098 -0.4216
  545TMC3     O 8090   4.125   1.958  17.107 -0.5343 -0.3349  0.0416
  545TMC3     H 8091   4.225   1.758  17.043 -0.3719 -0.4082 -0.9375
  545TMC3    H1 8092   4.166   1.780  17.461 -0.7877 -0.5581 -0.1133
  545TMC3    H2 8093   4.322   1.418  17.295  1.3758  0.0223 -2.5615
  545TMC3    C7 8094   4.215   1.543  17.516 -0.3317 -0.1592 -0.3358
  545TMC3    C8 8095   4.314   1.510  17.043  0.1527  0.0547  0.3408
  545TMC3    O1 8096   4.112   1.570  17.577  0.3290 -0.1544 -0.4191
  545TMC3    O2 8097   4.388   1.567  16.959 -0.2202 -0.2321  0.1422
  546MPD2     C 8098   0.868   2.849  17.599 -0.0625 -0.3031 -0.6243
  546MPD2    C1 8099   0.810   2.906  17.488  0.5776 -0.8934  0.4572
  546MPD2    C2 8100   0.854   3.032  17.435 -0.3305  0.7708 -0.3852
  546MPD2    C3 8101   0.966   3.092  17.489 -0.2544  0.7976  0.4945
  546MPD2    C4 8102   1.014   3.045  17.607 -0.2117  0.1178  0.8582
  546MPD2    C5 8103   0.966   2.928  17.659 -0.5573 -0.7903 -0.3630
  546MPD2     H 8104   0.807   3.070  17.345 -0.5040  1.1713 -0.1211
  546MPD2    H1 8105   1.096   3.091  17.659 -0.3776  1.3651  0.0104
  546MPD2    H2 8106   0.837   2.753  17.640  1.9733 -0.5564  0.3132
  546MPD2    H3 8107   1.004   2.895   0.055 -1.3905  1.8200  0.8750
  546MPD2     N 8108   1.034   3.201  17.420 -0.3028 -0.3146 -0.0043
  546MPD2    H5 8109   1.127   3.226  17.452 -1.6901 -0.3762  4.0375
  546MPD2    N1 8110   0.697   2.836  17.443 -0.2214 -0.1780  0.0459
  546MPD2    H7 8111   0.680   2.740  17.471  1.0404 -0.7324 -1.1274
  547TMC3    C1 8112   0.541   2.774  17.270 -0.1205  0.8581 -0.1160
  547TMC3    C2 8113   0.485   2.792  17.146 -0.1536  0.0850  0.4151
  547TMC3    C3 8114   0.426   2.686  17.081 -1.1475  0.2846 -0.3581
  547TMC3    C4 8115   0.527   2.648  17.333 -0.1645  0.0335  0.2972
  547TMC3    C5 8116   0.452   2.550  17.264 -0.5910 -0.2309 -0.5748
  547TMC3    C6 8117   0.402   2.569  17.141 -0.6624  0.1787 -0.3801
  547TMC3     C 8118   0.617   2.877  17.336  0.0585  0.2626  0.2591
  547TMC3     O 8119   0.614   2.984  17.278  0.5030  0.0653 -0.1133
  547TMC3     H 8120   0.510   2.886  17.098  0.3386  0.4895  1.4581
  547TMC3    H1 8121   0.558   2.631  17.435 -3.3001  1.1108  1.4101
  547TMC3    H2 8122   0.335   2.495  17.099 -2.1806  0.7156  1.0942
  547TMC3    C7 8123   0.400   2.441  17.346 -0.7618  0.7501  0.3435
  547TMC3    C8 8124   0.384   2.704  16.945 -0.2006 -0.2221  0.1752
  547TMC3    O1 8125   0.406   2.457  17.465  0.0038  0.1445 -0.2144
  547TMC3    O2 8126   0.377   2.815  16.902  0.4460  0.6588  0.1089
  548MPD2     C 8127   0.324   3.451  12.134 -0.2197  1.0297  0.2047
  548MPD2    C1 8128   0.335   3.380  12.255 -0.2581 -0.4655  0.0240
  548MPD2    C2 8129   0.454   3.307  12.268 -0.4343  0.1124  0.2660
  548MPD2    C3 8130   0.547   3.295  12.166  0.4152  0.2995 -0.2728
  548MPD2    C4 8131   0.534   3.370  12.050 -0.1352 -0.0570  0.2440
  548MPD2    C5 8132   0.425   3.453  12.037  0.4513 -0.0203  0.5306
  548MPD2     H 8133   0.473   3.250  12.358  0.5095 -0.9338 -0.5991
  548MPD2    H1 8134   0.615   3.373  11.979  2.1647  0.0350  2.8539
  548MPD2    H2 8135   0.226   3.496  12.125  0.7320  2.9812 -0.4829
  548MPD2    H3 8136   0.415   3.503  11.941 -3.3313 -0.5027  0.6668
  548MPD2     N 8137   0.661   3.219  12.186 -0.5073 -0.3095 -0.0872
  548MPD2    H5 8138   0.691   3.191  12.279  1.1742  1.2784 -0.1578
  548MPD2    N1 8139   0.233   3.389  12.352 -1.0843 -0.4253  0.5232
  548MPD2    H7 8140   0.165   3.463  12.343  0.0365  0.5450  0.1118
  549TMC3    C1 8141   0.125   3.350  12.561  0.0397  0.4533  0.1770
  549TMC3    C2 8142   0.084   3.479  12.574 -0.6538  0.1222  0.7818
  549TMC3    C3 8143   0.003   3.513  12.680 -0.1214  0.2320  0.2022
  549TMC3    C4 8144   0.097   3.252  12.653 -0.3242 -0.0635  0.3307
  549TMC3    C5 8145   0.012   3.288  12.752 -0.1340  0.0300  0.2586
  549TMC3    C6 8146   4.688   3.417  12.768  0.4068 -0.3299 -0.3965
  549TMC3     C 8147   0.231   3.311  12.467 -0.6189 -0.2926  0.8406
  549TMC3     O 8148   0.291   3.208  12.487  0.1875  0.1141  0.0944
  549TMC3     H 8149   0.113   3.564  12.513 -1.2345 -1.7016 -2.0150
  549TMC3    H1 8150   0.137   3.153  12.634  0.6149 -0.5633  4.8197
  549TMC3    H2 8151   4.606   3.441  12.836  0.9894 -1.4335  0.6883
  549TMC3    C7 8152   4.647   3.187  12.807 -0.2018 -0.4907 -0.3719
  549TMC3    C8 8153   4.647   3.628  12.661  0.1032  0.2200 -0.2188
  549TMC3    O1 8154   4.536   3.230  12.839 -0.2279  1.1265  0.3208
  549TMC3    O2 8155   4.634   3.660  12.542  0.1012 -0.1011  0.2851
  550TMC3    C1 8156   4.242   1.158  11.837 -0.3869  0.5254 -0.1627
  550TMC3    C2 8157   4.199   1.181  11.968  0.2812  0.1680  0.0326
  550TMC3    C3 8158   4.153   1.313  12.000 -0.2776  0.0025  0.5125
  550TMC3    C4 8159   4.234   1.261  11.744 -0.1383 -0.1178  0.1637
  550TMC3    C5 8160   4.170   1.378  11.773  0.4165  0.3956 -0.4232
  550TMC3    C6 8161   4.132   1.413  11.902 -0.2886  0.5355  0.3462
  550TMC3     C 8162   4.184   1.037  11.782 -0.3346  0.2315  0.3972
  550TMC3     O 8163   4.205   0.929  11.841 -0.0020  0.3111  0.3690
  550TMC3     H 8164   4.181   1.098  12.034 -0.8666  0.1167 -0.3537
  550TMC3    H1 8165   4.278   1.242  11.647  1.2303 -0.8903  0.9495
  550TMC3    H2 8166   4.096   1.509  11.940 -1.6079 -0.1692  0.8884
  550TMC3    C7 8167   4.085   1.431  11.661  0.2566  0.2350  0.1453
  550TMC3    C8 8168   4.093   1.336  12.128 -0.2226  0.4238 -0.2465
  550TMC3    O1 8169   4.054   1.342  11.581  0.2572 -0.4538 -0.0004
  550TMC3    O2 8170   4.028   1.442  12.127  0.1458 -0.1549  0.5508
  551TMC3    C1 8171   1.255   3.588  13.304 -0.3978  0.6894  0.2188
  551TMC3    C2 8172   1.362   3.511  13.270  0.0787  0.1248 -0.7193
  551TMC3    C3 8173   1.473   3.509  13.350 -0.0726 -0.2436  1.0910
  551TMC3    C4 8174   1.257   3.671  13.415 -0.5093  0.2141  0.3710
  551TMC3    C5 8175   1.370   3.661  13.492  0.0357 -0.0274  0.2496
  551TMC3    C6 8176   1.481   3.583  13.465 -0.3013  0.5172  0.3373
  551TMC3     C 8177   1.162   3.628  13.195 -0.1244  1.1548 -0.1056
  551TMC3     O 8178   1.152   3.547  13.102  0.6661  0.0893  0.6390
  551TMC3     H 8179   1.355   3.456  13.177 -1.2232  1.6518 -1.5337
  551TMC3    H1 8180   1.165   3.725  13.433 -2.6685 -3.2339 -0.1033
  551TMC3    H2 8181   1.572   3.605  13.520 -0.9565  0.0400  1.5994
  551TMC3    C7 8182   1.371   3.750  13.610 -0.0078 -0.0753  0.7631
  551TMC3    C8 8183   1.598   3.481  13.284  0.3480  0.6119 -0.7781
  551TMC3    O1 8184   1.422   3.707  13.711 -0.1482  0.0975 -0.4181
  551TMC3    O2 8185   1.606   3.378  13.213  0.3154  0.1336  0.3781
  552MPD2     C 8186   3.426   0.775  13.879 -0.1070 -0.5767 -0.3374
  552MPD2    C1 8187   3.416   0.649  13.919 -0.8030  0.1021  0.1975
  552MPD2    C2 8188   3.478   0.624  14.039  0.8242  0.6589  0.4001
  552MPD2    C3 8189   3.570   0.709  14.095  0.2052  0.3121 -0.2193
  552MPD2    C4 8190   3.586   0.837  14.044 -0.0075 -0.0710 -0.1885
  552MPD2    C5 8191   3.507   0.871  13.941 -0.6187 -0.4054 -0.0693
  552MPD2     H 8192   3.464   0.527  14.084  2.0086  0.8137  1.0927
  552MPD2    H1 8193   3.651   0.903  14.100 -1.7244  0.7820  0.8258
  552MPD2    H2 8194   3.382   0.810  13.786 -0.9482 -1.4573 -0.2721
  552MPD2    H3 8195   3.531   0.964  13.892 -2.4062 -0.6342 -1.3876
  552MPD2     N 8196   3.645   0.697  14.217 -0.5777  0.4650  0.3297
  552MPD2    H5 8197   3.709   0.775  14.229  0.8315 -0.5683 -0.4078
  552MPD2    N1 8198   3.341   0.547  13.859 -0.3506  0.4372  0.2580
  552MPD2    H7 8199   3.332   0.457  13.904  0.2115  0.1298 -0.2638
  553TMC3    C1 8200   3.241   0.417  13.689  0.1190  0.1007  0.4043
  553TMC3    C2 8201   3.273   0.409  13.556 -0.1498 -0.6708 -0.6133
  553TMC3    C3 8202   3.301   0.282  13.507  0.2082 -0.3135  0.8146
  553TMC3    C4 8203   3.241   0.305  13.772  0.2059 -0.2532  0.1089
  553TMC3    C5 8204   3.271   0.178  13.717 -1.0043  0.5289  0.3168
  553TMC3    C6 8205   3.303   0.165  13.587  0.1660  1.0861 -0.4877
  553TMC3     C 8206   3.280   0.547  13.733 -0.3458  0.0346 -0.0626
  553TMC3     O 8207   3.271   0.640  13.656  0.1248  0.7011  0.3252
  553TMC3     H 8208   3.260   0.493  13.488 -0.4386  0.3089  0.6558
  553TMC3    H1 8209   3.210   0.311  13.876 -3.6108 -2.0011 -0.9277
  553TMC3    H2 8210   3.317   0.069  13.538  1.4784  0.4177  1.1931
  553TMC3    C7 8211   3.349   0.099  13.810 -0.6593  0.7262  0.1978
  553TMC3    C8 8212   3.410   0.297  13.415  1.3675 -0.5335  0.0448
  553TMC3    O1 8213   3.280   0.016  13.867 -0.4539  0.1166 -0.2530
  553TMC3    O2 8214   3.502   0.371  13.449  0.3809  0.4344  0.2059
  554TMC3    C1 8215   0.698   0.666  11.375 -0.2579 -0.0307  0.0139
  554TMC3    C2 8216   0.678   0.577  11.272  0.1381 -0.0320  0.2150
  554TMC3    C3 8217   0.773   0.575  11.169  0.7402  0.0159 -0.6497
  554TMC3    C4 8218   0.792   0.763  11.371 -0.0379 -0.3564 -0.2387
  554TMC3    C5 8219   0.876   0.765  11.262  0.7264  0.4084 -0.3038
  554TMC3    C6 8220   0.862   0.674  11.155 -0.6545 -0.1809 -0.4207
  554TMC3     C 8221   0.660   0.612  11.509  0.2214 -0.3466 -0.0115
  554TMC3     O 8222   0.692   0.694  11.594  0.1738  0.0787 -0.2849
  554TMC3     H 8223   0.604   0.498  11.279 -0.0729  0.3965  2.8758
  554TMC3    H1 8224   0.813   0.830  11.453  1.2771 -1.2774  0.1673
  554TMC3    H2 8225   0.932   0.677  11.073 -0.3664 -2.9206 -0.2673
  554TMC3    C7 8226   0.946   0.888  11.233  0.5804 -0.1851  0.5532
  554TMC3    C8 8227   0.737   0.523  11.038  0.3753  1.0713 -0.0008
  554TMC3    O1 8228   1.038   0.885  11.155  0.2670 -0.1803 -0.7369
  554TMC3    O2 8229   0.754   0.598  10.944 -0.5407  0.1756 -0.3369
  555TMC3    C1 8230   4.183   3.969  14.901 -0.0005 -0.8656 -1.1243
  555TMC3    C2 8231   4.133   4.082  14.964 -0.6904 -0.3877 -0.1542
  555TMC3    C3 8232   4.134   4.092  15.096 -0.1768  0.6480 -0.5250
  555TMC3    C4 8233   4.228   3.864  14.979  0.7391 -0.5836  0.4700
  555TMC3    C5 8234   4.217   3.876  15.117 -0.7168 -0.5947 -0.5402
  555TMC3    C6 8235   4.178   3.986  15.174 -0.2794  0.7724 -0.2187
  555TMC3     C 8236   4.146   3.936  14.764 -0.1727  0.3724 -0.3214
  555TMC3     O 8237   4.168   3.816  14.736 -0.2119  0.4550  0.4517
  555TMC3     H 8238   4.094   4.165  14.906 -0.1785 -0.6910 -0.9337
  555TMC3    H1 8239   4.254   3.773  14.926  1.5074  0.1258 -0.3722
  555TMC3    H2 8240   4.161   3.978  15.281  0.7963  1.3085 -0.0136
  555TMC3    C7 8241   4.178   3.759  15.196  0.3378  0.3198 -0.3602
  555TMC3    C8 8242   4.151   4.227  15.141 -0.5960  0.1823 -0.2723
  555TMC3    O1 8243   4.109   3.764  15.299 -0.0881 -0.2972 -0.4340
  555TMC3    O2 8244   4.104   4.318  15.071 -0.3585  0.5154  0.1092
  556MPD2     C 8245   2.696   1.755  10.392 -0.1467 -0.5962  0.9451
  556MPD2    C1 8246   2.653   1.656  10.477 -0.6566 -0.1128  0.3849
  556MPD2    C2 8247   2.604   1.542  10.416  0.2951 -0.5268  0.2359
  556MPD2    C3 8248   2.598   1.522  10.279  0.5211  0.0307  0.4968
  556MPD2    C4 8249   2.636   1.629  10.195 -0.5282  1.0079 -0.5520
  556MPD2    C5 8250   2.686   1.740  10.251 -0.1355  0.4699  0.7468
  556MPD2     H 8251   2.566   1.464  10.481  4.6166  0.1249  3.5305
  556MPD2    H1 8252   2.622   1.633  10.088 -1.7403  0.3477 -0.4258
  556MPD2    H2 8253   2.761   1.836  10.425  0.0968 -0.5811  0.4355
  556MPD2    H3 8254   2.718   1.814  10.179  0.7731 -0.2856  0.3652
  556MPD2     N 8255   2.559   1.403  10.226  0.4453  0.2027 -0.2486
  556MPD2    H5 8256   2.537   1.335  10.298  2.0689  0.6796  0.7001
  556MPD2    N1 8257   2.666   1.666  10.616  0.2064  0.0917  0.5131
  556MPD2    H7 8258   2.656   1.581  10.669 -2.5426  1.4857  2.2050
  557TMC3    C1 8259   2.530   1.235  10.065 -0.1510 -0.8428 -0.4687
  557TMC3    C2 8260   2.570   1.177   9.943  0.3080 -0.0668 -0.6375
  557TMC3    C3 8261   2.542   1.049   9.919 -0.3894  0.8145 -0.1286
  557TMC3    C4 8262   2.478   1.154  10.162  0.0366 -0.2518 -0.1658
  557TMC3    C5 8263   2.458   1.023  10.127 -0.7664  0.0519 -0.2170
  557TMC3    C6 8264   2.485   0.966  10.007 -0.3576 -0.0213 -0.8646
  557TMC3     C 8265   2.570   1.373  10.090 -0.0284  0.0752 -0.0119
  557TMC3     O 8266   2.597   1.437   9.988 -0.3973 -0.2870  0.4960
  557TMC3     H 8267   2.623   1.244   9.876  0.7461 -1.2333 -1.4556
  557TMC3    H1 8268   2.442   1.190  10.257 -1.0246 -1.5122 -0.0896
  557TMC3    H2 8269   2.460   0.863   9.983 -2.4945  0.2021  0.3679
  557TMC3    C7 8270   2.375   0.954  10.224  0.8287 -0.3030  0.5129
  557TMC3    C8 8271   2.585   0.986   9.795 -0.7607 -0.6731 -0.3024
  557TMC3    O1 8272   2.289   1.016  10.281  0.0834  0.0960 -0.2066
  557TMC3    O2 8273   2.670   1.043   9.730 -0.9608 -0.1328  0.2383
  558TMC3    C1 8274   0.783   3.373  10.259 -0.1451 -0.6005  1.3342
  558TMC3    C2 8275   0.654   3.408  10.289  0.4661  0.1366 -0.6073
  558TMC3    C3 8276   0.564   3.444  10.183 -0.0889  0.3709 -0.3338
  558TMC3    C4 8277   0.820   3.360  10.127  0.1910  0.3262  0.0927
  558TMC3    C5 8278   0.733   3.382  10.023 -0.4844  0.2674 -0.0318
  558TMC3    C6 8279   0.604   3.428  10.052 -0.2975  0.1689  0.0768
  558TMC3     C 8280   0.883   3.344  10.362  0.0345 -0.0281  0.0271
  558TMC3     O 8281   0.998   3.353  10.328 -0.4385 -0.1418  0.2474
  558TMC3     H 8282   0.631   3.402  10.395  1.8388  2.3689 -0.1682
  558TMC3    H1 8283   0.919   3.324  10.101  1.6132  1.9754  3.2095
  558TMC3    H2 8284   0.532   3.458   9.977 -1.7852 -2.8767  0.2519
  558TMC3    C7 8285   0.809   3.442   9.912 -0.0659 -0.4604  0.4116
  558TMC3    C8 8286   0.426   3.462  10.216  0.4126  0.5901 -0.2662
  558TMC3    O1 8287   0.926   3.412   9.889  0.2943 -0.2574  0.0689
  558TMC3    O2 8288   0.344   3.439  10.128  0.3451 -0.3270  0.0198
  559MPD2     C 8289   0.530   4.708  10.428  0.6920 -0.4227 -0.2565
  559MPD2    C1 8290   0.487   4.584  10.476  0.1347  0.0113 -0.0557
  559MPD2    C2 8291   0.563   4.506  10.566 -0.9162  0.1111  0.5236
  559MPD2    C3 8292   0.690   4.554  10.606 -0.4265  0.1076 -0.1262
  559MPD2    C4 8293   0.740   4.674  10.557 -0.3541  0.1079  0.2164
  559MPD2    C5 8294   0.651   0.025  10.473  0.0722  0.2607 -0.4141
  559MPD2     H 8295   0.545   4.404  10.601  1.6259 -1.1412 -1.8245
  559MPD2    H1 8296   0.840   4.713  10.570  0.1072 -2.0707  3.0832
  559MPD2    H2 8297   0.473   0.039  10.355 -0.9277 -0.3292  1.0724
  559MPD2    H3 8298   0.692   0.116  10.432 -1.5173  1.1661  0.0068
  559MPD2     N 8299   0.761   4.472  10.695 -0.3464 -0.4269  0.1342
  559MPD2    H5 8300   0.724   4.381  10.721  0.7369 -0.8340  0.2118
  559MPD2    N1 8301   0.355   4.558  10.449  0.2102 -0.3629  0.3903
  559MPD2    H7 8302   0.297   4.632  10.410  1.0336  0.5744  0.9434
  560TMC3    C1 8303   0.924   4.424  10.869  0.0228 -1.0727  0.5882
  560TMC3    C2 8304   0.857   4.313  10.892 -0.6085 -0.0399  0.1628
  560TMC3    C3 8305   0.857   4.279  11.025  0.3227  0.1960  0.3983
  560TMC3    C4 8306   1.013   4.483  10.949 -0.0314  0.5538  0.2489
  560TMC3    C5 8307   1.011   4.449  11.079  0.0197  0.7117  0.1325
  560TMC3    C6 8308   0.927   4.346  11.117 -0.0400  0.6234  0.1920
  560TMC3     C 8309   0.886   4.509  10.751 -0.6730 -0.2346  0.9789
  560TMC3     O 8310   0.950   4.611  10.740 -0.2351  0.1403 -0.7417
  560TMC3     H 8311   0.804   4.256  10.816 -0.6900  0.4679 -0.1658
  560TMC3    H1 8312   1.075   4.561  10.906  1.9781 -1.5191 -0.5688
  560TMC3    H2 8313   0.923   4.318  11.222 -0.0664  1.4063  0.3956
  560TMC3    C7 8314   1.054   4.540  11.187  0.1573 -1.1075  0.2791
  560TMC3    C8 8315   0.774   4.171  11.070 -0.0960 -0.2015  0.2295
  560TMC3    O1 8316   0.997   4.535  11.296  0.3697 -0.0798 -0.6054
  560TMC3    O2 8317   0.686   4.134  10.993 -0.0315 -0.1836 -0.3472
  561TMC3    C1 8318   2.830   3.737  11.013  0.1536  0.2630 -0.2859
  561TMC3    C2 8319   2.812   3.646  11.114  0.0920  0.1731 -0.3433
  561TMC3    C3 8320   2.820   3.689  11.241 -0.1499 -0.2726 -0.0643
  561TMC3    C4 8321   2.875   3.862  11.032 -0.0954  0.2226 -0.3443
  561TMC3    C5 8322   2.885   3.907  11.165  0.3371 -0.5990 -0.9266
  561TMC3    C6 8323   2.853   3.817  11.272 -0.5068 -0.0741 -0.1100
  561TMC3     C 8324   2.790   3.686  10.884 -0.2923  0.6457  0.6717
  561TMC3     O 8325   2.696   3.611  10.887  0.1825  0.1958 -0.2770
  561TMC3     H 8326   2.754   3.555  11.103 -1.2246  1.3978 -3.9094
  561TMC3    H1 8327   2.902   3.924  10.948  1.7559  2.0023  1.5759
  561TMC3    H2 8328   2.861   3.847  11.376  0.4485 -1.8925  0.3336
  561TMC3    C7 8329   2.972   4.011  11.204  0.2164  0.3284  0.4276
  561TMC3    C8 8330   2.806   3.585  11.346  0.4161 -0.4652  0.2638
  561TMC3    O1 8331   2.950   4.043  11.319 -0.1504  0.2150 -0.1598
  561TMC3    O2 8332   2.845   3.470  11.317 -0.0739  0.2427 -0.4423
  562TMC3    C1 8333   3.805   4.481  16.371  0.1393  0.0503  0.5654
  562TMC3    C2 8334   3.738   4.596  16.330 -0.3261 -0.4196  0.0759
  562TMC3    C3 8335   3.752   4.632  16.202  0.9699 -0.0163 -0.5307
  562TMC3    C4 8336   3.885   4.416  16.284  0.1390  0.3605 -0.4805
  562TMC3    C5 8337   3.907   4.464  16.156 -0.5752  0.5061 -0.5804
  562TMC3    C6 8338   3.841   4.573  16.113  0.2540 -0.1259  0.4321
  562TMC3     C 8339   3.780   4.419  16.495  0.6349 -0.4472 -0.1310
  562TMC3     O 8340   3.844   4.318  16.521  0.0727  0.2975 -0.2392
  562TMC3     H 8341   3.676   4.657  16.396 -0.2353 -0.6493  0.3729
  562TMC3    H1 8342   3.917   4.319  16.320  0.5687  0.4052 -0.7455
  562TMC3    H2 8343   3.853   4.619  16.016  0.9604  1.3870  1.2290
  562TMC3    C7 8344   3.959   4.379  16.049 -0.0958 -1.1830  0.0194
  562TMC3    C8 8345   3.694   0.036  16.154  0.3896  0.0947 -0.0532
  562TMC3    O1 8346   3.930   4.405  15.937 -0.2829  0.2245  0.0809
  562TMC3    O2 8347   3.686   0.128  16.241  0.2433  0.0909 -0.0946
  563MPD2     C 8348   1.266   1.375  15.473  0.0425  0.4442  0.5697
  563MPD2    C1 8349   1.342   1.353  15.589 -0.9211  0.1744  0.4487
  563MPD2    C2 8350   1.457   1.277  15.578  0.3355 -0.5660 -0.4930
  563MPD2    C3 8351   1.515   1.240  15.459  0.6076 -0.3958 -0.6514
  563MPD2    C4 8352   1.444   1.275  15.346 -0.1478 -0.0504  0.3849
  563MPD2    C5 8353   1.316   1.329  15.352 -0.2783 -0.2521 -0.1285
  563MPD2     H 8354   1.519   1.264  15.666  0.5402  0.5175 -0.4797
  563MPD2    H1 8355   1.467   1.224  15.254  0.4917  1.4002 -0.2518
  563MPD2    H2 8356   1.169   1.424  15.473 -0.5874 -0.7865  1.7258
  563MPD2    H3 8357   1.256   1.330  15.262  0.9618  2.6927 -0.9372
  563MPD2     N 8358   1.625   1.159  15.462 -0.5436 -0.3534 -0.4540
  563MPD2    H5 8359   1.648   1.134  15.558 -0.5081 -0.1880 -0.4201
  563MPD2    N1 8360   1.289   1.413  15.709 -0.6621  0.2185  0.3108
  563MPD2    H7 8361   1.203   1.466  15.702 -0.9315 -0.2451  0.1704
  564TMC3    C1 8362   1.282   1.471  15.947 -0.4628  0.5942  0.1174
  564TMC3    C2 8363   1.150   1.442  15.953  0.0648  0.7164 -0.6300
  564TMC3    C3 8364   1.095   1.432  16.075 -0.4718  0.2353 -0.4935
  564TMC3    C4 8365   1.356   1.478  16.061  0.1915  0.0729 -0.4810
  564TMC3    C5 8366   1.299   1.450  16.180 -0.3317 -0.3857 -0.0069
  564TMC3    C6 8367   1.166   1.435  16.192 -0.5133 -0.5664  0.4792
  564TMC3     C 8368   1.355   1.416  15.830  0.2302  0.3408  0.1837
  564TMC3     O 8369   1.463   1.369  15.860  0.1575 -0.6977 -0.0409
  564TMC3     H 8370   1.093   1.430  15.861 -0.9397  2.5762 -0.2591
  564TMC3    H1 8371   1.464   1.482  16.062  0.2389 -1.2354 -2.0017
  564TMC3    H2 8372   1.121   1.435  16.290  1.0203 -1.3210  1.1770
  564TMC3    C7 8373   1.370   1.335  16.245 -0.1094 -0.3114 -0.0472
  564TMC3    C8 8374   0.988   1.332  16.092  0.0049 -0.1761 -0.3499
  564TMC3    O1 8375   1.492   1.328  16.231  0.3378  0.4648  0.1043
  564TMC3    O2 8376   0.963   1.293  16.208 -0.1354 -0.0995  0.8396
  565TMC3    C1 8377   2.168   2.511  10.149  0.5271 -0.3738  0.3153
  565TMC3    C2 8378   2.223   2.459  10.267 -0.3834  0.1682 -0.1779
  565TMC3    C3 8379   2.190   2.331  10.304 -0.3584 -0.3304  0.6872
  565TMC3    C4 8380   2.088   2.435  10.069 -0.1832  0.4332 -0.8293
  565TMC3    C5 8381   2.048   2.310  10.112 -0.7047  0.1577  0.1868
  565TMC3    C6 8382   2.095   2.255  10.235 -0.2716 -0.4182 -0.8092
  565TMC3     C 8383   2.229   2.617  10.075  0.1304  0.4664  0.0104
  565TMC3     O 8384   2.192   2.648   9.962 -0.0233  0.2710 -0.1980
  565TMC3     H 8385   2.281   2.515  10.340 -0.2171 -0.3052  0.0563
  565TMC3    H1 8386   2.036   2.498   9.997 -0.8307 -0.0648 -0.7955
  565TMC3    H2 8387   2.089   2.149  10.258 -2.1682  0.1021  1.1101
  565TMC3    C7 8388   1.953   2.233  10.034  0.1561 -1.0007 -0.0283
  565TMC3    C8 8389   2.226   2.286  10.440  0.1296  0.8995  0.5499
  565TMC3    O1 8390   1.905   2.140  10.097 -0.8486 -0.5096 -0.3301
  565TMC3    O2 8391   2.246   2.369  10.530 -0.5061 -0.0295  0.3637
  566MPD2     C 8392   3.116   3.475  14.174  0.0481 -0.3624  0.3038
  566MPD2    C1 8393   3.211   3.418  14.094 -0.8468  0.4562  0.4771
  566MPD2    C2 8394   3.207   3.441  13.959 -0.3238 -0.2427  1.1796
  566MPD2    C3 8395   3.101   3.510  13.903  0.1515 -0.5631 -0.1555
  566MPD2    C4 8396   3.001   3.566  13.982  0.3163 -0.1067  0.0149
  566MPD2    C5 8397   3.019   3.556  14.117  0.5493  0.5367 -0.2366
  566MPD2     H 8398   3.283   3.405  13.891  0.3250  2.6100  0.3901
  566MPD2    H1 8399   2.927   3.632  13.937  2.1338  1.4277 -0.7208
  566MPD2    H2 8400   3.115   3.471  14.283  1.8523 -0.4850  0.3237
  566MPD2    H3 8401   2.944   3.602  14.180  0.3851  1.3390 -1.0157
  566MPD2     N 8402   3.104   3.522  13.765  0.4409 -0.1150 -0.6156
  566MPD2    H5 8403   3.181   3.476  13.719  0.0301 -1.8754  0.4602
  566MPD2    N1 8404   3.323   3.347  14.148 -0.6511  0.3417 -0.3863
  566MPD2    H7 8405   3.318   3.332  14.249  1.2174  1.7514 -0.0874
  567TMC3    C1 8406   3.563   3.331  14.179 -0.3441  0.3946 -0.0706
  567TMC3    C2 8407   3.671   3.393  14.124 -0.1763  0.4323  0.0271
  567TMC3    C3 8408   3.774   3.431  14.204  0.0932 -0.2890  0.3474
  567TMC3    C4 8409   3.547   3.309  14.314  0.7415  0.1274 -0.1448
  567TMC3    C5 8410   3.656   3.347  14.392 -0.3288  1.0513 -0.3835
  567TMC3    C6 8411   3.771   3.408  14.336 -0.0710 -0.6986 -0.0816
  567TMC3     C 8412   3.447   3.325  14.087  0.0728 -0.6185 -0.3340
  567TMC3     O 8413   3.483   3.330  13.967  0.2780 -0.2200  0.1741
  567TMC3     H 8414   3.685   3.426  14.022 -2.4770  1.5500  0.0784
  567TMC3    H1 8415   3.479   3.235  14.353 -1.3755  1.5662 -1.1369
  567TMC3    H2 8416   3.839   3.458  14.405  0.4406 -1.9621  0.3280
  567TMC3    C7 8417   3.615   3.390  14.525 -0.1195  0.3438 -0.1503
  567TMC3    C8 8418   3.865   3.532  14.145  0.2098 -0.4850  0.2445
  567TMC3    O1 8419   3.550   3.312  14.592  0.2814 -0.4289 -0.2030
  567TMC3    O2 8420   3.837   3.591  14.041 -0.0251  0.1834 -0.2678
  568MPD2     C 8421   1.484   0.160  16.329 -0.3452 -0.4535 -0.4680
  568MPD2    C1 8422   1.398   0.146  16.436 -0.3038  0.6653  0.3702
  568MPD2    C2 8423   1.319   0.254  16.468 -0.2697  1.2687  0.0004
  568MPD2    C3 8424   1.295   0.354  16.373 -0.5188  0.1864 -0.0581
  568MPD2    C4 8425   1.399   0.376  16.276 -0.1143 -0.3098  0.1857
  568MPD2    C5 8426   1.483   0.272  16.255 -0.3456  0.7727  0.0514
  568MPD2     H 8427   1.246   0.256  16.548 -1.1559 -2.2214 -0.6848
  568MPD2    H1 8428   1.406   0.459  16.206  1.9884 -1.3270 -0.8052
  568MPD2    H2 8429   1.545   0.076  16.299  1.9482  1.0228  0.0963
  568MPD2    H3 8430   1.549   0.278  16.170 -1.1295  2.9072 -0.4129
  568MPD2     N 8431   1.189   0.443  16.383 -0.3986  0.4089 -1.2099
  568MPD2    H5 8432   1.124   0.433  16.460  1.3756  1.8503  0.4668
  568MPD2    N1 8433   1.409   0.041  16.537  0.5914  0.3854  0.0781
  568MPD2    H7 8434   1.365   0.055  16.628 -1.6993  0.1263 -0.9992
  569TMC3    C1 8435   1.025   0.594  16.321  0.0660 -0.2219  0.1448
  569TMC3    C2 8436   1.012   0.679  16.430  0.3900  0.0349  0.2903
  569TMC3    C3 8437   0.889   0.747  16.448  0.2845 -0.3746  0.0466
  569TMC3    C4 8438   0.919   0.567  16.232  0.6194 -0.2341 -0.0176
  569TMC3    C5 8439   0.808   0.640  16.250 -0.2347 -0.9342  0.2462
  569TMC3    C6 8440   0.794   0.726  16.351  0.0258 -0.3884 -0.5944
  569TMC3     C 8441   1.154   0.539  16.287  0.6455  0.9026  0.1308
  569TMC3     O 8442   1.182   0.555  16.170 -0.2418 -0.1893  0.4008
  569TMC3     H 8443   1.105   0.692  16.484  0.9320 -0.7100 -0.4647
  569TMC3    H1 8444   0.934   0.496  16.151  1.3495  1.0292 -0.9945
  569TMC3    H2 8445   0.693   0.763  16.365  1.0927  0.8548  3.6162
  569TMC3    C7 8446   0.787   0.707  16.124 -0.1641  0.2270  0.7512
  569TMC3    C8 8447   0.900   0.889  16.459  0.1575  0.2657 -0.4376
  569TMC3    O1 8448   0.772   0.644  16.021  0.6245  0.1523 -0.8198
  569TMC3    O2 8449   0.822   0.953  16.386 -0.2005 -0.0367  0.2862
  570TMC3    C1 8450   0.679   3.592  16.046  0.3568 -0.2180  0.1159
  570TMC3    C2 8451   0.809   3.642  16.026 -0.2043 -0.0546  0.5089
  570TMC3    C3 8452   0.830   3.719  15.917 -0.2167  0.2502  0.2888
  570TMC3    C4 8453   0.576   3.627  15.970  0.3586  0.2174 -0.0730
  570TMC3    C5 8454   0.599   3.708  15.863 -0.7187 -0.4433 -0.8141
  570TMC3    C6 8455   0.723   3.752  15.832 -0.0442 -0.6229  0.3904
  570TMC3     C 8456   0.664   3.513  16.167  0.5335 -0.1325  0.1266
  570TMC3     O 8457   0.743   3.419  16.189 -0.0279 -0.0454  0.2655
  570TMC3     H 8458   0.880   3.634  16.107  1.5005  2.0510 -0.7949
  570TMC3    H1 8459   0.476   3.596  15.998  0.6215 -1.3587 -0.8278
  570TMC3    H2 8460   0.739   3.836  15.765  0.5734 -1.2938 -0.3069
  570TMC3    C7 8461   0.501   3.697  15.756  0.4359 -0.2079 -0.1829
  570TMC3    C8 8462   0.948   3.801  15.896  0.4089 -0.7203  0.2253
  570TMC3    O1 8463   0.466   3.581  15.732 -0.0806 -0.1173  0.2566
  570TMC3    O2 8464   0.939   3.893  15.819  0.6757  1.0081  1.4040
  571MPD2     C 8465   3.050   0.179  17.434 -0.4948  0.4015 -0.1137
  571MPD2    C1 8466   3.074   0.163  17.572  0.1079 -0.4389 -0.1633
  571MPD2    C2 8467   3.202   0.186  17.616  0.3881  0.2416  0.2367
  571MPD2    C3 8468   3.302   0.247  17.537  0.0547  0.0836  0.7016
  571MPD2    C4 8469   3.278   0.267  17.407 -0.0771 -1.1002  0.3077
  571MPD2    C5 8470   3.158   0.223  17.354  0.4320  0.1455 -0.0748
  571MPD2     H 8471   3.216   0.163   0.022 -0.6169  0.3758  0.3963
  571MPD2    H1 8472   3.356   0.303  17.341  0.6137 -0.0595  1.6928
  571MPD2    H2 8473   2.956   0.144  17.393  0.0593 -0.3870 -0.7034
  571MPD2    H3 8474   3.132   0.238  17.250  2.8779  0.8848 -0.5679
  571MPD2     N 8475   3.420   0.311  17.589  0.3958  0.2022 -0.0344
  571MPD2    H5 8476   3.466   0.379  17.530 -1.4048  1.3316 -0.1173
  571MPD2    N1 8477   2.969   0.109  17.651  0.0405 -0.4988  0.0849
  571MPD2    H7 8478   2.882   0.110  17.598  0.3060  0.6772 -0.3347
  572TMC3    C1 8479   3.569   0.369   0.066 -0.4620 -0.2712 -0.3474
  572TMC3    C2 8480   3.612   0.336   0.196 -0.2104  0.1932 -0.1159
  572TMC3    C3 8481   3.638   0.441   0.281 -0.1090  0.4204 -0.0391
  572TMC3    C4 8482   3.571   0.496   0.017 -0.2656  0.8398  0.7282
  572TMC3    C5 8483   3.633   0.594   0.100 -0.1215 -0.3889  0.1810
  572TMC3    C6 8484   3.667   0.573   0.232  0.0837  0.1228 -0.6272
  572TMC3     C 8485   3.466   0.286   0.021  0.4532 -0.8741 -0.4073
  572TMC3     O 8486   3.443   0.198   0.099 -0.0998  0.2662 -0.3124
  572TMC3     H 8487   3.597   0.239   0.242 -0.1926  0.3746  0.2730
  572TMC3    H1 8488   3.530   0.525  17.620 -2.4624 -0.8007  1.1579
  572TMC3    H2 8489   3.705   0.648   0.301 -0.3919 -0.0019 -0.2312
  572TMC3    C7 8490   3.607   0.728   0.056 -0.0702  0.5390  0.2308
  572TMC3    C8 8491   3.611   0.428   0.424 -0.3588  0.4636 -0.5323
  572TMC3    O1 8492   3.522   0.749  17.673  0.2367  0.2293 -0.6141
  572TMC3    O2 8493   3.634   0.315   0.459  0.2583  0.4499  1.2257
  573MPD2     C 8494   0.215   0.860   1.016 -0.4800  0.0884 -0.5802
  573MPD2    C1 8495   0.249   0.990   1.003 -0.1729 -1.1851  0.6773
  573MPD2    C2 8496   0.243   1.047   0.874 -0.5550 -0.3451 -0.2405
  573MPD2    C3 8497   0.217   0.974   0.763  0.1797  0.0863  0.7043
  573MPD2    C4 8498   0.198   0.838   0.781  0.1258 -0.2510 -0.3163
  573MPD2    C5 8499   0.198   0.788   0.905 -0.1141 -0.1167  0.2830
  573MPD2     H 8500   0.257   1.154   0.865 -0.0528 -0.2968  1.1063
  573MPD2    H1 8501   0.184   0.768   0.700  0.0052  0.5230 -0.9620
  573MPD2    H2 8502   0.223   0.807   1.110 -1.3635  2.3642  0.7992
  573MPD2    H3 8503   0.189   0.680   0.916  0.5086 -0.1309  0.6988
  573MPD2     N 8504   0.216   1.025   0.636 -0.2965 -0.3092  0.8283
  573MPD2    H5 8505   0.182   0.961   0.565  0.5790  1.2138 -0.9850
  573MPD2    N1 8506   0.264   1.064   1.125  0.2089  0.0419  0.3504
  573MPD2    H7 8507   0.242   1.023   1.215 -0.9802 -1.7017 -0.7297
  574TMC3    C1 8508   0.238   1.167   0.454 -0.2203 -0.1493 -0.7320
  574TMC3    C2 8509   0.120   1.125   0.398 -0.1364 -0.3834 -0.8113
  574TMC3    C3 8510   0.079   1.194   0.285  0.8304  0.0925 -0.1947
  574TMC3    C4 8511   0.305   1.274   0.404 -0.2009  1.2982  0.0632
  574TMC3    C5 8512   0.265   1.324   0.277 -0.1813 -0.0546 -0.1735
  574TMC3    C6 8513   0.149   1.288   0.213  0.6632  0.3567  0.2466
  574TMC3     C 8514   0.258   1.148   0.593 -0.0944 -0.0908  0.4484
  574TMC3     O 8515   0.308   1.241   0.657 -0.2317 -0.3698 -0.7607
  574TMC3     H 8516   0.062   1.054   0.456 -0.6692  0.2054 -0.6322
  574TMC3    H1 8517   0.393   1.309   0.457 -0.7427  0.3431  1.5973
  574TMC3    H2 8518   0.130   1.313   0.109  2.5297  0.1514 -0.1451
  574TMC3    C7 8519   0.372   1.385   0.198  0.3975 -0.5717 -0.6981
  574TMC3    C8 8520   4.663   1.197   0.270 -0.1090  0.7546 -0.2850
  574TMC3    O1 8521   0.485   1.377   0.245  0.0180 -0.0588  0.5680
  574TMC3    O2 8522   4.595   1.144   0.352 -0.0328 -0.0819  0.1418
  575TMC3    C1 8523   2.322   2.426  11.298  0.9239 -0.0669 -0.0055
  575TMC3    C2 8524   2.280   2.328  11.380 -0.4809 -0.5678  0.2012
  575TMC3    C3 8525   2.238   2.201  11.338  0.0850 -0.3049 -0.2006
  575TMC3    C4 8526   2.331   2.396  11.165 -0.0499 -0.4639 -0.2623
  575TMC3    C5 8527   2.293   2.269  11.121  0.1521 -0.0960 -0.5808
  575TMC3    C6 8528   2.236   2.180  11.201  0.4302  0.2050 -0.6430
  575TMC3     C 8529   2.421   2.525  11.350 -1.0459  0.1338  0.5480
  575TMC3     O 8530   2.424   2.547  11.472  0.5412  0.4864 -0.0768
  575TMC3     H 8531   2.291   2.355  11.485  3.4186 -2.1836  0.2243
  575TMC3    H1 8532   2.375   2.466  11.096 -0.3200  1.5006  1.5644
  575TMC3    H2 8533   2.191   2.093  11.155 -2.4692  1.7995 -0.8083
  575TMC3    C7 8534   2.289   2.242  10.979 -0.6810  0.9427 -0.0822
  575TMC3    C8 8535   2.212   2.091  11.424 -0.0417  0.0437  0.5757
  575TMC3    O1 8536   2.288   2.342  10.909 -0.2286 -0.1285  0.2186
  575TMC3    O2 8537   2.205   1.980  11.376  0.2923  0.4647 -0.0605
  576MPD2     C 8538   1.948   3.465  12.550  0.0398  0.3925  0.1903
  576MPD2    C1 8539   1.917   3.572  12.472 -0.3354 -0.1577 -0.6272
  576MPD2    C2 8540   1.809   3.655  12.501  0.1436 -0.8493 -0.3312
  576MPD2    C3 8541   1.748   3.641  12.625  0.4123  0.4088 -0.1096
  576MPD2    C4 8542   1.792   3.542  12.710 -0.0415  0.4672  0.2069
  576MPD2    C5 8543   1.883   3.448  12.670  0.4786 -0.3376 -0.6386
  576MPD2     H 8544   1.767   3.723  12.429 -0.2043 -0.1588  0.5221
  576MPD2    H1 8545   1.751   3.531  12.809  0.4797  0.5837  0.4354
  576MPD2    H2 8546   2.027   3.393  12.529 -0.8839 -0.8400  0.9648
  576MPD2    H3 8547   1.903   3.362  12.733 -2.5772  1.3477  2.6317
  576MPD2     N 8548   1.644   3.725  12.661 -0.2916 -0.6102 -0.2034
  576MPD2    H5 8549   1.644   3.809  12.604 -1.1465 -0.3490  0.1799
  576MPD2    N1 8550   1.983   3.596  12.350 -0.1748  0.4406 -0.0208
  576MPD2    H7 8551   1.946   3.670  12.290  2.0943  2.3060  0.9010
  577TMC3    C1 8552   2.136   3.592  12.183 -1.1917  0.9060 -0.1909
  577TMC3    C2 8553   2.248   3.538  12.121  0.3178  0.2406  0.3915
  577TMC3    C3 8554   2.297   3.606  12.010  0.1537 -0.1465 -0.3551
  577TMC3    C4 8555   2.089   3.719  12.152  0.4357  0.2427  0.5260
  577TMC3    C5 8556   2.142   3.784  12.039 -0.5695  0.3139  0.2848
  577TMC3    C6 8557   2.245   3.729  11.970  0.2374  0.0290  0.0389
  577TMC3     C 8558   2.100   3.534  12.305 -0.0647  0.5695 -0.4353
  577TMC3     O 8559   2.177   3.459  12.363 -0.2487  0.0107 -0.0170
  577TMC3     H 8560   2.277   3.437  12.149  2.3063  0.5475 -0.5955
  577TMC3    H1 8561   2.008   3.768  12.206 -0.6280 -1.4904  0.5368
  577TMC3    H2 8562   2.291   3.776  11.884 -0.1919 -1.1108 -0.8155
  577TMC3    C7 8563   2.162   3.925  12.074 -0.8096  0.5930  0.1626
  577TMC3    C8 8564   2.411   3.532  11.945 -0.2920  0.1437 -0.3063
  577TMC3    O1 8565   2.159   3.945  12.193  0.2104 -0.3803  0.2296
  577TMC3    O2 8566   2.431   3.421  11.991 -0.2784 -0.3871  0.0554
  578MPD2     C 8567   4.394   3.574   0.222  0.2399 -0.1648  0.4134
  578MPD2    C1 8568   4.512   3.564   0.299  0.6189 -0.2127  1.0543
  578MPD2    C2 8569   4.507   3.539   0.432 -0.0275  0.0737 -0.1969
  578MPD2    C3 8570   4.391   3.544   0.501 -0.0587 -1.1529 -0.2294
  578MPD2    C4 8571   4.276   3.576   0.432 -0.1540  0.4421  0.1481
  578MPD2    C5 8572   4.275   3.580   0.290  0.4772 -0.4013 -0.1495
  578MPD2     H 8573   4.603   3.526   0.479 -0.3589 -0.0165  0.4533
  578MPD2    H1 8574   4.182   3.599   0.480 -1.1317 -2.3872 -0.3953
  578MPD2    H2 8575   4.404   3.588   0.115 -1.1205  0.3699  0.3580
  578MPD2    H3 8576   4.182   3.600   0.236 -0.1346  0.7899  1.3586
  578MPD2     N 8577   4.398   3.518   0.639  0.2932 -0.5917  0.0256
  578MPD2    H5 8578   4.483   3.489   0.687  0.2101  1.2614  1.3138
  578MPD2    N1 8579   4.641   3.583   0.233 -0.1119  0.1008 -0.4138
  578MPD2    H7 8580   4.633   3.611   0.136 -0.9762  0.3457 -0.2785
  579TMC3    C1 8581   4.332   3.488   0.862  0.4514  0.4908  0.3263
  579TMC3    C2 8582   4.433   3.565   0.913  0.6338 -0.5996 -0.3562
  579TMC3    C3 8583   4.519   3.510   1.002 -0.7243 -0.2143 -0.0879
  579TMC3    C4 8584   4.316   3.359   0.907 -0.3037 -0.4402  0.6405
  579TMC3    C5 8585   4.412   3.304   0.989  0.1804 -0.8840 -0.0632
  579TMC3    C6 8586   4.516   3.378   1.040 -0.0322 -0.1616 -0.3098
  579TMC3     C 8587   4.287   3.520   0.717 -0.6758 -0.0108 -0.6573
  579TMC3     O 8588   4.175   3.486   0.682  0.2877  0.5750  0.6142
  579TMC3     H 8589   4.436   3.669   0.880 -1.2541 -0.6001 -0.5264
  579TMC3    H1 8590   4.233   3.304   0.865 -0.1856  0.8230 -1.2295
  579TMC3    H2 8591   4.583   3.347   1.119 -1.0308 -0.9567  0.2288
  579TMC3    C7 8592   4.400   3.163   1.005  0.1511 -0.2894 -0.0707
  579TMC3    C8 8593   4.630   3.589   1.045 -0.2480  0.0402 -0.1551
  579TMC3    O1 8594   4.284   3.121   0.989 -0.2743  0.2400 -0.3352
  579TMC3    O2 8595   0.017   3.546   1.016 -0.5326  0.3441  0.4438
  580TMC3    C1 8596   4.265   2.664  11.682  0.2605 -0.1003 -0.1164
  580TMC3    C2 8597   4.326   2.600  11.575 -0.7878  0.1372 -0.3331
  580TMC3    C3 8598   4.325   2.463  11.581  0.1214  0.4238 -0.6189
  580TMC3    C4 8599   4.201   2.601  11.787  0.2325  0.0772 -0.0627
  580TMC3    C5 8600   4.207   2.464  11.790 -1.3888 -0.2084  0.0037
  580TMC3    C6 8601   4.276   2.396  11.693 -0.4399 -0.2935 -0.5899
  580TMC3     C 8602   4.331   2.788  11.725  0.5302 -0.0408  0.1430
  580TMC3     O 8603   4.383   2.862  11.638  0.0872  0.3784 -0.0814
  580TMC3     H 8604   4.374   2.650  11.492 -2.7238 -1.3664 -2.3381
  580TMC3    H1 8605   4.140   2.659  11.855 -0.0421 -0.8851  0.5021
  580TMC3    H2 8606   4.287   2.288  11.688 -1.6395 -0.4717  0.6671
  580TMC3    C7 8607   4.228   2.414  11.922  0.2484 -0.1449  0.5115
  580TMC3    C8 8608   4.416   2.395  11.502 -0.1047  0.5508  0.3734
  580TMC3    O1 8609   4.268   2.496  12.003 -0.1538  0.4249  0.6709
  580TMC3    O2 8610   4.400   2.277  11.480  0.1271 -0.5674  0.3261
  581MPD2     C 8611   2.295   2.412  14.839  0.1884  0.0786  0.1080
  581MPD2    C1 8612   2.186   2.337  14.868 -0.1368 -0.1024  0.1181
  581MPD2    C2 8613   2.060   2.393  14.859  0.1313  0.1801  0.1280
  581MPD2    C3 8614   2.054   2.532  14.831  0.0570  0.0057 -0.6842
  581MPD2    C4 8615   2.171   2.600  14.807  0.2526  0.8854 -0.1267
  581MPD2    C5 8616   2.292   2.543  14.812  0.1125  0.3259  0.4012
  581MPD2     H 8617   1.972   2.337  14.888 -2.1855  3.5664 -0.2675
  581MPD2    H1 8618   2.171   2.706  14.786 -1.4874  0.7510 -0.8512
  581MPD2    H2 8619   2.385   2.351  14.828 -0.6179 -0.7332 -2.0524
  581MPD2    H3 8620   2.388   2.590  14.797  0.3251  0.4140  2.0154
  581MPD2     N 8621   1.939   2.618  14.836 -0.0200  0.2948 -0.0973
  581MPD2    H5 8622   1.953   2.712  14.803 -0.5978  0.8012  1.0866
  581MPD2    N1 8623   2.211   2.210  14.923  0.5319  0.1663  0.6576
  581MPD2    H7 8624   2.309   2.182  14.928  0.5861  0.1546 -0.4706
  582TMC3    C1 8625   2.190   1.994  15.014 -0.7619  0.0261 -0.3436
  582TMC3    C2 8626   2.292   2.015  15.101  0.8003  1.0358 -0.8288
  582TMC3    C3 8627   2.319   1.909  15.190 -0.2268 -0.0890 -0.5594
  582TMC3    C4 8628   2.130   1.874  14.990 -0.0912  0.1514 -0.0491
  582TMC3    C5 8629   2.146   1.778  15.090  0.0058  0.1595  0.4368
  582TMC3    C6 8630   2.239   1.799  15.186 -0.0593  0.4646 -0.2257
  582TMC3     C 8631   2.126   2.109  14.956 -0.3716  0.4726  0.4120
  582TMC3     O 8632   2.004   2.115  14.932  0.0257 -0.3313  0.3448
  582TMC3     H 8633   2.326   2.116  15.121  0.0330  1.2750 -0.7342
  582TMC3    H1 8634   2.044   1.865  14.924 -0.5707 -1.9830  0.8447
  582TMC3    H2 8635   2.240   1.721  15.260  1.4746 -0.8257 -1.6064
  582TMC3    C7 8636   2.021   1.732  15.136 -0.8188 -0.2682  0.0393
  582TMC3    C8 8637   2.367   1.944  15.315  0.6941  0.3821 -0.2631
  582TMC3    O1 8638   1.935   1.700  15.053 -0.4439 -0.6993 -0.1507
  582TMC3    O2 8639   2.284   1.957  15.407  0.2118 -0.3521 -0.0069
  583MPD2     C 8640   1.939   4.340  16.358 -0.1151  0.2890  0.8525
  583MPD2    C1 8641   2.032   4.317  16.454 -0.3257 -0.0867  0.0924
  583MPD2    C2 8642   2.021   4.385  16.572 -0.6085  0.0784  0.1296
  583MPD2    C3 8643   1.925   4.487  16.592 -1.0334 -0.1215  0.0772
  583MPD2    C4 8644   1.839   4.524  16.491  0.1916 -0.0107 -0.0470
  583MPD2    C5 8645   1.844   4.441  16.376  0.5190  0.0360 -0.1239
  583MPD2     H 8646   2.085   4.363  16.657 -1.2732 -1.2536  0.2820
  583MPD2    H1 8647   1.768   4.606  16.498  0.1161 -0.0773 -0.0246
  583MPD2    H2 8648   1.942   4.286  16.264  0.4618 -0.9426  1.5719
  583MPD2    H3 8649   1.782   4.470  16.291  0.7751  2.4189  0.5119
  583MPD2     N 8650   1.935   4.558  16.712 -0.1811 -0.6126  0.3291
  583MPD2    H5 8651   1.999   4.513  16.777  0.1860  0.1252  0.4747
  583MPD2    N1 8652   2.142   4.235  16.436 -0.7426  0.1624 -0.3108
  583MPD2    H7 8653   2.212   4.234  16.510  1.2558 -0.8406 -2.2174
  584TMC3    C1 8654   1.885   4.692  16.891 -0.1141 -0.4465  0.4215
  584TMC3    C2 8655   1.931   0.091  16.922  0.2487 -0.7697  0.1894
  584TMC3    C3 8656   1.984   0.116  17.044  0.0198 -0.0701  0.7041
  584TMC3    C4 8657   1.904   4.588  16.980 -0.2598 -0.1993  0.5968
  584TMC3    C5 8658   1.969   4.616  17.096  0.5689 -0.1705  0.0955
  584TMC3    C6 8659   2.006   0.016  17.139  0.1755  0.6732 -0.4150
  584TMC3     C 8660   1.863   4.666  16.751  0.1883  0.8806  0.0601
  584TMC3     O 8661   1.791   0.017  16.689  0.0631  0.2776  0.1749
  584TMC3     H 8662   1.925   0.178  16.858 -3.0136  0.6394  2.3839
  584TMC3    H1 8663   1.867   4.486  16.967 -0.1955  0.0009 -1.0707
  584TMC3    H2 8664   2.057   0.020  17.235 -0.6022 -0.3900  0.0362
  584TMC3    C7 8665   1.964   4.519  17.203 -0.3719  1.0687 -0.6773
  584TMC3    C8 8666   2.033   0.246  17.068  0.8020 -0.1420 -0.1943
  584TMC3    O1 8667   2.060   4.525  17.280 -0.1071  0.4980 -0.6762
  584TMC3    O2 8668   2.015   0.335  16.984  0.0944 -0.0953  0.0575
  585MPD2     C 8669   1.106   3.115   0.465 -0.0701 -0.3360  0.7669
  585MPD2    C1 8670   1.226   3.164   0.434  0.8798 -0.1305  0.0140
  585MPD2    C2 8671   1.327   3.076   0.408 -0.2899 -0.1007  0.0435
  585MPD2    C3 8672   1.302   2.941   0.394 -0.6807  0.6387  0.2590
  585MPD2    C4 8673   1.175   2.890   0.422  0.2224  0.5974  0.3535
  585MPD2    C5 8674   1.076   2.979   0.460  0.0825  0.2226 -0.1484
  585MPD2     H 8675   1.419   3.125   0.378  1.2722 -2.3573  1.1710
  585MPD2    H1 8676   1.149   2.786   0.410 -0.8774  0.5097  3.6878
  585MPD2    H2 8677   1.031   3.191   0.484 -1.8931 -2.0917  0.6169
  585MPD2    H3 8678   0.983   2.935   0.492 -0.1088 -0.7397 -2.0853
  585MPD2     N 8679   1.407   2.852   0.361 -0.2841  0.3307  0.1146
  585MPD2    H5 8680   1.372   2.757   0.358  1.0463 -0.1323 -0.6608
  585MPD2    N1 8681   1.234   3.308   0.425 -0.2606  0.7275  0.0860
  585MPD2    H7 8682   1.151   3.364   0.411 -2.1487 -1.8968  0.6769
  586TMC3    C1 8683   1.593   2.767   0.250 -0.4169  0.0545  0.1107
  586TMC3    C2 8684   1.704   2.819   0.190  1.0301  0.1979 -0.2315
  586TMC3    C3 8685   1.701   2.822   0.051  0.7305 -0.2702  0.3553
  586TMC3    C4 8686   1.486   2.710   0.180 -0.4908 -0.6714  0.1750
  586TMC3    C5 8687   1.485   2.726   0.044  0.0229 -0.2088 -0.3013
  586TMC3    C6 8688   1.590   2.794  17.677  0.8601  0.0082  0.1581
  586TMC3     C 8689   1.543   2.870   0.339 -0.6952  0.4752  0.1585
  586TMC3     O 8690   1.608   2.973   0.344  0.3419 -0.4569 -0.9160
  586TMC3     H 8691   1.790   2.858   0.244  1.2854 -2.8744  1.5373
  586TMC3    H1 8692   1.421   2.638   0.228  1.2528 -1.8727  0.7179
  586TMC3    H2 8693   1.600   2.802  17.569 -0.8489 -1.7730 -0.1177
  586TMC3    C7 8694   1.356   2.695  17.681  0.6355  0.0749  0.0475
  586TMC3    C8 8695   1.831   2.825  17.688 -0.2497  0.3543 -0.4920
  586TMC3    O1 8696   1.277   2.618   0.039 -0.1136 -0.2492 -0.2168
  586TMC3    O2 8697   1.932   2.794   0.054  0.0083  0.4527 -0.7724
  587TMC3    C1 8698   3.895   1.318  15.965 -0.1155  0.5150  0.7970
  587TMC3    C2 8699   3.900   1.408  16.072  0.9245  0.2675 -0.4143
  587TMC3    C3 8700   4.029   1.439  16.122 -0.6738 -0.4154 -0.2616
  587TMC3    C4 8701   4.008   1.271  15.903 -0.0842  0.0918  0.1876
  587TMC3    C5 8702   4.134   1.298  15.957 -0.7729 -0.5350 -0.5568
  587TMC3    C6 8703   4.142   1.376  16.074 -0.4624 -0.0042 -0.4483
  587TMC3     C 8704   3.771   1.285  15.896 -0.1783 -0.3267 -0.3827
  587TMC3     O 8705   3.780   1.228  15.789  0.2595  0.7362  0.5464
  587TMC3     H 8706   3.804   1.432  16.117  0.7015 -0.3279 -0.5812
  587TMC3    H1 8707   4.004   1.209  15.814 -3.9112 -1.1532  1.2404
  587TMC3    H2 8708   4.233   1.376  16.133 -2.3464 -0.5248  2.4503
  587TMC3    C7 8709   4.242   1.236  15.895 -0.1023  0.4974 -1.1004
  587TMC3    C8 8710   4.048   1.519  16.247  0.3425 -0.7725 -0.8115
  587TMC3    O1 8711   4.225   1.156  15.801 -0.0548 -0.2453 -0.1265
  587TMC3    O2 8712   4.164   1.521  16.288  0.1636 -0.5053 -0.0146
  588TMC3    C1 8713   1.586   0.179   9.842  0.5438 -0.4830  0.7038
  588TMC3    C2 8714   1.539   0.051   9.846 -0.6536  0.3789  0.6810
  588TMC3    C3 8715   1.620   4.678   9.894 -0.7000 -0.0247 -0.0848
  588TMC3    C4 8716   1.720   0.201   9.881 -1.2966  0.4000 -0.1514
  588TMC3    C5 8717   1.805   0.099   9.913 -0.1191  0.6822  0.5551
  588TMC3    C6 8718   1.751   4.696   9.935 -0.0797 -0.3431 -0.6870
  588TMC3     C 8719   1.515   0.286   9.761 -0.5254  0.3546 -0.1647
  588TMC3     O 8720   1.407   0.259   9.709 -0.1876  0.0450 -0.2460
  588TMC3     H 8721   1.443   0.027   9.801  0.2025 -1.5509 -0.1329
  588TMC3    H1 8722   1.746   0.305   9.896 -1.2654  0.4780 -0.7589
  588TMC3    H2 8723   1.819   4.618   9.967  2.0045  1.4111 -0.8641
  588TMC3    C7 8724   1.953   0.119   9.924 -0.0956 -0.8252  0.1901
  588TMC3    C8 8725   1.554   4.547   9.889  0.8410  0.4888  0.6723
  588TMC3    O1 8726   2.034   0.064   9.995 -0.0537  0.3578  0.2519
  588TMC3    O2 8727   1.439   4.533   9.855  0.5112 -0.1942 -0.4023
  589TMC3    C1 8728   0.984   2.062   1.044 -0.0482  0.7694 -0.2315
  589TMC3    C2 8729   1.006   2.103   1.169  0.0788  1.5697  0.6307
  589TMC3    C3 8730   1.131   2.095   1.220 -0.8520  0.3729  0.6249
  589TMC3    C4 8731   1.084   2.010   0.967 -0.2324  0.2953  0.1571
  589TMC3    C5 8732   1.214   2.014   1.021  0.2360  0.9656 -0.3269
  589TMC3    C6 8733   1.237   2.057   1.147 -0.0547  0.0598 -0.3146
  589TMC3     C 8734   0.845   2.032   0.996  0.1560  0.5049 -0.1730
  589TMC3     O 8735   0.841   1.984   0.884 -0.5413 -0.0842  0.1525
  589TMC3     H 8736   0.924   2.142   1.228  0.5390  1.2285  1.4985
  589TMC3    H1 8737   1.055   1.958   0.877  1.1537 -0.3005  0.0600
  589TMC3    H2 8738   1.326   2.030   1.202  0.9305  2.0800 -0.9339
  589TMC3    C7 8739   1.292   1.920   0.971 -0.0296  0.4580  0.2013
  589TMC3    C8 8740   1.154   2.118   1.361  0.4049 -0.2887 -0.4355
  589TMC3    O1 8741   1.238   1.814   0.936 -0.0046  0.1372  0.1709
  589TMC3    O2 8742   1.059   2.112   1.441  0.2788  0.4727  0.5377
  590MPD2     C 8743   0.005   0.155  16.405  0.5852  0.0030 -0.3233
  590MPD2    C1 8744   4.694   0.195  16.275  0.9200 -1.0941 -0.1694
  590MPD2    C2 8745   0.044   0.300  16.211 -0.4972 -0.2670 -0.5216
  590MPD2    C3 8746   0.151   0.362  16.273  0.3205 -0.1230 -0.1922
  590MPD2    C4 8747   0.181   0.327  16.402  0.6927  0.1323  0.2147
  590MPD2    C5 8748   0.107   0.233  16.468  0.5847 -0.2164  0.1183
  590MPD2     H 8749   0.015   0.339  16.114  1.3726  3.3636  0.3992
  590MPD2    H1 8750   0.264   0.364  16.461  0.8819  1.1907 -0.7001
  590MPD2    H2 8751   4.683   0.072  16.457 -1.6531  0.5738 -1.4299
  590MPD2    H3 8752   0.136   0.203  16.568 -0.3729  0.9153  0.7328
  590MPD2     N 8753   0.221   0.462  16.203  0.4230  0.0214 -0.1521
  590MPD2    H5 8754   0.195   0.469  16.105 -0.7374 -1.3384  0.0566
  590MPD2    N1 8755   4.592   0.121  16.215  0.1688  0.5864  0.5314
  590MPD2    H7 8756   4.539   0.056  16.272 -0.7308 -0.1948 -1.2127
  591TMC3    C1 8757   0.382   0.635  16.172 -0.4635  0.5066  0.0421
  591TMC3    C2 8758   0.392   0.595  16.047  0.7865 -0.3913  0.0088
  591TMC3    C3 8759   0.448   0.679  15.958 -0.4021  0.0883 -0.3476
  591TMC3    C4 8760   0.420   0.759  16.222 -0.5771 -0.2909  0.0031
  591TMC3    C5 8761   0.458   0.849  16.127 -0.0530 -0.1230 -0.6368
  591TMC3    C6 8762   0.481   0.812  15.996 -0.4129  0.2746 -0.1867
  591TMC3     C 8763   0.305   0.549  16.265 -0.5861 -0.7952  0.0242
  591TMC3     O 8764   0.325   0.565  16.386  0.0439  0.2357  0.2514
  591TMC3     H 8765   0.350   0.502  16.010 -1.3531 -0.1305  1.7976
  591TMC3    H1 8766   0.400   0.787  16.325  0.5119 -0.4506  0.2553
  591TMC3    H2 8767   0.540   0.877  15.932 -3.4655  2.6739 -0.5271
  591TMC3    C7 8768   0.465   0.983  16.161 -0.6413  0.5747 -0.4618
  591TMC3    C8 8769   0.497   0.618  15.836 -0.0833  0.7024 -0.3837
  591TMC3    O1 8770   0.460   1.014  16.283 -0.5306 -0.1623  0.2872
  591TMC3    O2 8771   0.521   0.498  15.847  0.2049 -0.1394 -0.6736
  592MPD2     C 8772   0.938   2.427  11.374  0.6989 -0.5555 -0.4231
  592MPD2    C1 8773   0.913   2.496  11.486  0.3722  0.0316  0.7734
  592MPD2    C2 8774   0.847   2.435  11.590  0.4260  0.4165  0.2918
  592MPD2    C3 8775   0.807   2.300  11.576  0.8386 -0.9341 -0.1774
  592MPD2    C4 8776   0.851   2.230  11.472  0.0645  0.6692  0.6367
  592MPD2    C5 8777   0.916   2.292  11.371 -0.3004 -0.4412  1.0413
  592MPD2     H 8778   0.831   2.482  11.686  2.3452  2.1011 -0.2105
  592MPD2    H1 8779   0.826   2.126  11.450  2.2216  0.9330 -3.1001
  592MPD2    H2 8780   0.976   2.481  11.288  0.3661  0.2653 -0.0524
  592MPD2    H3 8781   0.958   2.235  11.289  0.3023 -0.0752  1.0940
  592MPD2     N 8782   0.737   2.255  11.683  0.8840  0.4027  0.3471
  592MPD2    H5 8783   0.730   2.317  11.762 -1.0305 -1.1523  1.4099
  592MPD2    N1 8784   0.945   2.633  11.481 -0.3534 -0.0388 -0.2797
  592MPD2    H7 8785   0.998   2.670  11.403 -0.2880 -1.1816 -0.7757
  593TMC3    C1 8786   1.013   2.842  11.569  0.3927 -0.4259 -0.0014
  593TMC3    C2 8787   1.002   2.928  11.679 -0.1903 -0.2367 -0.4169
  593TMC3    C3 8788   1.091   3.032  11.684  0.1651  0.0160 -0.7389
  593TMC3    C4 8789   1.112   2.853  11.471  0.4347 -0.4257  0.7506
  593TMC3    C5 8790   1.206   2.956  11.490 -0.5617 -0.0340 -0.3195
  593TMC3    C6 8791   1.202   3.032  11.603  0.5787  0.2444 -0.1413
  593TMC3     C 8792   0.931   2.721  11.582 -0.3410 -1.0422 -1.0605
  593TMC3     O 8793   0.842   2.718  11.665 -0.1055  0.0328  0.3786
  593TMC3     H 8794   0.933   2.925  11.762 -0.5047 -1.7131 -0.7286
  593TMC3    H1 8795   1.119   2.789  11.383 -1.3736  0.5540 -0.1164
  593TMC3    H2 8796   1.275   3.111  11.617 -0.8664  1.3692  1.1510
  593TMC3    C7 8797   1.327   2.965  11.411  0.7106 -0.0242  0.7092
  593TMC3    C8 8798   1.087   3.108  11.800  0.0234  0.9576  0.1238
  593TMC3    O1 8799   1.419   3.020  11.465  0.6035 -0.1653 -0.4338
  593TMC3    O2 8800   0.980   3.167  11.823 -0.2461  0.0119 -0.1047
  594MPD2     C 8801   4.384   0.776  14.568  0.1968  0.0161 -0.0436
  594MPD2    C1 8802   4.262   0.830  14.558 -0.6818  0.1164  0.2530
  594MPD2    C2 8803   4.238   0.968  14.582 -0.9214 -0.1435  0.2597
  594MPD2    C3 8804   4.346   1.054  14.583 -0.4060  0.1239 -0.6807
  594MPD2    C4 8805   4.475   0.999  14.575  0.2219 -0.3198  0.2846
  594MPD2    C5 8806   4.492   0.862  14.571 -0.2259  0.4655  0.3410
  594MPD2     H 8807   4.139   1.011  14.587 -0.4511  1.3478 -3.3804
  594MPD2    H1 8808   4.566   1.056  14.593  0.5261 -0.6516 -0.1805
  594MPD2    H2 8809   4.397   0.668  14.563 -0.8348 -0.2842  4.1985
  594MPD2    H3 8810   4.590   0.814  14.567 -0.7508 -0.5924  0.1644
  594MPD2     N 8811   4.329   1.199  14.595  0.3725  0.1008  0.1385
  594MPD2    H5 8812   4.234   1.232  14.598  0.6655  0.8341  1.6727
  594MPD2    N1 8813   4.166   0.737  14.527  0.4261  0.1292 -0.7393
  594MPD2    H7 8814   4.187   0.638  14.519 -2.6186 -0.4411 -1.8968
  595TMC3    C1 8815   4.326   1.654  14.540 -0.1408  0.3970 -0.6569
  595TMC3    C2 8816   4.392   1.534  14.515  0.9930  0.1793 -0.4101
  595TMC3    C3 8817   4.374   1.426  14.601  0.2672 -0.1020  0.8893
  595TMC3    C4 8818   4.252   1.664  14.656  0.1367  0.0212 -0.0410
  595TMC3    C5 8819   4.248   1.554  14.737  0.0484  0.7060 -0.6338
  595TMC3    C6 8820   4.307   1.438  14.717 -0.0880 -0.6573 -0.3710
  595TMC3     C 8821   4.377   1.784  14.490  0.3338  0.2921  0.3688
  595TMC3     O 8822   4.358   1.885  14.559 -0.4113  0.7350 -0.9348
  595TMC3     H 8823   4.463   1.520  14.434  0.2584 -0.3202 -0.9614
  595TMC3    H1 8824   4.212   1.762  14.681  1.4386 -0.0807  2.3987
  595TMC3    H2 8825   4.309   1.356  14.788  2.1481 -0.4937 -0.2423
  595TMC3    C7 8826   4.197   1.584  14.868 -0.0311 -0.0106  0.0940
  595TMC3    C8 8827   4.426   1.287  14.570 -0.1839  0.1462 -0.2959
  595TMC3    O1 8828   4.113   1.674  14.871 -0.9560 -0.1727 -0.0938
  595TMC3    O2 8829   4.533   1.282  14.514  0.4890  0.0280  0.2667
  596MPD2     C 8830   3.198   4.077  16.407  0.0886 -0.5295  0.3035
  596MPD2    C1 8831   3.159   4.184  16.325 -0.0397 -0.1554  0.2653
  596MPD2    C2 8832   3.187   4.175  16.188  0.3463  0.6057  0.1345
  596MPD2    C3 8833   3.255   4.068  16.139  0.7947 -0.1709  0.5445
  596MPD2    C4 8834   3.287   3.963  16.215  0.3106  0.5467 -0.0991
  596MPD2    C5 8835   3.260   3.968  16.354 -1.1314  0.0842  0.4192
  596MPD2     H 8836   3.155   4.259  16.127 -0.0300  1.6142  1.6973
  596MPD2    H1 8837   3.333   3.872  16.178 -0.4589  0.4564 -0.8347
  596MPD2    H2 8838   3.176   4.068  16.513  0.7289 -2.4777  0.2681
  596MPD2    H3 8839   3.264   3.877  16.412 -1.3309  0.6657  1.3427
  596MPD2     N 8840   3.278   4.060  15.999 -0.4325 -0.0322 -0.4733
  596MPD2    H5 8841   3.300   3.970  15.958 -0.8112  0.8986 -2.7230
  596MPD2    N1 8842   3.103   4.302  16.375 -0.0385 -0.6697 -0.1590
  596MPD2    H7 8843   3.092   4.382  16.313  1.8778 -0.5674 -0.3611
  597TMC3    C1 8844   2.999   4.449  16.525  0.1125 -0.6252  0.0071
  597TMC3    C2 8845   3.058   4.559  16.472  0.4855 -0.0336  0.2318
  597TMC3    C3 8846   2.995   4.686  16.496  0.9583 -0.7784 -0.5347
  597TMC3    C4 8847   2.897   4.462  16.614  0.1667 -0.4900 -0.3510
  597TMC3    C5 8848   2.843   4.580  16.636 -0.3034 -0.2551  0.7859
  597TMC3    C6 8849   2.899   4.699  16.591  0.2109  0.3123 -0.0098
  597TMC3     C 8850   3.039   4.311  16.499  0.1716 -1.1956  0.3259
  597TMC3     O 8851   3.011   4.222  16.580 -0.6394 -0.8430 -0.0921
  597TMC3     H 8852   3.145   4.537  16.412  0.8756  1.3626  0.2975
  597TMC3    H1 8853   2.852   4.368  16.645  1.6778 -0.5661  1.5889
  597TMC3    H2 8854   2.863   0.071  16.626  0.0952 -0.0547  0.9022
  597TMC3    C7 8855   2.748   4.577  16.751  0.0400  0.3959  0.6774
  597TMC3    C8 8856   3.026   0.080  16.414 -0.0550 -0.0971 -0.1880
  597TMC3    O1 8857   2.718   4.465  16.799  0.1997  0.3109 -0.6508
  597TMC3    O2 8858   2.995   0.184  16.468  0.3910 -0.2927 -0.0873
  598TMC3    C1 8859   1.045   1.167  14.795  0.2437  0.3068  0.7465
  598TMC3    C2 8860   0.914   1.124  14.793 -0.5403  0.6765 -0.0778
  598TMC3    C3 8861   0.842   1.124  14.678 -0.3281  0.0090 -0.3878
  598TMC3    C4 8862   1.106   1.230  14.688  0.5917 -0.2215  0.2303
  598TMC3    C5 8863   1.027   1.235  14.573 -0.4837  0.4964 -0.4208
  598TMC3    C6 8864   0.898   1.186  14.567  0.4519  0.3602 -0.1807
  598TMC3     C 8865   1.128   1.159  14.919 -0.3088 -0.1270  0.4013
  598TMC3     O 8866   1.245   1.192  14.915 -0.0209  0.0275 -0.1083
  598TMC3     H 8867   0.871   1.082  14.884  3.6937  0.2761  1.7450
  598TMC3    H1 8868   1.213   1.244  14.678  0.8107 -2.0080  0.0156
  598TMC3    H2 8869   0.847   1.187  14.471  1.6961  1.8176 -0.8220
  598TMC3    C7 8870   1.082   1.306  14.453  0.2437  0.7603 -0.2539
  598TMC3    C8 8871   0.719   1.039  14.659  0.1815  0.2393 -0.0155
  598TMC3    O1 8872   1.053   1.271  14.338 -0.0689 -0.0365 -0.0773
  598TMC3    O2 8873   0.655   1.060  14.555  0.1690  0.0660  0.2931
  599MPD2     C 8874   1.899   3.077  16.269 -0.3393 -0.9550  0.5416
  599MPD2    C1 8875   1.802   2.982  16.247 -0.0737  0.0963  0.4794
  599MPD2    C2 8876   1.668   3.021  16.266  0.1418  0.0050 -0.2656
  599MPD2    C3 8877   1.643   3.152  16.296 -0.3397 -1.2740  0.6889
  599MPD2    C4 8878   1.741   3.246  16.303 -0.3510 -0.4660  0.6414
  599MPD2    C5 8879   1.872   3.207  16.293 -0.2800  0.3058 -0.3687
  599MPD2     H 8880   1.580   2.957  16.266  0.5142 -0.5043  0.5032
  599MPD2    H1 8881   1.725   3.353  16.308 -0.5000 -0.3087 -3.4486
  599MPD2    H2 8882   2.005   3.054  16.266 -0.6766 -2.2774 -1.4371
  599MPD2    H3 8883   1.952   3.277  16.317 -0.2810  0.2929 -0.3278
  599MPD2     N 8884   1.509   3.204  16.301  0.2046 -0.4571  0.2227
  599MPD2    H5 8885   1.507   3.304  16.320  2.1505 -0.0337 -1.7434
  599MPD2    N1 8886   1.832   2.849  16.215 -0.0380  0.3444  0.1471
  599MPD2    H7 8887   1.931   2.833  16.225 -0.0435  0.7574  0.8820
  600TMC3    C1 8888   1.272   3.206  16.307  0.0599  0.2763  0.4339
  600TMC3    C2 8889   1.160   3.141  16.351 -0.0571 -0.0844 -0.3469
  600TMC3    C3 8890   1.039   3.207  16.369 -0.3856  0.7265  0.3396
  600TMC3    C4 8891   1.273   3.345  16.300 -0.0100 -0.2469 -1.0041
  600TMC3    C5 8892   1.155   3.407  16.331 -0.1121 -0.6428 -0.2782
  600TMC3    C6 8893   1.032   3.346  16.351 -0.1163  0.1126  0.1653
  600TMC3     C 8894   1.394   3.131  16.303  0.5155 -0.5420  0.0605
  600TMC3     O 8895   1.384   3.012  16.337  0.2261  0.4790  0.2661
  600TMC3     H 8896   1.162   3.033  16.364  0.5970  0.0160  0.3688
  600TMC3    H1 8897   1.356   3.406  16.269  0.7754 -0.7815  0.0493
  600TMC3    H2 8898   0.936   3.393  16.371 -0.7621 -0.2937 -1.9139
  600TMC3    C7 8899   1.152   3.547  16.307  0.7687 -0.0821  0.4597
  600TMC3    C8 8900   0.928   3.123  16.401 -0.0463  0.2376  0.4332
  600TMC3    O1 8901   1.063   3.591  16.237 -0.3670 -0.0390 -0.3077
  600TMC3    O2 8902   0.948   3.002  16.429 -0.5736 -0.2573  0.6844
  601MPD2     C 8903   3.603   1.205   0.259 -0.1812 -0.3146  0.0840
  601MPD2    C1 8904   3.520   1.153   0.163 -0.0687  0.0851  0.0067
  601MPD2    C2 8905   3.543   1.020   0.125 -0.7998 -0.1571 -0.3265
  601MPD2    C3 8906   3.658   0.950   0.157  0.1889  0.0114 -0.2367
  601MPD2    C4 8907   3.748   1.007   0.246 -0.0052  0.0544 -0.4913
  601MPD2    C5 8908   3.721   1.133   0.295 -0.0512  0.1396 -0.4830
  601MPD2     H 8909   3.477   0.974   0.052  1.1700 -2.1778 -0.8486
  601MPD2    H1 8910   3.835   0.956   0.285  1.0843  1.8191 -0.5811
  601MPD2    H2 8911   3.585   1.297   0.313 -1.2081 -1.4520  1.6804
  601MPD2    H3 8912   3.792   1.166   0.369  0.7116 -0.8325 -0.7845
  601MPD2     N 8913   3.683   0.815   0.123 -0.0442  0.3721 -0.3567
  601MPD2    H5 8914   3.768   0.774   0.159  1.5531  3.0488 -1.0431
  601MPD2    N1 8915   3.410   1.223   0.108  0.1595  0.1125 -0.4192
  601MPD2    H7 8916   3.341   1.178   0.049 -0.7129 -0.5510  1.1166
  602TMC3    C1 8917   3.264   1.405   0.081 -0.8235  0.2800  0.0574
  602TMC3    C2 8918   3.254   1.539   0.069  0.6935 -0.6829 -0.2756
  602TMC3    C3 8919   3.135   1.600   0.052  0.0873 -0.2005 -0.5426
  602TMC3    C4 8920   3.155   1.323   0.079 -0.3525 -0.7322  0.2849
  602TMC3    C5 8921   3.033   1.381   0.058  0.3675  0.0155 -0.1726
  602TMC3    C6 8922   3.023   1.521   0.039 -0.2343 -0.6342 -0.1778
  602TMC3     C 8923   3.396   1.359   0.126  0.1737 -0.9172 -0.3176
  602TMC3     O 8924   3.484   1.440   0.163 -0.3260  0.3375  0.1522
  602TMC3     H 8925   3.340   1.600   0.046  0.7556 -0.9315 -0.7088
  602TMC3    H1 8926   3.160   1.217   0.101  0.1619 -0.5836  0.8881
  602TMC3    H2 8927   2.921   1.557   0.041  0.3783  1.1481 -0.8021
  602TMC3    C7 8928   2.927   1.303   0.005  0.2539 -0.0727  0.6474
  602TMC3    C8 8929   3.127   1.737  17.695  0.9092 -0.2534 -0.6375
  602TMC3    O1 8930   2.891   1.191   0.046 -0.2251  0.6313  0.5054
  602TMC3    O2 8931   3.229   1.803   0.009  0.0899 -0.3240  0.8540
  603TMC3    C1 8932   1.886   1.976  10.541  0.0093  0.2927  0.6461
  603TMC3    C2 8933   1.934   1.996  10.668 -0.3735 -0.4411  0.2417
  603TMC3    C3 8934   1.915   2.118  10.722 -0.0408  0.4329  0.7479
  603TMC3    C4 8935   1.839   2.079  10.467 -0.0937 -0.2736 -0.5159
  603TMC3    C5 8936   1.837   2.207  10.519 -0.2379 -0.0589 -0.1801
  603TMC3    C6 8937   1.877   2.231  10.647  0.2599 -0.1897  0.4740
  603TMC3     C 8938   1.915   1.855  10.463  0.7599 -0.1249 -0.2184
  603TMC3     O 8939   1.905   1.872  10.343  0.0943 -0.5374  0.2752
  603TMC3     H 8940   1.978   1.919  10.731 -1.0225 -0.4725  0.6537
  603TMC3    H1 8941   1.797   2.058  10.369  0.0130 -1.2478 -0.3481
  603TMC3    H2 8942   1.873   2.328  10.695 -2.1394 -1.1451  2.2059
  603TMC3    C7 8943   1.789   2.316  10.439  0.8214 -0.1553 -0.4550
  603TMC3    C8 8944   1.911   2.119  10.863  0.3943 -1.0949  0.0569
  603TMC3    O1 8945   1.767   2.425  10.490 -0.1540  0.0716 -0.1284
  603TMC3    O2 8946   1.908   2.012  10.918 -0.8215  0.4502  0.3499
  604MPD2     C 8947   1.926   0.114  16.306  0.5777  0.1311 -0.3480
  604MPD2    C1 8948   1.903   0.244  16.254 -0.3610  0.4064 -0.4612
  604MPD2    C2 8949   1.912   0.265  16.121  0.1664  0.6562 -0.0981
  604MPD2    C3 8950   1.942   0.167  16.038  0.4383  0.4141 -0.5222
  604MPD2    C4 8951   1.969   0.037  16.087 -0.4285 -0.0363  0.3609
  604MPD2    C5 8952   1.960   0.013  16.217  0.2154  0.2240 -0.1333
  604MPD2     H 8953   1.903   0.363  16.075  1.6451  0.9819  0.2970
  604MPD2    H1 8954   1.998   4.674  16.030 -2.0644  0.6673 -1.5802
  604MPD2    H2 8955   1.912   0.094  16.411  0.0254  1.7857 -0.1062
  604MPD2    H3 8956   1.977   4.636  16.253 -0.3038 -0.2664 -1.2695
  604MPD2     N 8957   1.947   0.204  15.902  0.3855  0.1685  0.3869
  604MPD2    H5 8958   1.903   0.291  15.875  1.9275  0.9693  0.4209
  604MPD2    N1 8959   1.878   0.348  16.340  0.1613  0.3057 -0.4599
  604MPD2    H7 8960   1.887   0.333  16.440 -1.8840  0.4587 -0.2497
  605TMC3    C1 8961   1.830   0.566  16.411  0.0739  0.7740 -0.9191
  605TMC3    C2 8962   1.947   0.583  16.472  0.2179  0.0088  0.3130
  605TMC3    C3 8963   1.965   0.713  16.518 -0.5494 -0.2245 -0.1707
  605TMC3    C4 8964   1.735   0.667  16.390  0.9079 -0.2054 -0.4658
  605TMC3    C5 8965   1.753   0.789  16.446 -0.5115  0.7233  1.0214
  605TMC3    C6 8966   1.875   0.816  16.499 -0.1773 -0.1103 -0.0044
  605TMC3     C 8967   1.832   0.473  16.305  0.1259  0.8347 -0.2106
  605TMC3     O 8968   1.784   0.509  16.192  0.2802  0.3013 -0.0008
  605TMC3     H 8969   2.012   0.497  16.467 -0.2519 -0.3489  0.3416
  605TMC3    H1 8970   1.644   0.649  16.335 -0.4452 -0.0386  1.7417
  605TMC3    H2 8971   1.900   0.912  16.543  2.2006 -1.0685  0.7247
  605TMC3    C7 8972   1.661   0.903  16.429  0.2159 -0.2223  0.2756
  605TMC3    C8 8973   2.099   0.755  16.523  0.2696 -0.0198 -0.3025
  605TMC3    O1 8974   1.689   1.021  16.453 -0.7176  0.3194 -0.7336
  605TMC3    O2 8975   2.121   0.867  16.488  0.6948 -0.2639  0.6808
  606TMC3    C1 8976   2.862   4.062  17.176  0.0017 -0.9456 -0.4410
  606TMC3    C2 8977   2.723   4.044  17.161  0.2426 -0.3545  0.0689
  606TMC3    C3 8978   2.692   3.929  17.099 -0.1011  0.1764 -0.1988
  606TMC3    C4 8979   2.956   3.972  17.139 -0.3086  0.0198 -0.3643
  606TMC3    C5 8980   2.915   3.856  17.087  0.2102 -0.5890 -0.4438
  606TMC3    C6 8981   2.782   3.835  17.059 -0.2701  0.2068 -0.9379
  606TMC3     C 8982   2.900   4.172  17.260  0.1672  0.9388  0.0810
  606TMC3     O 8983   2.821   4.219  17.341 -0.4914 -0.4011  0.2268
  606TMC3     H 8984   2.649   4.110  17.206  0.8901  0.2539  0.2481
  606TMC3    H1 8985   3.061   3.988  17.163 -0.6016 -0.2622  1.1055
  606TMC3    H2 8986   2.748   3.751  16.999 -1.1157 -0.6375  0.7537
  606TMC3    C7 8987   2.999   3.737  17.117  0.0369  0.1996 -0.5018
  606TMC3    C8 8988   2.545   3.908  17.089  0.5797  0.0157  0.1048
  606TMC3    O1 8989   3.088   3.745  17.197  0.3346  0.0855 -0.0776
  606TMC3    O2 8990   2.487   4.010  17.053  0.5073  0.2244 -0.5490
  607MPD2     C 8991   1.090   2.073  11.671 -0.4531  0.1352 -0.0155
  607MPD2    C1 8992   1.134   2.172  11.757  0.5805 -0.3241 -0.5097
  607MPD2    C2 8993   1.134   2.156  11.889 -0.2135 -0.2976  0.4864
  607MPD2    C3 8994   1.092   2.041  11.944 -0.5171  0.5888  0.8359
  607MPD2    C4 8995   1.052   1.940  11.866 -0.6208  0.0470  0.0682
  607MPD2    C5 8996   1.040   1.956  11.730  0.3830 -0.7773 -0.4791
  607MPD2     H 8997   1.176   2.233  11.952  3.0670 -0.3079 -1.6526
  607MPD2    H1 8998   1.014   1.845  11.904 -0.6175  0.0512  0.0819
  607MPD2    H2 8999   1.094   2.075  11.562  0.0406  0.0493 -0.0006
  607MPD2    H3 9000   0.996   1.875  11.673 -0.6520  0.0944 -0.9178
  607MPD2     N 9001   1.085   2.041  12.084  0.1365 -0.6046 -0.1006
  607MPD2    H5 9002   1.087   2.135  12.123 -1.4264  0.1328 -1.8196
  607MPD2    N1 9003   1.178   2.302  11.721 -0.0400 -0.0709  0.0531
  607MPD2    H7 9004   1.212   2.357  11.799  0.4988  0.9017 -0.8639
  608TMC3    C1 9005   1.267   2.469  11.596 -0.3625 -0.3212 -0.0228
  608TMC3    C2 9006   1.269   2.559  11.701 -0.5054  0.2105  0.5075
  608TMC3    C3 9007   1.364   2.657  11.712  0.7242 -0.4970 -0.3107
  608TMC3    C4 9008   1.340   2.515  11.489  0.0995 -0.2484 -0.0641
  608TMC3    C5 9009   1.422   2.629  11.501 -0.9603  0.2899  0.4232
  608TMC3    C6 9010   1.436   2.700  11.613  0.1072 -0.5061 -0.3625
  608TMC3     C 9011   1.205   2.341  11.591  0.5158  0.4432 -0.2142
  608TMC3     O 9012   1.196   2.278  11.488  0.4053 -0.5242  0.4858
  608TMC3     H 9013   1.201   2.537  11.782 -0.1956  0.3737  0.8137
  608TMC3    H1 9014   1.348   2.459  11.396 -0.7361 -0.7342  0.1603
  608TMC3    H2 9015   1.499   2.787  11.627 -0.1562 -0.6508  1.6436
  608TMC3    C7 9016   1.526   2.637  11.396 -0.0446  0.4599  0.4315
  608TMC3    C8 9017   1.372   2.722  11.837  0.0372  0.8857  0.4013
  608TMC3    O1 9018   1.494   2.617  11.277 -0.6833  0.0212  0.4401
  608TMC3    O2 9019   1.393   2.842  11.836 -0.4146 -0.0416 -0.3678
  609TMC3    C1 9020   4.711   1.651   9.126 -0.2477 -0.5416 -0.7353
  609TMC3    C2 9021   0.002   1.755   9.036 -0.5359 -0.3916 -0.2633
  609TMC3    C3 9022   0.081   1.741   8.924 -0.2125 -1.0051 -0.6735
  609TMC3    C4 9023   0.029   1.529   9.086  0.2682  0.0114 -0.1169
  609TMC3    C5 9024   0.121   1.521   8.984  0.3606  0.4299 -0.6044
  609TMC3    C6 9025   0.156   1.627   8.900  0.1085 -0.6475 -0.4655
  609TMC3     C 9026   4.634   1.655   9.252 -0.1626 -0.5974 -0.4179
  609TMC3     O 9027   4.596   1.542   9.289 -0.5513 -0.1711 -0.2697
  609TMC3     H 9028   4.678   1.852   9.043 -0.5237 -0.5041  1.3123
  609TMC3    H1 9029   0.014   1.444   9.152  0.2180 -0.3454 -0.5934
  609TMC3    H2 9030   0.251   1.636   8.850 -0.1996  0.4821 -0.8558
  609TMC3    C7 9031   0.208   1.403   8.976 -0.2319 -0.9511  0.1754
  609TMC3    C8 9032   0.121   1.863   8.853  0.0427 -0.4831  0.1500
  609TMC3    O1 9033   0.220   1.328   9.075  0.0052 -0.4299 -0.3864
  609TMC3    O2 9034   0.131   1.966   8.918 -0.1671 -0.3877 -0.0908
  610TMC3    C1 9035   1.674   2.008  12.689  0.2702 -0.4972 -0.0694
  610TMC3    C2 9036   1.743   2.096  12.610 -0.6139  0.6409 -0.8118
  610TMC3    C3 9037   1.865   2.053  12.570  0.1195 -0.1308  0.7547
  610TMC3    C4 9038   1.721   1.884  12.723  0.2945  0.8074  0.6740
  610TMC3    C5 9039   1.847   1.864  12.701  0.5542  0.0069  0.1999
  610TMC3    C6 9040   1.931   1.939  12.623 -0.2338  1.3043  0.3337
  610TMC3     C 9041   1.531   2.038  12.723  0.0527  0.0726 -0.0171
  610TMC3     O 9042   1.464   1.947  12.764 -0.7954  0.3735 -0.1670
  610TMC3     H 9043   1.697   2.186  12.569  2.3535  2.4225 -0.1976
  610TMC3    H1 9044   1.667   1.825  12.795  0.5296 -1.0886 -0.7065
  610TMC3    H2 9045   2.026   1.910  12.580 -0.3372  0.1573  0.8789
  610TMC3    C7 9046   1.920   1.778  12.787 -0.1395  0.5524 -0.6321
  610TMC3    C8 9047   1.927   2.113  12.455 -0.4537  0.5981 -1.0481
  610TMC3    O1 9048   1.865   1.674  12.824  0.1876 -0.0375  0.3424
  610TMC3    O2 9049   2.049   2.122  12.463  0.3108  0.6864  0.6523
  611MPD2     C 9050   0.526   2.526   9.703 -0.0774  0.2353  0.6841
  611MPD2    C1 9051   0.551   2.389   9.728  0.0931 -0.3547 -0.0164
  611MPD2    C2 9052   0.678   2.339   9.721  0.7568  0.6177 -0.3063
  611MPD2    C3 9053   0.785   2.417   9.682 -0.0398 -0.4738 -0.1272
  611MPD2    C4 9054   0.761   2.553   9.663  0.1862  0.4056  0.5270
  611MPD2    C5 9055   0.635   2.606   9.678  0.1001  0.0404 -0.0640
  611MPD2     H 9056   0.690   2.232   9.718  1.6118  0.6500  1.6050
  611MPD2    H1 9057   0.847   2.615   9.641  0.1461 -0.3100 -1.6414
  611MPD2    H2 9058   0.425   2.565   9.711 -0.5862 -1.0768  0.5847
  611MPD2    H3 9059   0.607   2.708   9.654  1.1057  0.2854 -0.1814
  611MPD2     N 9060   0.916   2.365   9.672  0.1325 -0.0902  0.0022
  611MPD2    H5 9061   0.990   2.435   9.667  2.3486 -2.3334  1.9317
  611MPD2    N1 9062   0.439   2.315   9.774 -0.3581  0.4782 -0.5946
  611MPD2    H7 9063   0.351   2.365   9.781 -0.3334  0.6806 -1.6072
  612TMC3    C1 9064   1.086   2.207   9.686  0.2981 -0.3756 -0.2836
  612TMC3    C2 9065   1.165   2.288   9.754 -0.1666 -0.1227  0.3395
  612TMC3    C3 9066   1.291   2.246   9.784 -0.4188 -0.4984  0.4262
  612TMC3    C4 9067   1.122   2.084   9.643  0.1753 -0.4585 -0.4044
  612TMC3    C5 9068   1.247   2.040   9.677 -0.5648 -0.4578 -0.6346
  612TMC3    C6 9069   1.333   2.119   9.754  0.3969  0.4829 -0.4803
  612TMC3     C 9070   0.942   2.230   9.675  0.4142 -0.0916 -0.2996
  612TMC3     O 9071   0.872   2.129   9.694  0.0899  0.4341 -0.0104
  612TMC3     H 9072   1.132   2.387   9.785  2.1455  0.7520  0.0285
  612TMC3    H1 9073   1.051   2.022   9.589 -0.7875 -0.7190  1.1579
  612TMC3    H2 9074   1.438   2.095   9.757  0.3177  0.1144 -0.5431
  612TMC3    C7 9075   1.299   1.920   9.621  0.3160 -0.0902 -0.2283
  612TMC3    C8 9076   1.379   2.346   9.844  0.2606  0.2893  0.9556
  612TMC3    O1 9077   1.398   1.872   9.672 -0.4222  0.4697  0.2471
  612TMC3    O2 9078   1.341   2.459   9.818 -0.0288  0.8323  0.0356
  613MPD2     C 9079   4.639   4.385  16.355  0.4621 -0.0877  1.0264
  613MPD2    C1 9080   4.722   4.305  16.278 -0.3987  0.0863  0.6281
  613MPD2    C2 9081   0.011   4.171  16.315  0.4753  0.3209 -0.1282
  613MPD2    C3 9082   4.662   4.121  16.424  0.1515  0.4668  0.5776
  613MPD2    C4 9083   4.576   4.210  16.495  0.4389  0.0536 -0.6342
  613MPD2    C5 9084   4.567   4.338  16.458 -0.3934  0.6952  0.3255
  613MPD2     H 9085   0.082   4.109  16.261  0.2850 -1.2247  1.4114
  613MPD2    H1 9086   4.527   4.178  16.586  1.7831  1.7286  0.7029
  613MPD2    H2 9087   4.624   4.490  16.332  3.3202  0.0840  0.0017
  613MPD2    H3 9088   4.502   4.404  16.514 -2.2263 -1.1725  0.3694
  613MPD2     N 9089   4.681   3.991  16.469  0.7745  0.1775  0.9299
  613MPD2    H5 9090   4.651   3.981  16.566  1.0527 -1.2818  0.8641
  613MPD2    N1 9091   0.050   4.350  16.159 -0.2423  0.4752  0.3691
  613MPD2    H7 9092   0.124   4.290  16.122  0.4277  0.6625  1.4041
  614TMC3    C1 9093   0.065   4.448  15.961 -0.1412 -0.2344 -0.2528
  614TMC3    C2 9094   0.141   4.342  15.928 -0.0003 -0.1638  0.7395
  614TMC3    C3 9095   0.124   4.283  15.808 -0.2609  0.2285  0.1727
  614TMC3    C4 9096   4.714   4.504  15.865 -0.1897 -0.1684 -0.7236
  614TMC3    C5 9097   4.702   4.452  15.736 -0.2033  0.1832 -0.0096
  614TMC3    C6 9098   0.048   4.341  15.704 -0.7444  0.1589  0.4051
  614TMC3     C 9099   0.009   4.456  16.090 -0.2277 -0.2209 -0.7542
  614TMC3     O 9100   4.651   4.542  16.109 -0.3131 -0.1959 -0.4338
  614TMC3     H 9101   0.222   4.304  15.989  0.1678 -1.5879 -0.3548
  614TMC3    H1 9102   4.648   4.586  15.888 -0.7297 -0.5322 -0.9916
  614TMC3    H2 9103   0.032   4.299  15.605  1.8977  1.8386 -0.7286
  614TMC3    C7 9104   4.624   4.523  15.638 -0.0144 -0.4076  0.7192
  614TMC3    C8 9105   0.140   4.135  15.820  0.3279  0.2508  0.5741
  614TMC3    O1 9106   4.637   4.643  15.633  0.1215 -0.4417  0.6747
  614TMC3    O2 9107   0.173   4.099  15.934 -0.2583 -0.2249 -0.1098
  615MPD2     C 9108   3.940   0.473  15.575 -0.3028 -0.0328  0.0243
  615MPD2    C1 9109   3.925   0.608  15.565  0.4045  0.0558 -0.0532
  615MPD2    C2 9110   3.819   0.656  15.486  0.4973  0.1616 -0.4763
  615MPD2    C3 9111   3.742   0.570  15.404 -0.3942 -0.7574 -0.9435
  615MPD2    C4 9112   3.762   0.439  15.416 -0.7207 -0.1655 -0.6114
  615MPD2    C5 9113   3.857   0.394  15.505 -0.5054 -0.2189  0.9026
  615MPD2     H 9114   3.806   0.762  15.469 -1.0916  0.2421  1.1386
  615MPD2    H1 9115   3.728   0.357  15.354  1.6916 -1.6872  0.0554
  615MPD2    H2 9116   4.016   0.418  15.629 -1.3194 -1.6079 -0.1511
  615MPD2    H3 9117   3.885   0.290  15.491 -0.7721  0.0614 -1.8423
  615MPD2     N 9118   3.662   0.631  15.306 -0.1444  0.0515 -0.4148
  615MPD2    H5 9119   3.666   0.733  15.303 -2.2289  0.1658  0.9348
  615MPD2    N1 9120   4.005   0.702  15.638  0.0474 -0.2025  0.1743
  615MPD2    H7 9121   3.973   0.798  15.630 -1.9550 -0.7855  1.3270
  616TMC3    C1 9122   4.160   0.783  15.802 -0.0406  0.1404 -0.6902
  616TMC3    C2 9123   4.280   0.770  15.862 -0.0043  0.7553 -0.1892
  616TMC3    C3 9124   4.304   0.843  15.976 -0.1634  0.2736  0.3858
  616TMC3    C4 9125   4.059   0.848  15.863  0.4803  1.1354 -0.1480
  616TMC3    C5 9126   4.079   0.914  15.981  0.1251 -0.1084  0.0564
  616TMC3    C6 9127   4.206   0.920  16.037  0.6770 -0.6114  1.0901
  616TMC3     C 9128   4.119   0.675  15.717 -0.5273  0.0697  0.8710
  616TMC3     O 9129   4.170   0.563  15.737 -0.3908  0.1922  0.4148
  616TMC3     H 9130   4.345   0.703  15.808  0.8323  1.4002  0.0260
  616TMC3    H1 9131   3.961   0.829  15.821  0.8552 -1.0673 -0.0032
  616TMC3    H2 9132   4.240   0.950  16.136 -1.0615 -1.1073  1.8292
  616TMC3    C7 9133   3.965   0.969  16.049  0.4260 -0.8553 -1.0843
  616TMC3    C8 9134   4.440   0.850  16.025  0.0670 -0.4392 -0.0605
  616TMC3    O1 9135   3.853   0.952  16.001 -0.5547  0.0318  0.0027
  616TMC3    O2 9136   4.507   0.761  15.978  0.5366  0.5947  0.0263
  617MPD2     C 9137   1.996   3.715  13.597  0.2107  0.0405 -0.0562
  617MPD2    C1 9138   2.034   3.690  13.730  0.1920  0.0380 -0.2750
  617MPD2    C2 9139   1.943   3.687  13.835 -0.3517 -0.2421 -0.1839
  617MPD2    C3 9140   1.813   3.715  13.807 -0.5904 -0.6063 -0.0077
  617MPD2    C4 9141   1.780   3.743  13.671 -0.1791 -0.4673  0.4902
  617MPD2    C5 9142   1.863   3.748  13.567  0.1951  0.1846  0.0763
  617MPD2     H 9143   1.972   3.660  13.937 -2.4214 -1.5368  0.0579
  617MPD2    H1 9144   1.680   3.779  13.649  0.4157  1.7133  1.3041
  617MPD2    H2 9145   2.069   3.728  13.518 -1.1327  4.1908 -0.6067
  617MPD2    H3 9146   1.827   3.775  13.469 -1.0178 -0.4914  0.3322
  617MPD2     N 9147   1.703   3.694  13.895 -0.2945  0.3248  0.0110
  617MPD2    H5 9148   1.611   3.708  13.855 -0.2175  2.0330  0.4166
  617MPD2    N1 9149   2.173   3.667  13.749 -0.1637 -0.0755 -0.3180
  617MPD2    H7 9150   2.235   3.657  13.669 -1.7875  0.7651 -1.6983
  618TMC3    C1 9151   2.367   3.619  13.870 -0.2503 -0.3719  0.9011
  618TMC3    C2 9152   2.404   3.514  13.802 -0.2537 -0.4091 -0.0805
  618TMC3    C3 9153   2.536   3.506  13.760  0.3087  0.1563 -0.0355
  618TMC3    C4 9154   2.441   3.726  13.908 -0.2992  0.3686  0.4595
  618TMC3    C5 9155   2.570   3.717  13.861 -0.3209  0.3721 -0.7114
  618TMC3    C6 9156   2.625   3.603  13.801 -0.0012  0.2278  0.0785
  618TMC3     C 9157   2.232   3.661  13.871  0.0459 -0.6018  0.5619
  618TMC3     O 9158   2.182   3.665  13.981 -0.2250 -0.3934  0.0924
  618TMC3     H 9159   2.326   3.443  13.778 -1.5913  1.6884 -1.9357
  618TMC3    H1 9160   2.395   3.811  13.957  2.5062  1.5470  1.0645
  618TMC3    H2 9161   2.732   3.601  13.782 -0.3925 -1.8862 -1.8036
  618TMC3    C7 9162   2.643   3.844  13.855  0.2202  0.1431  0.0922
  618TMC3    C8 9163   2.572   3.410  13.658 -1.2073  0.0539  0.1423
  618TMC3    O1 9164   2.668   3.895  13.966  0.5430 -0.1141  0.0576
  618TMC3    O2 9165   2.481   3.370  13.590  0.0620  0.0816 -0.0970
  619MPD2     C 9166   3.645   4.492  13.914 -1.1098 -0.3064  0.3600
  619MPD2    C1 9167   3.650   4.567  13.794 -0.7803  0.2616 -0.0034
  619MPD2    C2 9168   3.560   4.544  13.696 -0.6070  0.9481  0.5722
  619MPD2    C3 9169   3.449   4.458  13.721  1.2048 -0.0050  0.2196
  619MPD2    C4 9170   3.450   4.378  13.839  0.2879 -0.3296  0.1228
  619MPD2    C5 9171   3.542   4.409  13.941  0.4450 -0.3092 -0.4055
  619MPD2     H 9172   3.578   4.602  13.606  1.1831  0.2934  0.5145
  619MPD2    H1 9173   3.375   4.302  13.859 -0.8846  0.8805  0.2729
  619MPD2    H2 9174   3.726   4.505  13.984 -2.6573 -1.0041  2.2857
  619MPD2    H3 9175   3.535   4.350  14.032 -0.1879 -0.0103 -0.2529
  619MPD2     N 9176   3.339   4.432  13.632 -0.1908  0.0414 -0.2665
  619MPD2    H5 9177   3.286   4.347  13.650  0.4494 -0.2227  0.3801
  619MPD2    N1 9178   3.759   4.658  13.764  0.4974 -0.3314  0.9650
  619MPD2    H7 9179   3.744   4.700  13.673 -0.3819 -1.3110  0.6586
  620TMC3    C1 9180   3.968   0.018  13.759  0.1340  0.5966 -0.1328
  620TMC3    C2 9181   3.969   0.007  13.623  0.5303  1.0876 -0.2908
  620TMC3    C3 9182   4.008   0.113  13.548 -0.4124 -0.3396 -0.3414
  620TMC3    C4 9183   4.009   0.133  13.812 -0.5288 -0.5117 -0.2543
  620TMC3    C5 9184   4.049   0.239  13.735 -0.4575 -0.6378  0.2269
  620TMC3    C6 9185   4.044   0.229  13.603 -0.2272  0.6501 -0.3755
  620TMC3     C 9186   3.871   4.676  13.840  0.3773 -0.1087 -0.5071
  620TMC3     O 9187   3.906   4.655  13.958 -0.0518 -1.2538  0.2558
  620TMC3     H 9188   3.917   4.646  13.583 -0.2732  1.1781  0.5597
  620TMC3    H1 9189   3.997   0.157  13.917  1.1088  3.2615 -0.9415
  620TMC3    H2 9190   4.081   0.310  13.541 -0.3806  0.5009 -0.6643
  620TMC3    C7 9191   3.992   0.362  13.777  0.9547 -0.9328  0.8793
  620TMC3    C8 9192   3.902   0.140  13.450  0.2817  0.4011  0.2309
  620TMC3    O1 9193   4.030   0.408  13.883  0.2157 -0.2080  0.1753
  620TMC3    O2 9194   3.873   0.257  13.450  0.0624 -0.0616 -0.5858
  621MPD2     C 9195   4.328   0.135  10.424 -1.0724 -0.3880  0.1745
  621MPD2    C1 9196   4.345   0.114  10.288  1.1747  0.4387  0.9409
  621MPD2    C2 9197   4.348   0.228  10.209 -0.1602 -0.3086 -0.4322
  621MPD2    C3 9198   4.327   0.356  10.263 -0.3924  0.3362  0.6687
  621MPD2    C4 9199   4.289   0.366  10.398 -0.1666 -0.0924  0.1091
  621MPD2    C5 9200   4.302   0.256  10.478  0.8157 -0.6981  0.0845
  621MPD2     H 9201   4.372   0.212  10.105 -0.7618 -1.5304 -0.3879
  621MPD2    H1 9202   4.256   0.455  10.450  1.1450  1.4417 -1.6621
  621MPD2    H2 9203   4.341   0.053  10.494 -0.9281 -1.6584 -1.3412
  621MPD2    H3 9204   4.280   0.267  10.583 -1.0973 -1.3582 -0.2332
  621MPD2     N 9205   4.345   0.470  10.182  0.6367  0.4574 -0.5957
  621MPD2    H5 9206   4.385   0.467  10.089  0.5235  1.0263 -0.6666
  621MPD2    N1 9207   4.342   4.708  10.233  0.2125 -0.0458  0.0694
  621MPD2    H7 9208   4.318   4.706  10.134  1.9677  1.3243 -0.3817
  622TMC3    C1 9209   4.289   4.474  10.232 -0.2383  0.5930  0.9318
  622TMC3    C2 9210   4.225   4.387  10.312 -0.6441 -0.6580  0.9864
  622TMC3    C3 9211   4.161   4.282  10.258 -0.2083  0.1700 -0.1575
  622TMC3    C4 9212   4.296   4.454  10.098 -0.1310  0.1256  0.2689
  622TMC3    C5 9213   4.248   4.339  10.050  0.3035 -0.8514  0.4538
  622TMC3    C6 9214   4.186   4.249  10.128 -0.0030  0.8474 -0.0374
  622TMC3     C 9215   4.361   4.584  10.298 -0.2303 -0.7069  0.2700
  622TMC3     O 9216   4.405   4.570  10.409 -0.3132 -0.0448 -0.5035
  622TMC3     H 9217   4.214   4.402  10.419  0.1221 -0.9884  1.1083
  622TMC3    H1 9218   4.345   4.526  10.034  1.5655 -2.2162 -1.0881
  622TMC3    H2 9219   4.154   4.155  10.085 -0.1594  1.7395 -1.8682
  622TMC3    C7 9220   4.190   4.337   9.922 -0.4790  0.2090  0.5964
  622TMC3    C8 9221   4.020   4.279  10.266 -0.1260  0.1676  0.0730
  622TMC3    O1 9222   4.169   4.230   9.873  0.8505  0.7937  0.2657
  622TMC3    O2 9223   3.962   4.188  10.208  0.5428  0.1798 -0.0540
  623MPD2     C 9224   2.445   1.154  15.447  0.2181 -0.1656 -0.0621
  623MPD2    C1 9225   2.363   1.085  15.534 -0.1160  0.9620  0.4815
  623MPD2    C2 9226   2.411   1.049  15.659  0.3681 -0.3560  0.0998
  623MPD2    C3 9227   2.529   1.101  15.702 -0.0408 -0.0792  0.1666
  623MPD2    C4 9228   2.604   1.181  15.616  0.2082 -0.0257  0.2320
  623MPD2    C5 9229   2.563   1.210  15.491 -0.2100  0.3612  0.5013
  623MPD2     H 9230   2.353   0.988  15.727 -0.3001  0.1102 -0.0492
  623MPD2    H1 9231   2.690   1.234  15.655 -0.8828  2.2708 -0.4838
  623MPD2    H2 9232   2.422   1.164  15.342  3.2074  1.5224 -0.5607
  623MPD2    H3 9233   2.628   1.268  15.427 -1.2535  0.1610 -0.7496
  623MPD2     N 9234   2.577   1.053  15.828 -0.4187  0.7739 -0.1751
  623MPD2    H5 9235   2.525   0.975  15.867 -0.9391  1.4661  0.5146
  623MPD2    N1 9236   2.240   1.020  15.499  0.3411  0.1726 -0.0176
  623MPD2    H7 9237   2.207   0.965  15.577 -1.2589 -2.1529 -2.3198
  624TMC3    C1 9238   2.898   0.995  16.184 -0.4572 -0.0629 -0.9501
  624TMC3    C2 9239   2.803   0.946  16.268 -0.4609  0.3440  0.0995
  624TMC3    C3 9240   2.677   0.931  16.216  0.0699 -0.2821  0.2674
  624TMC3    C4 9241   2.863   1.041  16.058 -0.1674 -0.9089  0.3806
  624TMC3    C5 9242   2.736   1.023  16.012  0.3121 -0.6111 -0.0762
  624TMC3    C6 9243   2.641   0.966  16.086 -0.1460 -1.1931 -0.0223
  624TMC3     C 9244   3.029   0.993  16.237 -0.1938 -0.8536 -0.3691
  624TMC3     O 9245   3.039   1.009  16.357 -0.1726  0.2910  0.1276
  624TMC3     H 9246   2.832   0.910  16.366 -0.2212 -0.6484 -0.3288
  624TMC3    H1 9247   2.939   1.080  15.991  1.6038 -4.0761  0.5450
  624TMC3    H2 9248   2.542   0.941  16.050  0.5495 -0.9255 -2.1505
  624TMC3    C7 9249   2.703   1.086  15.882 -0.5060 -0.0314  0.5853
  624TMC3    C8 9250   2.573   0.870  16.292 -0.2307  1.1413  0.4374
  624TMC3    O1 9251   2.789   1.165  15.844  0.1713 -0.4528 -0.0859
  624TMC3    O2 9252   2.455   0.897  16.258 -0.9476  0.0995 -0.0303
  625MPD2     C 9253   3.430   1.879   0.663 -0.5421  0.6783  0.2543
  625MPD2    C1 9254   3.504   1.994   0.665 -0.1666 -0.0075  0.4664
  625MPD2    C2 9255   3.631   2.001   0.714  0.0794  0.1117  0.0852
  625MPD2    C3 9256   3.681   1.881   0.767 -0.0052 -0.5343  0.7157
  625MPD2    C4 9257   3.612   1.771   0.777 -0.1566  0.2069 -0.1791
  625MPD2    C5 9258   3.484   1.765   0.718  0.3054  0.3004  0.3340
  625MPD2     H 9259   3.690   2.091   0.703  0.5026 -0.4364 -2.1870
  625MPD2    H1 9260   3.654   1.682   0.822 -1.1195 -1.4642 -2.5585
  625MPD2    H2 9261   3.332   1.872   0.618  0.5506  1.2434 -2.1660
  625MPD2    H3 9262   3.412   1.684   0.726  0.2909  0.3150  0.3514
  625MPD2     N 9263   3.815   1.896   0.823 -0.7265 -0.2225 -0.6621
  625MPD2    H5 9264   3.854   1.986   0.799 -0.5368 -0.5167 -1.4456
  625MPD2    N1 9265   3.452   2.116   0.616  0.0759 -0.2646  0.6973
  625MPD2    H7 9266   3.501   2.202   0.637 -0.8338 -0.1561  2.3299
  626TMC3    C1 9267   3.285   2.261   0.537 -0.1581 -0.1112  0.3282
  626TMC3    C2 9268   3.201   2.293   0.439 -0.0808 -0.7115  0.1966
  626TMC3    C3 9269   3.117   2.403   0.452 -0.8521 -0.6118  0.2687
  626TMC3    C4 9270   3.272   2.322   0.662 -0.2750 -0.6283  0.0642
  626TMC3    C5 9271   3.186   2.424   0.672 -0.7674  0.9572  0.0643
  626TMC3    C6 9272   3.118   2.468   0.570  0.5943 -0.3780  0.6019
  626TMC3     C 9273   3.339   2.124   0.540  0.1672  0.2527  0.4195
  626TMC3     O 9274   3.291   2.037   0.464  0.1811 -0.7258  0.0545
  626TMC3     H 9275   3.199   2.229   0.352 -3.5726  0.9513 -0.9528
  626TMC3    H1 9276   3.325   2.288   0.750 -0.2723 -2.3952 -0.6255
  626TMC3    H2 9277   3.053   2.554   0.577  1.4947  0.1514  2.5245
  626TMC3    C7 9278   3.172   2.489   0.800 -0.1189 -0.3047 -0.8385
  626TMC3    C8 9279   3.054   2.457   0.335  0.2294 -0.6001 -0.0998
  626TMC3    O1 9280   3.262   2.475   0.881 -0.2925 -0.0403 -0.1097
  626TMC3    O2 9281   3.111   2.445   0.227 -0.5217  0.4805  1.1020
  627MPD2     C 9282   1.254   2.618  14.445 -0.9212  0.1135 -0.2626
  627MPD2    C1 9283   1.256   2.576  14.575 -0.2974 -0.4746 -0.2850
  627MPD2    C2 9284   1.162   2.487  14.622  0.2555 -0.1060 -0.0535
  627MPD2    C3 9285   1.066   2.432  14.535 -0.1205 -0.2147 -0.2240
  627MPD2    C4 9286   1.057   2.484  14.406 -0.5126  0.0255 -0.5724
  627MPD2    C5 9287   1.158   2.571  14.361 -0.6883  0.2298 -0.4073
  627MPD2     H 9288   1.161   2.456  14.725 -0.4053 -0.6479 -0.2310
  627MPD2    H1 9289   0.975   2.465  14.337 -2.4662  0.0796  1.7253
  627MPD2    H2 9290   1.315   2.698  14.405  1.5071 -1.6714 -0.1816
  627MPD2    H3 9291   1.147   2.611  14.261  0.5286  0.6967 -0.3530
  627MPD2     N 9292   0.969   2.338  14.580 -0.0667  0.7274  0.2861
  627MPD2    H5 9293   0.970   2.304  14.676  1.1464  0.0178  0.0301
  627MPD2    N1 9294   1.347   2.617  14.667 -0.0934 -0.0050  0.0010
  627MPD2    H7 9295   1.355   2.564  14.753 -0.9467 -1.7254 -0.9494
  628TMC3    C1 9296   1.516   2.759  14.759  0.1266  0.1029  0.5738
  628TMC3    C2 9297   1.599   2.660  14.794 -0.2254  0.1779 -0.0119
  628TMC3    C3 9298   1.717   2.686  14.852 -0.4869  0.4014 -0.0804
  628TMC3    C4 9299   1.544   2.892  14.792  0.0921  0.3148  0.7233
  628TMC3    C5 9300   1.666   2.920  14.854 -0.2892 -0.0836  0.5364
  628TMC3    C6 9301   1.755   2.819  14.888 -0.4707  0.0906  0.2567
  628TMC3     C 9302   1.422   2.732  14.647 -0.3382 -0.9859  0.1698
  628TMC3     O 9303   1.411   2.822  14.565  0.1515 -0.0032  0.7388
  628TMC3     H 9304   1.583   2.556  14.767 -2.4378  0.3230  0.7578
  628TMC3    H1 9305   1.478   2.976  14.770  0.3125  0.0298 -1.0101
  628TMC3    H2 9306   1.845   2.829  14.947 -0.1097  0.7262 -0.4042
  628TMC3    C7 9307   1.723   3.059  14.855  0.9036 -0.2689  0.8410
  628TMC3    C8 9308   1.812   2.577  14.872 -0.6239  0.2288 -0.1106
  628TMC3    O1 9309   1.837   3.070  14.903 -0.2170  0.8144  0.2755
  628TMC3    O2 9310   1.766   2.467  14.898  0.2266  0.1881 -0.1988
  629MPD2     C 9311   0.121   0.958  16.296  0.0813 -0.6397 -0.1452
  629MPD2    C1 9312   0.053   1.079  16.287  0.8768  0.6187  0.5150
  629MPD2    C2 9313   4.660   1.080  16.216  0.7166 -0.3821 -0.6816
  629MPD2    C3 9314   4.612   0.965  16.161  0.2083 -0.3568  0.4593
  629MPD2    C4 9315   4.684   0.851  16.180  0.6047 -0.7097  0.1407
  629MPD2    C5 9316   0.074   0.843  16.248  0.3886 -0.3928  0.3826
  629MPD2     H 9317   4.604   1.172  16.203  2.4982  0.6409 -1.1969
  629MPD2    H1 9318   4.644   0.755  16.151 -3.6875  0.5606  1.9380
  629MPD2    H2 9319   0.209   0.951  16.359  0.1666  1.5032 -0.0220
  629MPD2    H3 9320   0.124   0.750  16.269 -1.1450 -1.3889 -0.3734
  629MPD2     N 9321   4.482   0.959  16.105 -0.2141  0.0013  0.7982
  629MPD2    H5 9322   4.421   1.039  16.118 -0.3313  0.0657 -0.1092
  629MPD2    N1 9323   0.101   1.177  16.373 -0.4275  0.0566 -0.4283
  629MPD2    H7 9324   0.186   1.156  16.424 -1.0725  1.0593  1.0643
  630TMC3    C1 9325   0.138   1.398  16.448 -0.6788 -0.2533 -0.2550
  630TMC3    C2 9326   0.172   1.525  16.415 -0.1323 -0.8650 -0.0127
  630TMC3    C3 9327   0.276   1.576  16.490  0.5151  0.4199 -0.3775
  630TMC3    C4 9328   0.195   1.331  16.558  0.2272 -0.3781  0.3056
  630TMC3    C5 9329   0.286   1.392  16.628 -0.1131  0.6214 -0.0393
  630TMC3    C6 9330   0.327   1.511  16.596  0.5210  0.1487  0.3530
  630TMC3     C 9331   0.069   1.309  16.362 -0.4807 -0.2890  0.6458
  630TMC3     O 9332   0.013   1.362  16.265 -0.0914 -0.7912 -0.0172
  630TMC3     H 9333   0.129   1.578  16.331  0.9572  1.0213  0.6294
  630TMC3    H1 9334   0.147   1.241  16.594 -2.8730  0.4808 -1.6108
  630TMC3    H2 9335   0.416   1.553  16.641 -1.4836  1.7711  2.8500
  630TMC3    C7 9336   0.307   1.342  16.764 -0.3555 -0.3892  0.4371
  630TMC3    C8 9337   0.330   1.710  16.463  0.4959  0.2813  0.5385
  630TMC3    O1 9338   0.337   1.422  16.854  0.0813  0.1208 -0.3469
  630TMC3    O2 9339   0.414   1.757  16.538  0.2598 -0.3867  0.3013
  631MPD2     C 9340   2.783   0.855  14.961 -0.2241 -0.8229 -0.5598
  631MPD2    C1 9341   2.853   0.915  14.861 -0.2579  0.2244  0.0065
  631MPD2    C2 9342   2.986   0.869  14.850 -1.0222  0.6329 -0.3792
  631MPD2    C3 9343   3.045   0.770  14.915  0.2264 -0.2572  0.1088
  631MPD2    C4 9344   2.966   0.700  15.007 -0.0990  0.7671 -0.3383
  631MPD2    C5 9345   2.835   0.745  15.029  1.1368 -0.2211  0.2558
  631MPD2     H 9346   3.045   0.913  14.771 -0.5021 -1.6216 -1.2406
  631MPD2    H1 9347   3.004   0.625  15.075  1.8133  0.9596 -1.1997
  631MPD2    H2 9348   2.685   0.890  14.992 -0.0956 -0.6912 -0.2953
  631MPD2    H3 9349   2.774   0.707  15.110 -0.1802  1.3681  0.0145
  631MPD2     N 9350   3.176   0.741  14.878 -0.1198  0.2225 -0.1827
  631MPD2    H5 9351   3.219   0.818  14.827 -0.0921  2.1461  2.7283
  631MPD2    N1 9352   2.787   1.021  14.795 -0.1832  0.0662  0.3433
  631MPD2    H7 9353   2.690   1.043  14.815 -0.5508  0.5255 -1.8869
  632TMC3    C1 9354   2.774   1.212  14.661  0.4656 -0.7217 -1.1149
  632TMC3    C2 9355   2.685   1.261  14.750 -0.9854  0.1748  0.3466
  632TMC3    C3 9356   2.687   1.391  14.787 -0.2927 -0.8134 -0.5770
  632TMC3    C4 9357   2.850   1.305  14.583 -0.6246 -0.4054 -0.0056
  632TMC3    C5 9358   2.858   1.430  14.636 -0.7615  0.4359  0.6060
  632TMC3    C6 9359   2.781   1.473  14.737 -0.6726  0.2882 -0.7633
  632TMC3     C 9360   2.856   1.106  14.706  0.1658 -0.2938 -0.6709
  632TMC3     O 9361   2.972   1.099  14.667 -0.0857 -0.1966  0.0660
  632TMC3     H 9362   2.595   1.205  14.775 -0.4257 -1.4891 -1.3334
  632TMC3    H1 9363   2.933   1.280  14.518 -0.9046 -2.5138  0.4473
  632TMC3    H2 9364   2.790   1.576  14.768  0.5081  0.2397 -0.9297
  632TMC3    C7 9365   2.982   1.500  14.627  0.6405  0.2185  0.5315
  632TMC3    C8 9366   2.594   1.439  14.888  0.1484  0.1705  0.5247
  632TMC3    O1 9367   3.018   1.568  14.718  0.0033 -0.0253 -0.0879
  632TMC3    O2 9368   2.496   1.369  14.894 -0.3408 -0.1211  0.1517
  633MPD2     C 9369   2.253   3.596  16.717  1.0416  0.0734  0.0981
  633MPD2    C1 9370   2.385   3.589  16.740  0.1277 -0.3336 -0.1258
  633MPD2    C2 9371   2.453   3.470  16.748  0.2351  0.0358  0.6769
  633MPD2    C3 9372   2.380   3.357  16.720  0.1699 -0.0633 -0.1347
  633MPD2    C4 9373   2.249   3.366  16.686 -0.0018  0.5326  0.2309
  633MPD2    C5 9374   2.188   3.480  16.683  0.1661  0.4626 -0.3805
  633MPD2     H 9375   2.559   3.474  16.768  0.3533  0.7487 -0.1135
  633MPD2    H1 9376   2.200   3.270  16.677  0.4346  0.2667  0.6788
  633MPD2    H2 9377   2.187   3.682  16.718  0.8271 -0.0641 -1.9427
  633MPD2    H3 9378   2.083   3.485  16.657  0.0490  0.6737  0.1271
  633MPD2     N 9379   2.435   3.232  16.727  0.4552  0.2532  0.0484
  633MPD2    H5 9380   2.384   3.153  16.688  1.0079 -0.9809  1.8117
  633MPD2    N1 9381   2.471   3.702  16.756  0.1260  0.1032 -0.4139
  633MPD2    H7 9382   2.568   3.677  16.767  0.1586  1.2544  1.9622
  634TMC3    C1 9383   2.537   3.926  16.713 -0.3033 -0.3962 -0.2189
  634TMC3    C2 9384   2.638   3.877  16.632 -0.6843 -0.3311  0.6427
  634TMC3    C3 9385   2.697   3.968  16.553 -0.0544 -0.6406  0.6382
  634TMC3    C4 9386   2.510   4.061  16.723  0.9960 -0.6449  0.4376
  634TMC3    C5 9387   2.589   4.149  16.655 -0.4187 -0.0499  0.6573
  634TMC3    C6 9388   2.687   4.102  16.566  0.1852  0.1992 -0.0414
  634TMC3     C 9389   2.431   3.831  16.743  0.2708 -0.1542 -0.0299
  634TMC3     O 9390   2.319   3.884  16.734  0.0779 -0.1549  0.0544
  634TMC3     H 9391   2.660   3.777  16.596 -0.6453  0.0511 -0.4114
  634TMC3    H1 9392   2.426   4.087  16.786 -0.6034 -0.6633 -1.6873
  634TMC3    H2 9393   2.755   4.173  16.519  0.2846  0.1871  0.0865
  634TMC3    C7 9394   2.520   4.276  16.622  0.2326 -0.0761  0.1455
  634TMC3    C8 9395   2.806   3.921  16.472  0.3004 -0.1496 -1.2795
  634TMC3    O1 9396   2.569   4.333  16.525 -1.1114 -0.7594  0.1160
  634TMC3    O2 9397   2.865   3.818  16.505  0.0032  0.2216 -0.6853
  635TMC3    C1 9398   2.842   0.058   0.142  0.3440 -0.3407 -0.0853
  635TMC3    C2 9399   2.844   0.079   0.279  0.0653  0.0232 -0.0103
  635TMC3    C3 9400   2.725   0.119   0.340  0.2376  0.7592  0.4387
  635TMC3    C4 9401   2.742   0.100   0.063  0.0529  1.0413  0.1353
  635TMC3    C5 9402   2.636   0.163   0.125 -0.8458 -0.3490 -0.3687
  635TMC3    C6 9403   2.620   0.154   0.259 -0.0596  0.5885 -0.0210
  635TMC3     C 9404   2.972   0.075   0.085  0.5765 -0.8946 -0.1095
  635TMC3     O 9405   3.066   0.062   0.156  0.4039 -0.4702  0.3356
  635TMC3     H 9406   2.932   0.055   0.336 -0.5227 -0.1242  0.8355
  635TMC3    H1 9407   2.728   0.066  17.661 -2.6228  2.2933  0.0895
  635TMC3    H2 9408   2.530   0.192   0.306  0.5004  1.2742  0.5067
  635TMC3    C7 9409   2.527   0.211   0.048 -0.0276 -0.0054 -0.3119
  635TMC3    C8 9410   2.715   0.149   0.482  0.0598 -0.1070  0.6062
  635TMC3    O1 9411   2.531   0.177  17.629  0.2350  0.2189  0.9415
  635TMC3    O2 9412   2.611   0.204   0.522  0.6282  0.2662  0.0125
  636MPD2     C 9413   4.093   4.173  15.876 -0.1976  0.2374  0.3650
  636MPD2    C1 9414   4.104   4.185  16.014 -0.4194 -0.1277  0.2295
  636MPD2    C2 9415   4.195   4.100  16.083  0.3057 -0.0360  0.0304
  636MPD2    C3 9416   4.289   4.025  16.016  0.1793  0.3620  0.2170
  636MPD2    C4 9417   4.273   4.025  15.880  0.1924 -0.1626 -0.1381
  636MPD2    C5 9418   4.178   4.088  15.814 -0.1798 -0.3223  0.5582
  636MPD2     H 9419   4.193   4.087  16.191 -0.0677  0.8853  0.1375
  636MPD2    H1 9420   4.328   3.957  15.816  0.3987  0.2360 -0.3799
  636MPD2    H2 9421   4.013   4.217  15.817  1.4176  0.0092 -2.0231
  636MPD2    H3 9422   4.170   4.066  15.709  0.3840 -0.2642  0.5050
  636MPD2     N 9423   4.382   3.945  16.092  0.4790 -0.1877 -0.0053
  636MPD2    H5 9424   4.387   3.940  16.193 -1.4482 -2.8506 -0.0377
  636MPD2    N1 9425   4.037   4.276  16.096  0.2031 -0.1458  0.1929
  636MPD2    H7 9426   4.038   4.274  16.198  0.7863 -0.0626  0.1900
  637TMC3    C1 9427   4.580   3.808  16.109  0.1793 -0.1132 -0.3197
  637TMC3    C2 9428   4.614   3.864  16.227 -0.4256 -0.0014 -0.1058
  637TMC3    C3 9429   0.014   3.851  16.281 -0.4985  0.2382 -0.8336
  637TMC3    C4 9430   4.679   3.734  16.049 -0.2083 -0.2244 -0.3585
  637TMC3    C5 9431   0.085   3.725  16.103  0.2465 -0.1032 -0.6711
  637TMC3    C6 9432   0.115   3.779  16.221  0.9674 -0.2168 -0.1737
  637TMC3     C 9433   4.479   3.870  16.029 -0.4594 -0.0851 -0.2988
  637TMC3     O 9434   4.493   3.859  15.911  0.3042 -0.4340 -0.2449
  637TMC3     H 9435   4.544   3.930  16.277  1.3765  0.7219  1.4829
  637TMC3    H1 9436   4.654   3.682  15.957 -1.4488 -0.6938  0.2478
  637TMC3    H2 9437   0.217   3.765  16.253  0.9311  0.2865  0.1579
  637TMC3    C7 9438   0.187   3.639  16.041  0.7149  0.2486  0.2253
  637TMC3    C8 9439   0.048   3.902  16.415  0.3760 -0.2093  0.2985
  637TMC3    O1 9440   0.251   3.573  16.120 -0.3210  0.0226 -0.0709
  637TMC3    O2 9441   0.131   3.832  16.472 -0.0943 -0.1869  0.2044
  638MPD2     C 9442   3.633   2.927  14.544 -0.1657  0.3349 -0.1399
  638MPD2    C1 9443   3.680   2.815  14.599  0.3286 -0.0194 -0.8955
  638MPD2    C2 9444   3.632   2.780  14.725  0.6016 -0.3498 -0.4639
  638MPD2    C3 9445   3.528   2.846  14.791  0.1813 -0.0902 -0.0441
  638MPD2    C4 9446   3.497   2.971  14.732  0.2307 -0.3768  0.0477
  638MPD2    C5 9447   3.544   3.007  14.614 -0.0965 -0.3801  0.0085
  638MPD2     H 9448   3.676   2.692  14.769  2.4919  1.7913  1.9074
  638MPD2    H1 9449   3.427   3.035  14.785 -0.6994 -0.8608 -0.6015
  638MPD2    H2 9450   3.655   2.957  14.442 -0.1199 -1.5872 -0.6960
  638MPD2    H3 9451   3.506   3.100  14.573 -2.6431 -0.7314  1.5793
  638MPD2     N 9452   3.495   2.805  14.925 -0.1923  0.0358  0.1993
  638MPD2    H5 9453   3.535   2.716  14.953  1.0588  0.9031  1.1585
  638MPD2    N1 9454   3.768   2.737  14.521  0.3074 -0.7407 -0.3360
  638MPD2    H7 9455   3.797   2.772  14.430 -0.8462  0.5322 -0.2084
  639TMC3    C1 9456   3.381   2.773  15.119 -0.0436 -0.1328 -0.3558
  639TMC3    C2 9457   3.253   2.744  15.143  0.4925 -0.0886  0.2262
  639TMC3    C3 9458   3.221   2.652  15.241  0.0576  0.0404 -0.5645
  639TMC3    C4 9459   3.487   2.702  15.181 -0.0014 -0.4351 -0.1048
  639TMC3    C5 9460   3.451   2.603  15.264  0.2488  0.7366 -0.6496
  639TMC3    C6 9461   3.323   2.583  15.301 -0.3277  0.6093  0.9725
  639TMC3     C 9462   3.406   2.856  15.007  0.0774  0.2788  0.4387
  639TMC3     O 9463   3.324   2.944  14.979 -0.2053 -0.2111  0.2203
  639TMC3     H 9464   3.180   2.799  15.084  0.6748  0.7848  0.8215
  639TMC3    H1 9465   3.589   2.733  15.158 -0.3714 -0.4835 -1.8109
  639TMC3    H2 9466   3.296   2.502  15.369  0.6551 -1.6597 -1.3564
  639TMC3    C7 9467   3.551   2.526  15.334  0.4851 -0.5782 -0.6487
  639TMC3    C8 9468   3.106   2.569  15.213  0.1913 -0.2684 -0.3756
  639TMC3    O1 9469   3.515   2.450  15.424  0.0199  0.0229  0.2528
  639TMC3    O2 9470   3.126   2.449  15.227 -0.4009 -0.0922 -0.1243
  640MPD2     C 9471   4.656   1.608   9.824 -0.6086 -1.0381  0.1313
  640MPD2    C1 9472   4.717   1.716   9.766 -0.5829 -0.1164  0.8180
  640MPD2    C2 9473   4.692   1.846   9.812 -0.5288  0.1589  0.0162
  640MPD2    C3 9474   4.598   1.866   9.912 -0.0504  0.7201  0.2844
  640MPD2    C4 9475   4.537   1.758   9.969  0.2696 -0.1085  0.2827
  640MPD2    C5 9476   4.576   1.632   9.932  0.6315  0.1972 -0.0227
  640MPD2     H 9477   0.014   1.932   9.766 -0.5030  0.3241  0.3479
  640MPD2    H1 9478   4.456   1.761  10.041 -0.4110  0.2447 -0.4965
  640MPD2    H2 9479   4.667   1.506   9.790 -0.3529 -1.0562  0.2649
  640MPD2    H3 9480   4.528   1.548   9.979 -1.6002  0.2367 -2.1785
  640MPD2     N 9481   4.546   1.995   9.941  0.1669  0.2469 -0.2416
  640MPD2    H5 9482   4.471   1.984  10.007  0.6681 -1.1138  0.0972
  640MPD2    N1 9483   0.067   1.694   9.646 -0.3559 -0.5348  0.2664
  640MPD2    H7 9484   0.046   1.602   9.609 -1.1951 -0.4937  0.6409
  641TMC3    C1 9485   0.209   1.737   9.452 -0.6541  0.2655 -0.2706
  641TMC3    C2 9486   0.241   1.604   9.435  0.5326 -0.2953  0.4759
  641TMC3    C3 9487   0.338   1.562   9.349  0.2758 -0.6716 -0.3818
  641TMC3    C4 9488   0.277   1.830   9.372 -0.0481  0.2189  1.3644
  641TMC3    C5 9489   0.363   1.784   9.276  0.3250  0.4081  0.5944
  641TMC3    C6 9490   0.398   1.654   9.263 -1.3284 -0.6416 -0.4442
  641TMC3     C 9491   0.146   1.787   9.575  0.1935 -0.4755  0.1427
  641TMC3     O 9492   0.183   1.898   9.607 -0.1737  0.0191  0.3571
  641TMC3     H 9493   0.201   1.532   9.505  0.0176 -1.3263 -0.8882
  641TMC3    H1 9494   0.248   1.934   9.376 -1.8418 -0.2191 -0.2118
  641TMC3    H2 9495   0.476   1.610   9.201 -2.0325 -1.2848 -0.8840
  641TMC3    C7 9496   0.424   1.875   9.183 -0.1935 -0.4630 -0.0282
  641TMC3    C8 9497   0.414   1.433   9.371 -0.1878 -0.2810 -1.2549
  641TMC3    O1 9498   0.503   1.835   9.105  0.7498  0.0011  0.4428
  641TMC3    O2 9499   0.506   1.405   9.292  0.0994  1.1382  0.3470
  642TMC3    C1 9500   0.852   3.084  12.123  0.2905  0.4627  1.1436
  642TMC3    C2 9501   0.923   3.144  12.223 -0.2550 -0.0258 -0.6919
  642TMC3    C3 9502   1.024   3.070  12.285 -0.0988  0.1872 -0.2190
  642TMC3    C4 9503   0.866   2.953  12.081 -0.0692  0.2772  0.5559
  642TMC3    C5 9504   0.960   2.882  12.151  0.4485  0.0508 -0.2994
  642TMC3    C6 9505   1.039   2.939  12.249 -0.0426 -0.5997  0.3176
  642TMC3     C 9506   0.734   3.161  12.081 -0.4205 -0.1750 -0.3687
  642TMC3     O 9507   0.702   3.141  11.962 -0.4605 -0.1650 -0.6166
  642TMC3     H 9508   0.916   3.251  12.240 -0.5028 -0.6316  3.1306
  642TMC3    H1 9509   0.802   2.916  12.002 -1.6849 -1.0325  2.4786
  642TMC3    H2 9510   1.107   2.877  12.307  1.4278 -0.4535 -1.2318
  642TMC3    C7 9511   0.930   2.740  12.154 -0.1721 -0.2553  0.4239
  642TMC3    C8 9512   1.105   3.125  12.394 -0.1866 -0.2345  0.4247
  642TMC3    O1 9513   0.917   2.683  12.044  0.0230  0.1782  0.1607
  642TMC3    O2 9514   1.211   3.061  12.412  0.3637 -0.0648  0.1166
  643TMC3    C1 9515   4.611   2.410   0.055 -0.2731 -0.0455  0.2915
  643TMC3    C2 9516   4.528   2.407  17.648  0.5115 -0.2928  0.5133
  643TMC3    C3 9517   4.548   2.327  17.541  0.1388 -0.0059 -0.0839
  643TMC3    C4 9518   4.717   2.321   0.057 -0.4890  0.0022  0.1713
  643TMC3    C5 9519   0.016   2.249  17.647  0.0106 -0.5190  0.0759
  643TMC3    C6 9520   4.656   2.251  17.534 -0.3186  0.6397  0.6198
  643TMC3     C 9521   4.595   2.527   0.142 -0.3539 -0.7053  0.4342
  643TMC3     O 9522   4.529   2.620   0.102 -0.5806  0.1394  0.4813
  643TMC3     H 9523   4.436   2.465  17.643  0.5529 -0.2208  0.5890
  643TMC3    H1 9524   0.054   2.319   0.146 -1.3956  1.9858  0.8538
  643TMC3    H2 9525   4.682   2.196  17.444  0.5904 -1.7308  2.3532
  643TMC3    C7 9526   0.077   2.122  17.687 -0.3135  0.0316 -0.7182
  643TMC3    C8 9527   4.501   2.371  17.414 -0.1736 -0.6120  0.2438
  643TMC3    O1 9528   0.042   2.086   0.101 -0.5431 -0.5323  0.1075
  643TMC3    O2 9529   4.489   2.291  17.324  0.3446  0.5064  0.3836
  644MPD2     C 9530   0.277   2.745   9.323  0.0779  0.0106 -0.5075
  644MPD2    C1 9531   0.411   2.763   9.322 -0.0801  0.3156 -0.7089
  644MPD2    C2 9532   0.473   2.893   9.323 -0.4254 -0.5889  0.8391
  644MPD2    C3 9533   0.395   3.006   9.312 -0.2073  0.6952  0.2714
  644MPD2    C4 9534   0.259   2.986   9.288  0.0698 -0.4956  0.1858
  644MPD2    C5 9535   0.198   2.861   9.306  0.4690 -0.3446 -0.1155
  644MPD2     H 9536   0.581   2.903   9.321 -0.4994  0.1582  0.4694
  644MPD2    H1 9537   0.191   3.069   9.274  1.5522  0.5827 -0.5997
  644MPD2    H2 9538   0.238   2.647   9.349 -0.4684 -0.2947 -2.5086
  644MPD2    H3 9539   0.090   2.853   9.305  0.2743  2.3832 -0.5035
  644MPD2     N 9540   0.465   3.130   9.319 -0.7464 -0.2411 -0.5786
  644MPD2    H5 9541   0.567   3.129   9.316 -0.7251 -1.2780  0.8175
  644MPD2    N1 9542   0.491   2.645   9.339  0.1066 -0.3636  0.5364
  644MPD2    H7 9543   0.441   2.558   9.354 -2.8748  1.4224  0.9514
  645TMC3    C1 9544   0.489   3.355   9.260 -0.2075 -0.3639  0.0449
  645TMC3    C2 9545   0.620   3.339   9.269  0.3793 -0.5430  0.6625
  645TMC3    C3 9546   0.703   3.428   9.208 -0.0677  0.1612  0.4232
  645TMC3    C4 9547   0.435   3.457   9.191  0.1088 -0.1964  0.3055
  645TMC3    C5 9548   0.518   3.553   9.139  0.7996 -0.3464 -0.2266
  645TMC3    C6 9549   0.653   3.539   9.143 -0.1850 -0.5425 -0.6728
  645TMC3     C 9550   0.400   3.248   9.298  0.1362  0.0373  0.1615
  645TMC3     O 9551   0.282   3.268   9.301 -0.2057 -0.1945  0.3145
  645TMC3     H 9552   0.661   3.258   9.328  1.2048 -1.4702 -1.1516
  645TMC3    H1 9553   0.330   3.472   9.172 -0.4218 -3.1136  0.9126
  645TMC3    H2 9554   0.719   3.610   9.095  1.9846 -1.3972  1.0291
  645TMC3    C7 9555   0.462   3.682   9.092  0.0211 -0.7938  0.1929
  645TMC3    C8 9556   0.850   3.415   9.216 -0.0295 -0.6393 -0.0072
  645TMC3    O1 9557   0.350   3.693   9.042 -0.2738 -0.1544 -0.5445
  645TMC3    O2 9558   0.906   3.524   9.199  0.6367 -0.0019 -0.1593
  646MPD2     C 9559   3.665   1.871  14.765 -0.3389 -0.0610  0.6512
  646MPD2    C1 9560   3.592   1.835  14.876 -0.1064  0.1858 -0.1580
  646MPD2    C2 9561   3.455   1.859  14.881  0.0290  0.0471  0.8225
  646MPD2    C3 9562   3.386   1.917  14.776 -0.1922  0.3266 -0.0335
  646MPD2    C4 9563   3.462   1.950  14.663  0.5364  0.6211 -0.9649
  646MPD2    C5 9564   3.599   1.927  14.660 -0.0737  0.2174 -0.2018
  646MPD2     H 9565   3.397   1.830  14.967  2.0608  0.7213  2.4298
  646MPD2    H1 9566   3.419   1.991  14.572 -2.9489 -0.3070  0.2820
  646MPD2    H2 9567   3.772   1.854  14.764 -0.0629  1.6746  1.4813
  646MPD2    H3 9568   3.653   1.946  14.568 -1.8758 -0.4862 -1.4017
  646MPD2     N 9569   3.248   1.931  14.783  0.2661 -0.3353 -0.2448
  646MPD2    H5 9570   3.202   1.909  14.870 -1.8943 -1.5396 -1.7038
  646MPD2    N1 9571   3.660   1.763  14.982  0.2883  0.8383  0.0686
  646MPD2    H7 9572   3.755   1.742  14.953 -0.7080  0.8043 -3.1718
  647TMC3    C1 9573   3.712   1.642  15.171  0.5894 -0.8707  0.4085
  647TMC3    C2 9574   3.692   1.644  15.304  0.4558 -0.2454 -0.0743
  647TMC3    C3 9575   3.768   1.568  15.382  0.0471 -0.0629 -0.6500
  647TMC3    C4 9576   3.821   1.576  15.113  0.1587  0.3377  0.2810
  647TMC3    C5 9577   3.898   1.513  15.201  0.9907 -0.0928  0.2541
  647TMC3    C6 9578   3.881   1.509  15.338 -0.9029 -0.1035 -0.5720
  647TMC3     C 9579   3.605   1.704  15.092  0.6860  0.5507 -0.5464
  647TMC3     O 9580   3.495   1.701  15.141  0.0245 -0.7200  0.3187
  647TMC3     H 9581   3.606   1.693  15.348  0.8783  1.1780 -0.8507
  647TMC3    H1 9582   3.834   1.585  15.006  0.3901 -0.5541  0.2304
  647TMC3    H2 9583   3.950   1.460  15.406 -0.8581 -0.0252 -0.5620
  647TMC3    C7 9584   3.979   1.410  15.145  0.5174 -0.1048  0.8276
  647TMC3    C8 9585   3.714   1.526  15.513 -0.0860 -0.3383 -0.0501
  647TMC3    O1 9586   4.064   1.360  15.214  0.0196 -0.4437  0.7197
  647TMC3    O2 9587   3.665   1.617  15.580  0.0210 -0.6695  0.0318
  648TMC3    C1 9588   3.220   4.137  15.789 -0.2148 -0.3191  1.6657
  648TMC3    C2 9589   3.255   4.016  15.727  0.0364  0.1277  0.7957
  648TMC3    C3 9590   3.181   3.978  15.620 -0.1987 -0.3633 -0.5253
  648TMC3    C4 9591   3.126   4.221  15.737  0.3077 -0.0300  0.1291
  648TMC3    C5 9592   3.061   4.179  15.622  0.4009 -0.0789 -0.5325
  648TMC3    C6 9593   3.083   4.061  15.573  0.4650  0.0509  0.0127
  648TMC3     C 9594   3.266   4.170  15.917 -0.1836 -0.6212 -0.2307
  648TMC3     O 9595   3.288   4.285  15.954  0.2326 -0.0390 -0.1184
  648TMC3     H 9596   3.317   3.940  15.773  0.7010  0.8988  1.1606
  648TMC3    H1 9597   3.106   4.316  15.785 -3.9606 -1.7121  1.7532
  648TMC3    H2 9598   3.029   4.040  15.481  2.9090 -1.9799 -0.9394
  648TMC3    C7 9599   2.948   4.262  15.563 -0.4881 -0.4907 -0.3324
  648TMC3    C8 9600   3.137   3.843  15.607 -0.3451  0.3401 -0.6148
  648TMC3    O1 9601   2.938   4.259  15.442  0.4696 -0.1510  0.1087
  648TMC3    O2 9602   3.016   3.817  15.625  0.4769 -0.1332 -0.0105
  649TMC3    C1 9603   1.795   4.652  12.772 -0.9978 -0.2546  0.0687
  649TMC3    C2 9604   1.926   4.688  12.737  0.6696  0.2941  0.4540
  649TMC3    C3 9605   2.023   4.662  12.826  0.1598 -0.4470  0.1125
  649TMC3    C4 9606   1.767   4.593  12.889 -0.0661 -0.3248  0.4296
  649TMC3    C5 9607   1.872   4.561  12.972  0.1491 -0.1150 -0.2133
  649TMC3    C6 9608   1.995   4.592  12.939 -0.4952 -0.1964  0.6778
  649TMC3     C 9609   1.687   4.724  12.698  0.2048  0.3026  0.3551
  649TMC3     O 9610   1.728   0.100  12.647 -0.0718  0.3617  0.2673
  649TMC3     H 9611   1.934   0.026  12.649 -1.3412 -3.3230 -2.2986
  649TMC3    H1 9612   1.664   4.590  12.924 -0.3512 -0.4161 -0.4051
  649TMC3    H2 9613   2.080   4.557  12.996  1.1666  3.7552  0.6062
  649TMC3    C7 9614   1.841   4.496  13.099  1.1489 -1.0891  0.1164
  649TMC3    C8 9615   2.149   0.007  12.832  0.2898 -0.3742  0.2034
  649TMC3    O1 9616   1.731   4.439  13.098 -0.5498 -0.2338  0.5523
  649TMC3    O2 9617   2.215   0.007  12.938 -0.4158  0.3248 -0.4410
  650TMC3    C1 9618   0.106   2.190  12.594 -0.3792  0.3439  0.0795
  650TMC3    C2 9619   0.110   2.323  12.603 -0.0625  0.3996  0.0480
  650TMC3    C3 9620   0.002   2.397  12.572 -0.0893  0.1130  0.0227
  650TMC3    C4 9621   4.719   2.127  12.549  0.6057 -0.0555  0.0529
  650TMC3    C5 9622   4.618   2.207  12.506  0.0508 -1.4035 -0.2720
  650TMC3    C6 9623   4.617   2.342  12.518  0.1658 -0.1358  0.4828
  650TMC3     C 9624   0.234   2.120  12.588 -0.3735  0.1145  0.2593
  650TMC3     O 9625   0.334   2.198  12.594 -0.1061  0.3502 -0.3334
  650TMC3     H 9626   0.205   2.368  12.629  0.1304  1.2394 -2.1046
  650TMC3    H1 9627   4.712   2.019  12.560  2.4549 -0.1097  0.7154
  650TMC3    H2 9628   4.530   2.402  12.493  0.0637 -0.0919  0.9336
  650TMC3    C7 9629   4.505   2.141  12.449  0.0062  0.9942  0.7281
  650TMC3    C8 9630   0.001   2.544  12.602  0.0308  0.1988  0.0992
  650TMC3    O1 9631   4.481   2.030  12.493  0.0548  0.2861 -0.1791
  650TMC3    O2 9632   0.113   2.595  12.618 -0.1620  0.0407  0.0256
  651MPD2     C 9633   4.108   4.011  10.526 -0.1359 -1.0573 -0.1982
  651MPD2    C1 9634   4.103   4.122  10.610 -0.0482  0.1253 -0.1684
  651MPD2    C2 9635   4.221   4.193  10.630  0.4594  0.1985  0.1746
  651MPD2    C3 9636   4.337   4.168  10.563  0.0136 -0.5193 -0.4629
  651MPD2    C4 9637   4.334   4.070  10.468  0.7626  0.2332  0.1906
  651MPD2    C5 9638   4.229   3.991  10.455  0.0853 -0.0382  0.2800
  651MPD2     H 9639   4.229   4.277  10.698  1.0894  1.7683 -1.8284
  651MPD2    H1 9640   4.422   4.042  10.412  0.4504 -1.0944  0.3657
  651MPD2    H2 9641   4.030   3.940  10.505 -1.6628  0.4219  0.5340
  651MPD2    H3 9642   4.230   3.916  10.377 -1.6527  1.6300 -1.3671
  651MPD2     N 9643   4.449   4.254  10.578 -0.0332 -0.4119  0.0639
  651MPD2    H5 9644   4.450   4.325  10.649  3.2408 -2.9082  2.5444
  651MPD2    N1 9645   3.979   4.175  10.664  0.1936 -0.2863 -0.4451
  651MPD2    H7 9646   3.974   4.253  10.729 -2.9285 -0.0908 -0.9286
  652TMC3    C1 9647   0.143   4.458  10.504 -0.3966 -0.4618  0.2956
  652TMC3    C2 9648   0.068   4.345  10.502 -0.0669  0.4829  0.2961
  652TMC3    C3 9649   4.665   4.351  10.553 -0.0208 -0.1323 -0.0636
  652TMC3    C4 9650   0.107   4.566  10.575 -0.0934  0.2357 -0.5725
  652TMC3    C5 9651   4.699   4.575  10.622 -0.3670  0.0682 -1.0225
  652TMC3    C6 9652   4.615   4.466  10.609  0.3294  0.3232  0.1780
  652TMC3     C 9653   0.286   4.446  10.495 -0.4452 -0.8720 -0.1279
  652TMC3     O 9654   0.323   4.334  10.510 -0.2593  0.0924  0.6309
  652TMC3     H 9655   0.108   4.273  10.432 -0.3528  0.2475  0.3745
  652TMC3    H1 9656   0.174   4.651  10.585  1.3411 -0.8732 -0.7160
  652TMC3    H2 9657   4.510   4.477  10.634  0.6464  1.9124  0.8325
  652TMC3    C7 9658   4.651   4.697  10.691  0.4236 -1.0609  0.2409
  652TMC3    C8 9659   4.570   4.250  10.513  0.1474  0.7969  0.2484
  652TMC3    O1 9660   4.549   4.698  10.762 -0.2610  0.3180  0.0654
  652TMC3    O2 9661   4.602   4.178  10.423 -0.3541 -0.5085  0.3624
  653MPD2     C 9662   2.560   3.956  17.565 -0.0861 -0.5383 -0.7435
  653MPD2    C1 9663   2.480   4.032  17.485  0.6692 -0.6889 -0.2689
  653MPD2    C2 9664   2.379   3.974  17.415 -0.8032 -0.1736 -0.7936
  653MPD2    C3 9665   2.353   3.837  17.424 -0.3190  0.0669  0.3540
  653MPD2    C4 9666   2.425   3.771  17.521  0.4808  0.1429  0.0867
  653MPD2    C5 9667   2.529   3.825  17.588 -0.4195  0.2878  0.2073
  653MPD2     H 9668   2.319   4.028  17.344  2.2189  1.4066 -2.1318
  653MPD2    H1 9669   2.413   3.666  17.543  2.3439 -0.5346 -2.1694
  653MPD2    H2 9670   2.644   4.006  17.612 -1.0061  1.2722 -1.0198
  653MPD2    H3 9671   2.593   3.762  17.649  0.1395  1.5204  0.8926
  653MPD2     N 9672   2.249   3.779  17.347 -0.3571  0.2938 -0.7900
  653MPD2    H5 9673   2.208   3.842  17.279 -3.1323  0.4148  0.9982
  653MPD2    N1 9674   2.483   4.174  17.483 -0.1908 -0.3756 -0.9872
  653MPD2    H7 9675   2.405   4.211  17.429 -0.9761  1.4490  1.4157
  654TMC3    C1 9676   2.153   3.608  17.233 -0.2445  0.2560  0.1644
  654TMC3    C2 9677   2.056   3.695  17.190 -0.7050  0.6611 -0.6983
  654TMC3    C3 9678   1.976   3.648  17.094 -0.2410 -0.2568 -0.2656
  654TMC3    C4 9679   2.162   3.477  17.199  0.9052  0.2925 -0.0184
  654TMC3    C5 9680   2.079   3.434  17.101  0.3455 -0.1072  0.7778
  654TMC3    C6 9681   1.991   3.522  17.046 -0.3303  0.5103 -0.4423
  654TMC3     C 9682   2.232   3.643  17.343 -0.8049  0.3339  0.1372
  654TMC3     O 9683   2.281   3.551  17.409  0.1956 -0.8323 -0.1144
  654TMC3     H 9684   2.033   3.798  17.214 -1.1458  0.7529 -1.5147
  654TMC3    H1 9685   2.232   3.412  17.251  1.0386  0.4298 -0.0246
  654TMC3    H2 9686   1.935   3.496  16.957 -1.0651 -0.5077  0.3274
  654TMC3    C7 9687   2.110   3.321  17.020 -0.5335  0.1074  0.4570
  654TMC3    C8 9688   1.903   3.744  17.018  0.3121  0.4902 -0.1222
  654TMC3    O1 9689   2.044   3.307  16.919 -0.6541  0.5141 -0.0606
  654TMC3    O2 9690   1.847   3.835  17.077  0.1477  0.4363 -0.3567
  655MPD2     C 9691   3.499   4.343  15.485  0.0178 -0.2821  0.9446
  655MPD2    C1 9692   3.410   4.410  15.409  0.3598 -0.4325 -0.2342
  655MPD2    C2 9693   3.417   4.399  15.271 -0.1281  0.7038  0.2377
  655MPD2    C3 9694   3.527   4.339  15.212  0.5765 -0.5084  0.3728
  655MPD2    C4 9695   3.615   4.270  15.292  0.1795 -0.3145  0.9055
  655MPD2    C5 9696   3.602   4.269  15.431  0.5364 -0.1228  0.2543
  655MPD2     H 9697   3.336   4.447  15.217 -0.4680  0.7507  0.7828
  655MPD2    H1 9698   3.688   4.210  15.239 -0.4540  0.6957 -1.1387
  655MPD2    H2 9699   3.512   4.356  15.592 -1.8824 -0.1364  1.1727
  655MPD2    H3 9700   3.671   4.221  15.499  1.8090  3.6572  1.6727
  655MPD2     N 9701   3.544   4.323  15.069 -0.0378 -0.1460  0.2242
  655MPD2    H5 9702   3.626   4.270  15.040 -0.7540 -0.9471 -0.3169
  655MPD2    N1 9703   3.307   4.497  15.462  0.3009 -0.5559 -0.3869
  655MPD2    H7 9704   3.246   4.546  15.397 -0.7139  3.3746  3.4901
  656TMC3    C1 9705   3.189   4.611  15.632 -0.0779 -0.5008 -1.3072
  656TMC3    C2 9706   3.136   4.596  15.755  0.3069  0.6350 -0.4204
  656TMC3    C3 9707   3.014   4.646  15.768  0.0825 -0.3751 -0.2237
  656TMC3    C4 9708   3.123   4.670  15.526 -0.4455  0.2363 -0.1233
  656TMC3    C5 9709   2.994   4.724  15.553  0.3236  0.1966  0.0708
  656TMC3    C6 9710   2.939   4.707  15.672  0.2565  0.1819  0.4700
  656TMC3     C 9711   3.307   4.533  15.596 -0.0090  0.6078  0.7926
  656TMC3     O 9712   3.356   4.480  15.691  0.5250  0.6083  0.0472
  656TMC3     H 9713   3.189   4.557  15.842  3.0793  0.9813 -1.9628
  656TMC3    H1 9714   3.173   4.688  15.431 -0.7207 -0.1922 -0.3511
  656TMC3    H2 9715   2.832   4.715  15.690 -0.5195  0.2086 -4.2162
  656TMC3    C7 9716   2.909   0.007  15.435 -0.8252  1.0831  0.3780
  656TMC3    C8 9717   2.936   4.584  15.880 -0.0511  0.4174  0.3930
  656TMC3    O1 9718   2.959   4.704  15.328  0.7077 -0.0095  0.2080
  656TMC3    O2 9719   2.978   4.474  15.916 -0.2932 -0.0704  1.1674
  657TMC3    C1 9720   2.488   3.785  14.864  0.0688 -0.4580  0.2852
  657TMC3    C2 9721   2.482   3.798  15.002  0.6082  0.2603 -0.2080
  657TMC3    C3 9722   2.418   3.910  15.054 -0.0451  0.0236 -0.2002
  657TMC3    C4 9723   2.436   3.879  14.778 -0.2664 -0.2736  0.9143
  657TMC3    C5 9724   2.370   3.986  14.833 -0.2964  0.0640  0.2055
  657TMC3    C6 9725   2.358   3.999  14.972  0.1032 -0.0584  0.0780
  657TMC3     C 9726   2.545   3.667  14.797 -0.3553 -0.3760  0.3521
  657TMC3     O 9727   2.515   3.636  14.684 -0.6731 -0.2118 -0.0997
  657TMC3     H 9728   2.517   3.719  15.068 -2.3366  0.5525  1.7509
  657TMC3    H1 9729   2.461   3.865  14.673 -0.4926 -3.4313  1.2814
  657TMC3    H2 9730   2.307   4.083  15.017  1.5786  1.1472 -0.4650
  657TMC3    C7 9731   2.310   4.089  14.751  0.5533  0.9019 -0.0647
  657TMC3    C8 9732   2.344   3.894  15.179 -0.3783 -0.7255 -0.3047
  657TMC3    O1 9733   2.322   4.200  14.800  0.4097 -0.2423  0.2607
  657TMC3    O2 9734   2.290   3.994  15.227 -0.3987  0.5248  0.7136
  658MPD2     C 9735   3.550   3.753  14.878  0.3043 -0.3092 -0.4987
  658MPD2    C1 9736   3.576   3.819  14.759 -0.1947  0.0787  0.3257
  658MPD2    C2 9737   3.620   3.742  14.649  1.5033 -0.4130  0.4140
  658MPD2    C3 9738   3.629   3.602  14.659 -0.1698 -0.9207 -0.5598
  658MPD2    C4 9739   3.599   3.547  14.785 -0.4571 -0.1524 -0.1884
  658MPD2    C5 9740   3.561   3.622  14.891 -0.2713 -0.5290 -0.3601
  658MPD2     H 9741   3.649   3.789  14.556 -1.2757 -0.9059 -0.7063
  658MPD2    H1 9742   3.606   3.440  14.801  1.6745 -0.1055 -0.7138
  658MPD2    H2 9743   3.531   3.827  14.955  1.1016 -0.9293  0.3017
  658MPD2    H3 9744   3.540   3.571  14.984 -1.2050 -0.2903 -0.4398
  658MPD2     N 9745   3.647   3.527  14.540 -0.6137 -0.3946  0.2479
  658MPD2    H5 9746   3.665   3.580  14.455 -0.9608  0.4711  0.7284
  658MPD2    N1 9747   3.567   3.962  14.752 -0.0643  0.3817 -0.7555
  658MPD2    H7 9748   3.559   4.017  14.837  1.3293  0.8889 -0.9506
  659TMC3    C1 9749   3.529   4.169  14.677  0.2362 -0.2580 -0.3774
  659TMC3    C2 9750   3.550   4.224  14.800  0.5851  0.6771 -0.5651
  659TMC3    C3 9751   3.468   4.329  14.839  0.2520 -0.1179  0.3103
  659TMC3    C4 9752   3.443   4.228  14.598 -0.7573 -0.2467 -0.2751
  659TMC3    C5 9753   3.362   4.333  14.632  0.3760  1.0060  0.5872
  659TMC3    C6 9754   3.377   4.390  14.753  0.1352  0.3030 -0.5851
  659TMC3     C 9755   3.569   4.037  14.634  0.5661  0.1527 -0.1909
  659TMC3     O 9756   3.547   3.993  14.522 -0.9619  0.8284 -0.2116
  659TMC3     H 9757   3.626   4.182  14.864 -1.6161  0.1098  1.6852
  659TMC3    H1 9758   3.423   4.189  14.498  0.0156  0.6389 -0.7706
  659TMC3    H2 9759   3.304   4.464  14.783  0.2516  1.0591 -2.1817
  659TMC3    C7 9760   3.225   4.324  14.583  0.8729  0.3134 -0.3353
  659TMC3    C8 9761   3.462   4.381  14.976  0.2773  0.4176  0.1159
  659TMC3    O1 9762   3.190   4.206  14.578  0.1849 -0.1164  0.1496
  659TMC3    O2 9763   3.389   4.482  14.982 -0.9019  0.2816  0.6190
  660MPD2     C 9764   2.223   2.889  12.639 -0.1780 -0.0109 -0.5454
  660MPD2    C1 9765   2.087   2.918  12.642  0.6989 -0.4795  0.2643
  660MPD2    C2 9766   2.005   2.855  12.741  0.7446 -0.2453  0.0017
  660MPD2    C3 9767   2.056   2.770  12.826  0.1126  0.3219 -0.2544
  660MPD2    C4 9768   2.192   2.737  12.814  0.6972 -0.5935 -0.7045
  660MPD2    C5 9769   2.272   2.797  12.722 -0.0712  0.6378 -0.2193
  660MPD2     H 9770   1.899   2.876  12.734  0.4112 -1.4452  1.4121
  660MPD2    H1 9771   2.233   2.661  12.879  1.2493 -1.1473 -1.6991
  660MPD2    H2 9772   2.285   2.933  12.561 -0.0440 -1.5866 -1.3267
  660MPD2    H3 9773   2.375   2.764  12.714 -0.5167 -0.2677 -2.2910
  660MPD2     N 9774   1.985   2.723  12.942  0.5874  0.3717 -0.7842
  660MPD2    H5 9775   2.037   2.666  13.008  2.2166  0.0344 -2.3670
  660MPD2    N1 9776   2.039   3.004  12.540  0.6251 -0.7635  0.0169
  660MPD2    H7 9777   2.108   3.044  12.478  0.0291 -0.0349 -0.1832
  661TMC3    C1 9778   1.895   3.148  12.425  0.3139 -0.1095 -0.4582
  661TMC3    C2 9779   1.969   3.124  12.313  0.4479  0.6101 -0.0631
  661TMC3    C3 9780   1.905   3.141  12.187  0.6673  0.0598  0.9772
  661TMC3    C4 9781   1.774   3.203  12.410 -0.0499 -0.1935 -0.6757
  661TMC3    C5 9782   1.724   3.236  12.293 -0.0899  0.4433 -0.1204
  661TMC3    C6 9783   1.781   3.197  12.179  0.0858 -0.1104  0.7057
  661TMC3     C 9784   1.912   3.054  12.534 -1.2289  0.5892  0.1529
  661TMC3     O 9785   1.812   3.031  12.598  0.5848  0.1605  0.1320
  661TMC3     H 9786   2.070   3.084  12.318  1.3744  2.9645  0.4001
  661TMC3    H1 9787   1.718   3.223  12.500  1.3690 -1.1014  0.4171
  661TMC3    H2 9788   1.734   3.208  12.081  0.8541  0.9302  0.4609
  661TMC3    C7 9789   1.593   3.286  12.282  0.5290 -1.0658 -0.2691
  661TMC3    C8 9790   1.993   3.180  12.079 -0.0717 -0.5862 -0.1078
  661TMC3    O1 9791   1.564   3.383  12.354  0.3025 -0.2921  0.7306
  661TMC3    O2 9792   2.094   3.117  12.055 -0.1542  0.2937 -0.1346
  662MPD2     C 9793   2.067   2.831  17.232 -0.4071  0.6569 -0.3189
  662MPD2    C1 9794   2.089   2.745  17.341  0.0719  0.5279  0.5351
  662MPD2    C2 9795   2.001   2.760  17.451  0.2449  0.6380 -0.2067
  662MPD2    C3 9796   1.903   2.854  17.457  1.1139 -0.1336  0.7062
  662MPD2    C4 9797   1.889   2.937  17.345 -0.4768 -0.3920  0.2883
  662MPD2    C5 9798   1.965   2.918  17.232 -0.0216 -0.6399 -0.4592
  662MPD2     H 9799   2.006   2.691  17.534 -1.5554  1.6146  0.7046
  662MPD2    H1 9800   1.805   3.006  17.342  0.0081  0.2065  0.5720
  662MPD2    H2 9801   2.137   2.836  17.150 -0.6100  2.0664 -0.4071
  662MPD2    H3 9802   1.946   2.984  17.147 -1.8977 -0.5944 -0.0172
  662MPD2     N 9803   1.815   2.871  17.562  0.4813  0.1090 -0.2226
  662MPD2    H5 9804   1.725   2.918  17.554  0.2746  0.0702  1.9765
  662MPD2    N1 9805   2.183   2.634  17.334 -0.1650  0.1375  0.1866
  662MPD2    H7 9806   2.181   2.581  17.420 -0.5806  0.5567  0.4299
  663TMC3    C1 9807   2.347   2.497  17.248 -0.0574 -0.4295 -0.1528
  663TMC3    C2 9808   2.358   2.455  17.371  0.5827  0.4958  0.0830
  663TMC3    C3 9809   2.418   2.332  17.387 -0.5463 -0.0967 -0.2948
  663TMC3    C4 9810   2.401   2.428  17.140  0.5684  0.1769 -0.4299
  663TMC3    C5 9811   2.466   2.315  17.159  0.1138 -0.4551  0.7660
  663TMC3    C6 9812   2.467   2.262  17.280  0.0503 -0.5392  0.1607
  663TMC3     C 9813   2.253   2.600  17.220 -0.1657  0.6342  0.3659
  663TMC3     O 9814   2.243   2.644  17.103 -0.2810  0.1289 -0.3983
  663TMC3     H 9815   2.361   2.529  17.451  1.1821  1.6106 -0.9650
  663TMC3    H1 9816   2.393   2.467  17.039  0.0439  0.2577 -0.3603
  663TMC3    H2 9817   2.537   2.180  17.296 -0.4424 -0.8982  0.4759
  663TMC3    C7 9818   2.444   2.215  17.060 -0.1196 -0.1173  0.3942
  663TMC3    C8 9819   2.486   2.308  17.516 -0.5345 -0.2810  0.0215
  663TMC3    O1 9820   2.484   2.229  16.944 -0.6074 -0.3295  0.0443
  663TMC3    O2 9821   2.591   2.245  17.510 -0.2104  0.7142 -0.3040
  664MPD2     C 9822   0.124   0.769   0.263  0.6620  0.3014  0.3768
  664MPD2    C1 9823   0.223   0.853   0.228  0.5470  0.1716 -0.1017
  664MPD2    C2 9824   0.339   0.858   0.303  0.2189 -0.1023  0.2194
  664MPD2    C3 9825   0.351   0.775   0.417 -0.1681 -0.0755 -0.8555
  664MPD2    C4 9826   0.250   0.683   0.447  0.1567  0.1615  1.1010
  664MPD2    C5 9827   0.136   0.686   0.373 -0.4033  0.8326  0.0189
  664MPD2     H 9828   0.426   0.920   0.284  1.0682 -0.9107  1.5008
  664MPD2    H1 9829   0.250   0.611   0.528  1.1734  0.9204  1.7742
  664MPD2    H2 9830   0.024   0.761   0.222  1.2879 -1.4689 -0.8277
  664MPD2    H3 9831   0.041   0.641   0.401 -0.3137  0.0345 -0.9736
  664MPD2     N 9832   0.459   0.807   0.513 -0.1220  0.6134  0.0731
  664MPD2    H5 9833   0.515   0.887   0.485 -0.2648  0.2301 -1.3265
  664MPD2    N1 9834   0.234   0.926   0.111  0.3991  0.1443  0.1009
  664MPD2    H7 9835   0.322   0.975   0.097  1.0526 -0.5020  2.0912
  665TMC3    C1 9836   0.617   0.776   0.690  0.7349 -0.6987  0.4506
  665TMC3    C2 9837   0.631   0.787   0.826 -0.0526  0.1311  0.1961
  665TMC3    C3 9838   0.758   0.813   0.874  0.3870  0.6253  0.5885
  665TMC3    C4 9839   0.714   0.819   0.608  0.4483  0.2762 -0.5632
  665TMC3    C5 9840   0.834   0.863   0.652 -0.2904 -0.0514 -0.5063
  665TMC3    C6 9841   0.865   0.849   0.784 -0.0264  0.6540 -0.0012
  665TMC3     C 9842   0.485   0.737   0.638 -0.6744  0.2746  0.7185
  665TMC3     O 9843   0.416   0.658   0.700 -0.1715  0.2262 -0.7974
  665TMC3     H 9844   0.557   0.752   0.897 -0.5079  1.8820  0.5741
  665TMC3    H1 9845   0.702   0.818   0.500 -0.8917 -0.3693 -0.4104
  665TMC3    H2 9846   0.969   0.861   0.811  0.0230  0.7492 -0.2290
  665TMC3    C7 9847   0.885   0.976   0.587 -0.3205  0.1748  0.2685
  665TMC3    C8 9848   0.789   0.783   1.009  0.0275  0.1751  0.7833
  665TMC3    O1 9849   0.854   0.978   0.467 -0.1034  0.2038 -0.8588
  665TMC3    O2 9850   0.697   0.748   1.084 -0.0415 -0.0755 -0.0834
  666TMC3    C1 9851   4.350   0.700  10.150 -0.5455  0.3324 -0.0951
  666TMC3    C2 9852   4.486   0.700  10.123 -0.3862  0.1054 -0.6516
  666TMC3    C3 9853   4.550   0.820  10.120  0.0682 -0.5375  0.3402
  666TMC3    C4 9854   4.277   0.815  10.152 -0.7860 -0.2080 -0.0041
  666TMC3    C5 9855   4.344   0.932  10.140  0.3391 -0.3414  0.0047
  666TMC3    C6 9856   4.482   0.937  10.136  0.0561  0.4889  0.5378
  666TMC3     C 9857   4.291   0.590  10.216  0.5870  0.4160 -0.5527
  666TMC3     O 9858   4.199   0.619  10.292  0.1881  0.1269  0.0857
  666TMC3     H 9859   4.539   0.606  10.123  0.4657  0.5910 -3.2020
  666TMC3    H1 9860   4.169   0.813  10.161 -0.5766  1.7550  2.7322
  666TMC3    H2 9861   4.539   1.029  10.145  1.0699  0.1039 -1.7249
  666TMC3    C7 9862   4.274   1.060  10.163 -0.3599 -0.0272  0.0301
  666TMC3    C8 9863   4.697   0.820  10.117 -0.0334 -0.2780  0.0407
  666TMC3    O1 9864   4.149   1.057  10.177  0.2636  0.0933  0.8996
  666TMC3    O2 9865   0.021   0.714  10.149 -0.0011  0.1684 -0.2539
  667MPD2     C 9866   0.172   1.149  14.521 -0.3450  0.1855 -0.8864
  667MPD2    C1 9867   0.221   1.048  14.610 -0.0954  0.4213  0.3579
  667MPD2    C2 9868   0.177   0.918  14.590 -0.0191 -0.3109 -0.2660
  667MPD2    C3 9869   0.097   0.886  14.480  0.4050  0.2825 -0.0698
  667MPD2    C4 9870   0.053   0.983  14.389 -0.6380  0.1630 -0.3225
  667MPD2    C5 9871   0.094   1.109  14.409 -0.1621  0.0333 -0.2768
  667MPD2     H 9872   0.210   0.845  14.663 -0.3676  0.6875  0.8859
  667MPD2    H1 9873   0.001   0.959  14.297  2.4767  0.4630 -2.1789
  667MPD2    H2 9874   0.195   1.254  14.535 -0.7441  0.4587 -2.2999
  667MPD2    H3 9875   0.057   1.195  14.355 -0.8895  0.2993  0.6250
  667MPD2     N 9876   0.064   0.751  14.452  0.2047  0.4898  0.2822
  667MPD2    H5 9877   0.037   0.732  14.356 -1.4352  0.6444  0.7188
  667MPD2    N1 9878   0.305   1.074  14.715 -0.2601  0.0143  0.1719
  667MPD2    H7 9879   0.334   0.997  14.774 -1.9665 -1.6461 -1.1375
  668TMC3    C1 9880   0.435   1.199  14.871 -0.3523 -0.2469 -0.7597
  668TMC3    C2 9881   0.536   1.295  14.893 -0.2110  0.1952 -0.2986
  668TMC3    C3 9882   0.601   1.287  15.008  0.0214 -0.0296 -0.1212
  668TMC3    C4 9883   0.411   1.094  14.958 -0.1837 -0.1654 -0.2160
  668TMC3    C5 9884   0.478   1.097  15.071 -0.3407 -0.5627  0.2264
  668TMC3    C6 9885   0.579   1.181  15.094  1.2077 -0.3763  0.1345
  668TMC3     C 9886   0.363   1.201  14.744 -0.2838 -0.5507  0.0275
  668TMC3     O 9887   0.381   1.296  14.663 -0.2663 -0.0608  0.5744
  668TMC3     H 9888   0.533   1.386  14.834 -2.0461  0.1841 -0.2333
  668TMC3    H1 9889   0.332   1.024  14.936 -1.3541  1.6220 -1.6814
  668TMC3    H2 9890   0.632   1.183  15.188  1.0037  1.2872  0.2201
  668TMC3    C7 9891   0.474   0.978  15.153  0.5870  0.0498  0.4341
  668TMC3    C8 9892   0.741   1.338  15.014 -0.6435  0.2091  0.1808
  668TMC3    O1 9893   0.587   0.943  15.187 -0.1641 -0.2673 -0.4357
  668TMC3    O2 9894   0.803   1.309  15.115 -0.5498  0.1644 -0.2166
  669TMC3    C1 9895   3.863   0.436  14.567 -0.0404  0.1366 -1.0573
  669TMC3    C2 9896   3.757   0.452  14.473 -0.0589 -0.1563 -0.6480
  669TMC3    C3 9897   3.747   0.572  14.406 -0.2391  0.1772 -0.3409
  669TMC3    C4 9898   3.961   0.532  14.571  0.3036  0.1491  0.7370
  669TMC3    C5 9899   3.948   0.653  14.505  0.2992 -0.0701  0.0528
  669TMC3    C6 9900   3.842   0.671  14.422 -1.1780  0.2539  0.3759
  669TMC3     C 9901   3.869   0.320  14.652  0.2928 -0.5116 -0.1709
  669TMC3     O 9902   3.765   0.255  14.650 -0.5236 -0.2144  0.0938
  669TMC3     H 9903   3.671   0.386  14.462 -0.8445  1.2734 -3.1235
  669TMC3    H1 9904   4.027   0.519  14.655  0.9102  0.9517  0.3906
  669TMC3    H2 9905   3.842   0.763  14.364  1.4860 -0.2471 -0.4368
  669TMC3    C7 9906   4.032   0.767  14.542 -0.8265 -0.6364  0.3284
  669TMC3    C8 9907   3.644   0.584  14.303  0.0629  0.1427  0.3242
  669TMC3    O1 9908   3.980   0.879  14.531  0.3425 -0.0479 -0.2353
  669TMC3    O2 9909   3.563   0.496  14.290  0.0215 -0.1726  0.2408
  670MPD2     C 9910   1.749   3.316  13.574  0.3891  0.2668 -0.4940
  670MPD2    C1 9911   1.872   3.322  13.629 -0.9779  0.3146  0.3833
  670MPD2    C2 9912   1.893   3.325  13.759 -0.2832  0.1879 -0.6784
  670MPD2    C3 9913   1.787   3.320  13.846 -0.3252  0.2608 -0.6718
  670MPD2    C4 9914   1.656   3.318  13.801 -0.0233  0.4566 -0.4476
  670MPD2    C5 9915   1.641   3.314  13.658 -0.1583  0.0717 -0.3947
  670MPD2     H 9916   1.993   3.325  13.802 -1.6563 -0.6577  2.4413
  670MPD2    H1 9917   1.573   3.327  13.870  1.0225  1.8411  0.6296
  670MPD2    H2 9918   1.739   3.310  13.466 -2.0519  1.2520 -0.3351
  670MPD2    H3 9919   1.543   3.334  13.616  0.0620 -0.0872 -0.9825
  670MPD2     N 9920   1.821   3.314  13.980 -0.1381 -0.5266  0.0207
  670MPD2    H5 9921   1.920   3.309  13.999 -0.1270 -0.1096  0.0816
  670MPD2    N1 9922   1.981   3.326  13.546  0.1221  0.6221  0.4022
  670MPD2    H7 9923   2.067   3.339  13.598  1.1042  0.4492 -1.1882
  671TMC3    C1 9924   1.834   3.298  14.215  0.5662  0.5656 -0.0097
  671TMC3    C2 9925   1.963   3.254  14.207  0.1016  0.0448 -0.6592
  671TMC3    C3 9926   2.030   3.215  14.325 -0.9311  0.1977 -0.8961
  671TMC3    C4 9927   1.763   3.280  14.333 -0.9750 -0.5170 -0.6214
  671TMC3    C5 9928   1.824   3.214  14.432  0.1627  0.2746 -0.3166
  671TMC3    C6 9929   1.955   3.179  14.436  0.8775  0.5759 -0.3570
  671TMC3     C 9930   1.748   3.310  14.095 -0.5199  0.1532  0.5315
  671TMC3     O 9931   1.625   3.305  14.111  0.2443  0.2681  0.0556
  671TMC3     H 9932   2.018   3.274  14.116 -0.7065  1.2082 -0.8866
  671TMC3    H1 9933   1.657   3.303  14.336 -0.8518  0.0027 -0.1349
  671TMC3    H2 9934   1.998   3.125  14.520 -0.6323 -1.0794 -0.6613
  671TMC3    C7 9935   1.734   3.097  14.451  1.1167  0.4681  0.7196
  671TMC3    C8 9936   2.144   3.130  14.299 -0.5134  0.5363 -0.0953
  671TMC3    O1 9937   1.614   3.107  14.425 -0.3178  0.0050  0.1797
  671TMC3    O2 9938   2.154   3.020  14.354 -0.1547  0.4302 -0.0208
  672MPD2     C 9939   2.247   3.423   1.248  0.2593  0.4154 -0.3795
  672MPD2    C1 9940   2.304   3.469   1.136  0.7751  0.0509 -0.3172
  672MPD2    C2 9941   2.382   3.589   1.135  0.2437 -0.2326  0.4226
  672MPD2    C3 9942   2.424   3.647   1.254  0.4864 -0.8276 -0.3237
  672MPD2    C4 9943   2.364   3.597   1.368 -0.6253  0.4051 -0.3899
  672MPD2    C5 9944   2.291   3.480   1.363  0.4924 -0.6337  0.3610
  672MPD2     H 9945   2.431   3.614   1.042 -0.2289  1.2111  0.5528
  672MPD2    H1 9946   2.385   3.644   1.464  0.2806  1.8281 -1.2775
  672MPD2    H2 9947   2.165   3.352   1.249  0.0846  0.6235  3.1615
  672MPD2    H3 9948   2.252   3.445   1.458  0.4323  0.4383  0.7381
  672MPD2     N 9949   2.507   3.759   1.253  0.3848 -0.3636  0.3374
  672MPD2    H5 9950   2.535   3.796   1.343  0.8067 -0.5425  0.2779
  672MPD2    N1 9951   2.273   3.407   1.009  0.2627 -0.3248  0.8603
  672MPD2    H7 9952   2.309   3.443   0.922 -0.0104  0.0744  0.9121
  673TMC3    C1 9953   2.241   3.230   0.866 -0.7630  0.7017  0.0384
  673TMC3    C2 9954   2.369   3.193   0.831  0.0375  0.3838  0.8159
  673TMC3    C3 9955   2.385   3.185   0.698  0.2472 -0.0159 -0.0733
  673TMC3    C4 9956   2.137   3.248   0.785  0.1834 -0.1453 -0.5258
  673TMC3    C5 9957   2.165   3.237   0.650 -0.0868  0.3830 -0.6326
  673TMC3    C6 9958   2.287   3.203   0.605  0.1561  0.3391 -0.6090
  673TMC3     C 9959   2.222   3.276   0.998 -0.5030 -0.3078 -0.6396
  673TMC3     O 9960   2.208   3.187   1.082 -0.1375  0.2041 -0.0841
  673TMC3     H 9961   2.444   3.166   0.905 -0.0682 -0.6031  0.5646
  673TMC3    H1 9962   2.052   3.304   0.822  0.5492  0.0232  0.0526
  673TMC3    H2 9963   2.309   3.193   0.499  0.1972 -0.0279 -0.5638
  673TMC3    C7 9964   2.074   3.314   0.569 -0.5271 -0.4960  0.1452
  673TMC3    C8 9965   2.505   3.120   0.644 -0.1885 -0.2679 -0.0580
  673TMC3    O1 9966   1.963   3.326   0.625  0.3990  0.1005 -0.4565
  673TMC3    O2 9967   2.504   3.082   0.528  0.4480  0.3900  0.4461
  674MPD2     C 9968   1.923   3.668  17.542 -0.7079 -1.1302 -0.0651
  674MPD2    C1 9969   1.891   3.534  17.580 -0.4319 -0.2425  0.9010
  674MPD2    C2 9970   1.759   3.516  17.634  0.7071 -0.1920  0.3111
  674MPD2    C3 9971   1.674   3.618  17.658  0.2596  0.3798 -0.2953
  674MPD2    C4 9972   1.702   3.744  17.611 -0.0622 -0.7228  0.5394
  674MPD2    C5 9973   1.824   3.767  17.555  0.2954  0.1554 -0.1339
  674MPD2     H 9974   1.716   3.420  17.661  1.0044 -0.6645 -0.8656
  674MPD2    H1 9975   1.641   3.830  17.636  1.8659  0.4600  1.2459
  674MPD2    H2 9976   2.017   3.705  17.503 -0.4280 -1.5928  0.1592
  674MPD2    H3 9977   1.852   3.871  17.540 -2.2111  0.8502  0.0556
  674MPD2     N 9978   1.564   3.596   0.038 -0.4862  0.3759  0.0376
  674MPD2    H5 9979   1.554   3.502   0.076 -2.5038  0.6638  0.2171
  674MPD2    N1 9980   1.984   3.426  17.560 -0.3007 -0.2502 -0.5531
  674MPD2    H7 9981   2.077   3.458  17.536 -0.7797  1.0582 -0.6799
  675TMC3    C1 9982   2.096   3.240  17.642  0.2468  0.9040 -0.3026
  675TMC3    C2 9983   2.078   3.113   0.003 -0.5239 -0.8288  0.5529
  675TMC3    C3 9984   2.141   3.102   0.124 -0.6214  0.3775  0.5282
  675TMC3    C4 9985   2.189   3.324  17.685 -0.1126 -0.6091  0.2164
  675TMC3    C5 9986   2.262   3.293   0.095  0.1361  0.5616 -0.0925
  675TMC3    C6 9987   2.238   3.187   0.175  0.3503  0.2683  0.4786
  675TMC3     C 9988   1.967   3.294  17.603 -0.0430  0.4081 -0.1843
  675TMC3     O 9989   1.862   3.239  17.632  0.0177  0.4210 -0.0538
  675TMC3     H 9990   1.999   3.048  17.667 -0.7893  0.9043 -2.0242
  675TMC3    H1 9991   2.208   3.415  17.629  0.1288 -2.1748 -2.2248
  675TMC3    H2 9992   2.283   3.171   0.273 -0.7818 -0.1132  0.9306
  675TMC3    C7 9993   2.363   3.391   0.128 -0.7564 -0.1895 -0.1560
  675TMC3    C8 9994   2.047   3.048   0.226 -0.1512  0.0364 -0.7648
  675TMC3    O1 9995   2.358   3.502   0.085  0.2282  0.0923  0.1980
  675TMC3    O2 9996   1.936   3.094   0.214 -0.0532 -0.1161  0.1230
  676MPD2     C 9997   0.324   1.919  11.359 -1.3798  0.5509  0.0567
  676MPD2    C1 9998   0.192   1.882  11.362  0.9359 -0.0269  0.0389
  676MPD2    C2 9999   0.153   1.783  11.279  0.3240  0.4006  0.0885
  676MPD2    C310000   0.244   1.729  11.191  0.2349 -0.0785 -0.5582
  676MPD2    C410001   0.377   1.771  11.183 -0.6787 -0.5522 -0.0941
  676MPD2    C510002   0.416   1.867  11.270 -0.5235 -0.5049 -0.1029
  676MPD2     H10003   0.050   1.749  11.282  0.4629  0.0183  0.6711
  676MPD2    H110004   0.449   1.731  11.113  0.2340  0.5662  0.1922
  676MPD2    H210005   0.360   1.990  11.433  0.1428  1.5810 -1.6592
  676MPD2    H310006   0.519   1.902  11.262 -1.3832  2.0182 -0.0200
  676MPD2     N10007   0.194   1.635  11.103 -0.0331 -0.6559  0.5304
  676MPD2    H510008   0.102   1.592  11.112 -0.4102  0.6066  2.6722
  676MPD2    N110009   0.097   1.940  11.444 -0.3003 -0.2658 -0.2825
  676MPD2    H710010   0.003   1.903  11.443  0.3302 -1.8614 -0.2455
  677TMC3    C110011   0.026   2.088  11.610  0.1037 -0.1129 -0.3827
  677TMC3    C210012   4.669   1.993  11.664  0.5118  0.4106  0.1343
  677TMC3    C310013   4.584   2.024  11.766 -0.1891 -0.6877  0.3006
  677TMC3    C410014   0.024   2.211  11.664 -0.5091  0.5235  0.7595
  677TMC3    C510015   4.662   2.242  11.765  0.0943 -0.7843  1.0869
  677TMC3    C610016   4.576   2.152  11.819 -1.1990 -0.0081 -0.4775
  677TMC3     C10017   0.133   2.044  11.530 -0.3808  0.5426 -0.2942
  677TMC3     O10018   0.228   2.115  11.527 -0.3345 -0.3361  0.4690
  677TMC3     H10019   4.673   1.892  11.624  0.0241 -0.3733  2.0640
  677TMC3    H110020   0.079   2.285  11.606  1.5275 -1.0359  0.7074
  677TMC3    H210021   4.503   2.174  11.895 -0.2028  0.2535  0.4045
  677TMC3    C710022   4.677   2.375  11.825  0.2007  0.4295 -0.8301
  677TMC3    C810023   4.505   1.919  11.827 -0.1789 -0.2124  0.2970
  677TMC3    O110024   4.580   2.419  11.893  0.0045  0.5614 -0.3808
  677TMC3    O210025   4.414   1.871  11.761  0.2345  0.4301  0.5633
  678MPD2     C10026   1.502   2.196   1.734 -0.2925 -0.2729  0.0390
  678MPD2    C110027   1.566   2.220   1.616  0.2858 -0.5425 -0.4733
  678MPD2    C210028   1.485   2.223   1.505  0.2589  0.6766 -0.4448
  678MPD2    C310029   1.350   2.189   1.507 -0.6064  0.0241 -0.3042
  678MPD2    C410030   1.297   2.156   1.628 -0.3465  1.0842 -0.7857
  678MPD2    C510031   1.370   2.171   1.742  0.3924 -1.0337 -0.0226
  678MPD2     H10032   1.529   2.251   1.410 -1.8713  1.3591 -1.2277
  678MPD2    H110033   1.197   2.118   1.643  0.6464 -0.7044  1.2318
  678MPD2    H210034   1.558   2.187   1.826  2.6111  2.7660 -1.4021
  678MPD2    H310035   1.328   2.140   1.837 -2.0878 -2.0411 -1.4511
  678MPD2     N10036   1.279   2.170   1.386 -0.6891 -0.3507  0.4360
  678MPD2    H510037   1.339   2.165   1.305  0.8243 -3.0564  1.7314
  678MPD2    N110038   1.704   2.232   1.594 -0.2767 -0.3267 -0.0725
  678MPD2    H710039   1.740   2.241   1.499  0.7369  1.4566  0.4781
  679TMC3    C110040   2.125   2.068   1.639  0.5852 -0.4655 -0.0493
  679TMC3    C210041   2.020   2.129   1.708  0.2592  0.7624 -0.3669
  679TMC3    C310042   1.937   2.215   1.646 -0.2654 -0.0489  0.5003
  679TMC3    C410043   2.151   2.109   1.518  0.4295  0.9621 -0.3755
  679TMC3    C510044   2.081   2.216   1.467  0.3309 -0.3783 -0.5232
  679TMC3    C610045   1.965   2.262   1.523  0.1982  0.4072  0.2425
  679TMC3     C10046   2.151   1.926   1.674 -0.2967 -0.0065 -0.4082
  679TMC3     O10047   2.151   1.848   1.578  0.0161 -0.4622  0.2010
  679TMC3     H10048   2.000   2.093   1.808  0.2156 -0.9430 -0.9943
  679TMC3    H110049   2.229   2.051   1.469 -0.9911  1.3245 -3.0546
  679TMC3    H210050   1.917   2.349   1.479 -0.1833 -0.4425 -1.0463
  679TMC3    C710051   2.130   2.280   1.344  0.1140  0.9054  0.6689
  679TMC3    C810052   1.796   2.215   1.699 -0.2478 -0.5440  0.3427
  679TMC3    O110053   2.050   2.345   1.280 -0.0154 -0.3459  0.9932
  679TMC3    O210054   1.783   2.181   1.816 -0.4187 -0.1146  0.2045
  680MPD2     C10055   1.036   4.474  13.198  0.1607  0.0970 -0.5540
  680MPD2    C110056   1.149   4.487  13.270  0.4930  0.2288 -0.5856
  680MPD2    C210057   1.201   4.613  13.287 -0.5035 -1.1361 -0.5359
  680MPD2    C310058   1.137   0.005  13.240  0.0857  0.1846 -0.1669
  680MPD2    C410059   1.019   4.713  13.168  0.4758  0.6199 -0.2540
  680MPD2    C510060   0.970   4.582  13.145 -0.1884  1.1085 -0.2381
  680MPD2     H10061   1.286   4.616  13.353 -1.7176 -1.2926  1.0280
  680MPD2    H110062   0.977   0.079  13.128  0.8282  1.7406  1.8892
  680MPD2    H210063   1.002   4.374  13.174  0.5055  0.4548 -2.4816
  680MPD2    H310064   0.878   4.569  13.090 -0.3451 -1.1354  0.5304
  680MPD2     N10065   1.190   0.133  13.258  0.7784  0.1764 -0.3269
  680MPD2    H510066   1.145   0.214  13.218  0.9555  0.3849 -0.1053
  680MPD2    N110067   1.216   4.380  13.342 -0.2221  0.1574 -0.1701
  680MPD2    H710068   1.306   4.396  13.386 -0.0622 -3.1102  0.7411
  681TMC3    C110069   1.220   4.207  13.486  0.2477 -0.4720 -0.2515
  681TMC3    C210070   1.133   4.220  13.592 -0.3674  0.4727  0.2747
  681TMC3    C310071   1.179   4.263  13.709 -0.4336  0.2938  0.7024
  681TMC3    C410072   1.358   4.231  13.499 -0.8240  0.3717  0.1772
  681TMC3    C510073   1.401   4.270  13.625 -0.4567 -0.0048 -0.1668
  681TMC3    C610074   1.316   4.278  13.728 -0.2357 -0.1148 -0.5225
  681TMC3     C10075   1.156   4.260  13.361 -0.6327 -0.2084  0.2161
  681TMC3     O10076   1.039   4.221  13.336 -0.0897  0.2242 -0.7782
  681TMC3     H10077   1.028   4.231  13.566 -0.1850 -2.6340 -1.8296
  681TMC3    H110078   1.422   4.224  13.411 -0.6058  0.3465  0.3384
  681TMC3    H210079   1.351   4.318  13.822 -0.5139 -1.4383  0.1459
  681TMC3    C710080   1.499   4.373  13.630  0.1270  0.3566 -0.0452
  681TMC3    C810081   1.110   4.386  13.742 -0.1144  0.4489 -0.3040
  681TMC3    O110082   1.470   4.474  13.700  0.4553  0.1667 -0.1652
  681TMC3    O210083   0.986   4.372  13.734 -0.0580 -0.4310  0.3489
  682MPD2     C10084   3.671   2.200  10.678  0.8002 -0.3081  0.3034
  682MPD2    C110085   3.730   2.119  10.769 -0.4416 -0.0251 -0.6493
  682MPD2    C210086   3.715   2.141  10.899  0.0533 -0.3768  0.0650
  682MPD2    C310087   3.656   2.249  10.952  0.2841 -0.3115  0.5534
  682MPD2    C410088   3.600   2.333  10.864  0.5249 -0.4104  0.3391
  682MPD2    C510089   3.606   2.306  10.734 -0.0582  0.3970  0.4020
  682MPD2     H10090   3.742   2.062  10.968  2.1301 -0.5928 -0.9802
  682MPD2    H110091   3.536   2.413  10.898 -1.7162 -1.9488 -0.2814
  682MPD2    H210092   3.652   2.173  10.575 -1.5267  0.2956  0.5746
  682MPD2    H310093   3.547   2.374  10.674  1.8742  0.1913 -1.7196
  682MPD2     N10094   3.618   2.263  11.091 -0.1269 -0.1009 -0.2222
  682MPD2    H510095   3.563   2.342  11.119  0.7635  1.0841 -1.8199
  682MPD2    N110096   3.789   2.000  10.728  0.3121  0.2185 -0.2874
  682MPD2    H710097   3.794   1.922  10.793 -1.2836  1.3195  1.1348
  683TMC3    C110098   3.600   2.137  11.530 -0.5263  0.0338 -0.7699
  683TMC3    C210099   3.457   2.121  11.533 -0.3197  1.2838  0.1276
  683TMC3    C310100   3.384   2.143  11.418 -1.1286  0.7524 -0.7626
  683TMC3    C410101   3.657   2.192  11.421  0.4576  0.1626 -0.5132
  683TMC3    C510102   3.589   2.203  11.309 -0.0653 -0.1937  0.9929
  683TMC3    C610103   3.451   2.175  11.300 -0.5565  0.3526  0.3590
  683TMC3     C10104   3.678   2.139  11.654  0.4471  0.1699 -0.2892
  683TMC3     O10105   3.793   2.172  11.646  0.1593 -0.0729 -0.4511
  683TMC3     H10106   3.402   2.067  11.609  1.3251 -1.7108 -0.7925
  683TMC3    H110107   3.762   2.218  11.430  0.4136 -1.0752  3.4761
  683TMC3    H210108   3.399   2.156  11.207 -0.5531 -1.4297  0.7211
  683TMC3    C710109   3.672   2.186  11.190  0.5742  0.2411  0.1399
  683TMC3    C810110   3.284   2.033  11.401 -0.4897  0.2160  0.0460
  683TMC3    O110111   3.754   2.095  11.192 -0.2176 -0.0320 -0.0791
  683TMC3    O210112   3.193   2.023  11.485 -0.4813  0.0266 -0.0327
  684MPD2     C10113   1.902   0.798  15.955 -0.1466 -0.3481 -0.7690
  684MPD2    C110114   1.870   0.906  15.879  0.8436 -0.1076 -0.2569
  684MPD2    C210115   1.850   1.025  15.941  0.8164 -0.0525  0.2105
  684MPD2    C310116   1.882   1.047  16.075 -0.2833  0.7964 -0.2220
  684MPD2    C410117   1.921   0.932  16.151 -0.3241 -0.1160  0.2466
  684MPD2    C510118   1.935   0.814  16.090  0.1516  0.1453 -0.5893
  684MPD2     H10119   1.812   1.104  15.877 -2.1639  0.0959  2.1594
  684MPD2    H110120   1.947   0.944  16.255  1.8340 -3.6739  0.1266
  684MPD2    H210121   1.917   0.700  15.909  1.7814  0.5107 -2.0023
  684MPD2    H310122   1.978   0.730  16.142 -0.6137  0.1629  0.0744
  684MPD2     N10123   1.889   1.174  16.134 -0.0774  0.3666 -0.7444
  684MPD2    H510124   1.936   1.178  16.223 -3.2575 -2.0537  1.0366
  684MPD2    N110125   1.859   0.904  15.738  0.2105  0.4445 -0.1434
  684MPD2    H710126   1.811   0.987  15.706 -1.8370 -0.6346  0.1245
  685TMC3    C110127   1.890   0.852  15.515  0.5711 -0.1619 -0.2657
  685TMC3    C210128   1.789   0.941  15.500 -0.7189  0.3378  0.1185
  685TMC3    C310129   1.817   1.045  15.418  0.1911  0.0706 -1.0045
  685TMC3    C410130   2.014   0.872  15.461  1.0004  0.0112  0.1156
  685TMC3    C510131   2.041   0.974  15.378  0.1630 -0.6956 -0.5679
  685TMC3    C610132   1.933   1.056  15.349  0.5141 -0.8741 -1.0035
  685TMC3     C10133   1.894   0.807  15.648 -0.6276  0.4918 -0.7486
  685TMC3     O10134   1.946   0.700  15.667 -0.8235  0.0750  0.2795
  685TMC3     H10135   1.691   0.929  15.544 -0.3943  1.5536  1.1934
  685TMC3    H110136   2.095   0.807  15.493 -0.1844  0.2414  3.6141
  685TMC3    H210137   1.956   1.145  15.291  0.4090 -0.4255 -0.3615
  685TMC3    C710138   2.172   1.040  15.381 -0.3005 -0.8929 -0.6373
  685TMC3    C810139   1.702   1.117  15.363 -0.0316  0.4015  0.4065
  685TMC3    O110140   2.194   1.118  15.291 -0.0360 -0.8390  0.2427
  685TMC3    O210141   1.702   1.161  15.251  0.4004  0.1975  0.4030
  686MPD2     C10142   2.976   1.245  15.027  0.3762 -0.4614 -0.0718
  686MPD2    C110143   3.011   1.145  15.113 -0.0677 -0.1843 -0.4478
  686MPD2    C210144   3.142   1.086  15.114 -0.0638 -0.1659 -1.1453
  686MPD2    C310145   3.223   1.125  15.013  0.4666 -0.3863 -0.0666
  686MPD2    C410146   3.191   1.230  14.928 -0.5628  0.2224  0.6048
  686MPD2    C510147   3.069   1.290  14.932 -0.7476  0.5908 -0.7779
  686MPD2     H10148   3.172   1.005  15.180 -0.8273 -1.5937 -2.5458
  686MPD2    H110149   3.262   1.268  14.855  2.1449 -1.2264  2.5252
  686MPD2    H210150   2.877   1.289  15.031  1.5264  2.2892 -1.2767
  686MPD2    H310151   3.053   1.374  14.865  0.7860  0.7391 -0.9649
  686MPD2     N10152   3.338   1.050  14.984  0.1606 -0.1643 -0.5043
  686MPD2    H510153   3.366   1.073  14.890 -1.1121  2.7518 -0.1704
  686MPD2    N110154   2.908   1.091  15.199  0.1220  1.5198 -0.7228
  686MPD2    H710155   2.819   1.128  15.167 -0.9279 -1.1115 -0.8097
  687TMC3    C110156   3.478   0.859  15.029  0.2758  0.0044  0.2527
  687TMC3    C210157   3.411   0.800  14.928 -0.0926 -0.3449  0.4002
  687TMC3    C310158   3.391   0.664  14.932 -0.1537  0.4072 -0.9149
  687TMC3    C410159   3.516   0.789  15.141  0.2873  0.4974 -0.7899
  687TMC3    C510160   3.504   0.652  15.137 -0.1578  0.1555 -0.1224
  687TMC3    C610161   3.453   0.594  15.025 -0.3953 -0.4466 -0.2675
  687TMC3     C10162   3.398   0.972  15.080  0.0651 -0.1995 -0.0639
  687TMC3     O10163   3.389   0.967  15.200 -0.0916  0.2592  0.1058
  687TMC3     H10164   3.395   0.851  14.833  1.3696 -0.1792  0.2345
  687TMC3    H110165   3.572   0.836  15.221  0.0496  0.3254 -0.5215
  687TMC3    H210166   3.428   0.488  15.028 -1.3256 -0.1888  1.1218
  687TMC3    C710167   3.588   0.566  15.217  0.4847 -0.6018  0.4628
  687TMC3    C810168   3.245   0.641  14.946  0.3874  0.9758 -0.0997
  687TMC3    O110169   3.583   0.445  15.190  0.5108  0.8524  0.3060
  687TMC3    O210170   3.208   0.554  15.021  0.2924  0.0971  0.0730
  688MPD2     C10171   2.441   0.099  17.080 -0.1552  0.6860  0.0492
  688MPD2    C110172   2.511   4.704  17.098  0.0525  0.1327 -0.0124
  688MPD2    C210173   2.591   4.653  16.991 -0.2670  0.2478 -0.6723
  688MPD2    C310174   2.618   0.012  16.886  0.3199 -0.3682 -0.4406
  688MPD2    C410175   2.547   0.128  16.869 -0.1426 -0.2302  0.7593
  688MPD2    C510176   2.463   0.176  16.969 -0.5073 -0.0605  0.1881
  688MPD2     H10177   2.646   4.561  17.002 -0.1728  0.5080  1.0235
  688MPD2    H110178   2.577   0.190  16.785  0.2520 -2.1470 -0.4979
  688MPD2    H210179   2.375   0.146  17.152 -2.3589 -1.0134 -0.8629
  688MPD2    H310180   2.413   0.271  16.948 -0.6022  0.1876  1.5315
  688MPD2     N10181   2.708   4.704  16.780 -0.7039  0.1093  0.2719
  688MPD2    H510182   2.733   0.047  16.709  1.3735 -1.8165 -0.8276
  688MPD2    N110183   2.511   4.629  17.221  1.4325  0.2563  0.7838
  688MPD2    H710184   2.581   4.558  17.243  0.9647 -0.2726  0.5469
  689TMC3    C110185   2.433   4.566  17.432 -0.4184  0.3766  0.3848
  689TMC3    C210186   2.423   4.627  17.559 -0.5388  0.2180  1.4316
  689TMC3    C310187   2.468   4.556  17.669 -0.4518  0.1035 -0.2297
  689TMC3    C410188   2.492   4.440  17.422  0.2913 -0.3971 -0.3601
  689TMC3    C510189   2.543   4.388  17.541 -0.5095 -0.6225  0.1614
  689TMC3    C610190   2.537   4.442  17.663 -0.1195  0.1971  0.1624
  689TMC3     C10191   2.420   4.654  17.323  0.3829  0.1588 -0.2249
  689TMC3     O10192   2.331   0.013  17.332  0.3381  0.3875  0.5536
  689TMC3     H10193   2.367   4.719  17.574 -1.0713  0.0247  0.6433
  689TMC3    H110194   2.503   4.389  17.327 -0.7080 -0.2390 -0.5677
  689TMC3    H210195   2.579   4.404   0.055  3.5029  0.6638 -1.2911
  689TMC3    C710196   2.567   4.253  17.553 -0.1324 -0.1369 -0.3108
  689TMC3    C810197   2.417   4.592   0.103  0.1498  0.1646  0.2581
  689TMC3    O110198   2.658   4.227  17.632  0.0493  0.2848 -0.3865
  689TMC3    O210199   2.495   4.576   0.195  0.7250  0.2096  0.1262
  690MPD2     C10200   0.337   1.847  16.039  0.2808 -0.0588  0.2781
  690MPD2    C110201   0.273   1.880  15.920  0.1199 -0.3276 -0.0081
  690MPD2    C210202   0.337   1.969  15.840 -0.0345 -0.8344 -0.1228
  690MPD2    C310203   0.457   2.038  15.878  0.1808  0.1381  0.4638
  690MPD2    C410204   0.516   2.000  15.997 -0.0086  0.2179  0.0805
  690MPD2    C510205   0.462   1.898  16.066 -0.1100  0.3391 -0.4707
  690MPD2     H10206   0.282   2.012  15.757 -3.2509 -1.2389  1.7559
  690MPD2    H110207   0.611   2.037  16.034 -1.1962  3.5041 -0.0932
  690MPD2    H210208   0.293   1.772  16.103 -1.1433  0.4384 -0.1098
  690MPD2    H310209   0.510   1.856  16.153 -0.4213  1.5257  0.2697
  690MPD2     N10210   0.511   2.145  15.791  0.0609 -0.5034 -0.2413
  690MPD2    H510211   0.455   2.179  15.714 -0.2694  2.2954  1.2362
  690MPD2    N110212   0.161   1.806  15.871 -0.0776  0.1604  0.2882
  690MPD2    H710213   0.143   1.809  15.771  0.9007  1.5898  0.1510
  691TMC3    C110214   4.695   1.674  15.883  0.5232 -0.2447 -0.4368
  691TMC3    C210215   4.568   1.680  15.933  0.1029  0.2580  0.4711
  691TMC3    C310216   4.473   1.614  15.855  0.0318 -0.3158 -0.4031
  691TMC3    C410217   0.004   1.615  15.765  0.3216 -0.2039  0.2125
  691TMC3    C510218   4.631   1.552  15.695 -0.8261 -0.2026  0.1317
  691TMC3    C610219   4.502   1.558  15.730 -0.5841  0.3543  0.3377
  691TMC3     C10220   0.073   1.740  15.955 -0.6674  0.1373 -0.3920
  691TMC3     O10221   0.053   1.765  16.073 -0.4310 -0.1655  0.4150
  691TMC3     H10222   4.548   1.725  16.030 -0.6001 -1.4167  1.1146
  691TMC3    H110223   0.109   1.604  15.740  0.3425 -1.2561  0.7279
  691TMC3    H210224   4.422   1.527  15.664  0.1250  1.1649 -0.9018
  691TMC3    C710225   4.679   1.448  15.605  0.0841  0.1847  0.6887
  691TMC3    C810226   4.325   1.634  15.871  0.3416  0.0413  0.7972
  691TMC3    O110227   0.068   1.471  15.561 -0.3068  0.2411 -0.2389
  691TMC3    O210228   4.255   1.562  15.798  0.2880 -0.0444 -0.1304
  692TMC3    C110229   1.815   2.635  16.135 -0.4230  0.6273 -0.6457
  692TMC3    C210230   1.921   2.606  16.220 -0.0428  0.1661  0.1038
  692TMC3    C310231   2.013   2.506  16.185  0.3986 -0.6936 -0.3354
  692TMC3    C410232   1.797   2.573  16.017  0.2293  0.5087 -0.4297
  692TMC3    C510233   1.885   2.476  15.985  0.0827 -0.3889  0.5395
  692TMC3    C610234   1.990   2.429  16.067  0.4716 -0.0150  0.8153
  692TMC3     C10235   1.749   2.762  16.160  0.2066 -0.5028  0.2825
  692TMC3     O10236   1.635   2.785  16.121 -0.3096 -0.5989  0.6715
  692TMC3     H10237   1.898   2.641  16.319  1.5632  2.1657 -0.2442
  692TMC3    H110238   1.705   2.591  15.963  0.0451  1.3044  0.1499
  692TMC3    H210239   2.070   2.362  16.038 -1.5759 -2.1253  0.0110
  692TMC3    C710240   1.837   2.387  15.884  0.1088 -0.4136  0.0037
  692TMC3    C810241   2.057   2.419  16.295 -0.6237  0.3163  0.5577
  692TMC3    O110242   1.770   2.444  15.797 -0.0919 -0.3267 -0.4338
  692TMC3    O210243   2.058   2.301  16.266  0.7384 -0.0520  0.2696
  693MPD2     C10244   1.516   1.284  10.267  0.5313 -0.0797 -0.1914
  693MPD2    C110245   1.467   1.278  10.400  0.0350  0.2516 -0.4063
  693MPD2    C210246   1.549   1.202  10.490  0.6749  0.3525  0.6885
  693MPD2    C310247   1.653   1.115  10.446  0.8871 -0.3767 -0.0408
  693MPD2    C410248   1.697   1.123  10.314 -0.3987  0.2247 -0.5032
  693MPD2    C510249   1.625   1.204  10.225 -0.4872  0.3424 -0.3203
  693MPD2     H10250   1.517   1.199  10.594  2.6200  2.5834  1.3538
  693MPD2    H110251   1.766   1.054  10.266  1.1275  0.6737  1.0580
  693MPD2    H210252   1.460   1.328  10.185 -0.0617 -0.1012  0.1972
  693MPD2    H310253   1.648   1.209  10.119 -0.3759 -1.4215 -0.3779
  693MPD2     N10254   1.722   1.036  10.539 -0.5769  0.0879  0.3082
  693MPD2    H510255   1.807   0.999  10.497  0.5388 -0.1493  2.7985
  693MPD2    N110256   1.354   1.352  10.445 -0.2103  0.3203 -0.1026
  693MPD2    H710257   1.292   1.395  10.378 -1.5230  0.6001  1.2963
  694TMC3    C110258   1.162   1.407  10.570 -0.5608 -0.7300 -0.3299
  694TMC3    C210259   1.074   1.334  10.489  0.8016 -0.5000 -0.2565
  694TMC3    C310260   0.944   1.301  10.535  0.8507  0.7010 -0.1258
  694TMC3    C410261   1.122   1.437  10.697 -0.4119 -0.4079  0.2317
  694TMC3    C510262   0.994   1.413  10.740  0.4103 -0.4021 -0.4773
  694TMC3    C610263   0.909   1.330  10.670 -0.0277  0.5789 -0.5532
  694TMC3     C10264   1.303   1.364  10.575 -0.3813  0.3330 -0.6411
  694TMC3     O10265   1.333   1.328  10.685 -0.0369 -0.0810 -0.6809
  694TMC3     H10266   1.100   1.291  10.393  0.0158 -1.1443 -0.1844
  694TMC3    H110267   1.193   1.476  10.769 -0.3958 -0.5223  0.2775
  694TMC3    H210268   0.812   1.302  10.709  0.3935  1.8037  1.3581
  694TMC3    C710269   0.979   1.430  10.881  0.0108  0.1860 -0.1173
  694TMC3    C810270   0.865   1.201  10.463  0.2224 -0.6723 -0.2127
  694TMC3    O110271   1.034   1.525  10.930  0.5710 -0.4052  0.0552
  694TMC3    O210272   0.851   1.099  10.521 -0.1031  0.1014 -0.0516
  695MPD2     C10273   1.879   2.271  13.598  0.1087 -0.3303  0.0206
  695MPD2    C110274   1.916   2.379  13.679  0.7154 -0.0825  1.0190
  695MPD2    C210275   1.815   2.444  13.743 -0.5395 -0.3072 -0.6413
  695MPD2    C310276   1.674   2.414  13.732 -0.7629 -0.4386  0.3254
  695MPD2    C410277   1.646   2.316  13.645 -0.5708 -0.1646 -0.1593
  695MPD2    C510278   1.744   2.245  13.582  0.3041  0.1547  0.6168
  695MPD2     H10279   1.846   2.527  13.805 -2.4619  0.3457 -0.5371
  695MPD2    H110280   1.548   2.285  13.611 -1.4809  0.6023  1.7532
  695MPD2    H210281   1.949   2.215  13.538  0.8472 -0.9055  1.4152
  695MPD2    H310282   1.711   2.169  13.512 -0.7232 -0.1322  1.4189
  695MPD2     N10283   1.578   2.497  13.790  0.7610 -0.5946 -0.4813
  695MPD2    H510284   1.616   2.586  13.820 -0.6733 -0.7746  1.9654
  695MPD2    N110285   2.048   2.415  13.696  0.0589 -0.7311  0.0045
  695MPD2    H710286   2.076   2.494  13.754  0.2546 -0.9472  0.2026
  696TMC3    C110287   1.373   2.581  13.856 -0.3038  0.1135  0.1365
  696TMC3    C210288   1.434   2.602  13.979  0.2805  0.0904  0.4082
  696TMC3    C310289   1.392   2.717  14.045 -0.4689  0.3955  0.3397
  696TMC3    C410290   1.288   2.674  13.798  0.4129  0.3226 -0.2482
  696TMC3    C510291   1.256   2.792  13.864  0.2615  0.1564 -0.5167
  696TMC3    C610292   1.305   2.808  13.994  0.3365  0.8221  0.0145
  696TMC3     C10293   1.442   2.494  13.771  0.3244 -0.3342 -0.4242
  696TMC3     O10294   1.378   2.425  13.694  0.0393 -0.1558  0.1338
  696TMC3     H10295   1.499   2.527  14.023 -0.4317 -1.3673 -1.0065
  696TMC3    H110296   1.257   2.657  13.695 -1.2336 -0.7946  0.4320
  696TMC3    H210297   1.281   2.904  14.039 -0.8136  0.9435 -0.8584
  696TMC3    C710298   1.251   2.909  13.775  0.5445  1.1835  0.1972
  696TMC3    C810299   1.460   2.749  14.173  0.5241 -0.0065  0.1870
  696TMC3    O110300   1.246   2.893  13.656 -0.0662  0.3470 -0.1332
  696TMC3    O210301   1.427   2.858  14.215  0.2748  0.4174  0.5774
  697MPD2     C10302   1.148   0.170  15.703 -0.1145  0.8695  0.1604
  697MPD2    C110303   1.214   0.116  15.591 -0.3982  0.1533 -0.3020
  697MPD2    C210304   1.235   0.197  15.481 -0.5070 -0.4858  0.1390
  697MPD2    C310305   1.184   0.328  15.477  0.1380 -0.6427 -0.0623
  697MPD2    C410306   1.097   0.366  15.580 -0.0974  0.0425 -0.0110
  697MPD2    C510307   1.085   0.290  15.699 -0.3839 -0.1822  0.7193
  697MPD2     H10308   1.294   0.154  15.401 -1.3700 -0.6447 -0.4184
  697MPD2    H110309   1.039   0.458  15.572 -1.8476 -1.1953 -1.3833
  697MPD2    H210310   1.121   0.112  15.790  0.0390 -0.4257 -0.6641
  697MPD2    H310311   1.031   0.329  15.784 -0.9149  0.9017 -0.1024
  697MPD2     N10312   1.198   0.412  15.361  0.1538  0.2725 -0.7255
  697MPD2    H510313   1.259   0.371  15.290 -3.0480 -0.3312 -3.1360
  697MPD2    N110314   1.277   4.711  15.587 -0.0185  0.2814  0.3789
  697MPD2    H710315   1.308   4.681  15.496  0.3392  0.4480  0.4470
  698TMC3    C110316   1.189   0.579  15.205  0.1249 -0.1149 -0.3337
  698TMC3    C210317   1.102   0.660  15.144  0.0319 -0.0818  0.3740
  698TMC3    C310318   1.136   0.708  15.020 -0.2969  0.4285  0.0179
  698TMC3    C410319   1.301   0.533  15.144  0.3795  0.3918  0.0776
  698TMC3    C510320   1.328   0.579  15.018  0.3318 -0.2963 -0.8949
  698TMC3    C610321   1.247   0.660  14.957  0.2485 -0.8347 -0.7643
  698TMC3     C10322   1.153   0.535  15.341  0.3049  0.1605 -1.0833
  698TMC3     O10323   1.075   0.603  15.410 -0.1493 -0.1852 -0.5431
  698TMC3     H10324   1.028   0.715  15.200 -1.8289 -0.7427 -1.4098
  698TMC3    H110325   1.370   0.459  15.182  2.3547  1.2719 -1.8032
  698TMC3    H210326   1.287   0.685  14.859 -1.0539  1.1561 -0.7910
  698TMC3    C710327   1.425   0.497  14.945  0.5256  0.6586  0.1937
  698TMC3    C810328   1.034   0.756  14.923 -0.2425 -0.3544 -0.4496
  698TMC3    O110329   1.517   0.456  15.011  0.3129  0.2463  0.2310
  698TMC3    O210330   0.918   0.731  14.949 -0.6126  0.1552 -0.2610
  699TMC3    C110331   1.816   2.689  13.106  0.7168  0.1027 -0.2144
  699TMC3    C210332   1.876   2.572  13.148 -0.1919 -0.2003 -0.2875
  699TMC3    C310333   1.816   2.507  13.255  0.2729 -0.2767 -0.5080
  699TMC3    C410334   1.705   2.742  13.166 -0.3106 -0.0372  0.0232
  699TMC3    C510335   1.653   2.687  13.272 -0.0285 -0.6280  0.4410
  699TMC3    C610336   1.705   2.563  13.319  0.1781 -0.3348  0.5109
  699TMC3     C10337   1.861   2.755  12.982 -0.2776  0.0142  0.1205
  699TMC3     O10338   1.788   2.849  12.945 -0.1826  0.0209  0.2894
  699TMC3     H10339   1.939   2.517  13.078 -0.5127 -1.8662  0.7439
  699TMC3    H110340   1.668   2.838  13.133  1.6063  0.6129 -0.1999
  699TMC3    H210341   1.645   2.500  13.384 -0.0881 -1.2212 -0.5937
  699TMC3    C710342   1.518   2.708  13.311 -0.8109  0.8637 -0.0873
  699TMC3    C810343   1.847   2.369  13.274 -0.6172 -0.2042  0.8076
  699TMC3    O110344   1.472   2.650  13.407  0.3783 -0.3455  0.4728
  699TMC3    O210345   1.748   2.300  13.295  0.5366 -0.4442 -0.0410
  700TMC3    C110346   0.752   0.381  17.201 -0.6442  0.3266 -0.4508
  700TMC3    C210347   0.852   0.298  17.149 -0.5235  0.0677  0.0247
  700TMC3    C310348   0.965   0.300  17.216 -0.3307  1.1450  0.0477
  700TMC3    C410349   0.777   0.480  17.299 -0.1160  0.5196  0.0734
  700TMC3    C510350   0.900   0.481  17.357 -0.0781 -0.1448  0.2312
  700TMC3    C610351   0.993   0.393  17.310  0.1678 -0.0219  0.3508
  700TMC3     C10352   0.668   0.417  17.093  0.1464 -0.2360 -0.2109
  700TMC3     O10353   0.676   0.341  16.996  0.2032  0.0631  0.4548
  700TMC3     H10354   0.837   0.210  17.088  1.8313  1.5921 -2.7397
  700TMC3    H110355   0.692   0.538  17.333 -1.0459 -0.6144 -0.3061
  700TMC3    H210356   1.094   0.397  17.349 -0.5635  1.7011  2.1158
  700TMC3    C710357   0.921   0.536  17.488  0.8432 -0.2618  0.1258
  700TMC3    C810358   1.059   0.211  17.164  0.3060  0.8991 -0.2522
  700TMC3    O110359   1.034   0.526  17.538  0.5570  0.3145 -0.1960
  700TMC3    O210360   1.036   0.162  17.054 -0.5106  0.2039 -0.2123
  701TMC3    C110361   0.815   3.693  15.491 -0.3529 -0.3061  0.1437
  701TMC3    C210362   0.724   3.676  15.388 -0.1120 -0.4208  0.6447
  701TMC3    C310363   0.704   3.789  15.313 -0.1507 -1.0276 -0.1707
  701TMC3    C410364   0.881   3.806  15.524 -0.3697 -0.6971 -0.5130
  701TMC3    C510365   0.851   3.918  15.451  0.1688 -0.8277  0.0383
  701TMC3    C610366   0.763   3.906  15.344 -0.6187  0.0514 -0.1417
  701TMC3     C10367   0.841   3.576  15.571  0.0689 -0.3239 -0.5441
  701TMC3     O10368   0.759   3.485  15.557 -0.6663 -0.2909  0.0781
  701TMC3     H10369   0.676   3.584  15.358  1.2351 -1.0457  0.4105
  701TMC3    H110370   0.950   3.807  15.608  1.1522 -1.2150 -1.7614
  701TMC3    H210371   0.747   3.993  15.281 -2.6273  0.1554  0.5438
  701TMC3    C710372   0.892   4.052  15.482  0.5123  0.1703 -0.5856
  701TMC3    C810373   0.614   3.792  15.201  0.1576  0.0055 -0.3933
  701TMC3    O110374   0.899   4.127  15.384  0.3182  0.0919 -0.0158
  701TMC3    O210375   0.584   3.904  15.160 -0.5476  0.1421 -0.5882
  702MPD2     C10376   0.135   1.400  10.287  0.0569 -0.1165 -0.7794
  702MPD2    C110377   0.161   1.501  10.381  0.4988  0.3405 -0.1471
  702MPD2    C210378   0.201   1.628  10.334 -0.2497 -0.3250  0.4178
  702MPD2    C310379   0.196   1.663  10.199  0.7607 -0.3327  0.4488
  702MPD2    C410380   0.157   1.565  10.111 -0.7096  0.2212  0.1223
  702MPD2    C510381   0.120   1.437  10.155 -0.1775  0.5671 -0.3432
  702MPD2     H10382   0.239   1.695  10.411  3.2306 -0.2356 -1.3487
  702MPD2    H110383   0.146   1.583  10.005  0.1997  1.4305  0.2376
  702MPD2    H210384   0.134   1.295  10.313 -1.2310  0.2131  0.4558
  702MPD2    H310385   0.091   1.366  10.078  1.9734  0.1654 -0.7900
  702MPD2     N10386   0.210   1.797  10.164 -0.2415  0.1310  0.3348
  702MPD2    H510387   0.219   1.860  10.243 -1.2697  1.1633 -0.3612
  702MPD2    N110388   0.164   1.475  10.519  0.2626  0.2765  0.5362
  702MPD2    H710389   0.186   1.554  10.578 -0.2571  0.2572  0.7551
  703TMC3    C110390   0.241   1.972  10.016 -0.1774 -0.6188  0.2385
  703TMC3    C210391   0.153   2.057  10.079 -0.6051 -0.1351 -0.3365
  703TMC3    C310392   0.151   2.193  10.050 -0.9727  0.2881  0.5018
  703TMC3    C410393   0.328   2.020   9.925 -0.0683 -0.1563  0.2720
  703TMC3    C510394   0.326   2.154   9.899 -0.1115 -0.4042 -0.3500
  703TMC3    C610395   0.245   2.248   9.961 -0.2244  0.0359  0.8098
  703TMC3     C10396   0.244   1.829  10.036  0.0071 -0.1080  0.3598
  703TMC3     O10397   0.279   1.757   9.946  0.5739  0.0072 -0.1475
  703TMC3     H10398   0.085   2.012  10.151  1.5519 -2.1703  0.4356
  703TMC3    H110399   0.407   1.954   9.892  0.4199  0.1147  0.9117
  703TMC3    H210400   0.254   2.356   9.950 -0.3351 -0.1185 -0.7554
  703TMC3    C710401   0.449   2.194   9.837  0.4238 -0.2394 -0.1036
  703TMC3    C810402   0.050   2.284  10.103  0.2958 -0.3368 -0.0609
  703TMC3    O110403   0.545   2.124   9.860 -0.0467  0.0114  0.5515
  703TMC3    O210404   0.056   2.397  10.063  0.0830 -0.1487 -0.1713
  704TMC3    C110405   2.713   4.377  12.244  0.3411 -0.5082  0.1125
  704TMC3    C210406   2.847   4.350  12.224  0.1240 -0.0226  0.5959
  704TMC3    C310407   2.909   4.237  12.277 -0.0669 -0.4495  0.2357
  704TMC3    C410408   2.641   4.303  12.331  0.2551  0.0837  0.0745
  704TMC3    C510409   2.711   4.200  12.397 -0.0683  0.0193 -0.1244
  704TMC3    C610410   2.845   4.165  12.374  0.4678 -0.1487  0.1980
  704TMC3     C10411   2.634   4.436  12.143  0.3364  0.0142 -0.7451
  704TMC3     O10412   2.522   4.387  12.128 -0.2268  0.2420  0.5691
  704TMC3     H10413   2.896   4.385  12.134 -0.9455 -1.3121 -0.4890
  704TMC3    H110414   2.533   4.311  12.341  0.3073  1.4694 -0.5389
  704TMC3    H210415   2.890   4.074  12.413 -1.3095 -0.4034  1.6527
  704TMC3    C710416   2.633   4.081  12.422 -1.2839 -0.0644 -0.6522
  704TMC3    C810417   3.038   4.210  12.221  0.4846 -0.4583  0.3221
  704TMC3    O110418   2.564   4.075  12.519  0.3866  0.2154 -0.1439
  704TMC3    O210419   3.059   4.244  12.106 -0.0563  0.5100  0.2519
  705MPD2     C10420   2.078   1.809  16.398  0.1167  0.0443 -0.2589
  705MPD2    C110421   2.070   1.949  16.394 -0.4241  0.3936  0.4290
  705MPD2    C210422   1.968   2.009  16.469  0.6328  0.0135 -0.4841
  705MPD2    C310423   1.869   1.930  16.520  0.4877  0.7081 -0.4152
  705MPD2    C410424   1.865   1.794  16.507  0.7574  0.0781 -0.4710
  705MPD2    C510425   1.970   1.730  16.449  0.3471 -0.5236  0.8192
  705MPD2     H10426   1.967   2.117  16.476  0.4676  0.0114 -0.4732
  705MPD2    H110427   1.790   1.733  16.555 -1.0444  0.6784 -2.4735
  705MPD2    H210428   2.164   1.752  16.365  0.7162  0.5940  0.3627
  705MPD2    H310429   1.987   1.623  16.454 -2.2922 -1.1059 -2.6970
  705MPD2     N10430   1.764   1.987  16.596 -0.2287  0.5554 -0.7153
  705MPD2    H510431   1.692   1.924  16.627 -0.1926  1.3746  1.0857
  705MPD2    N110432   2.146   2.030  16.315  0.6321  0.1571 -0.1609
  705MPD2    H710433   2.114   2.125  16.298 -0.4381  0.3341  2.8377
  706TMC3    C110434   2.408   2.146  15.947 -0.0722  0.4429  0.3822
  706TMC3    C210435   2.443   2.274  15.985 -0.4092 -0.8121 -0.5028
  706TMC3    C310436   2.395   2.311  16.105  0.2132  0.3499 -0.3277
  706TMC3    C410437   2.340   2.056  16.023  0.0924  0.5086  0.2434
  706TMC3    C510438   2.299   2.092  16.143 -0.0678 -1.0864 -0.5752
  706TMC3    C610439   2.322   2.221  16.185 -0.0395  0.3231 -0.4113
  706TMC3     C10440   2.444   2.089  15.817 -0.2145  0.3410  0.3559
  706TMC3     O10441   2.367   2.011  15.769  0.0365  0.3058  0.1286
  706TMC3     H10442   2.491   2.353  15.928 -3.0139 -0.8308 -2.7038
  706TMC3    H110443   2.332   1.954  15.987 -0.3308  0.5071  0.3396
  706TMC3    H210444   2.287   2.253  16.283  0.3606  0.0115 -0.1680
  706TMC3    C710445   2.240   1.985  16.225 -0.3228  0.0841  0.0162
  706TMC3    C810446   2.393   2.451  16.149  0.2098  0.4473  0.2814
  706TMC3    O110447   2.296   1.877  16.223  0.0144  0.1922  0.3112
  706TMC3    O210448   2.374   2.535  16.066 -0.4431 -0.4102  0.3812
  707TMC3    C110449   4.421   0.745   1.882  0.2621 -0.3747 -0.2948
  707TMC3    C210450   4.522   0.669   1.932 -0.7914 -0.2119 -0.4379
  707TMC3    C310451   4.490   0.562   2.014  0.3640  0.1634  0.1820
  707TMC3    C410452   4.291   0.711   1.893 -0.0483  0.4556  0.2708
  707TMC3    C510453   4.259   0.602   1.972 -0.5309  0.1424 -0.6127
  707TMC3    C610454   4.359   0.521   2.030 -0.5412  0.8389 -0.0462
  707TMC3     C10455   4.461   0.860   1.800  0.2779 -0.0054  0.1325
  707TMC3     O10456   4.575   0.906   1.813  1.1880  0.0308  0.2518
  707TMC3     H10457   4.624   0.700   1.911 -0.4225 -0.4925  0.9277
  707TMC3    H110458   4.225   0.793   1.867  2.1198  1.3580 -2.3824
  707TMC3    H210459   4.329   0.431   2.083  2.5948 -0.2543 -0.1563
  707TMC3    C710460   4.120   0.562   1.996  0.6285 -0.5312  0.0457
  707TMC3    C810461   4.590   0.484   2.091 -0.6749  0.3063 -0.1681
  707TMC3    O110462   4.098   0.459   2.056  0.3703  0.1686 -0.0789
  707TMC3    O210463   4.542   0.408   2.176  0.4907 -0.8080  0.2772
  708MPD2     C10464   0.566   0.963  13.922  0.1175  0.7427 -0.0999
  708MPD2    C110465   0.608   1.083  13.867  0.3292 -0.2071  0.0928
  708MPD2    C210466   0.526   1.194  13.879  0.1909 -0.0979 -1.0337
  708MPD2    C310467   0.407   1.183  13.947 -0.5421 -0.4966  0.1456
  708MPD2    C410468   0.385   1.073  14.028 -0.0202  0.1131 -0.8117
  708MPD2    C510469   0.459   0.963  14.010  0.2214  0.7876 -0.2347
  708MPD2     H10470   0.550   1.286  13.828 -0.9530  0.3848 -0.7142
  708MPD2    H110471   0.293   1.060  14.085 -0.3072  0.9847 -1.0693
  708MPD2    H210472   0.617   0.868  13.913 -0.0670  0.5138  1.3298
  708MPD2    H310473   0.429   0.869  14.054  3.7858  0.2237  1.0389
  708MPD2     N10474   0.314   1.292  13.956  0.8355 -0.2592 -0.3292
  708MPD2    H510475   0.237   1.277  14.021 -0.9667  0.6082 -2.2968
  708MPD2    N110476   0.730   1.082  13.795 -0.2619 -0.1354  0.6006
  708MPD2    H710477   0.781   0.997  13.774  1.7659  1.4450 -0.8243
  709TMC3    C110478   0.907   1.175  13.668  0.6001  0.5120 -0.4403
  709TMC3    C210479   0.897   1.069  13.578  0.4968 -0.0614 -0.0480
  709TMC3    C310480   0.906   1.098  13.447  0.0250  0.5905  0.3780
  709TMC3    C410481   0.962   1.291  13.626  0.2227 -0.2506  0.5060
  709TMC3    C510482   0.965   1.320  13.498  0.3572  0.3161 -0.2115
  709TMC3    C610483   0.940   1.224  13.396 -0.1807 -0.6740  0.3542
  709TMC3     C10484   0.795   1.196  13.759 -0.0211 -0.1128  0.1277
  709TMC3     O10485   0.766   1.311  13.773 -0.6436 -0.7317  0.2011
  709TMC3     H10486   0.855   0.970  13.593 -0.9745  0.4829 -0.6239
  709TMC3    H110487   0.972   1.369  13.701 -2.4497  0.2451  0.3599
  709TMC3    H210488   0.933   1.246  13.291  2.0807 -0.8256  0.1748
  709TMC3    C710489   0.939   1.464  13.480  0.5607  0.0798 -0.0565
  709TMC3    C810490   0.844   0.994  13.362  0.5471  0.0089 -0.5911
  709TMC3    O110491   1.011   1.536  13.413 -0.0636 -0.1331  0.2327
  709TMC3    O210492   0.845   0.875  13.403  0.0675  0.2151  0.5388
  710TMC3    C110493   1.927   2.571   0.596 -0.0097 -0.3230  0.0263
  710TMC3    C210494   2.004   2.580   0.482 -0.5253 -0.6150 -0.3368
  710TMC3    C310495   2.121   2.517   0.489 -0.7920 -0.3501 -0.2247
  710TMC3    C410496   1.963   2.503   0.704 -0.5143 -0.0432 -0.6452
  710TMC3    C510497   2.088   2.441   0.711  0.2181 -0.3827  0.2631
  710TMC3    C610498   2.164   2.446   0.600  0.6293 -0.1239 -0.2299
  710TMC3     C10499   1.786   2.587   0.563  0.1357  0.5052 -0.2002
  710TMC3     O10500   1.741   2.545   0.457 -0.0216  0.0624  0.0675
  710TMC3     H10501   1.967   2.632   0.395 -2.1628 -0.8363  0.2330
  710TMC3    H110502   1.901   2.504   0.793 -0.4688  3.2693 -0.6431
  710TMC3    H210503   2.249   2.378   0.599  0.2248 -0.5971 -2.0205
  710TMC3    C710504   2.135   2.400   0.838  0.3658 -0.0717 -0.3509
  710TMC3    C810505   2.191   2.493   0.358 -0.2104  0.0706  0.3135
  710TMC3    O110506   2.043   2.394   0.920  0.2800  0.7405 -0.2490
  710TMC3    O210507   2.123   2.511   0.255 -0.7797 -0.0444 -0.2168
  711TMC3    C110508   1.536   3.533  15.224  0.4247  0.1791 -0.4438
  711TMC3    C210509   1.561   3.569  15.358  0.3802 -0.0705 -0.7317
  711TMC3    C310510   1.681   3.522  15.408  0.9757 -0.2137  0.1943
  711TMC3    C410511   1.621   3.452  15.167 -0.3406  0.4392  0.0307
  711TMC3    C510512   1.740   3.394  15.220 -0.2084 -0.9653  0.8579
  711TMC3    C610513   1.769   3.439  15.348  0.3062  0.9018  0.2742
  711TMC3     C10514   1.397   3.510  15.194 -0.8508  0.1100 -0.3115
  711TMC3     O10515   1.374   3.390  15.162  0.5059  0.3281  0.0186
  711TMC3     H10516   1.488   3.627  15.413 -2.3632 -0.6923 -3.7225
  711TMC3    H110517   1.589   3.423  15.068 -3.3694 -1.7181  1.6189
  711TMC3    H210518   1.842   3.380  15.401 -0.5733 -0.2222  0.2361
  711TMC3    C710519   1.748   3.254  15.206  0.3673 -0.1155 -0.2462
  711TMC3    C810520   1.682   3.530  15.554  0.0522 -0.6433  0.2460
  711TMC3    O110521   1.849   3.199  15.248  0.2279 -0.3287  0.0469
  711TMC3    O210522   1.577   3.577  15.599  0.5746 -0.1316  0.6073
  712MPD2     C10523   2.537   4.159  13.799  0.1150 -0.2584 -0.1339
  712MPD2    C110524   2.543   4.207  13.670 -0.7316 -0.4074  0.8423
  712MPD2    C210525   2.638   4.294  13.631  0.3725 -0.0336 -0.4194
  712MPD2    C310526   2.719   4.343  13.724 -0.2969 -0.1258  0.4693
  712MPD2    C410527   2.711   4.302  13.858 -0.1135 -0.8400 -0.2841
  712MPD2    C510528   2.615   4.212  13.896  0.4836 -0.4425  0.0822
  712MPD2     H10529   2.650   4.314  13.525 -1.2567  0.5219 -0.5028
  712MPD2    H110530   2.771   4.346  13.938 -1.7039  0.3533  0.2414
  712MPD2    H210531   2.476   4.077  13.834 -0.9635  0.3674 -0.5342
  712MPD2    H310532   2.615   4.160  13.992  0.5600  2.1743  1.5034
  712MPD2     N10533   2.824   4.435  13.695  0.0598 -0.5199 -0.5415
  712MPD2    H510534   2.891   4.466  13.765 -0.1668 -0.5400 -0.3133
  712MPD2    N110535   2.459   4.162  13.564  0.0880  0.4612 -0.4943
  712MPD2    H710536   2.483   4.218  13.483  0.5349  0.2655 -0.4920
  713TMC3    C110537   2.958   4.573  13.559  0.2115 -0.0943 -0.7458
  713TMC3    C210538   3.068   4.488  13.563 -0.5356  0.2850 -0.0898
  713TMC3    C310539   3.173   4.513  13.476  0.7089  0.3973 -0.2119
  713TMC3    C410540   2.941   4.673  13.465 -0.6190  0.9210 -0.0250
  713TMC3    C510541   3.041   4.678  13.373  0.9543  0.3993  0.1432
  713TMC3    C610542   3.155   4.603  13.379 -0.0074 -0.6255 -0.0125
  713TMC3     C10543   2.828   4.507  13.583 -0.4899 -0.4755  0.4095
  713TMC3     O10544   2.746   4.524  13.496 -0.0452  0.2570 -0.1680
  713TMC3     H10545   3.078   4.409  13.637 -0.6305 -1.8840 -2.3951
  713TMC3    H110546   2.854   0.012  13.473 -2.1339 -1.2728  0.8164
  713TMC3    H210547   3.232   4.622  13.305  1.8030 -1.5142  1.6413
  713TMC3    C710548   3.033   0.051  13.263  0.3240 -0.1427  0.1626
  713TMC3    C810549   3.312   4.513  13.526 -0.2959  0.3482  0.2205
  713TMC3    O110550   3.137   0.072  13.207 -0.3800  0.6160 -0.3184
  713TMC3    O210551   3.388   4.587  13.467  0.1726  0.4811 -0.6692
  714MPD2     C10552   3.766   3.307   1.153  0.5751  0.0290  0.2301
  714MPD2    C110553   3.840   3.193   1.115 -0.0048 -0.2150  0.6825
  714MPD2    C210554   3.804   3.136   0.996 -0.4331  0.7477  0.0303
  714MPD2    C310555   3.678   3.170   0.945 -0.5876  0.1946 -0.6981
  714MPD2    C410556   3.612   3.286   0.979 -0.3871  0.6812 -0.2385
  714MPD2    C510557   3.666   3.357   1.083 -0.9659  0.3271 -0.0400
  714MPD2     H10558   3.861   3.052   0.958 -3.4937 -1.0052 -0.6816
  714MPD2    H110559   3.522   3.330   0.938 -0.4466 -0.6219 -1.5378
  714MPD2    H210560   3.805   3.371   1.231  0.6673 -0.4509  0.5781
  714MPD2    H310561   3.621   3.445   1.125  1.1026  1.0512  0.6467
  714MPD2     N10562   3.622   3.075   0.854  0.0381 -0.7947  0.0627
  714MPD2    H510563   3.676   2.990   0.842  0.4369 -0.7765  1.7185
  714MPD2    N110564   3.952   3.152   1.188 -0.7480  0.0273  0.0300
  714MPD2    H710565   3.982   3.206   1.268  1.4861 -2.2090  0.6947
  715TMC3    C110566   4.131   3.028   1.254 -1.1974  0.5192  0.0017
  715TMC3    C210567   4.183   2.901   1.278  0.0511  0.5810 -0.0925
  715TMC3    C310568   4.295   2.891   1.350  0.4858  0.4247  0.5743
  715TMC3    C410569   4.188   3.142   1.301 -0.7077 -0.1676 -0.0904
  715TMC3    C510570   4.307   3.127   1.376  0.4322  0.6077 -0.1594
  715TMC3    C610571   4.363   3.003   1.392 -0.0849  0.0684 -0.1676
  715TMC3     C10572   4.017   3.037   1.166 -0.4387 -0.1319  0.1345
  715TMC3     O10573   3.990   2.939   1.092 -0.2076  0.4081  0.5253
  715TMC3     H10574   4.122   2.819   1.243  2.3313 -1.0793 -0.1184
  715TMC3    H110575   4.160   3.240   1.264  0.5359  0.8418  1.6436
  715TMC3    H210576   4.454   2.987   1.448 -0.9227  1.4423  1.5789
  715TMC3    C710577   4.392   3.244   1.400 -0.1559 -0.2538  0.0196
  715TMC3    C810578   4.370   2.764   1.339 -0.1312 -0.4145  0.1306
  715TMC3    O110579   4.513   3.221   1.419  0.2250 -0.1547  0.6236
  715TMC3    O210580   4.481   2.772   1.399 -0.2610  0.9082 -0.0313
  716MPD2     C10581   0.458   1.213   9.656  0.1075 -0.1116 -0.2111
  716MPD2    C110582   0.446   1.250   9.527 -0.2457  0.3728  0.8930
  716MPD2    C210583   0.474   1.161   9.432 -0.3007  0.2241  0.0371
  716MPD2    C310584   0.527   1.035   9.464 -0.7387  0.0183 -0.2102
  716MPD2    C410585   0.543   1.002   9.599 -0.2037  0.5254 -0.2367
  716MPD2    C510586   0.503   1.094   9.691  0.6901 -0.2907 -0.6511
  716MPD2     H10587   0.443   1.176   9.329  0.0805  0.5101 -0.0346
  716MPD2    H110588   0.569   0.902   9.630  0.4600  0.5072 -0.8260
  716MPD2    H210589   0.425   1.281   9.734 -1.3819 -0.1366 -0.8242
  716MPD2    H310590   0.500   1.059   9.794 -0.9196  1.1163 -0.2201
  716MPD2     N10591   0.562   0.950   9.357 -0.3436 -0.0751 -0.0341
  716MPD2    H510592   0.535   0.972   9.262  0.2453  1.0339  0.0527
  716MPD2    N110593   0.385   1.370   9.492 -1.0130 -0.3463  0.8372
  716MPD2    H710594   0.331   1.421   9.562  1.0295  1.2913  1.2042
  717TMC3    C110595   0.652   0.780   9.246 -0.7658  0.4456 -0.1501
  717TMC3    C210596   0.544   0.801   9.166  0.1823  0.0228 -0.6220
  717TMC3    C310597   0.570   0.823   9.033  0.5145  0.0904 -0.3540
  717TMC3    C410598   0.788   0.778   9.204  0.2318  0.0521 -0.0133
  717TMC3    C510599   0.805   0.782   9.071 -0.2440  0.0901 -0.2412
  717TMC3    C610600   0.701   0.811   8.982 -0.1377  0.1900  0.2396
  717TMC3     C10601   0.636   0.837   9.378  0.3616  0.1154  0.0378
  717TMC3     O10602   0.710   0.803   9.467  0.2416 -0.3639 -0.4595
  717TMC3     H10603   0.443   0.786   9.204  0.5577  1.3100  0.8707
  717TMC3    H110604   0.867   0.758   9.274  0.5429 -0.5389 -0.5359
  717TMC3    H210605   0.718   0.834   8.878  0.8815  1.2783  0.6452
  717TMC3    C710606   0.926   0.742   9.003 -0.3371  1.1984 -0.5414
  717TMC3    C810607   0.508   0.949   9.000 -0.2384 -0.0734 -0.4373
  717TMC3    O110608   0.911   0.701   8.888  0.0543  0.1729 -0.6427
  717TMC3    O210609   0.467   1.009   9.100  0.6294 -0.1347 -0.0095
  718MPD2     C10610   4.492   0.190  13.005  1.4285  0.0999  0.2955
  718MPD2    C110611   4.414   0.269  12.927 -0.4457  0.7296  1.2009
  718MPD2    C210612   4.310   0.207  12.861 -0.9912 -0.2435  0.0529
  718MPD2    C310613   4.298   0.068  12.872 -0.2997  0.3780 -0.9763
  718MPD2    C410614   4.372   4.719  12.957 -0.0944 -0.1893  0.1667
  718MPD2    C510615   4.481   0.053  13.014 -0.9314  0.4531 -0.1264
  718MPD2     H10616   4.248   0.253  12.785 -0.1599  0.8290  0.0218
  718MPD2    H110617   4.354   4.613  12.969  1.3145 -0.5493 -0.9056
  718MPD2    H210618   4.576   0.233  13.057  2.7409 -2.3161  0.1626
  718MPD2    H310619   4.544   0.005  13.088  0.0924 -0.7406 -1.7596
  718MPD2     N10620   4.191   0.009  12.802 -0.1409  0.7862  0.1512
  718MPD2    H510621   4.141   0.079  12.748  1.0465  0.8615 -0.8494
  718MPD2    N110622   4.453   0.404  12.901 -0.0993  0.5829  0.0627
  718MPD2    H710623   4.530   0.452  12.947 -1.6661  0.5404  2.7341
  719TMC3    C110624   4.433   0.612  12.802  0.1274 -0.4170  0.4392
  719TMC3    C210625   4.335   0.691  12.741  0.0114 -0.3672  0.4104
  719TMC3    C310626   4.353   0.758  12.631 -0.0798 -0.4304 -0.3058
  719TMC3    C410627   4.559   0.614  12.753 -0.1807 -0.5479  0.3541
  719TMC3    C510628   4.575   0.682  12.632 -0.7299 -0.3994  0.2635
  719TMC3    C610629   4.473   0.754  12.575  0.1135 -0.3539 -0.1232
  719TMC3     C10630   4.373   0.484  12.831 -0.0233  0.4156 -0.1223
  719TMC3     O10631   4.266   0.466  12.776 -0.0197 -0.2607  0.0786
  719TMC3     H10632   4.242   0.699  12.796  0.4332 -0.4253  1.1258
  719TMC3    H110633   4.630   0.551  12.807 -0.1591  0.3937  1.4298
  719TMC3    H210634   4.492   0.806  12.481 -2.0318 -1.3775 -1.1127
  719TMC3    C710635   4.709   0.703  12.568 -0.1671  0.0294  0.7637
  719TMC3    C810636   4.253   0.733  12.526  0.1664 -0.3529  0.1685
  719TMC3    O110637   4.714   0.782  12.475 -0.1880 -0.7498 -0.1466
  719TMC3    O210638   4.264   0.781  12.418  0.0830  0.0454  0.1067
  720MPD2     C10639   3.278   1.205  13.467  0.9362  0.0953  0.3273
  720MPD2    C110640   3.251   1.344  13.444  0.1563  0.1312  0.6743
  720MPD2    C210641   3.276   1.435  13.542  0.0421 -0.3403  0.0768
  720MPD2    C310642   3.334   1.398  13.658  0.0870  0.6590  0.0079
  720MPD2    C410643   3.347   1.263  13.691  0.1419 -0.1538  0.3827
  720MPD2    C510644   3.322   1.162  13.593 -0.1344 -0.1528 -0.5321
  720MPD2     H10645   3.256   1.541  13.527 -0.5958 -0.2760  1.3927
  720MPD2    H110646   3.401   1.240  13.782 -1.9495 -1.7908  1.2013
  720MPD2    H210647   3.264   1.128  13.391 -2.2883  1.0792 -0.0784
  720MPD2    H310648   3.339   1.058  13.615  0.1160  0.1989  0.8855
  720MPD2     N10649   3.388   1.491  13.750 -0.1600  0.2794 -0.1438
  720MPD2    H510650   3.423   1.454  13.838 -0.2664  0.2780 -0.1017
  720MPD2    N110651   3.198   1.388  13.325  1.0460 -0.8506  0.6355
  720MPD2    H710652   3.138   1.469  13.331  0.8844 -0.8483 -1.1162
  721TMC3    C110653   3.484   1.681  13.827 -0.4521 -0.7371 -0.0729
  721TMC3    C210654   3.470   1.628  13.948  0.3477  0.2256 -0.6218
  721TMC3    C310655   3.572   1.653  14.041 -0.0168  0.2775 -0.4388
  721TMC3    C410656   3.612   1.727  13.783  0.5678  0.5661 -0.3960
  721TMC3    C510657   3.718   1.713  13.872  0.2719  0.2429 -0.3166
  721TMC3    C610658   3.692   1.696  14.003 -0.2228 -0.0856  0.6487
  721TMC3     C10659   3.410   1.623  13.719 -0.4805  0.1108 -0.4823
  721TMC3     O10660   3.406   1.686  13.614  0.0486 -0.4268 -0.1577
  721TMC3     H10661   3.370   1.597  13.977 -0.0122 -1.5573 -3.7216
  721TMC3    H110662   3.620   1.750  13.677  0.6796 -2.2438 -0.9974
  721TMC3    H210663   3.775   1.710  14.071  2.4399  0.1287 -2.6110
  721TMC3    C710664   3.838   1.662  13.822 -0.0226 -0.2793  0.3967
  721TMC3    C810665   3.553   1.651  14.183  0.6644  0.2422  0.9432
  721TMC3    O110666   3.889   1.703  13.716 -0.2069 -0.1053 -0.3215
  721TMC3    O210667   3.651   1.654  14.251  0.1138 -0.1690 -0.3833
  722MPD2     C10668   1.831   0.187  13.222 -0.7408 -0.1932  0.7194
  722MPD2    C110669   1.849   0.217  13.086  0.5219 -0.5614 -0.2665
  722MPD2    C210670   1.743   0.197  13.004 -0.4311 -0.4567 -0.2687
  722MPD2    C310671   1.628   0.135  13.039  0.2530  0.7204  0.7609
  722MPD2    C410672   1.612   0.095  13.173 -0.1165  0.6327  0.5113
  722MPD2    C510673   1.715   0.120  13.261  0.1097  0.5448 -0.1676
  722MPD2     H10674   1.757   0.218  12.898 -2.1547 -0.1813 -0.4419
  722MPD2    H110675   1.523   0.042  13.205 -0.8151  1.4450 -0.0595
  722MPD2    H210676   1.911   0.209  13.293 -1.0650  0.2539  0.9424
  722MPD2    H310677   1.701   0.091  13.365 -2.0211  0.1556 -0.5684
  722MPD2     N10678   1.528   0.144  12.944 -0.4145 -0.1318 -0.1947
  722MPD2    H510679   1.538   0.215  12.873 -1.3327 -0.1110 -0.2982
  722MPD2    N110680   1.964   0.286  13.035 -0.1398  0.0367 -0.1342
  722MPD2    H710681   1.964   0.327  12.943 -1.5193 -0.0160 -0.1708
  723TMC3    C110682   1.311   0.149  12.862  1.2933 -0.1466 -0.0919
  723TMC3    C210683   1.179   0.148  12.899 -0.2276  0.1495 -0.7525
  723TMC3    C310684   1.097   0.246  12.855  0.0540  0.0488 -0.4206
  723TMC3    C410685   1.356   0.247  12.774 -0.2928  0.3614  0.2442
  723TMC3    C510686   1.271   0.346  12.731 -0.1358  0.1361 -1.0371
  723TMC3    C610687   1.139   0.338  12.764 -0.2076 -0.0388  0.6734
  723TMC3     C10688   1.406   0.079  12.945 -1.0028  0.2931 -0.2505
  723TMC3     O10689   1.366   4.715  13.017 -0.3733  0.2885  0.0587
  723TMC3     H10690   1.151   0.077  12.975 -2.2078  0.6012 -1.0553
  723TMC3    H110691   1.459   0.244  12.738 -0.7883  0.5251 -1.1807
  723TMC3    H210692   1.064   0.403  12.720  0.1160 -0.1779 -0.0803
  723TMC3    C710693   1.325   0.465  12.667  0.0887  0.0848  0.7182
  723TMC3    C810694   0.954   0.207  12.859  0.2499  0.2409 -0.4802
  723TMC3    O110695   1.437   0.454  12.626 -0.5327  0.0890  0.3266
  723TMC3    O210696   0.865   0.290  12.852  0.2778  0.9707  0.6821
  724TMC3    C110697   2.275   3.193  10.166  0.2609 -0.5934 -0.1164
  724TMC3    C210698   2.204   3.286  10.092 -0.0642 -0.1451 -0.3565
  724TMC3    C310699   2.275   3.402  10.057  0.6272  0.0094 -0.5075
  724TMC3    C410700   2.399   3.216  10.207  0.4443  0.0065 -0.3395
  724TMC3    C510701   2.461   3.335  10.182  0.3881  0.7928 -0.0452
  724TMC3    C610702   2.402   3.433  10.106 -0.4165  0.4108  0.9823
  724TMC3     C10703   2.193   3.083  10.206 -0.2025 -0.8758  0.2197
  724TMC3     O10704   2.092   3.069  10.140  0.7029 -0.1253  0.9782
  724TMC3     H10705   2.109   3.265  10.045 -0.0737 -2.9768  0.9767
  724TMC3    H110706   2.460   3.130  10.232  0.3091 -0.0312 -0.1413
  724TMC3    H210707   2.455   3.520  10.068 -0.6831  1.1132  2.2368
  724TMC3    C710708   2.607   3.343  10.208  0.2219 -0.6078  0.7840
  724TMC3    C810709   2.218   3.478   9.950  0.4102  0.3024 -0.7923
  724TMC3    O110710   2.664   3.437  10.157 -0.0860 -0.1383 -0.4009
  724TMC3    O210711   2.128   3.422   9.896  0.1483  0.0427  0.6756
  725TMC3    C110712   3.719   1.809  12.713  1.1689  0.1813  0.0710
  725TMC3    C210713   3.641   1.891  12.634 -0.1565 -0.1281  0.3254
  725TMC3    C310714   3.581   1.847  12.518  0.3432  0.7373 -0.0607
  725TMC3    C410715   3.756   1.683  12.664 -0.3177  0.4721 -0.5283
  725TMC3    C510716   3.694   1.643  12.545  0.2919  0.1596  0.5372
  725TMC3    C610717   3.601   1.719  12.484  0.6745  0.0056 -0.1934
  725TMC3     C10718   3.779   1.861  12.840  0.9132 -0.4140 -0.1595
  725TMC3     O10719   3.773   1.985  12.844  0.3397 -0.7469 -0.7499
  725TMC3     H10720   3.606   1.985  12.675  0.5708 -0.3441  1.4480
  725TMC3    H110721   3.833   1.625  12.714  1.9682  1.8446 -2.4722
  725TMC3    H210722   3.556   1.685  12.392 -1.3241  0.1825  0.7258
  725TMC3    C710723   3.747   1.529  12.480  0.4638 -0.3151  0.3903
  725TMC3    C810724   3.477   1.922  12.448  0.2537 -0.7086  0.3513
  725TMC3    O110725   3.701   1.507  12.369 -0.1608  0.4787 -0.7250
  725TMC3    O210726   3.397   1.856  12.382 -0.4475 -0.4516 -0.4247
  726MPD2     C10727   1.535   3.525  10.182 -0.3787  0.5225 -0.3508
  726MPD2    C110728   1.531   3.551  10.315  0.3688 -0.4407  1.0564
  726MPD2    C210729   1.470   3.452  10.396 -0.4179 -0.0061 -0.6723
  726MPD2    C310730   1.418   3.333  10.340  0.5385 -0.3752  0.1875
  726MPD2    C410731   1.415   3.323  10.196  0.0463 -0.2929  0.2978
  726MPD2    C510732   1.482   3.417  10.126 -0.5012 -0.6977 -0.1824
  726MPD2     H10733   1.473   3.461  10.504 -1.9450  0.4586 -0.6613
  726MPD2    H110734   1.379   3.237  10.140  2.0783 -0.8641 -0.1163
  726MPD2    H210735   1.578   3.599  10.115 -0.4340  1.1737  0.3236
  726MPD2    H310736   1.495   3.413  10.018  0.8045  0.0402 -0.0631
  726MPD2     N10737   1.366   3.227  10.412 -0.8367  0.6445 -0.4007
  726MPD2    H510738   1.330   3.151  10.355  2.5457 -1.3950  0.1823
  726MPD2    N110739   1.579   3.674  10.367  0.0345 -0.0556 -0.3440
  726MPD2    H710740   1.597   3.676  10.467  1.8255  0.3570 -0.6788
  727TMC3    C110741   1.641   3.895  10.376  0.8312 -0.3446  0.0606
  727TMC3    C210742   1.743   3.884  10.472 -0.6122  0.1620  0.5126
  727TMC3    C310743   1.793   4.007  10.510 -0.6080  0.0500  0.1504
  727TMC3    C410744   1.590   4.012  10.324  0.6620 -0.1222  0.3459
  727TMC3    C510745   1.645   4.128  10.377  0.0490 -0.6629  0.0742
  727TMC3    C610746   1.743   4.131  10.470  0.1079  0.3911  0.5370
  727TMC3     C10747   1.606   3.786  10.297 -0.8744  0.0510 -0.8704
  727TMC3     O10748   1.603   3.809  10.175  0.1452  0.0141 -0.1139
  727TMC3     H10749   1.780   3.789  10.507  3.3141  0.5632 -2.5072
  727TMC3    H110750   1.511   4.013  10.250  2.5007 -0.8866 -1.6268
  727TMC3    H210751   1.796   4.223  10.491  0.2831  0.2445  0.7405
  727TMC3    C710752   1.591   4.251  10.317  0.4721 -0.0422 -0.0998
  727TMC3    C810753   1.876   4.009  10.624  0.2527  0.5999 -0.5961
  727TMC3    O110754   1.482   4.247  10.262 -0.6170  0.0773 -0.0155
  727TMC3    O210755   1.851   3.919  10.703 -0.1483 -1.1884 -0.6968
  728TMC3    C110756   0.663   2.312  15.724  0.0662  0.2331  0.0226
  728TMC3    C210757   0.801   2.358  15.735  0.1981  0.0164 -0.1969
  728TMC3    C310758   0.851   2.459  15.657 -0.8678 -0.0574 -0.3577
  728TMC3    C410759   0.582   2.368  15.628 -0.1375 -0.1292  0.2080
  728TMC3    C510760   0.640   2.461  15.544  0.4886 -0.1487 -0.1675
  728TMC3    C610761   0.776   2.497  15.547  0.4169 -0.7326  0.5403
  728TMC3     C10762   0.632   2.203  15.822  0.5088  0.0969 -0.1964
  728TMC3     O10763   0.711   2.192  15.914 -0.8633  0.0118 -0.1254
  728TMC3     H10764   0.868   2.318  15.810  1.6200  1.4937 -0.6944
  728TMC3    H110765   0.478   2.338  15.622  0.0680 -0.7259 -0.3667
  728TMC3    H210766   0.816   2.556  15.466  0.6075  0.0807  1.2355
  728TMC3    C710767   0.562   2.488  15.426  0.4606 -0.1058  0.4435
  728TMC3    C810768   0.967   2.541  15.713  0.3055  0.1701 -0.0465
  728TMC3    O110769   0.464   2.416  15.415  0.0393  0.1450 -0.4535
  728TMC3    O210770   1.021   2.490  15.807  0.2076  0.0070  0.2581
  729MPD2     C10771   3.219   2.844  16.196  0.6949  0.2853  0.9105
  729MPD2    C110772   3.169   2.972  16.212 -0.0421 -0.4255 -0.1898
  729MPD2    C210773   3.053   2.980  16.300  0.6505 -0.4581 -0.3079
  729MPD2    C310774   3.007   2.871  16.372  0.4854  0.2596  0.2748
  729MPD2    C410775   3.063   2.749  16.348 -0.1978 -0.1982  0.2418
  729MPD2    C510776   3.168   2.737  16.262  0.5972  0.1595  0.3948
  729MPD2     H10777   3.003   3.073  16.325  2.5589  0.2346  0.9453
  729MPD2    H110778   3.033   2.660  16.402 -4.6091 -0.0584 -1.9677
  729MPD2    H210779   3.315   2.836  16.146 -0.9257 -0.0022 -2.1711
  729MPD2    H310780   3.215   2.642  16.242 -1.3702 -0.2646 -2.1980
  729MPD2     N10781   2.917   2.881  16.482  0.4248  0.2415  0.3447
  729MPD2    H510782   2.912   2.808  16.553 -0.4072  0.2510  0.2848
  729MPD2    N110783   3.222   3.079  16.144  0.5722  0.2420 -0.1951
  729MPD2    H710784   3.289   3.057  16.071 -2.4359 -1.1662 -2.5430
  730TMC3    C110785   2.758   2.979  16.634  0.3824 -0.6116 -0.2864
  730TMC3    C210786   2.840   2.949  16.743  0.0720 -0.3275  0.5320
  730TMC3    C310787   2.801   2.982  16.865  0.7368 -0.2056  0.1357
  730TMC3    C410788   2.639   3.045  16.642 -0.3710  0.2772 -0.2044
  730TMC3    C510789   2.603   3.072  16.769  0.0344  0.5389 -0.0243
  730TMC3    C610790   2.679   3.045  16.883  0.3856  0.6803 -0.4006
  730TMC3     C10791   2.827   2.981  16.499  0.0331  0.0727 -0.0161
  730TMC3     O10792   2.795   3.074  16.426  0.7284 -0.2838  0.3402
  730TMC3     H10793   2.942   2.913  16.727 -0.0792 -0.1730 -0.7802
  730TMC3    H110794   2.575   3.066  16.557 -1.1949  0.5493  0.4784
  730TMC3    H210795   2.647   3.069  16.984  1.5560 -0.1133  0.1610
  730TMC3    C710796   2.559   3.204  16.779 -0.0975  0.3546  0.5145
  730TMC3    C810797   2.907   3.043  16.938  0.2881  0.2122  0.7833
  730TMC3    O110798   2.639   3.271  16.843 -0.2594 -0.4104 -0.3659
  730TMC3    O210799   3.019   2.992  16.945 -0.0007  0.0620  0.4819
  731MPD2     C10800   3.156   0.829  11.895  0.4221 -0.4908 -0.6157
  731MPD2    C110801   3.279   0.881  11.855 -0.1525  1.2853  0.3671
  731MPD2    C210802   3.388   0.837  11.924  0.2820  0.7358  0.6671
  731MPD2    C310803   3.379   0.753  12.032 -0.0542 -0.4081 -0.2546
  731MPD2    C410804   3.255   0.708  12.070 -0.6739  0.1739 -0.8680
  731MPD2    C510805   3.148   0.740  11.996  0.2183  0.8491  0.0996
  731MPD2     H10806   3.480   0.885  11.894 -0.3288  1.1243 -0.5886
  731MPD2    H110807   3.236   0.649  12.158  0.5111 -0.0873 -0.7866
  731MPD2    H210808   3.067   0.852  11.837 -0.8540 -1.6124  0.9096
  731MPD2    H310809   3.047   0.705  12.019 -0.7590  3.0181 -0.9216
  731MPD2     N10810   3.499   0.725  12.106 -0.4138 -0.1556  0.0181
  731MPD2    H510811   3.582   0.769  12.069 -2.0665  1.6939 -1.4413
  731MPD2    N110812   3.282   0.969  11.749 -0.0808 -0.1725 -0.4622
  731MPD2    H710813   3.197   1.013  11.715  0.0750  1.3257  1.0643
  732TMC3    C110814   3.363   1.111  11.598 -0.4286  0.2999  1.0648
  732TMC3    C210815   3.242   1.108  11.533  0.4283 -0.2840 -0.0977
  732TMC3    C310816   3.210   1.219  11.452 -0.3169 -0.1167 -0.1484
  732TMC3    C410817   3.449   1.213  11.580  0.3510  1.4987  0.7782
  732TMC3    C510818   3.411   1.317  11.503  0.5984 -0.5779  0.6291
  732TMC3    C610819   3.292   1.321  11.433 -0.5823  0.0403 -0.1343
  732TMC3     C10820   3.399   1.016  11.698  0.1319  0.2605  0.4572
  732TMC3     O10821   3.514   0.976  11.698 -0.1690  0.2238 -0.0221
  732TMC3     H10822   3.179   1.020  11.535 -0.8276  0.6097  0.7949
  732TMC3    H110823   3.537   1.220  11.642 -1.1384  1.1511  2.9079
  732TMC3    H210824   3.257   1.402  11.371  0.4762 -0.9190 -1.9634
  732TMC3    C710825   3.471   1.449  11.511  0.9515 -0.9329  1.1354
  732TMC3    C810826   3.091   1.220  11.377 -0.0381  0.4022  0.4900
  732TMC3    O110827   3.392   1.542  11.510  0.2540  0.2907  0.2203
  732TMC3    O210828   3.089   1.245  11.256 -0.3049  0.1762  0.3976
  733TMC3    C110829   3.837   4.522  12.643 -0.1203  0.6621  0.6157
  733TMC3    C210830   3.952   4.497  12.712 -0.8797  0.7523  0.0837
  733TMC3    C310831   4.054   4.589  12.690 -0.1203 -0.3647  0.8697
  733TMC3    C410832   3.815   4.623  12.551  0.7736  0.8977  0.1188
  733TMC3    C510833   3.922   4.705  12.529 -1.3988  0.6006 -0.1061
  733TMC3    C610834   4.040   4.696  12.596 -0.3839  0.0757  0.2386
  733TMC3     C10835   3.715   4.467  12.700 -0.0028  0.7436  0.1699
  733TMC3     O10836   3.607   4.487  12.634  0.4897  0.4653  0.2658
  733TMC3     H10837   3.970   4.415  12.780  0.2346  1.2209  0.3481
  733TMC3    H110838   3.714   4.642  12.515  0.7182 -0.4552 -0.4278
  733TMC3    H210839   4.125   0.036  12.578 -0.8789  0.4253 -0.8572
  733TMC3    C710840   3.907   0.090  12.440  0.0019  0.7033 -0.1570
  733TMC3    C810841   4.159   4.600  12.782  0.5306 -0.5397 -0.0577
  733TMC3    O110842   3.816   0.091  12.359  0.4617 -0.2142 -0.1561
  733TMC3    O210843   4.183   4.502  12.854  0.0251  0.6582 -0.0705
  734MPD2     C10844   1.301   2.666  12.361  0.2349  0.4259  0.0422
  734MPD2    C110845   1.288   2.548  12.289 -0.1504 -0.2789 -0.4213
  734MPD2    C210846   1.298   2.554  12.152 -0.1681 -0.5585 -0.6578
  734MPD2    C310847   1.333   2.659  12.078 -0.2156  0.1509  0.4646
  734MPD2    C410848   1.346   2.780  12.150  0.5404  0.1398  0.0734
  734MPD2    C510849   1.327   2.776  12.286 -0.5604  0.0997  0.2599
  734MPD2     H10850   1.292   2.465  12.090  1.4936 -1.6765  0.7727
  734MPD2    H110851   1.370   2.871  12.095  3.0460 -1.2497 -1.1607
  734MPD2    H210852   1.296   2.663  12.469 -0.0631 -2.5284 -0.0664
  734MPD2    H310853   1.340   2.869  12.340  2.2827 -0.4385  0.5390
  734MPD2     N10854   1.356   2.633  11.941 -0.4937 -0.4354  0.4631
  734MPD2    H510855   1.363   2.534  11.920 -1.2591 -1.2519  4.1875
  734MPD2    N110856   1.259   2.426  12.359 -0.2080 -0.1135  0.1227
  734MPD2    H710857   1.269   2.424  12.459 -1.1075 -0.4314  0.2102
  735TMC3    C110858   1.193   2.193  12.372  0.1554 -0.2352 -0.3223
  735TMC3    C210859   1.095   2.107  12.327  0.2988  1.6729 -0.3409
  735TMC3    C310860   1.124   1.976  12.307 -0.0936 -0.2203 -0.0576
  735TMC3    C410861   1.316   2.145  12.404 -0.5229  0.3490  0.0665
  735TMC3    C510862   1.345   2.012  12.374  0.0694  0.4397 -0.0583
  735TMC3    C610863   1.249   1.922  12.345 -0.0837  0.0967  0.7513
  735TMC3     C10864   1.208   2.312  12.292  0.1975 -0.6441 -0.1689
  735TMC3     O10865   1.161   2.309  12.178  0.1870  0.1273 -0.4194
  735TMC3     H10866   1.004   2.151  12.287 -0.6209  0.4747  0.4430
  735TMC3    H110867   1.402   2.210  12.416  1.6066 -2.4589  0.1177
  735TMC3    H210868   1.277   1.825  12.304 -2.7937 -1.0495  1.5895
  735TMC3    C710869   1.479   1.975  12.336 -0.6767 -0.7007 -0.0021
  735TMC3    C810870   1.089   1.932  12.171 -0.0260  0.5264 -0.0571
  735TMC3    O110871   1.558   2.064  12.308  0.4186 -0.2651 -0.2370
  735TMC3    O210872   1.095   1.811  12.147 -0.5579 -0.2988 -0.0801
  736MPD2     C10873   1.642   1.649  12.373  0.0030 -0.2843 -0.2530
  736MPD2    C110874   1.624   1.782  12.329 -0.1815 -0.7563 -0.1622
  736MPD2    C210875   1.696   1.823  12.216  0.0828  0.4740  0.1221
  736MPD2    C310876   1.774   1.731  12.143  0.0987 -0.1689  0.7371
  736MPD2    C410877   1.807   1.612  12.205  0.0220  0.0468 -0.0821
  736MPD2    C510878   1.735   1.570  12.315  0.4789  0.5700  0.3838
  736MPD2     H10879   1.693   1.927  12.185  0.4821  0.7280  0.9233
  736MPD2    H110880   1.867   1.539  12.152  0.5937 -1.0322  2.0508
  736MPD2    H210881   1.582   1.607  12.452  1.4968 -0.5073  0.7663
  736MPD2    H310882   1.752   1.468  12.345  0.7703 -0.2479 -2.5926
  736MPD2     N10883   1.831   1.764  12.021  0.3315 -0.0852  0.9264
  736MPD2    H510884   1.889   1.694  11.975 -0.5372 -0.0459 -0.2145
  736MPD2    N110885   1.519   1.857  12.388 -0.5102 -0.2212 -0.9024
  736MPD2    H710886   1.462   1.818  12.462  1.6126 -2.9248 -0.7054
  737TMC3    C110887   1.839   1.877  11.803  0.3164 -0.7741 -0.2097
  737TMC3    C210888   1.821   1.991  11.734  0.5792  0.2639 -0.2113
  737TMC3    C310889   1.853   1.981  11.600 -0.0937  0.1739 -0.2155
  737TMC3    C410890   1.890   1.764  11.746  0.0506 -0.0701 -0.4875
  737TMC3    C510891   1.922   1.766  11.618  0.6955  0.2803 -0.4194
  737TMC3    C610892   1.911   1.874  11.537  0.0861  0.8842 -0.3909
  737TMC3     C10893   1.816   1.883  11.949  0.4407  0.0131 -0.1728
  737TMC3     O10894   1.742   1.981  11.968  0.4218 -0.4334  0.0407
  737TMC3     H10895   1.775   2.082  11.771 -0.1673 -0.1577 -0.0992
  737TMC3    H110896   1.912   1.676  11.806 -0.0976  0.4017  0.2657
  737TMC3    H210897   1.938   1.862  11.433  0.1450  1.0413 -0.3938
  737TMC3    C710898   1.976   1.648  11.557  0.0794  0.3376 -0.1303
  737TMC3    C810899   1.853   2.105  11.523  0.8099 -0.2790  0.3426
  737TMC3    O110900   1.906   1.549  11.563  0.5150  0.1870  0.0296
  737TMC3    O210901   1.894   2.197  11.593  0.6669  0.2066  0.2472
  738MPD2     C10902   0.938   0.780  14.647 -0.0552  0.2225  0.1858
  738MPD2    C110903   1.059   0.830  14.691  0.3354  0.1480 -0.6841
  738MPD2    C210904   1.147   0.880  14.599  0.0889  0.2294 -0.5204
  738MPD2    C310905   1.109   0.890  14.461  0.1597 -0.3193 -0.0683
  738MPD2    C410906   0.983   0.836  14.421  0.6525 -0.1382  0.2503
  738MPD2    C510907   0.896   0.785  14.512  0.5229  0.4085 -0.3764
  738MPD2     H10908   1.249   0.901  14.632  0.3722 -1.2743 -0.4501
  738MPD2    H110909   0.952   0.826  14.318 -3.1205  1.2149  1.2544
  738MPD2    H210910   0.874   0.738  14.723  3.1579 -1.8695  1.7479
  738MPD2    H310911   0.804   0.737  14.480  0.6309 -0.3311  0.4262
  738MPD2     N10912   1.195   0.936  14.363  0.7051 -0.0639  0.4624
  738MPD2    H510913   1.170   0.932  14.264 -1.4012 -2.5270  1.0944
  738MPD2    N110914   1.097   0.825  14.822 -0.4296 -0.5067 -0.4138
  738MPD2    H710915   1.188   0.866  14.840 -0.9258  0.1636  0.6206
  739TMC3    C110916   1.349   1.073  14.257  0.1527  0.5887 -0.2991
  739TMC3    C210917   1.370   0.978  14.162  0.0692 -1.1376 -0.1469
  739TMC3    C310918   1.458   0.998  14.063  0.1313 -0.5039 -0.6641
  739TMC3    C410919   1.426   1.183  14.267 -0.3781  0.0631  0.3321
  739TMC3    C510920   1.517   1.203  14.163  0.3773 -0.2955  0.1895
  739TMC3    C610921   1.526   1.119  14.056 -0.5956  0.7055  0.0348
  739TMC3     C10922   1.303   1.016  14.384 -0.1685 -0.3323  0.9552
  739TMC3     O10923   1.345   1.061  14.488 -0.0391 -0.5433 -0.3107
  739TMC3     H10924   1.329   0.877  14.165  0.6618 -1.3903 -0.5016
  739TMC3    H110925   1.414   1.253  14.349  4.3648  1.3281 -0.0296
  739TMC3    H210926   1.595   1.140  13.975 -1.3273 -1.4373 -1.1328
  739TMC3    C710927   1.601   1.319  14.167  0.5677  0.4319 -0.1086
  739TMC3    C810928   1.489   0.881  13.973  0.3346 -0.2078  0.6041
  739TMC3    O110929   1.666   1.347  14.069  0.0940  0.3386  0.3557
  739TMC3    O210930   1.421   0.780  13.977 -0.4411  0.0958  0.0837
  740TMC3    C110931   2.337   1.572  14.168  0.1757 -0.3698 -0.0197
  740TMC3    C210932   2.236   1.483  14.200 -0.0628  0.3111  0.2092
  740TMC3    C310933   2.249   1.355  14.149  1.0212  0.0798  0.0201
  740TMC3    C410934   2.430   1.540  14.075 -0.6939  0.5423  0.2050
  740TMC3    C510935   2.433   1.413  14.018  0.1929 -0.3174 -0.5933
  740TMC3    C610936   2.342   1.318  14.061 -0.0594 -0.1969 -0.0835
  740TMC3     C10937   2.300   1.718  14.181 -0.1200 -0.2841 -0.3556
  740TMC3     O10938   2.320   1.793  14.086  0.6248 -0.1230 -0.2825
  740TMC3     H10939   2.142   1.522  14.236  0.7623  1.6949  0.8621
  740TMC3    H110940   2.495   1.619  14.039  1.4195 -1.0650  0.5339
  740TMC3    H210941   2.350   1.215  14.031 -1.1728 -0.7019  1.3514
  740TMC3    C710942   2.547   1.376  13.935  0.4540 -0.8825 -0.1249
  740TMC3    C810943   2.141   1.264  14.168 -0.3073  0.5059  0.7216
  740TMC3    O110944   2.577   1.255  13.937  0.1580 -0.4755  0.5930
  740TMC3    O210945   2.111   1.188  14.082  0.3220 -0.0971 -0.5729
  741TMC3    C110946   1.648   0.924  13.306 -0.3882 -0.1880 -0.5628
  741TMC3    C210947   1.583   0.925  13.431  0.4095  0.0508  0.1329
  741TMC3    C310948   1.630   0.989  13.541  0.4389  0.2100 -0.1365
  741TMC3    C410949   1.765   0.991  13.293 -0.1106 -0.2832 -0.5901
  741TMC3    C510950   1.814   1.053  13.407  0.5522  0.0057  0.1803
  741TMC3    C610951   1.752   1.054  13.528  0.0727 -0.2204  1.2948
  741TMC3     C10952   1.559   0.911  13.195  0.0805 -0.8059 -0.2332
  741TMC3     O10953   1.449   0.858  13.211  0.7250  0.1752  0.2213
  741TMC3     H10954   1.487   0.875  13.440  1.1871 -1.1641  1.6991
  741TMC3    H110955   1.822   0.990  13.201 -0.1362 -2.2626 -0.5854
  741TMC3    H210956   1.807   1.098  13.611 -0.9458  2.0516  0.7405
  741TMC3    C710957   1.954   1.090  13.395 -0.7222 -0.9601  0.3820
  741TMC3    C810958   1.529   1.033  13.632  0.2777  0.3009  0.1712
  741TMC3    O110959   2.019   1.029  13.310 -0.6685  0.0597 -0.0928
  741TMC3    O210960   1.432   0.966  13.652 -0.4837  0.3357  0.0886
  742TMC3    C110961   1.783   4.679  15.272 -0.3610 -1.1053 -0.3708
  742TMC3    C210962   1.726   4.680  15.150  0.0576  0.4394 -0.3484
  742TMC3    C310963   1.812   4.654  15.044  0.2017 -0.2908  0.5304
  742TMC3    C410964   1.916   4.667  15.294  0.1172 -0.2065 -0.0444
  742TMC3    C510965   1.993   4.637  15.187  0.6877 -0.0806 -0.9164
  742TMC3    C610966   1.948   4.629  15.057  0.1303  0.0434 -0.0901
  742TMC3     C10967   1.693   4.713  15.382 -0.1927 -1.0916 -0.3213
  742TMC3     O10968   1.588   0.043  15.360  0.2751 -0.3607 -0.1716
  742TMC3     H10969   1.620   4.669  15.134  0.1003  1.3995 -1.2714
  742TMC3    H110970   1.963   4.673  15.391  0.4491  1.4882 -0.3115
  742TMC3    H210971   2.016   4.604  14.977  0.3990 -0.3100  0.2529
  742TMC3    C710972   2.127   4.580  15.208 -0.3991 -0.2890 -0.7237
  742TMC3    C810973   1.760   4.616  14.911  0.4252  0.2170  0.3370
  742TMC3    O110974   2.195   4.580  15.107  0.1410 -0.9167  0.3338
  742TMC3    O210975   1.830   4.545  14.840  0.3504 -0.6169  0.8314
  743MPD2     C10976   0.933   0.615   2.365  0.8257  0.0483 -0.5485
  743MPD2    C110977   0.959   0.672   2.240 -1.0173 -0.8688 -0.3086
  743MPD2    C210978   1.058   0.769   2.231  0.6492  0.3405 -0.0615
  743MPD2    C310979   1.128   0.803   2.346  0.0198  0.4729  0.6725
  743MPD2    C410980   1.101   0.743   2.469 -0.4630 -0.7641  0.6054
  743MPD2    C510981   1.000   0.651   2.471  0.4603  0.5360 -0.1111
  743MPD2     H10982   1.093   0.811   2.138 -1.1265 -0.9917 -1.3183
  743MPD2    H110983   1.139   0.761   2.569  0.1754  0.0560  0.2187
  743MPD2    H210984   0.861   0.534   2.357 -0.1795  1.0296 -1.5099
  743MPD2    H310985   0.983   0.610   2.571  1.1496 -0.1196 -0.2637
  743MPD2     N10986   1.225   0.905   2.338  0.0726  0.0629  0.0445
  743MPD2    H510987   1.229   0.962   2.254 -1.4865  0.7039  0.4052
  743MPD2    N110988   0.893   0.631   2.129 -0.2321  0.1996  0.1013
  743MPD2    H710989   0.822   0.564   2.155 -2.7963  1.6391 -3.1461
  744TMC3    C110990   0.806   0.631   1.907  0.0038 -0.3317  0.6026
  744TMC3    C210991   0.701   0.546   1.932 -0.4240 -0.1851 -0.0303
  744TMC3    C310992   0.624   0.500   1.830 -0.3809 -0.1100 -0.0211
  744TMC3    C410993   0.823   0.675   1.779  0.3087  0.3596  0.2227
  744TMC3    C510994   0.744   0.622   1.685  0.4755  0.2675 -0.5701
  744TMC3    C610995   0.638   0.544   1.701 -0.2389 -0.1073 -0.5916
  744TMC3     C10996   0.902   0.687   2.005  0.3607  0.7934 -0.2319
  744TMC3     O10997   0.992   0.764   1.962 -0.3557  0.4428  0.4766
  744TMC3     H10998   0.680   0.508   2.031 -0.7846 -3.3776 -1.3207
  744TMC3    H110999   0.902   0.746   1.753  1.1767 -0.2684  1.1670
  744TMC3    H211000   0.579   0.507   1.617 -0.8382  0.5267 -0.4558
  744TMC3    C711001   0.766   0.658   1.548  0.0021  1.0081  0.6386
  744TMC3    C811002   0.489   0.454   1.861 -0.7124 -0.3858 -0.3666
  744TMC3    O111003   0.669   0.676   1.482  0.6813 -0.3023  0.0105
  744TMC3    O211004   0.399   0.466   1.776  0.7181  0.2475  0.1168
  745TMC3    C111005   2.274   4.059  13.466 -0.3004 -0.1807 -0.3498
  745TMC3    C211006   2.147   4.022  13.506  0.9197 -0.5848 -0.1005
  745TMC3    C311007   2.037   4.073  13.447  0.2918 -0.4005 -0.1557
  745TMC3    C411008   2.283   4.149  13.363  0.1641  0.1351 -0.4448
  745TMC3    C511009   2.166   4.194  13.300 -0.1862 -0.9729  0.3903
  745TMC3    C611010   2.042   4.151  13.342  0.9032  0.2979  0.0576
  745TMC3     C11011   2.371   4.055  13.568  0.3682 -0.3025 -0.7303
  745TMC3     O11012   2.351   3.980  13.663  0.3990 -0.2088 -0.4385
  745TMC3     H11013   2.144   3.951  13.588 -1.0396  1.4802  1.5892
  745TMC3    H111014   2.381   4.178  13.329 -0.0833 -0.8629 -2.0095
  745TMC3    H211015   1.954   4.200  13.303  0.0423  0.1394  1.8241
  745TMC3    C711016   2.177   4.253  13.169 -0.2140 -0.3638 -1.4643
  745TMC3    C811017   1.952   4.138  13.542 -0.4399 -0.1539 -0.2432
  745TMC3    O111018   2.079   4.243  13.096  0.6122  0.5123  1.0380
  745TMC3    O211019   1.841   4.176  13.507  0.2308  0.5107 -0.3727
  746TMC3    C111020   0.185   1.493  10.925  0.0502  0.4024  0.1133
  746TMC3    C211021   0.204   1.474  10.790  0.1388 -0.3432 -0.0293
  746TMC3    C311022   0.131   1.377  10.724  0.5383 -0.3853  0.0142
  746TMC3    C411023   0.090   1.420  10.992  0.2671 -0.6986 -0.1821
  746TMC3    C511024   0.021   1.326  10.923  0.4113 -0.0971  0.0255
  746TMC3    C611025   0.043   1.302  10.790  0.1172 -0.3015 -0.1881
  746TMC3     C11026   0.262   1.596  10.988 -0.5182  0.3088 -0.3006
  746TMC3     O11027   0.361   1.638  10.929 -0.5527 -0.1332 -0.5190
  746TMC3     H11028   0.280   1.530  10.737 -1.9600  0.7424 -1.9311
  746TMC3    H111029   0.078   1.419  11.099  4.6108 -1.4256  0.2842
  746TMC3    H211030   4.718   1.230  10.726 -1.0441 -1.2276  1.7364
  746TMC3    C711031   4.662   1.238  10.997  0.4769 -0.2306 -0.0653
  746TMC3    C811032   0.134   1.361  10.584  0.8514 -0.2653 -0.4317
  746TMC3    O111033   4.569   1.202  10.926  0.4279  0.9122  0.0875
  746TMC3    O211034   0.118   1.246  10.534 -0.5699  0.3720 -0.2280
  747TMC3    C111035   2.684   1.760  10.833 -0.6810  0.3369  1.1840
  747TMC3    C211036   2.645   1.645  10.887  0.9425 -0.4811  0.0500
  747TMC3    C311037   2.624   1.650  11.021 -0.2491 -0.0571  0.9332
  747TMC3    C411038   2.727   1.870  10.905  0.3565  0.1593 -0.3594
  747TMC3    C511039   2.725   1.862  11.039 -0.5950 -0.1978  0.1832
  747TMC3    C611040   2.663   1.755  11.097 -0.3669 -0.4549 -0.4996
  747TMC3     C11041   2.694   1.778  10.688  0.1267 -0.1938 -0.8048
  747TMC3     O11042   2.719   1.893  10.651 -0.0704  0.0468  0.1168
  747TMC3     H11043   2.626   1.560  10.822 -0.1222 -0.0288 -0.2252
  747TMC3    H111044   2.770   1.951  10.847 -0.7536  2.2063  1.6575
  747TMC3    H211045   2.651   1.758  11.204  1.5661  1.0333 -0.3177
  747TMC3    C711046   2.788   1.966  11.120 -0.3400 -0.1339  0.3296
  747TMC3    C811047   2.517   1.561  11.073 -0.7770  0.7437  0.8000
  747TMC3    O111048   2.783   1.948  11.244  0.0807 -0.3294  0.1119
  747TMC3    O211049   2.511   1.451  11.022  0.6174  0.2551  1.1868
  748MPD2     C11050   3.839   1.590   1.324 -0.4570 -0.3113 -0.7769
  748MPD2    C111051   3.886   1.715   1.352 -0.3253  0.3778  0.2342
  748MPD2    C211052   4.022   1.732   1.331  0.0192 -0.4520  0.7163
  748MPD2    C311053   4.107   1.627   1.287 -0.6852  0.1412 -0.3844
  748MPD2    C411054   4.053   1.506   1.257  0.5494  0.5599  0.4422
  748MPD2    C511055   3.916   1.494   1.267 -0.2323 -0.6015 -0.4635
  748MPD2     H11056   4.056   1.833   1.347  1.1299 -0.2145 -3.3026
  748MPD2    H111057   4.105   1.419   1.219 -0.7808  0.4892 -1.2242
  748MPD2    H211058   3.733   1.571   1.328 -0.4581 -0.2176 -0.4256
  748MPD2    H311059   3.873   1.398   1.240  0.8775 -0.9876 -0.8452
  748MPD2     N11060   4.236   1.662   1.265 -0.0163  0.6164 -0.1011
  748MPD2    H511061   4.262   1.758   1.286 -1.0966  0.7441  0.6481
  748MPD2    N111062   3.795   1.823   1.391  0.4080 -0.2299 -0.5055
  748MPD2    H711063   3.696   1.805   1.379  0.3266  0.3658 -0.6971
  749TMC3    C111064   4.459   1.639   1.186 -0.6327  0.2584  1.0846
  749TMC3    C211065   4.570   1.568   1.216  0.3568 -0.7303 -0.3183
  749TMC3    C311066   4.687   1.609   1.178 -0.4826 -0.3539 -0.5209
  749TMC3    C411067   4.462   1.751   1.112  0.2427 -0.3642 -0.5600
  749TMC3    C511068   4.584   1.783   1.063  0.1986  0.0828 -0.8185
  749TMC3    C611069   4.700   1.714   1.091  0.0061 -0.5665  0.7330
  749TMC3     C11070   4.333   1.576   1.233  0.4871  0.3278 -0.3578
  749TMC3     O11071   4.327   1.454   1.252 -0.4203 -0.2804 -0.4474
  749TMC3     H11072   4.557   1.488   1.287 -1.3644  1.3280  1.6746
  749TMC3    H111073   4.376   1.814   1.095  0.7819  0.3728 -0.5503
  749TMC3    H211074   0.065   1.760   1.052  0.5030 -1.8235  0.3690
  749TMC3    C711075   4.583   1.892   0.972  0.4318  0.4840  0.5819
  749TMC3    C811076   0.062   1.603   1.290 -0.2085  0.2183 -0.4509
  749TMC3    O111077   4.511   1.992   0.986  0.0773  0.4000 -0.0444
  749TMC3    O211078   0.031   1.586   1.408  0.5301  0.2313  0.2307
  750MPD2     C11079   0.569   3.227  11.307 -0.9468  0.3697  0.1242
  750MPD2    C111080   0.437   3.186  11.323 -0.1520  0.1763 -0.1161
  750MPD2    C211081   0.375   3.110  11.229  0.2784 -0.6748 -0.7417
  750MPD2    C311082   0.450   3.052  11.130 -0.1259  0.3507  0.2099
  750MPD2    C411083   0.577   3.100  11.107  0.6015  0.5085  0.6526
  750MPD2    C511084   0.636   3.200  11.187  0.4356 -0.2511  0.4913
  750MPD2     H11085   0.273   3.086  11.253  0.1774  0.8616  0.3817
  750MPD2    H111086   0.635   3.062  11.024 -0.8232  1.1788 -0.6602
  750MPD2    H211087   0.617   3.293  11.378 -0.9760  1.0774 -0.5004
  750MPD2    H311088   0.738   3.236  11.173 -0.1894  2.0908  1.8850
  750MPD2     N11089   0.396   2.959  11.040  0.5965  0.4713  0.3197
  750MPD2    H511090   0.448   2.943  10.955  0.6785 -1.4775  0.7287
  750MPD2    N111091   0.369   3.236  11.439  0.3375  0.5078 -0.1638
  750MPD2    H711092   0.420   3.302  11.497  1.1614 -1.3623  1.2535
  751TMC3    C111093   0.242   2.782  10.959 -0.3432  0.7066  0.0189
  751TMC3    C211094   0.122   2.712  10.976  0.0987  0.1625  0.0729
  751TMC3    C311095   0.117   2.589  10.915 -0.3277  0.0019  0.2278
  751TMC3    C411096   0.343   2.746  10.875 -0.4537 -0.7695  0.7083
  751TMC3    C511097   0.326   2.621  10.826  0.3955 -0.6243 -0.5832
  751TMC3    C611098   0.220   2.545  10.846 -0.0583  0.0233 -0.4724
  751TMC3     C11099   0.270   2.896  11.053 -0.5621  0.6326 -0.0227
  751TMC3     O11100   0.182   2.909  11.135  0.6464  0.2812  0.2087
  751TMC3     H11101   0.038   2.746  11.035 -0.6785  0.6222 -1.2990
  751TMC3    H111102   0.436   2.802  10.867  0.4785 -2.1757  1.6318
  751TMC3    H211103   0.216   2.441  10.813 -1.3725 -0.1771  0.3337
  751TMC3    C711104   0.413   2.586  10.716 -0.5280  0.3421  0.1686
  751TMC3    C811105   0.004   2.501  10.929  0.0494 -0.3005  1.1863
  751TMC3    O111106   0.496   2.665  10.685  0.1568 -0.0059  0.3552
  751TMC3    O211107   0.011   2.388  10.886  0.3091 -0.3330  0.2066
  752TMC3    C111108   4.131   2.833  16.273  0.0542 -0.1519 -0.9543
  752TMC3    C211109   4.256   2.793  16.320  0.3646 -0.8141  0.2717
  752TMC3    C311110   4.261   2.713  16.431 -0.3743  0.6278 -0.6286
  752TMC3    C411111   4.016   2.784  16.334 -0.4610  0.0072  0.2958
  752TMC3    C511112   4.027   2.700  16.439  0.1937 -0.1373  0.5609
  752TMC3    C611113   4.151   2.663  16.487  0.2897 -0.5384  0.1506
  752TMC3     C11114   4.140   2.954  16.191 -0.2050 -0.4063 -0.0088
  752TMC3     O11115   4.250   3.017  16.187 -0.6607  0.2407 -0.5739
  752TMC3     H11116   4.346   2.843  16.286 -0.1763  2.0484  3.0650
  752TMC3    H111117   3.919   2.820  16.302 -1.1264 -0.6473  1.5764
  752TMC3    H211118   4.146   2.606  16.579  0.8234  0.6841  0.9454
  752TMC3    C711119   3.910   2.656  16.501  0.5709  0.3074  0.0012
  752TMC3    C811120   4.393   2.692  16.495 -0.1576  0.1300  0.0635
  752TMC3    O111121   3.813   2.730  16.484  0.3851  0.4852 -0.0776
  752TMC3    O211122   4.474   2.782  16.490 -0.0501 -0.5210  0.1443
  753TMC3    C111123   0.730   4.323  13.481 -0.1855 -0.4571 -0.5129
  753TMC3    C211124   0.753   4.293  13.613 -0.1151  0.0705  0.1111
  753TMC3    C311125   0.734   4.164  13.656  0.6454 -0.1645  0.3617
  753TMC3    C411126   0.689   4.226  13.399  0.1739 -0.6361 -0.0104
  753TMC3    C511127   0.681   4.095  13.438  0.3525 -0.0946 -0.3802
  753TMC3    C611128   0.699   4.070  13.568 -0.0015 -0.0669  0.2473
  753TMC3     C11129   0.746   4.456  13.428 -0.1183  0.1093 -0.8230
  753TMC3     O11130   0.681   4.479  13.327 -0.1445  0.1438 -0.6466
  753TMC3     H11131   0.758   4.378  13.681 -1.7321  0.7293 -0.5954
  753TMC3    H111132   0.656   4.243  13.297  0.7464 -1.2582 -0.3001
  753TMC3    H211133   0.681   3.970  13.607 -0.0178  0.7933  2.3737
  753TMC3    C711134   0.680   3.988  13.338  0.0183  0.2371 -0.3502
  753TMC3    C811135   0.725   4.141  13.798 -0.1112  0.7969 -0.3689
  753TMC3    O111136   0.725   4.020  13.230  0.2799 -0.8179  0.3141
  753TMC3    O211137   0.669   4.042  13.838  0.4294 -0.4129 -0.0036
  754MPD2     C11138   0.018   2.904  13.171 -0.6158 -0.1540  0.6334
  754MPD2    C111139   0.044   2.772  13.199 -0.2126 -0.0328  0.2972
  754MPD2    C211140   4.677   2.679  13.169 -0.0838  0.0068 -0.1575
  754MPD2    C311141   4.553   2.723  13.120  0.7236  0.1947 -0.6781
  754MPD2    C411142   4.527   2.860  13.105  0.2754 -0.4747  0.1792
  754MPD2    C511143   4.631   2.951  13.115  0.4224  0.1943  0.4945
  754MPD2     H11144   4.694   2.574  13.190 -2.4740 -0.1114  1.2988
  754MPD2    H111145   4.430   2.896  13.073  0.0176 -1.8376 -0.5435
  754MPD2    H211146   0.098   2.974  13.193 -0.1774 -0.2817 -0.5885
  754MPD2    H311147   4.613   3.056  13.097 -1.9320 -0.3164 -0.2593
  754MPD2     N11148   4.439   2.637  13.117 -0.5037 -0.1915 -0.1532
  754MPD2    H511149   4.348   2.682  13.109 -0.0632  0.6442 -0.4862
  754MPD2    N111150   0.173   2.755  13.256  0.7844  0.0248 -0.1297
  754MPD2    H711151   0.229   2.840  13.247  1.1038 -0.4282 -2.5303
  755MPD2     C11152   3.647   2.897  13.075 -0.4072  0.1737 -0.7387
  755MPD2    C111153   3.647   2.821  13.189 -0.0932 -0.1238 -0.2884
  755MPD2    C211154   3.742   2.722  13.200 -0.1857  0.1095 -1.0026
  755MPD2    C311155   3.834   2.693  13.095 -0.0894  0.5179  0.1601
  755MPD2    C411156   3.818   2.765  12.969  0.2763  0.0008  0.4310
  755MPD2    C511157   3.722   2.867  12.963 -0.1870 -0.3438  0.0136
  755MPD2     H11158   3.759   2.675  13.297  0.9411 -1.1845 -1.8438
  755MPD2    H111159   3.889   2.743  12.890 -0.2126  1.5199 -0.4149
  755MPD2    H211160   3.598   2.994  13.078 -2.4487 -0.9294  3.1075
  755MPD2    H311161   3.727   2.929  12.874 -1.1110 -0.1124  0.1283
  755MPD2     N11162   3.935   2.600  13.100 -0.3581 -0.4419 -0.2139
  755MPD2    H511163   3.991   2.587  13.016 -0.4589 -0.7998 -0.2259
  755MPD2    N111164   3.585   2.862  13.312 -0.5266 -0.2981 -0.3626
  755MPD2    H711165   3.618   2.824  13.400  1.5820 -2.4796 -2.1056
  756MPD2     C11166   0.912   3.652   9.717  0.1942 -0.1548 -0.2294
  756MPD2    C111167   0.778   3.635   9.762  0.5495 -0.0804  0.4479
  756MPD2    C211168   0.679   3.713   9.708  0.1776 -0.3476 -0.1762
  756MPD2    C311169   0.716   3.817   9.624 -0.2995  0.6737  0.4747
  756MPD2    C411170   0.845   3.834   9.586 -0.1220 -0.1702 -0.0723
  756MPD2    C511171   0.944   3.756   9.633  0.3030 -0.8210  0.1963
  756MPD2     H11172   0.577   3.707   9.746  0.3693  0.9511  0.5623
  756MPD2    H111173   0.870   3.913   9.516 -1.0696 -0.3503 -0.6126
  756MPD2    H211174   0.993   3.588   9.748 -0.4313 -1.0351 -0.4254
  756MPD2    H311175   1.048   3.763   9.604  0.0931  0.4172 -0.2525
  756MPD2     N11176   0.603   3.887   9.577  0.3838 -0.0088 -0.0515
  756MPD2    H511177   0.510   3.851   9.593  0.3943  0.3196  0.7414
  756MPD2    N111178   0.730   3.538   9.855 -0.3038 -0.5094  0.0587
  756MPD2    H711179   0.647   3.562   9.907  1.2005  1.0238  1.7381
  757MPD2     C11180   4.640   3.442   9.322 -0.1574  0.3587 -0.6700
  757MPD2    C111181   0.011   3.438   9.421 -0.1198 -0.1855 -0.0993
  757MPD2    C211182   0.094   3.553   9.433  0.0369  0.3085 -0.3894
  757MPD2    C311183   0.092   3.663   9.353 -0.3311  0.1754  0.2995
  757MPD2    C411184   0.006   3.656   9.246 -0.5096 -0.2344 -1.2451
  757MPD2    C511185   4.635   3.556   9.242  0.1710  0.0012  0.1716
  757MPD2     H11186   0.158   3.556   9.520 -0.9788 -1.3815  0.4122
  757MPD2    H111187   4.719   3.738   9.176 -2.6962  0.1052 -0.5005
  757MPD2    H211188   4.566   3.363   9.313 -0.2391  0.2431  0.9274
  757MPD2    H311189   4.551   3.577   9.177  0.3391  1.4929  0.4306
  757MPD2     N11190   0.192   3.768   9.376 -0.4346  0.0570 -0.0530
  757MPD2    H511191   0.249   3.748   9.458  0.7245  1.7462 -0.4385
  757MPD2    N111192   0.037   3.323   9.500 -0.1039 -0.3586  0.2320
  757MPD2    H711193   0.115   3.343   9.562 -0.8838  1.8402  0.5050
  758MPD2     C11194   4.182   2.806  15.840  0.1558  0.2860  0.2545
  758MPD2    C111195   4.268   2.724  15.900  0.7257 -0.0064  0.0138
  758MPD2    C211196   4.374   2.775  15.968  0.4888  0.2824  0.3899
  758MPD2    C311197   4.405   2.912  15.961  0.2554  0.3974  0.1788
  758MPD2    C411198   4.326   2.992  15.884  0.2737 -0.0904  0.1892
  758MPD2    C511199   4.215   2.939  15.822  0.2148 -0.4098 -0.3810
  758MPD2     H11200   4.437   2.716  16.033  0.2255  1.4736  1.7324
  758MPD2    H111201   4.340   3.098  15.867 -1.7470  0.2311  0.5063
  758MPD2    H211202   4.102   2.761  15.784 -0.7200  1.6435  0.4195
  758MPD2    H311203   4.146   3.002  15.767  0.4673  0.9429  0.8742
  758MPD2     N11204   4.510   2.977  16.037  0.3222  0.2791 -0.0701
  758MPD2    H511205   4.507   3.078  16.049 -2.6702  0.0141  1.5798
  758MPD2    N111206   4.241   2.585  15.895  0.0874 -0.0057 -0.0802
  758MPD2    H711207   4.162   2.561  15.835 -1.9121  1.1070  2.1638
  759MPD2     C11208   4.258   0.729   9.781  0.5801 -0.4897 -0.5455
  759MPD2    C111209   4.141   0.761   9.843  0.0540  0.6025  0.3551
  759MPD2    C211210   4.119   0.902   9.856  0.6067  0.4543  0.7511
  759MPD2    C311211   4.213   1.004   9.829 -0.2344 -0.2070 -0.5504
  759MPD2    C411212   4.326   0.960   9.770 -0.0691  0.4757 -0.0447
  759MPD2    C511213   4.347   0.826   9.744  0.9483  0.0537 -0.0060
  759MPD2     H11214   4.021   0.932   9.892  1.1343  0.1003  2.5015
  759MPD2    H111215   4.408   1.029   9.757  0.5226  0.1468  2.0031
  759MPD2    H211216   4.281   0.625   9.758  2.9732 -0.8222  3.4212
  759MPD2    H311217   4.444   0.794   9.707  0.5773 -1.3347  0.2330
  759MPD2     N11218   4.181   1.136   9.850 -0.0079  0.1135  0.3432
  759MPD2    H511219   4.087   1.165   9.876  0.0318  0.2883  0.2950
  759MPD2    N111220   4.035   0.671   9.878  0.0791  0.2487 -0.0558
  759MPD2    H711221   3.956   0.711   9.927  1.0706  0.8971  1.0120
  760MPD2     C11222   3.073   3.177  11.777  0.6964  0.4063  0.0513
  760MPD2    C111223   3.207   3.195  11.791 -0.1677 -0.2573 -0.4276
  760MPD2    C211224   3.251   3.141  11.909  0.3258 -0.5954  0.1867
  760MPD2    C311225   3.170   3.102  12.012 -0.7357 -0.6059  0.2334
  760MPD2    C411226   3.037   3.096  11.990 -0.1599 -0.5274 -0.0009
  760MPD2    C511227   2.986   3.134  11.873  0.3337  0.2576 -0.8116
  760MPD2     H11228   3.359   3.131  11.909  0.3560 -0.2491 -2.3685
  760MPD2    H111229   2.973   3.051  12.065  0.7702 -0.2276  0.9713
  760MPD2    H211230   3.028   3.198  11.681  1.1043 -1.0155 -0.4426
  760MPD2    H311231   2.878   3.126  11.868  0.5350 -1.6166 -2.2721
  760MPD2     N11232   3.226   3.051  12.131  0.4173  0.0196  0.3021
  760MPD2    H511233   3.167   2.989  12.186 -0.6998  0.2949 -0.5899
  760MPD2    N111234   3.295   3.238  11.690  0.5450  0.7446 -0.0566
  760MPD2    H711235   3.393   3.217  11.706  0.8281  0.8883 -1.5282
  761MPD2     C11236   4.249   2.384  11.109  0.2090  0.5609  0.5685
  761MPD2    C111237   4.327   2.319  11.017 -0.9775  0.3624 -0.2859
  761MPD2    C211238   4.455   2.370  10.988  0.6697  0.1685 -0.6684
  761MPD2    C311239   4.506   2.478  11.053 -0.1968  0.7855  0.2652
  761MPD2    C411240   4.432   2.533  11.148 -0.5486 -0.2659  0.0910
  761MPD2    C511241   4.305   2.483  11.186  0.4683  0.2626 -0.1968
  761MPD2     H11242   4.506   2.337  10.898  1.8966 -1.5537  0.6630
  761MPD2    H111243   4.468   2.624  11.195 -1.1360  0.0713 -0.1182
  761MPD2    H211244   4.150   2.366  11.147 -0.0980 -0.2587 -0.6156
  761MPD2    H311245   4.243   2.536  11.258  0.9904  0.8291 -0.1722
  761MPD2     N11246   4.635   2.542  11.027 -0.3247 -0.0440  0.4150
  761MPD2    H511247   4.640   2.630  11.078 -0.6860 -0.6758  1.5349
  761MPD2    N111248   4.270   2.226  10.933  0.3763  0.5278  0.7105
  761MPD2    H711249   4.337   2.189  10.866  0.5303  0.1934  1.0467
  762MPD2     C11250   4.325   2.363  10.333  0.5350  1.0283  0.1065
  762MPD2    C111251   4.358   2.236  10.362 -0.1696 -0.0331  0.8883
  762MPD2    C211252   4.474   2.183  10.310  0.3462 -0.0118  0.6644
  762MPD2    C311253   4.556   2.260  10.229 -0.0713  0.3775 -0.7598
  762MPD2    C411254   4.514   2.387  10.188  0.5420  0.2675 -0.2780
  762MPD2    C511255   4.391   2.434  10.233  0.2952 -0.6091 -0.0473
  762MPD2     H11256   4.510   2.082  10.327 -2.8344 -1.3012 -0.2121
  762MPD2    H111257   4.575   2.453  10.128  0.5163 -2.4286 -3.2744
  762MPD2    H211258   4.227   2.406  10.349 -0.7296 -2.3866  1.4571
  762MPD2    H311259   4.363   2.534  10.203 -0.8018 -1.1197 -0.7092
  762MPD2     N11260   4.689   2.213  10.184 -0.2367 -0.0420  0.6336
  762MPD2    H511261   4.714   2.118  10.208  0.3473  0.2154  1.0676
  762MPD2    N111262   4.278   2.176  10.459  0.3931 -0.1910 -0.3359
  762MPD2    H711263   4.196   2.226  10.491  1.3807  0.6055  0.9268
  763MPD2     C11264   1.635   2.187  16.144 -0.6740  0.9350  0.0417
  763MPD2    C111265   1.563   2.304  16.146 -0.1906 -0.0079  0.4806
  763MPD2    C211266   1.587   2.392  16.255  0.2953 -0.9020  0.4994
  763MPD2    C311267   1.698   2.367  16.340 -0.7770 -0.3050  0.2967
  763MPD2    C411268   1.772   2.252  16.325 -0.2706 -0.2795  0.3359
  763MPD2    C511269   1.734   2.156  16.236 -1.1086 -0.0077  0.5353
  763MPD2     H11270   1.530   2.483  16.268  0.6871 -0.7147  0.8741
  763MPD2    H111271   1.860   2.230  16.384 -1.3487 -2.1966  1.2255
  763MPD2    H211272   1.619   2.115  16.065 -1.3701 -0.1540  1.1942
  763MPD2    H311273   1.790   2.064  16.222 -0.9199  0.0559  0.8704
  763MPD2     N11274   1.725   2.448  16.458 -0.3799 -0.2967 -0.7756
  763MPD2    H511275   1.797   2.416  16.523 -1.4136 -2.2983 -0.6130
  763MPD2    N111276   1.475   2.344  16.049  0.0256 -0.1900 -0.4912
  763MPD2    H711277   1.444   2.440  16.058 -0.2321 -0.1984 -1.2611
  764MPD2     C11278   3.605   3.940  17.151  0.5634  0.2322  0.7592
  764MPD2    C111279   3.473   3.976  17.132 -0.4329 -0.1274 -0.0931
  764MPD2    C211280   3.381   3.932  17.226  0.1602 -0.3799 -0.4229
  764MPD2    C311281   3.418   3.869  17.342  0.4119  0.0366 -0.3389
  764MPD2    C411282   3.553   3.866  17.374 -0.0401  0.1078 -0.0992
  764MPD2    C511283   3.646   3.899  17.277 -0.6880  0.0759  0.4094
  764MPD2     H11284   3.276   3.935  17.202  0.0535  2.3409  0.3540
  764MPD2    H111285   3.592   3.840  17.472  2.9601  0.0704 -1.2839
  764MPD2    H211286   3.679   3.958  17.074  0.0560  1.0149  0.4521
  764MPD2    H311287   3.748   3.894  17.314 -0.4648 -0.3105 -0.2419
  764MPD2     N11288   3.305   3.820  17.413  0.2381 -0.4096 -0.1597
  764MPD2    H511289   3.215   3.816  17.366  0.2494  0.5444 -0.2721
  764MPD2    N111290   3.437   4.041  17.010 -0.0373  0.1986 -0.4403
  764MPD2    H711291   3.515   4.071  16.953  1.9241 -0.1462  2.0889
  765MPD2     C11292   3.869   1.813  16.040 -0.2075 -0.3376 -0.4019
  765MPD2    C111293   3.962   1.858  16.122 -0.4558 -0.9261 -0.0547
  765MPD2    C211294   4.097   1.839  16.095  0.2699 -0.6090 -0.4146
  765MPD2    C311295   4.143   1.753  15.994 -0.8326  0.2599 -0.5131
  765MPD2    C411296   4.036   1.702  15.913 -0.6640  0.4222  0.7490
  765MPD2    C511297   3.906   1.731  15.935  0.2048 -1.2357 -0.4876
  765MPD2     H11298   4.172   1.886  16.158  0.1483  0.6609 -1.2255
  765MPD2    H111299   4.047   1.629  15.833 -2.8614 -1.3118  2.0377
  765MPD2    H211300   3.768   1.847  16.055  0.4013  1.1837  0.2841
  765MPD2    H311301   3.831   1.694  15.866 -0.2649 -0.4342 -0.4120
  765MPD2     N11302   4.285   1.715  15.977  0.2677  0.7820 -0.1669
  765MPD2    H511303   4.346   1.744  16.053 -0.5840  0.8305  0.5000
  765MPD2    N111304   3.915   1.945  16.223  0.1501  0.0369  0.5448
  765MPD2    H711305   3.814   1.950  16.233 -0.1295  0.6268 -2.5353
  766MPD2     C11306   3.278   2.160  16.017  0.5414 -0.0758 -0.5026
  766MPD2    C111307   3.410   2.146  16.042  0.2473  0.5427  0.0426
  766MPD2    C211308   3.498   2.100  15.948  0.3824  0.0817 -0.1322
  766MPD2    C311309   3.453   2.077  15.823 -0.3939 -0.1314 -0.6686
  766MPD2    C411310   3.318   2.094  15.798  0.3976 -0.3797  0.1989
  766MPD2    C511311   3.230   2.150  15.891 -0.5305  0.0545  0.2295
  766MPD2     H11312   3.604   2.098  15.970  0.4586 -1.0791 -0.5928
  766MPD2    H111313   3.269   2.083  15.702 -0.8217 -2.1030  1.0071
  766MPD2    H211314   3.205   2.179  16.095  1.3206  0.1842  0.1754
  766MPD2    H311315   3.131   2.174  15.855 -0.2531 -0.6697 -1.0239
  766MPD2     N11316   3.540   2.029  15.713  0.7049  1.1719 -0.5503
  766MPD2    H511317   3.488   2.011  15.628 -0.5563 -0.1799  0.5256
  766MPD2    N111318   3.466   2.175  16.171 -0.4889  0.2537 -0.2672
  766MPD2    H711319   3.408   2.230  16.234 -1.9216 -0.1758 -1.2140
  767MPD2     C11320   2.770   2.634  15.084  0.2647 -0.7261 -0.4584
  767MPD2    C111321   2.893   2.573  15.096 -0.5209  0.1406  0.3358
  767MPD2    C211322   2.912   2.443  15.037 -0.3068  0.2088 -0.1765
  767MPD2    C311323   2.813   2.373  14.965  0.2948 -0.2915  0.8696
  767MPD2    C411324   2.685   2.435  14.959 -0.2625  0.4680 -0.0035
  767MPD2    C511325   2.671   2.561  15.015  0.2532  0.3042 -0.0824
  767MPD2     H11326   3.007   2.391  15.046 -0.1918  0.6999  1.5096
  767MPD2    H111327   2.597   2.396  14.910  0.7438 -1.8339  0.0657
  767MPD2    H211328   2.748   2.732  15.125 -0.3158 -0.6678 -0.9044
  767MPD2    H311329   2.570   2.599  15.005 -0.3334 -1.2632 -0.2137
  767MPD2     N11330   2.857   2.259  14.892  0.5838  0.0680  0.2755
  767MPD2    H511331   2.957   2.239  14.896  0.6345  0.6491  1.9152
  767MPD2    N111332   2.996   2.637  15.164  0.5676 -0.7104 -0.0813
  767MPD2    H711333   2.983   2.735  15.188  0.6854 -0.2049 -2.1501
  768MPD2     C11334   4.525   0.720  10.649  1.0372 -0.6137 -0.5210
  768MPD2    C111335   4.504   0.737  10.784 -1.2369 -0.5971 -0.3650
  768MPD2    C211336   4.619   0.765  10.855  0.3482  1.0601 -0.0780
  768MPD2    C311337   0.020   0.791  10.793  0.6042 -0.6791 -0.3229
  768MPD2    C411338   0.021   0.784  10.652  0.4682  0.5810 -0.2184
  768MPD2    C511339   4.642   0.738  10.578 -0.3265  0.3140 -0.9393
  768MPD2     H11340   4.609   0.788  10.960  2.0484 -1.3082  0.6089
  768MPD2    H111341   0.104   0.823  10.594 -0.3904  0.9916 -1.1731
  768MPD2    H211342   4.441   0.686  10.590  1.1910 -2.6430  0.4415
  768MPD2    H311343   4.660   0.730  10.472  0.9057 -1.5772 -0.5754
  768MPD2     N11344   0.124   0.856  10.867  0.4026  0.2031 -0.1574
  768MPD2    H511345   0.176   0.923  10.811 -0.9495  0.2666 -1.3270
  768MPD2    N111346   4.379   0.718  10.852  0.7957 -0.0222 -0.3838
  768MPD2    H711347   4.382   0.707  10.952  0.8357  0.2594 -0.3531
  769MPD2     C11348   0.275   3.609  14.863  0.5440  0.3684  0.6152
  769MPD2    C111349   0.349   3.506  14.916  0.1011 -0.2843  0.6412
  769MPD2    C211350   0.449   3.535  15.010 -0.0771 -0.6478  0.4851
  769MPD2    C311351   0.479   3.658  15.052  1.1149  0.1489  0.4528
  769MPD2    C411352   0.411   3.760  14.994 -0.9384 -0.7889 -0.4509
  769MPD2    C511353   0.315   3.732  14.897 -0.0009 -0.1038 -0.3776
  769MPD2     H11354   0.513   3.458  15.051  0.6696 -1.3855 -2.1070
  769MPD2    H111355   0.442   3.864  14.999 -0.1576 -1.0792  0.7986
  769MPD2    H211356   0.209   3.596  14.779  0.6866 -2.4099  0.9456
  769MPD2    H311357   0.274   3.817  14.843  1.0027  2.0279  2.2468
  769MPD2     N11358   0.582   3.671  15.153  0.3904  0.2059  0.1633
  769MPD2    H511359   0.620   3.587  15.195 -0.0298  1.5842  3.2857
  769MPD2    N111360   0.305   3.380  14.875 -0.5155  0.8111  0.2983
  769MPD2    H711361   0.217   3.374  14.826  0.2038 -0.3590 -0.8327
  770MPD2     C11362   4.524   2.589  15.290  0.4440 -0.1176  0.3022
  770MPD2    C111363   4.560   2.536  15.172 -0.4103  0.0168  1.0277
  770MPD2    C211364   4.658   2.590  15.100  0.4509 -0.2805 -0.2568
  770MPD2    C311365   0.004   2.699  15.145  0.1899 -0.8389 -0.0458
  770MPD2    C411366   4.696   2.756  15.267  0.6228  0.0393 -0.0359
  770MPD2    C511367   4.594   2.701  15.333  0.2565 -0.1127 -0.6052
  770MPD2     H11368   4.687   2.546  15.005 -0.6158  1.9406 -1.6143
  770MPD2    H111369   0.020   2.843  15.309  0.3316  0.0627  0.2444
  770MPD2    H211370   4.443   2.552  15.352  0.4737 -0.2777  0.2461
  770MPD2    H311371   4.556   2.762  15.415 -0.8384 -0.9188 -0.5168
  770MPD2     N11372   0.090   2.761  15.058 -0.3063  0.3864 -0.2121
  770MPD2    H511373   0.096   2.727  14.962  1.1203 -1.5327  0.5695
  770MPD2    N111374   4.497   2.417  15.131  0.7227 -0.0770 -0.5619
  770MPD2    H711375   4.436   2.374  15.201  1.7341 -0.2291  0.2340
  771MPD2     C11376   1.410   1.218  13.354  0.8797 -0.4267 -0.3896
  771MPD2    C111377   1.407   1.339  13.284  0.4439 -0.1859  0.0549
  771MPD2    C211378   1.305   1.366  13.199  0.0979  0.1710 -0.2702
  771MPD2    C311379   1.204   1.272  13.173  0.1701  0.4664 -0.4647
  771MPD2    C411380   1.213   1.153  13.247  0.1911  0.5365  0.5617
  771MPD2    C511381   1.312   1.127  13.333 -0.2395  0.0749  0.5321
  771MPD2     H11382   1.302   1.465  13.156 -0.1618  0.3341  0.1253
  771MPD2    H111383   1.143   1.072  13.234 -0.3253  0.7934  1.7231
  771MPD2    H211384   1.480   1.197  13.434 -1.1609 -0.0118  1.4899
  771MPD2    H311385   1.314   1.039  13.395 -1.4444 -0.2393  0.1230
  771MPD2     N11386   1.106   1.293  13.073 -0.0826 -0.1125  0.5998
  771MPD2    H511387   1.111   1.381  13.021 -2.4061 -1.3059 -1.6306
  771MPD2    N111388   1.505   1.443  13.309  0.1576 -0.1492  0.4925
  771MPD2    H711389   1.487   1.535  13.271  0.4535 -0.8727 -1.4053
  772MPD2     C11390   1.425   2.092  13.428  0.5493  0.1562 -0.3444
  772MPD2    C111391   1.400   1.961  13.393  0.1792  0.2850  0.1859
  772MPD2    C211392   1.288   1.929  13.319  0.0486  0.9187 -0.5088
  772MPD2    C311393   1.188   2.019  13.294  0.4097  0.1279  0.7980
  772MPD2    C411394   1.211   2.152  13.345 -0.0061 -0.2415 -0.1793
  772MPD2    C511395   1.329   2.188  13.411 -0.4348 -0.1284 -0.0681
  772MPD2     H11396   1.282   1.824  13.292 -2.8749  1.3186 -1.3786
  772MPD2    H111397   1.147   2.239  13.334  0.6276  0.1868 -0.5249
  772MPD2    H211398   1.518   2.123  13.474  0.6574 -0.3905 -0.1936
  772MPD2    H311399   1.358   2.288  13.440  0.7117 -0.3627 -0.4013
  772MPD2     N11400   1.060   1.979  13.245 -0.2725 -0.1252 -0.0278
  772MPD2    H511401   0.979   2.027  13.282  1.5177  2.6920  0.2333
  772MPD2    N111402   1.489   1.854  13.427  1.0143  0.5183  0.0164
  772MPD2    H711403   1.478   1.770  13.372 -0.2364  0.5004  0.2978
  773MPD2     C11404   4.625   3.253   0.136 -0.2500 -0.3109  0.4721
  773MPD2    C111405   4.718   3.196   0.046 -0.5113  0.3785 -1.2293
  773MPD2    C211406   0.104   3.129   0.099 -0.0883 -0.5136  0.1738
  773MPD2    C311407   0.119   3.117   0.238  0.0599  0.2048  0.3989
  773MPD2    C411408   0.033   3.177   0.326  0.4441 -1.2293 -0.1490
  773MPD2    C511409   4.646   3.240   0.269 -0.6446 -0.2743 -0.3101
  773MPD2     H11410   0.167   3.071   0.032  0.3164  1.5513 -1.2403
  773MPD2    H111411   0.034   3.176   0.434 -0.9440  1.8763 -0.0928
  773MPD2    H211412   4.535   3.306   0.107 -1.6062 -2.8595 -0.0114
  773MPD2    H311413   4.565   3.279   0.330 -0.6460 -1.2512  0.3104
  773MPD2     N11414   0.226   3.034   0.281  0.8628  0.3505 -0.4442
  773MPD2    H511415   0.277   2.977   0.215 -2.4107 -1.9619 -0.9839
  773MPD2    N111416   4.707   3.213  17.607 -0.1650 -0.1732 -0.8529
  773MPD2    H711417   0.049   3.164  17.548  1.6940  1.0986  0.1842
  774MPD2     C11418   4.709   1.726  13.003 -0.5770  0.2127 -0.1774
  774MPD2    C111419   4.637   1.747  13.118  0.6829  0.7364  0.2081
  774MPD2    C211420   4.660   1.873  13.177 -0.0100 -0.3716 -0.0555
  774MPD2    C311421   0.033   1.964  13.138 -0.2350  0.5490 -0.5695
  774MPD2    C411422   0.105   1.933  13.027 -0.1055  0.9990  0.2386
  774MPD2    C511423   0.079   1.818  12.956  0.2534 -0.7078  0.4323
  774MPD2     H11424   4.599   1.893  13.264 -1.4973 -0.8142 -0.9929
  774MPD2    H111425   0.182   1.998  12.989  0.1760  0.6346  0.1880
  774MPD2    H211426   4.692   1.642  12.938 -1.1525  0.3213 -0.1637
  774MPD2    H311427   0.141   1.804  12.868 -0.3619 -0.3751 -0.0534
  774MPD2     N11428   0.056   2.073  13.228  0.7935 -1.2743 -0.0827
  774MPD2    H511429   4.721   2.076  13.310  3.1060  0.8949  1.4773
  774MPD2    N111430   4.550   1.651  13.166  0.2558  0.7065  0.0878
  774MPD2    H711431   4.557   1.562  13.117 -1.4848  0.3155  0.5468
  775MPD2     C11432   1.277   3.726  16.030  0.1805 -0.5872  0.7588
  775MPD2    C111433   1.186   3.807  15.969  0.6105 -0.8654 -0.1189
  775MPD2    C211434   1.218   3.926  15.910 -0.0112  0.0311  0.0344
  775MPD2    C311435   1.351   3.962  15.907 -0.4969  0.6449 -0.7318
  775MPD2    C411436   1.439   3.881  15.978 -0.4796  0.6166  0.6731
  775MPD2    C511437   1.408   3.763  16.042  0.3203  0.1146  0.3487
  775MPD2     H11438   1.148   3.994  15.862  0.8779  1.2429  0.4620
  775MPD2    H111439   1.542   3.913  15.968  0.3757 -2.5536 -0.5999
  775MPD2    H211440   1.243   3.632  16.072  1.2857 -1.2463  0.1765
  775MPD2    H311441   1.483   3.712  16.101  0.3748 -1.0163 -0.6873
  775MPD2     N11442   1.407   4.073  15.846  0.1623  0.5884 -0.0280
  775MPD2    H511443   1.508   4.079  15.849  0.1343  1.4812 -1.0783
  775MPD2    N111444   1.052   3.760  15.978  0.0650  0.0161 -0.3919
  775MPD2    H711445   1.036   3.675  16.031 -1.5757  0.3777 -0.3048
  776MPD2     C11446   0.296   3.873  11.651  0.0137 -0.2285  0.2548
  776MPD2    C111447   0.217   3.796  11.568 -0.5565  0.3237  0.6294
  776MPD2    C211448   0.170   3.840  11.448 -0.5117 -0.2795  0.2609
  776MPD2    C311449   0.198   3.969  11.408  0.1218 -0.1502  0.5363
  776MPD2    C411450   0.290   4.038  11.483 -0.3559 -0.0920  0.1180
  776MPD2    C511451   0.345   3.986  11.597  0.9103 -0.2001 -0.2118
  776MPD2     H11452   0.108   3.774  11.388 -2.5601  1.9080 -0.0062
  776MPD2    H111453   0.318   4.139  11.455  0.6626 -0.8504 -1.5798
  776MPD2    H211454   0.351   3.847  11.740 -1.3099  0.6884  1.3523
  776MPD2    H311455   0.418   4.045  11.652 -1.6590  2.8684 -0.0584
  776MPD2     N11456   0.142   4.026  11.296  0.4825 -0.1059 -0.1148
  776MPD2    H511457   0.174   4.122  11.281  0.5074 -0.1738 -0.5043
  776MPD2    N111458   0.192   3.665  11.611 -0.6995 -0.1314 -0.0415
  776MPD2    H711459   0.151   3.599  11.545  1.9785 -1.6232 -0.2249
  777MPD2     C11460   0.983   1.481   0.570  0.0211  0.3554  0.7812
  777MPD2    C111461   0.996   1.427   0.699  0.1567  0.6799  0.1236
  777MPD2    C211462   0.999   1.287   0.724  0.8458 -0.1520 -0.0572
  777MPD2    C311463   0.970   1.199   0.624 -0.3075 -0.5145  0.3686
  777MPD2    C411464   0.940   1.250   0.496 -0.1528 -0.9212 -0.3401
  777MPD2    C511465   0.947   1.389   0.472 -0.1457  0.1341  0.2661
  777MPD2     H11466   0.997   1.256   0.828 -1.1814 -2.7032 -0.8496
  777MPD2    H111467   0.904   1.193   0.412  1.5708  1.8820 -2.9904
  777MPD2    H211468   0.977   1.588   0.553  0.7932  0.4019  0.8033
  777MPD2    H311469   0.914   1.426   0.375  1.8532 -1.4500 -1.0094
  777MPD2     N11470   0.953   1.069   0.668 -0.0225  0.1056 -0.6020
  777MPD2    H511471   0.978   1.053   0.765 -0.8297 -0.0069 -0.4160
  777MPD2    N111472   1.019   1.521   0.801  0.3028  0.1540  0.3993
  777MPD2    H711473   1.000   1.616   0.772  2.9126  0.1485 -1.4214
  778MPD2     C11474   1.000   1.444  14.963  0.4287  0.3048 -0.3116
  778MPD2    C111475   0.899   1.465  14.870 -0.5245  0.5147  0.4358
  778MPD2    C211476   0.910   1.563  14.767 -0.4375 -0.2440  0.0840
  778MPD2    C311477   1.035   1.629  14.749 -0.0965 -0.8893  0.1155
  778MPD2    C411478   1.133   1.605  14.842 -0.4942  0.3462  0.2621
  778MPD2    C511479   1.118   1.516  14.947  0.5678 -0.1095 -1.1289
  778MPD2     H11480   0.828   1.582  14.699 -0.5834 -4.1133 -0.8059
  778MPD2    H111481   1.233   1.644  14.829 -0.6573 -0.3387 -3.0107
  778MPD2    H211482   1.004   1.368  15.040 -1.4528  0.7059  0.1669
  778MPD2    H311483   1.202   1.511  15.015 -1.1996 -0.3675  1.0162
  778MPD2     N11484   1.045   1.738  14.648  0.0368  0.0164 -0.2121
  778MPD2    H511485   0.971   1.751  14.581 -0.2578  0.6771  0.2520
  778MPD2    N111486   0.777   1.402  14.897 -0.3207  0.3758  0.1925
  778MPD2    H711487   0.709   1.404  14.821  1.0309 -0.9256 -1.0693
  779MPD2     C11488   0.665   0.371  14.203 -0.1634 -0.6301 -0.4219
  779MPD2    C111489   0.793   0.392  14.163 -0.5222 -0.0095 -0.5422
  779MPD2    C211490   0.825   0.526  14.139 -0.5228  0.2576 -0.0827
  779MPD2    C311491   0.740   0.634  14.174 -0.6604  0.6161  0.3081
  779MPD2    C411492   0.606   0.602  14.204 -0.3010  0.0366 -0.2566
  779MPD2    C511493   0.572   0.472  14.225  0.6106 -0.0107 -0.8370
  779MPD2     H11494   0.931   0.528  14.113  0.1133  1.0424  2.5722
  779MPD2    H111495   0.528   0.671  14.234  0.2430  0.1883  0.8165
  779MPD2    H211496   0.636   0.271  14.233 -2.2430  0.0145 -0.3186
  779MPD2    H311497   0.468   0.452  14.249  1.4363 -1.4594  1.4612
  779MPD2     N11498   0.796   0.765  14.149 -0.4677 -0.1729  0.6501
  779MPD2    H511499   0.888   0.774  14.108 -1.1889 -0.5654 -1.0664
  779MPD2    N111500   0.895   0.300  14.165  0.1441 -0.8054 -0.4187
  779MPD2    H711501   0.989   0.338  14.161  0.4547 -1.4541  0.7149
  780MPD2     C11502   4.157   0.004  17.588 -0.3562  0.2642 -0.1336
  780MPD2    C111503   4.253   4.666  17.511 -0.3659 -0.5776  0.7529
  780MPD2    C211504   4.383   4.707  17.524 -0.3561  0.0235 -0.0051
  780MPD2    C311505   4.422   0.085  17.610  0.3172 -0.3984  0.0895
  780MPD2    C411506   4.324   0.136  17.695 -0.1553  0.5248 -0.3409
  780MPD2    C511507   4.193   0.106  17.674  0.4247  0.0219 -0.0119
  780MPD2     H11508   4.458   4.649  17.471  2.1309  3.3380 -0.1034
  780MPD2    H111509   4.342   0.194   0.085 -1.3807 -0.1539  0.3394
  780MPD2    H211510   4.052   4.698  17.587  0.0480 -1.1971  1.0395
  780MPD2    H311511   4.111   0.148   0.031  1.1388 -0.0049  1.0313
  780MPD2     N11512   4.561   0.120  17.618  0.3277 -0.3275  0.2214
  780MPD2    H511513   4.624   0.072  17.556 -0.5775 -0.1118 -0.8621
  780MPD2    N111514   4.208   4.557  17.430 -0.3132 -0.3499  0.6806
  780MPD2    H711515   4.112   4.528  17.443  0.1495 -1.6692  1.0841
  781MPD2     C11516   2.520   2.477  12.091  0.3637 -0.0005 -0.8962
  781MPD2    C111517   2.616   2.375  12.098 -0.6537 -0.0556 -0.0778
  781MPD2    C211518   2.737   2.374  12.033  0.5665  0.0464 -0.4559
  781MPD2    C311519   2.758   2.474  11.938  0.0234 -0.4032  1.0076
  781MPD2    C411520   2.657   2.569  11.920  0.0413  0.3186  0.2246
  781MPD2    C511521   2.545   2.573  11.997  0.1910  0.1295 -0.0144
  781MPD2     H11522   2.804   2.292  12.056  1.9867  0.7785 -1.9464
  781MPD2    H111523   2.676   2.657  11.859  2.5700  0.1641  0.7677
  781MPD2    H211524   2.427   2.488  12.145  1.7895  0.1845  1.4951
  781MPD2    H311525   2.469   2.645  11.970  0.8704  1.4223  1.5339
  781MPD2     N11526   2.866   2.475  11.842 -0.6922  0.0241 -0.5453
  781MPD2    H511527   2.874   2.547  11.771  1.4467 -0.0447 -0.3716
  781MPD2    N111528   2.596   2.264  12.188  0.9882 -0.6071  0.4852
  781MPD2    H711529   2.666   2.191  12.197  0.2635 -0.9733  2.9901
  782MPD2     C11530   0.758   2.979   9.925  0.5383 -0.6485 -0.3472
  782MPD2    C111531   0.874   2.903   9.931  0.8204 -0.1282 -0.0436
  782MPD2    C211532   0.957   2.918  10.045  0.2724  0.0184  0.2764
  782MPD2    C311533   0.908   2.972  10.161 -0.0891 -0.1671 -0.2734
  782MPD2    C411534   0.781   3.025  10.159  0.0993  0.4931 -0.3115
  782MPD2    C511535   0.709   3.030  10.039 -0.2363  0.2545 -0.8553
  782MPD2     H11536   1.059   2.881  10.045  0.2834  0.0424 -0.1974
  782MPD2    H111537   0.739   3.065  10.251 -2.0687  1.0338 -1.5435
  782MPD2    H211538   0.693   2.984   9.839  0.6017  2.2660 -0.2079
  782MPD2    H311539   0.609   3.070  10.034 -1.2990 -2.4445 -1.4832
  782MPD2     N11540   0.991   2.983  10.277  0.0300  0.1588  0.2278
  782MPD2    H511541   1.091   2.981  10.261  0.1112  0.4079  0.7135
  782MPD2    N111542   0.916   2.826   9.818  0.0047 -0.9318  0.1201
  782MPD2    H711543   0.880   2.848   9.726  1.3732 -1.4083 -0.5204
  783MPD2     C11544   0.367   2.318  10.466  0.3157  0.0023  1.2082
  783MPD2    C111545   0.432   2.428  10.527  0.3488 -0.3115 -0.2224
  783MPD2    C211546   0.552   2.470  10.467 -0.3936 -0.6446  0.3821
  783MPD2    C311547   0.585   2.427  10.337 -0.1414  0.5454  0.0693
  783MPD2    C411548   0.515   2.329  10.280 -0.0405 -0.8933 -0.6806
  783MPD2    C511549   0.412   2.270  10.349  0.2771  0.1897 -0.2056
  783MPD2     H11550   0.604   2.550  10.517 -1.5322  1.7694 -2.2497
  783MPD2    H111551   0.534   2.279  10.185 -1.1248  1.0583 -1.9103
  783MPD2    H211552   0.281   2.275  10.517 -0.5635 -1.3126 -1.3861
  783MPD2    H311553   0.359   2.186  10.304 -2.4705  1.1071  1.3537
  783MPD2     N11554   0.703   2.477  10.277 -0.5198  0.1151  0.1702
  783MPD2    H511555   0.752   2.542  10.338  3.1409 -2.1363 -0.3697
  783MPD2    N111556   0.364   2.481  10.646 -0.0922 -0.0442 -0.4198
  783MPD2    H711557   0.283   2.428  10.678  0.8143 -0.4443  1.2331
  784MPD2     C11558   2.985   2.923   0.721  0.6140 -0.2338 -0.8495
  784MPD2    C111559   2.931   2.972   0.839  0.6012  0.0255  0.7792
  784MPD2    C211560   2.805   3.037   0.842 -0.5546 -0.9947  0.3066
  784MPD2    C311561   2.719   3.036   0.738  0.8689  0.2362 -0.1555
  784MPD2    C411562   2.768   2.979   0.622  0.0049  0.2549  0.1942
  784MPD2    C511563   2.895   2.922   0.615  0.2567  0.0096 -0.0946
  784MPD2     H11564   2.783   3.081   0.939  1.8591  0.5537  0.1454
  784MPD2    H111565   2.710   2.977   0.530 -0.1801 -1.0878  0.3429
  784MPD2    H211566   3.083   2.877   0.712  0.6153 -0.4906  0.5865
  784MPD2    H311567   2.914   2.861   0.527  0.0651  0.3033 -0.3401
  784MPD2     N11568   2.593   3.093   0.747  0.8077 -0.1325 -0.3407
  784MPD2    H511569   2.580   3.132   0.840 -0.8987 -2.4542  0.3850
  784MPD2    N111570   3.010   2.995   0.955  0.1699 -1.0506  0.5353
  784MPD2    H711571   2.967   3.040   1.035 -2.0437  2.7906 -2.8621
  785MPD2     C11572   3.165   1.935  10.345  0.0269  0.0243  0.1426
  785MPD2    C111573   3.157   2.056  10.271 -0.6738 -0.3508 -0.0856
  785MPD2    C211574   3.065   2.060  10.167  0.3534  0.6336  0.1263
  785MPD2    C311575   2.990   1.949  10.135  0.2138  0.1446 -0.3924
  785MPD2    C411576   3.013   1.827  10.197  0.3125 -0.2080 -0.0462
  785MPD2    C511577   3.099   1.823  10.302 -0.7427  0.3379 -0.1925
  785MPD2     H11578   3.050   2.160  10.129  0.8342  1.3311  1.7541
  785MPD2    H111579   2.965   1.733  10.175 -1.4896  1.1613 -1.9392
  785MPD2    H211580   3.241   1.933  10.423  0.5537 -1.3404 -0.3860
  785MPD2    H311581   3.111   1.732  10.361  0.4468  2.7585  3.2650
  785MPD2     N11582   2.899   1.958  10.028 -0.1210  0.0017 -0.0476
  785MPD2    H511583   2.880   2.048   9.986 -0.9725 -0.3101 -0.3380
  785MPD2    N111584   3.221   2.174  10.296 -0.5495 -0.2548  0.2573
  785MPD2    H711585   3.183   2.247  10.237  1.1242  1.2260  1.0119
  786MPD2     C11586   1.407   4.587  14.536  0.1033 -0.1592  0.1013
  786MPD2    C111587   1.530   4.525  14.555  0.2538 -1.1538  0.1283
  786MPD2    C211588   1.599   4.563  14.665  0.1615  0.3132  0.2150
  786MPD2    C311589   1.560   4.652  14.764 -0.3104 -0.5890 -0.0952
  786MPD2    C411590   1.439   4.708  14.744 -0.1924  0.4319 -0.1220
  786MPD2    C511591   1.364   4.674  14.634  0.7689  0.2238 -0.3905
  786MPD2     H11592   1.685   4.501  14.687  0.8940  1.6020  0.9674
  786MPD2    H111593   1.387   0.050  14.812  0.2180 -0.2898  0.9070
  786MPD2    H211594   1.340   4.549  14.460  0.5891 -0.6022 -0.1044
  786MPD2    H311595   1.266   4.719  14.627  0.7232  0.2416  0.3464
  786MPD2     N11596   1.636   4.663  14.885  0.4121 -0.0472  0.3547
  786MPD2    H511597   1.606   0.018  14.941  1.1780  1.4819 -1.4091
  786MPD2    N111598   1.581   4.411  14.484  0.6574 -0.4789 -0.2143
  786MPD2    H711599   1.665   4.370  14.523  0.4796 -1.1619 -0.5515
  787MPD2     C11600   1.930   4.052  14.780 -0.2235  0.0431  0.3663
  787MPD2    C111601   1.914   3.973  14.667  0.0850 -0.1076  0.1593
  787MPD2    C211602   1.972   3.848  14.661 -0.2162  0.5698 -0.0733
  787MPD2    C311603   2.048   3.797  14.765 -0.8688  0.8783 -0.1260
  787MPD2    C411604   2.063   3.877  14.876  0.2409 -0.1246  0.3732
  787MPD2    C511605   2.006   4.002  14.879  0.0570 -0.6388 -0.3091
  787MPD2     H11606   1.969   3.790  14.570  2.0583  0.6556 -0.1887
  787MPD2    H111607   2.126   3.853  14.961  0.4096  1.8735  0.8063
  787MPD2    H211608   1.895   4.154  14.792 -0.9150 -0.0465 -0.9088
  787MPD2    H311609   2.020   4.063  14.967 -0.5729  0.0208 -0.6691
  787MPD2     N11610   2.110   3.672  14.754 -0.4093  0.1579  0.2605
  787MPD2    H511611   2.097   3.635  14.661 -1.8409 -1.2089  1.0154
  787MPD2    N111612   1.843   4.021  14.548  0.1473  0.8875 -0.9398
  787MPD2    H711613   1.813   4.116  14.568 -0.5640  0.2473  0.9742
  788MPD2     C11614   4.050   2.437   0.687 -0.0261  0.4406 -0.3765
  788MPD2    C111615   3.985   2.315   0.654 -0.1939 -0.0567 -0.3942
  788MPD2    C211616   3.886   2.314   0.556 -0.5539  0.0864 -0.3986
  788MPD2    C311617   3.846   2.430   0.494 -0.6767 -0.9968  0.9178
  788MPD2    C411618   3.908   2.542   0.528 -0.2253 -0.5304 -0.6821
  788MPD2    C511619   4.002   2.552   0.628  0.4871 -0.3414 -0.6872
  788MPD2     H11620   3.837   2.221   0.529 -0.8646  1.0890 -3.3074
  788MPD2    H111621   3.883   2.643   0.498  0.8032  0.1076  0.5860
  788MPD2    H211622   4.125   2.451   0.764  1.9820  0.0690 -2.2569
  788MPD2    H311623   4.057   2.644   0.647 -0.8372  0.7642 -2.2180
  788MPD2     N11624   3.743   2.436   0.402  0.7418  0.0184  0.1166
  788MPD2    H511625   3.738   2.530   0.363 -2.5542 -0.0979  0.2893
  788MPD2    N111626   4.028   2.202   0.711  0.3279  0.0650 -0.7784
  788MPD2    H711627   3.984   2.118   0.674  2.2651 -1.4357  0.3204
  789MPD2     C11628   4.030   1.718  16.463  0.0298  0.8507 -0.6556
  789MPD2    C111629   3.923   1.664  16.398 -0.4743 -0.0210  0.4740
  789MPD2    C211630   3.790   1.706  16.424 -0.2321 -0.0090 -0.2768
  789MPD2    C311631   3.773   1.790  16.535 -0.4264 -0.3969 -0.2892
  789MPD2    C411632   3.882   1.845  16.599 -0.5426 -0.3193  0.8402
  789MPD2    C511633   4.009   1.812  16.564  0.4499  0.3561 -1.2075
  789MPD2     H11634   3.707   1.682  16.359 -0.2385  3.3674 -1.4994
  789MPD2    H111635   3.870   1.910  16.685 -0.9849 -1.5527  1.7056
  789MPD2    H211636   4.135   1.714  16.435 -0.3673 -1.0446 -1.8942
  789MPD2    H311637   4.099   1.855  16.608 -1.0600  2.4519 -0.1849
  789MPD2     N11638   3.646   1.836  16.584  0.3601  0.4122 -0.1675
  789MPD2    H511639   3.650   1.912  16.651 -1.7036  1.9691 -1.8081
  789MPD2    N111640   3.934   1.567  16.296  0.3786 -0.0091 -0.2547
  789MPD2    H711641   3.848   1.539  16.249  0.4386 -0.3043 -0.1877
  790MPD2     C11642   0.282   4.254  13.634 -0.6732 -0.1083 -0.4247
  790MPD2    C111643   0.294   4.126  13.670 -0.5743 -0.8032 -0.5737
  790MPD2    C211644   0.297   4.016  13.574  0.2682  0.3156 -0.0482
  790MPD2    C311645   0.277   4.049  13.442  0.3278  0.3533 -0.2346
  790MPD2    C411646   0.267   4.182  13.408  0.9425 -0.1969  0.6185
  790MPD2    C511647   0.268   4.283  13.499  0.3258  0.8030 -0.6004
  790MPD2     H11648   0.315   3.913  13.603  1.9282  0.2884 -1.2022
  790MPD2    H111649   0.256   4.205  13.303  1.8592  0.3663  0.6360
  790MPD2    H211650   0.281   4.340  13.699  1.4484  1.5869 -2.6053
  790MPD2    H311651   0.251   4.386  13.472 -0.8762  0.3753 -1.4937
  790MPD2     N11652   0.255   3.946  13.343  0.7730 -0.3422 -0.1695
  790MPD2    H511653   0.243   3.854  13.383 -4.1036  0.9068  1.2897
  790MPD2    N111654   0.291   4.097  13.811 -0.6852 -0.6037 -0.5574
  790MPD2    H711655   0.272   4.179  13.867  0.1422  0.1443 -1.3607
  791MPD2     C11656   4.403   3.718  13.344  0.8180 -0.4147 -0.1787
  791MPD2    C111657   4.468   3.673  13.230 -0.0705 -0.1196  0.4448
  791MPD2    C211658   4.384   3.629  13.120  0.1170 -0.3524  0.1910
  791MPD2    C311659   4.246   3.662  13.121 -0.2159  0.0082  0.1480
  791MPD2    C411660   4.187   3.716  13.234  0.1620 -0.5909  0.5066
  791MPD2    C511661   4.267   3.741  13.343 -0.4422  1.2595  0.7361
  791MPD2     H11662   4.433   3.577  13.039  0.8615 -0.3616  0.6428
  791MPD2    H111663   4.081   3.736  13.241  0.2144 -0.3367  0.5868
  791MPD2    H211664   4.458   3.742  13.434  0.8807 -0.4691 -0.2028
  791MPD2    H311665   4.225   3.767  13.440 -3.1364  1.9328 -0.6262
  791MPD2     N11666   4.165   3.627  13.008  0.2720  0.1611 -0.3268
  791MPD2    H511667   4.209   3.575  12.932 -0.2526 -1.1053  0.2413
  791MPD2    N111668   4.613   3.660  13.236  0.4793  0.0066  0.5827
  791MPD2    H711669   4.662   3.683  13.322  1.2444  1.4564 -0.2314
  792MPD2     C11670   0.796   3.969  11.380 -0.0338  0.6360 -0.4701
  792MPD2    C111671   0.735   4.023  11.265 -0.0072  0.2960  0.0051
  792MPD2    C211672   0.613   3.977  11.223  0.6477  1.0043  0.3285
  792MPD2    C311673   0.537   3.881  11.289 -0.0574  0.2808  0.1616
  792MPD2    C411674   0.599   3.843  11.410  0.5391 -1.1100  0.5948
  792MPD2    C511675   0.720   3.886  11.451 -0.0925 -0.3150  0.0746
  792MPD2     H11676   0.562   4.003  11.131 -2.0749  0.5730  1.7299
  792MPD2    H111677   0.544   3.776  11.475 -0.1194 -0.4005  0.7669
  792MPD2    H211678   0.897   3.991  11.411  0.0265  0.2901 -0.4304
  792MPD2    H311679   0.751   3.843  11.546 -0.2345  1.6778  1.0385
  792MPD2     N11680   0.426   3.807  11.233 -0.1729 -0.2025  0.9521
  792MPD2    H511681   0.384   3.740  11.296  0.2033  0.0096  1.4240
  792MPD2    N111682   0.817   4.114  11.191  0.0932  0.3025 -0.0849
  792MPD2    H711683   0.908   4.145  11.223  1.1193 -1.6072 -1.1449
  793MPD2     C11684   0.158   3.508  10.331  0.7479  0.5743  0.1238
  793MPD2    C111685   0.275   3.522  10.407  0.3213  0.2308  0.0117
  793MPD2    C211686   0.268   3.552  10.541  0.5845  1.1520  0.5663
  793MPD2    C311687   0.147   3.587  10.602 -0.3115  0.5536  0.7133
  793MPD2    C411688   0.034   3.582  10.527  0.5477  0.2648  0.5403
  793MPD2    C511689   0.036   3.537  10.392 -0.6202 -0.2119 -0.4063
  793MPD2     H11690   0.362   3.551  10.595  1.8159  1.3185 -1.5751
  793MPD2    H111691   4.662   3.603  10.573  0.8803  1.8327  0.5216
  793MPD2    H211692   0.162   3.478  10.227  3.7968 -0.0079  0.4104
  793MPD2    H311693   4.671   3.534  10.330 -2.2233 -1.0250  1.9258
  793MPD2     N11694   0.148   3.607  10.742 -0.6865 -0.2056 -0.1929
  793MPD2    H511695   0.237   3.623  10.789 -0.3450  1.8528 -1.5292
  793MPD2    N111696   0.403   3.500  10.343  0.3113 -0.0373 -0.3371
  793MPD2    H711697   0.486   3.528  10.393 -0.7464  1.9106  0.3701
  794MPD2     C11698   4.296   3.739  17.084 -0.5235  0.3385 -0.2032
  794MPD2    C111699   4.349   3.639  17.003 -0.0567 -0.1397  0.8761
  794MPD2    C211700   4.322   3.629  16.874 -0.1387 -0.2648 -0.1427
  794MPD2    C311701   4.241   3.722  16.810 -0.0044 -0.3055  0.7287
  794MPD2    C411702   4.184   3.817  16.891 -0.2444  0.2630  0.4601
  794MPD2    C511703   4.207   3.815  17.024  0.1302 -0.4819 -0.0091
  794MPD2     H11704   4.363   3.550  16.812 -2.3759 -1.4118 -0.1537
  794MPD2    H111705   4.113   3.892  16.856 -0.5018 -0.9411 -1.5943
  794MPD2    H211706   4.326   3.761  17.186  0.0937  0.8935 -0.5044
  794MPD2    H311707   4.149   3.878  17.090 -1.2517 -0.8184 -0.8979
  794MPD2     N11708   4.196   3.720  16.678  0.2530 -0.0835  0.3942
  794MPD2    H511709   4.126   3.785  16.644  0.1686  0.8277  2.3292
  794MPD2    N111710   4.438   3.545  17.056 -0.3939  0.1158 -0.6203
  794MPD2    H711711   4.504   3.495  16.998  1.5882  2.0888 -0.0830
  795MPD2     C11712   2.813   0.400  12.960  0.7692 -0.7261 -0.9142
  795MPD2    C111713   2.712   0.322  13.016  0.3699  0.0806 -0.5382
  795MPD2    C211714   2.748   0.227  13.109  0.1674  0.4590 -0.0409
  795MPD2    C311715   2.878   0.203  13.144 -0.0806  0.0687  0.4658
  795MPD2    C411716   2.976   0.273  13.076 -0.2606 -0.7278  0.1034
  795MPD2    C511717   2.945   0.368  12.983 -0.1679 -0.5854 -0.7925
  795MPD2     H11718   2.669   0.164  13.148 -1.4952  2.9296  0.6504
  795MPD2    H111719   3.079   0.249  13.098  0.7483  3.8581  0.3037
  795MPD2    H211720   2.795   0.470  12.879  1.3072  2.1106  1.4333
  795MPD2    H311721   3.028   0.420  12.938 -0.4293 -0.9746 -1.7289
  795MPD2     N11722   2.909   0.100  13.232 -0.2354 -0.2138  0.6253
  795MPD2    H511723   2.833   0.056  13.283 -0.4978 -0.4862 -0.0067
  795MPD2    N111724   2.576   0.345  12.996 -0.2799  0.7564 -0.0481
  795MPD2    H711725   2.508   0.297  13.053  0.0236 -1.4748 -1.5488
  796MPD2     C11726   1.721   1.897  15.772 -0.3590 -0.4811 -0.1658
  796MPD2    C111727   1.826   1.896  15.856  0.0796  0.3172  0.3526
  796MPD2    C211728   1.873   2.018  15.908 -0.1376 -0.8320 -0.3672
  796MPD2    C311729   1.817   2.136  15.864 -0.1776  0.4758  0.6205
  796MPD2    C411730   1.715   2.141  15.779 -0.9049  0.6225  0.0830
  796MPD2    C511731   1.668   2.021  15.734 -0.5220  0.7509 -0.1884
  796MPD2     H11732   1.950   2.021  15.985  1.2117  1.5656 -1.8279
  796MPD2    H111733   1.663   2.232  15.751 -1.8644 -0.6684 -2.3587
  796MPD2    H211734   1.672   1.808  15.734  0.3766 -1.0214  0.1600
  796MPD2    H311735   1.574   2.023  15.679  0.9721  0.4654 -2.7637
  796MPD2     N11736   1.871   2.257  15.921 -0.5702 -1.1997 -0.6594
  796MPD2    H511737   1.940   2.249  15.995 -1.0608  2.1382  0.1825
  796MPD2    N111738   1.868   1.770  15.907 -0.5439  0.3407  0.1064
  796MPD2    H711739   1.816   1.690  15.872 -0.0312 -1.0367  2.4891
  797MPD2     C11740   2.750   1.185  17.492 -0.2002  0.5179  0.6956
  797MPD2    C111741   2.790   1.315  17.499  0.3760 -0.0252  0.7219
  797MPD2    C211742   2.745   1.406  17.404 -0.3037 -0.1253  0.5516
  797MPD2    C311743   2.658   1.370  17.304 -0.3958  0.8376  0.4341
  797MPD2    C411744   2.624   1.239  17.292 -0.0303 -0.3085  0.3550
  797MPD2    C511745   2.669   1.149  17.383  0.0638 -0.9446  0.3650
  797MPD2     H11746   2.771   1.511  17.416  0.3690 -0.2869  0.5031
  797MPD2    H111747   2.549   1.201  17.223 -0.9292  0.2227  1.0351
  797MPD2    H211748   2.787   1.106  17.556 -0.6851  0.1312  0.4947
  797MPD2    H311749   2.643   1.045  17.365 -0.8994 -0.6192 -0.1048
  797MPD2     N11750   2.599   1.468  17.218 -0.2702  0.6273 -0.0625
  797MPD2    H511751   2.617   1.564  17.243 -1.4610  1.2151 -1.4871
  797MPD2    N111752   2.879   1.366  17.592 -0.5815 -0.5575  0.3835
  797MPD2    H711753   2.906   1.464  17.584 -1.2285 -0.3306  1.0446
  798MPD2     C11754   2.955   2.034  17.308  0.2876 -1.0899 -0.1958
  798MPD2    C111755   2.877   1.924  17.327  0.1801 -0.0849  0.7655
  798MPD2    C211756   2.900   1.829  17.430  0.5746  0.1078 -0.4258
  798MPD2    C311757   2.998   1.855  17.521  0.5725  0.2757  1.0286
  798MPD2    C411758   3.077   1.968  17.511 -0.6047 -0.7720  0.9041
  798MPD2    C511759   3.051   2.048  17.406  0.4869  0.0607  0.7702
  798MPD2     H11760   2.847   1.735  17.435  1.0083 -0.0886  0.5108
  798MPD2    H111761   3.164   1.985  17.573 -0.9989 -0.5874  1.4046
  798MPD2    H211762   2.927   2.103  17.230 -1.5328 -0.3133  1.1543
  798MPD2    H311763   3.102   2.144  17.407  0.6868 -0.0259 -0.8268
  798MPD2     N11764   3.027   1.746  17.604 -0.5089  1.1675  0.6281
  798MPD2    H511765   2.966   1.667  17.589  0.5464  0.3785  0.4907
  798MPD2    N111766   2.775   1.907  17.232  0.1987  0.3956  0.3560
  798MPD2    H711767   2.772   1.974  17.156 -0.8113  1.6198  1.4779
  799MPD2     C11768   1.772   3.352  14.841  1.2339 -0.0971 -0.1582
  799MPD2    C111769   1.679   3.288  14.770  0.4418  0.0360 -0.4904
  799MPD2    C211770   1.619   3.352  14.660 -0.1596 -0.8835 -0.2010
  799MPD2    C311771   1.659   3.479  14.623  0.0848  0.2285  0.4660
  799MPD2    C411772   1.742   3.549  14.703  0.6770  0.0318  0.5347
  799MPD2    C511773   1.805   3.477  14.803  0.0084 -0.4032 -0.3002
  799MPD2     H11774   1.550   3.292  14.602 -1.7184  2.1491 -1.5321
  799MPD2    H111775   1.764   3.655  14.689  1.7554 -0.5969 -2.4757
  799MPD2    H211776   1.826   3.307  14.923 -0.0072 -2.3744 -0.5890
  799MPD2    H311777   1.878   3.534  14.860  0.0018 -0.4714 -0.2239
  799MPD2     N11778   1.617   3.545  14.507  0.3704  0.4974 -0.0624
  799MPD2    H511779   1.658   3.637  14.491 -0.2612  0.8524  0.3247
  799MPD2    N111780   1.644   3.154  14.789  0.0779 -0.2599  0.5112
  799MPD2    H711781   1.566   3.117  14.735 -0.7953  0.3072  1.3925
  800MPD2     C11782   1.902   4.401  13.967 -0.1445  0.4888  0.0298
  800MPD2    C111783   2.034   4.374  13.952  0.0941  0.3278  0.2193
  800MPD2    C211784   2.073   4.299  13.842 -0.9052 -0.4837  0.0256
  800MPD2    C311785   1.976   4.246  13.761 -0.0094  0.1190 -0.5297
  800MPD2    C411786   1.849   4.281  13.780  0.8326 -0.3357  0.0580
  800MPD2    C511787   1.810   4.366  13.878 -0.6287 -0.9282 -0.5099
  800MPD2     H11788   2.175   4.276  13.816 -1.2475 -2.3899  0.4126
  800MPD2    H111789   1.774   4.239  13.713  0.1353 -0.9958  1.2402
  800MPD2    H211790   1.873   4.459  14.054 -0.2320 -1.2318  1.1388
  800MPD2    H311791   1.704   4.385  13.889 -0.0292  0.9187  2.3117
  800MPD2     N11792   2.024   4.178  13.649 -0.2190 -0.2691 -0.3535
  800MPD2    H511793   2.125   4.173  13.642 -0.0691  1.3154  0.8083
  800MPD2    N111794   2.127   4.427  14.050 -0.3849 -0.6065 -0.6907
  800MPD2    H711795   2.100   4.499  14.116 -1.2769 -0.6124 -1.0512
  801MPD2     C11796   2.253   0.422  13.959 -0.4323  0.0272 -0.5777
  801MPD2    C111797   2.169   0.312  13.977  0.1653  0.7405 -0.4252
  801MPD2    C211798   2.032   0.330  13.971  0.6228 -0.6937 -0.2819
  801MPD2    C311799   1.982   0.457  13.964 -0.3354  0.1333  0.1495
  801MPD2    C411800   2.066   0.566  13.962  0.0844 -0.3945 -0.0645
  801MPD2    C511801   2.201   0.546  13.947 -0.5669  0.1214 -0.0392
  801MPD2     H11802   1.970   0.243  13.992  0.3575 -0.4096  0.1063
  801MPD2    H111803   2.018   0.663  13.960 -0.1531 -0.5377 -1.1667
  801MPD2    H211804   2.361   0.426  13.950 -0.3957  2.5371  0.6833
  801MPD2    H311805   2.260   0.637  13.938 -0.5900 -0.0642 -2.2044
  801MPD2     N11806   1.845   0.492  13.954 -0.0711  0.1354  0.0924
  801MPD2    H511807   1.812   0.587  13.957 -2.5698 -0.6578 -2.2844
  801MPD2    N111808   2.220   0.182  14.009  0.5747  0.2932 -0.0902
  801MPD2    H711809   2.156   0.103  14.014  1.2521 -0.4745 -3.2155
  802MPD2     C11810   1.634   0.275   0.092  0.1974  0.5216  0.0510
  802MPD2    C111811   1.521   0.347   0.039 -0.4459  0.4185 -0.0231
  802MPD2    C211812   1.507   0.355  17.600 -0.5124  0.7080  0.1524
  802MPD2    C311813   1.605   0.313  17.515  0.3897 -0.3945 -0.8810
  802MPD2    C411814   1.713   0.243  17.564 -1.1469 -0.0631  0.9672
  802MPD2    C511815   1.727   0.226   0.002 -0.1842  0.1785 -0.6852
  802MPD2     H11816   1.417   0.398  17.558 -0.7874 -2.0467 -2.0481
  802MPD2    H111817   1.784   0.198  17.495 -0.7817 -0.5542  1.6660
  802MPD2    H211818   1.663   0.278   0.197 -1.6460 -2.5474  0.6533
  802MPD2    H311819   1.813   0.170   0.038 -0.6999  0.8416  1.5831
  802MPD2     N11820   1.591   0.340  17.374 -0.1025  0.2591  0.0669
  802MPD2    H511821   1.509   0.393  17.346 -1.3411 -2.2390 -1.0326
  802MPD2    N111822   1.424   0.414   0.120  0.5836  0.3545  0.5692
  802MPD2    H711823   1.349   0.467   0.077  2.1472  0.8903 -1.5213
  803MPD2     C11824   3.337   3.824  11.480 -0.4882  0.1884  0.2138
  803MPD2    C111825   3.372   3.814  11.613 -0.2608 -0.5909  0.2809
  803MPD2    C211826   3.316   3.722  11.693 -0.4186 -0.6676 -0.3235
  803MPD2    C311827   3.212   3.641  11.646  0.2930 -0.2522 -0.1084
  803MPD2    C411828   3.168   3.652  11.514 -0.3180  0.2480  0.5964
  803MPD2    C511829   3.233   3.747  11.435  0.2390 -0.4395  0.1137
  803MPD2     H11830   3.337   3.735  11.799  1.0783 -0.1749 -0.6829
  803MPD2    H111831   3.084   3.590  11.483 -0.1376  2.0227 -3.4431
  803MPD2    H211832   3.370   3.909  11.420 -0.0254 -0.1069  0.0446
  803MPD2    H311833   3.193   3.757  11.335 -0.1213  1.0304  0.4031
  803MPD2     N11834   3.146   3.554  11.738 -0.2694 -0.7355 -0.7026
  803MPD2    H511835   3.058   3.515  11.706 -1.2682 -1.8514  3.4711
  803MPD2    N111836   3.470   3.895  11.660  0.5192 -0.3271 -0.4771
  803MPD2    H711837   3.471   3.898  11.761 -0.7518  0.6648 -0.4810
  804MPD2     C11838   2.133   0.498  17.193  0.2408 -0.4675 -0.0629
  804MPD2    C111839   2.187   0.373  17.222 -0.2181  0.4874 -0.0511
  804MPD2    C211840   2.308   0.370  17.293  0.2427  0.2813  0.0695
  804MPD2    C311841   2.383   0.487  17.313 -0.0007  0.6212  0.7083
  804MPD2    C411842   2.326   0.611  17.285 -0.6638 -0.4727  0.4238
  804MPD2    C511843   2.201   0.609  17.228  0.2776 -0.4485  0.0839
  804MPD2     H11844   2.350   0.275  17.322 -1.4172  0.1472  1.9911
  804MPD2    H111845   2.375   0.703  17.316 -0.5074 -0.9559  1.6169
  804MPD2    H211846   2.028   0.495  17.165  0.1589  3.3072 -0.0915
  804MPD2    H311847   2.141   0.698  17.218  2.7091  0.9096 -2.4150
  804MPD2     N11848   2.507   0.474  17.373 -0.2574  0.1382  1.2083
  804MPD2    H511849   2.539   0.384  17.408  2.8491  1.3806  1.5483
  804MPD2    N111850   2.122   0.253  17.177  0.1751 -0.5733  0.1416
  804MPD2    H711851   2.154   0.165  17.215  2.1572  0.1873  0.2471
  805MPD2     C11852   1.764   3.578  15.838 -0.1131 -0.3839 -0.1719
  805MPD2    C111853   1.838   3.493  15.753 -0.4353 -0.1130 -0.6575
  805MPD2    C211854   1.963   3.451  15.800  0.1301  0.6697 -0.0381
  805MPD2    C311855   1.991   3.458  15.936  0.2396  0.0557 -0.0750
  805MPD2    C411856   1.907   3.528  16.027  0.0497  0.7288  0.6961
  805MPD2    C511857   1.793   3.595  15.972 -0.3094 -0.5880  0.5612
  805MPD2     H11858   2.031   3.397  15.735 -1.2993 -0.8213 -0.2944
  805MPD2    H111859   1.931   3.528  16.132 -0.5773  0.4509  0.8409
  805MPD2    H211860   1.677   3.635  15.806  0.4712  1.3808  1.4062
  805MPD2    H311861   1.733   3.654  16.041  2.4131  0.8767  1.6922
  805MPD2     N11862   2.115   3.398  15.969  0.4895  0.7960  0.3720
  805MPD2    H511863   2.174   3.364  15.894  1.6949  2.3373  0.6340
  805MPD2    N111864   1.804   3.488  15.614  0.3991  0.0446 -0.8996
  805MPD2    H711865   1.873   3.452  15.547  0.9864  0.0743 -0.3138
  806MPD2     C11866   1.962   2.934   0.711 -0.5191  0.3787 -0.5543
  806MPD2    C111867   2.095   2.903   0.679  0.4884 -0.6690  0.2321
  806MPD2    C211868   2.147   2.900   0.553  0.4067  0.1337  0.0339
  806MPD2    C311869   2.059   2.945   0.454 -0.1278  0.7110  0.4425
  806MPD2    C411870   1.927   2.969   0.484 -0.1723 -0.4385  0.3816
  806MPD2    C511871   1.879   2.966   0.611  0.3316  0.4987  0.3077
  806MPD2     H11872   2.248   2.874   0.524 -0.0934 -1.1850 -0.5121
  806MPD2    H111873   1.857   3.017   0.417 -0.0983 -0.2387  0.4455
  806MPD2    H211874   1.925   2.928   0.813 -0.0532  0.1912 -0.3946
  806MPD2    H311875   1.777   2.996   0.631 -0.6790 -2.6400 -0.1256
  806MPD2     N11876   2.110   2.981   0.327 -0.3845  0.2832 -0.3070
  806MPD2    H511877   2.210   2.967   0.320 -0.3053  0.3935  0.6109
  806MPD2    N111878   2.158   2.861   0.795 -0.0927 -0.3239 -0.3247
  806MPD2    H711879   2.103   2.876   0.879  3.0390  2.2063  1.2940
  807MPD2     C11880   1.916   2.646   1.442 -0.6090 -0.6370  0.0374
  807MPD2    C111881   2.048   2.617   1.457  0.6854  0.2393 -0.4712
  807MPD2    C211882   2.089   2.563   1.582  0.0400 -0.5800 -0.0977
  807MPD2    C311883   2.010   2.552   1.690 -0.3258  0.3724 -1.0198
  807MPD2    C411884   1.879   2.589   1.672 -0.2681  0.3985 -0.1116
  807MPD2    C511885   1.837   2.636   1.549  0.7514 -0.1509 -0.3778
  807MPD2     H11886   2.194   2.541   1.592 -0.0524 -0.7600  0.4536
  807MPD2    H111887   1.802   2.580   1.748 -0.2379 -3.3156 -0.5225
  807MPD2    H211888   1.877   2.692   1.352 -0.1618  1.4569  0.9054
  807MPD2    H311889   1.732   2.663   1.538  0.4523 -0.2221  2.2556
  807MPD2     N11890   2.066   2.492   1.804  0.4193  0.6158 -0.1485
  807MPD2    H511891   2.161   2.461   1.788  0.4133 -1.1152  3.2167
  807MPD2    N111892   2.142   2.642   1.360  0.5824  0.1201 -0.2516
  807MPD2    H711893   2.236   2.611   1.382  0.4548 -0.3508 -0.3686
  808MPD2     C11894   2.504   4.700   9.352  0.0484 -0.5335  0.7902
  808MPD2    C111895   2.566   4.696   9.477  0.0686  0.4187  0.0875
  808MPD2    C211896   2.659   0.072   9.524 -0.8181 -0.1361 -0.0217
  808MPD2    C311897   2.682   0.180   9.440 -0.2796  0.9614 -0.6200
  808MPD2    C411898   2.609   0.190   9.322 -0.4866 -0.4624  0.2138
  808MPD2    C511899   2.530   0.087   9.281 -0.3690 -0.0531  0.7427
  808MPD2     H11900   2.709   0.063   9.620 -1.4934  3.0043  0.6077
  808MPD2    H111901   2.621   0.267   9.246 -1.4103 -0.6908 -0.1593
  808MPD2    H211902   2.436   4.628   9.307  2.2877 -2.2996  0.2246
  808MPD2    H311903   2.476   0.091   9.187  0.0927 -0.5718  0.4564
  808MPD2     N11904   2.772   0.281   9.464 -0.6908 -0.3426 -0.4737
  808MPD2    H511905   2.772   0.357   9.397  2.9342  0.6878  0.7028
  808MPD2    N111906   2.549   4.589   9.565 -0.6128  0.6551 -0.4510
  808MPD2    H711907   2.596   4.589   9.654  0.8869  0.9482 -1.2433
  809MPD2     C11908   3.577   0.801   9.638 -0.4148  0.9794 -0.2134
  809MPD2    C111909   3.535   0.697   9.556 -0.6433 -0.4859  0.0281
  809MPD2    C211910   3.404   0.676   9.515 -0.0771 -0.7902  0.0514
  809MPD2    C311911   3.309   0.774   9.543 -0.1258 -0.6090  0.1548
  809MPD2    C411912   3.353   0.889   9.612  0.6858 -0.8604 -0.1344
  809MPD2    C511913   3.486   0.894   9.661  0.0649  0.5028  0.4204
  809MPD2     H11914   3.377   0.583   9.466 -2.2240 -1.3090  2.2228
  809MPD2    H111915   3.292   0.975   9.633  0.1904 -0.7593 -1.9709
  809MPD2    H211916   3.679   0.823   9.669  0.0094 -0.6710 -0.4293
  809MPD2    H311917   3.515   0.979   9.721 -0.7047  0.2990  1.0916
  809MPD2     N11918   3.175   0.767   9.504  0.5425  0.0430  0.0104
  809MPD2    H511919   3.133   0.857   9.524  0.6190 -0.1579  1.0534
  809MPD2    N111920   3.623   0.601   9.500 -0.4868 -0.1030  0.6185
  809MPD2    H711921   3.597   0.525   9.438 -0.8240  0.4550  0.0774
  810MPD2     C11922   2.537   4.248  10.158  0.1327 -0.8371 -0.2272
  810MPD2    C111923   2.449   4.201  10.256 -0.2759 -0.2364  0.2318
  810MPD2    C211924   2.477   4.235  10.385 -0.3314 -0.5836 -0.3332
  810MPD2    C311925   2.582   4.328  10.415 -0.7844  0.5180  0.2417
  810MPD2    C411926   2.661   4.380  10.309  0.2596  0.2039 -0.5291
  810MPD2    C511927   2.634   4.340  10.181 -0.3445 -0.2995 -0.2775
  810MPD2     H11928   2.433   4.176  10.464 -0.5594  0.8004  0.5661
  810MPD2    H111929   2.741   4.450  10.329 -0.7411  0.7169  1.6596
  810MPD2    H211930   2.539   4.195  10.063  0.2653 -1.3868  0.0797
  810MPD2    H311931   2.694   4.370  10.096 -0.5163 -0.8398 -0.5882
  810MPD2     N11932   2.608   4.383  10.545 -0.0123  0.2701 -0.2948
  810MPD2    H511933   2.686   4.445  10.565 -0.6433  1.5345 -1.7009
  810MPD2    N111934   2.353   4.102  10.223 -0.2510  0.2969 -0.3924
  810MPD2    H711935   2.362   4.076  10.125  0.1164  1.4715 -0.6644
  811MPD2     C11936   1.585   4.038   9.926  0.7481 -0.3612 -0.6739
  811MPD2    C111937   1.705   4.080   9.983 -0.1857  0.1663 -0.5197
  811MPD2    C211938   1.718   4.221   9.983 -0.3445 -0.1304 -0.7001
  811MPD2    C311939   1.621   4.309   9.930 -0.2441 -0.1869 -0.5793
  811MPD2    C411940   1.497   4.253   9.892 -0.0130  0.8599  0.2943
  811MPD2    C511941   1.479   4.123   9.892 -0.0119  0.3695 -0.2004
  811MPD2     H11942   1.810   4.273  10.007 -1.6277  1.4931  0.6887
  811MPD2    H111943   1.410   4.311   9.863 -1.0512 -0.7342  0.2185
  811MPD2    H211944   1.570   3.931   9.918 -1.3349 -0.0370 -0.9599
  811MPD2    H311945   1.383   4.084   9.861 -0.2245  1.5729 -1.0577
  811MPD2     N11946   1.646   4.447   9.927  0.0176  0.6253  0.4490
  811MPD2    H511947   1.739   4.482   9.947  1.2833 -2.0781 -0.6519
  811MPD2    N111948   1.803   3.986  10.020  0.2203 -0.1007 -0.0567
  811MPD2    H711949   1.778   3.888  10.019 -1.1481  0.2100  1.9262
  812MPD2     C11950   0.987   3.906  11.744 -0.7759  0.1684  0.4778
  812MPD2    C111951   0.909   3.983  11.825 -0.1988  0.2015  0.5062
  812MPD2    C211952   0.870   3.932  11.942 -0.0988  0.1069 -0.3092
  812MPD2    C311953   0.903   3.811  11.985  0.0716 -0.1101 -0.8350
  812MPD2    C411954   0.980   3.730  11.899 -0.0731  0.3286 -0.1658
  812MPD2    C511955   1.023   3.784  11.784  0.0686 -0.1501 -0.1140
  812MPD2     H11956   0.797   3.992  11.995 -0.2490 -1.4839  1.2969
  812MPD2    H111957   0.995   3.624  11.918  1.8075  0.8881  1.5367
  812MPD2    H211958   1.027   3.944  11.651 -0.6112  0.5723  0.7177
  812MPD2    H311959   1.095   3.730  11.723  0.6829 -0.6727  1.0757
  812MPD2     N11960   0.866   3.766  12.118  0.0152  0.0432  0.1433
  812MPD2    H511961   0.818   3.832  12.177 -2.5043  0.1483 -2.0189
  812MPD2    N111962   0.867   4.114  11.783  0.3437 -0.2777  0.4970
  812MPD2    H711963   0.894   4.133  11.687 -0.3068 -1.3946  0.0865
  813MPD2     C11964   4.474   1.101  12.627  0.1841  0.8525  0.6779
  813MPD2    C111965   4.589   1.049  12.687 -0.0753  0.2197 -0.5986
  813MPD2    C211966   4.580   1.006  12.817  0.1799 -0.5195 -0.0031
  813MPD2    C311967   4.468   1.021  12.897  0.1501  0.7851 -0.0457
  813MPD2    C411968   4.357   1.075  12.839 -0.1123 -0.2730 -0.1229
  813MPD2    C511969   4.360   1.111  12.706 -0.6030  0.7698 -0.9538
  813MPD2     H11970   4.675   0.987  12.864 -0.0527 -3.8904 -0.8842
  813MPD2    H111971   4.265   1.084  12.895  0.1565  0.1470  0.2493
  813MPD2    H211972   4.476   1.140  12.525 -2.9056 -0.3278  0.1912
  813MPD2    H311973   4.266   1.146  12.665  0.0656  1.2792 -2.0513
  813MPD2     N11974   4.475   0.963  13.025  0.0800 -0.0635 -0.4257
  813MPD2    H511975   4.563   0.922  13.053 -0.4373 -1.6817 -1.1367
  813MPD2    N111976   4.712   1.064  12.617 -0.2409 -0.6836  0.4807
  813MPD2    H711977   4.699   1.115  12.531  4.4983  1.0769  0.7935
  814MPD2     C11978   0.835   2.297  12.405  0.2066 -0.4460  0.3372
  814MPD2    C111979   0.815   2.338  12.271 -0.1681  0.0872 -0.8580
  814MPD2    C211980   0.857   2.467  12.234  0.0736 -0.0110  0.1537
  814MPD2    C311981   0.904   2.557  12.324 -0.0473 -0.1897  0.2834
  814MPD2    C411982   0.913   2.519  12.457  0.3372 -0.8263 -0.4062
  814MPD2    C511983   0.874   2.394  12.490 -0.8040 -0.7992 -0.2200
  814MPD2     H11984   0.846   2.488  12.129 -0.2512  1.3420  0.4635
  814MPD2    H111985   0.949   2.586  12.535 -0.9274  0.5459 -0.9828
  814MPD2    H211986   0.803   2.200  12.438  1.2243 -0.6298  0.7949
  814MPD2    H311987   0.869   2.366  12.595  0.2803 -1.0621 -0.2386
  814MPD2     N11988   0.933   2.690  12.283 -0.0683 -0.1257  0.2601
  814MPD2    H511989   0.954   2.751  12.361  1.0043  0.3775 -0.4319
  814MPD2    N111990   0.750   2.256  12.167 -0.0721  0.0448  0.3385
  814MPD2    H711991   0.734   2.306  12.080 -0.8117 -0.8586 -0.0490
  815MPD2     C11992   1.255   1.159  11.750  0.2536  0.1381 -0.8372
  815MPD2    C111993   1.164   1.051  11.718  0.1236  0.0296 -0.2792
  815MPD2    C211994   1.043   1.042  11.788 -0.0358  0.6989  0.0407
  815MPD2    C311995   1.008   1.126  11.888  0.3164  0.9909  0.3567
  815MPD2    C411996   1.088   1.238  11.904  0.0583 -0.0892  0.1678
  815MPD2    C511997   1.213   1.252  11.847 -0.3775 -0.0018  0.6485
  815MPD2     H11998   0.972   0.963  11.762 -0.0240 -0.4879  3.6896
  815MPD2    H111999   1.069   1.311  11.983 -1.9566  0.1563 -0.5480
  815MPD2    H212000   1.353   1.175  11.707 -0.3162  1.4482 -1.6357
  815MPD2    H312001   1.281   1.332  11.873 -0.1974 -0.1309  0.5685
  815MPD2     N12002   0.881   1.116  11.950 -0.0533  0.3922 -0.2265
  815MPD2    H512003   0.814   1.054  11.905 -0.6884  0.8129  0.1332
  815MPD2    N112004   1.205   0.948  11.628 -0.2048 -0.4048 -0.6578
  815MPD2    H712005   1.287   0.966  11.572  0.5952  0.5217  0.8136
  816MPD2     C12006   1.363   0.102  17.342  0.5434  0.3422  0.1966
  816MPD2    C112007   1.272   0.106  17.237  0.2306 -0.3361 -0.4957
  816MPD2    C212008   1.304   0.045  17.113 -0.3804  0.1503 -0.7147
  816MPD2    C312009   1.418   4.690  17.100 -0.2344  0.5745  0.1831
  816MPD2    C412010   1.498   4.673  17.213 -0.5487 -0.0280 -0.8412
  816MPD2    C512011   1.466   0.012  17.330  0.3525  0.3273 -0.3123
  816MPD2     H12012   1.231   0.041  17.033 -0.4774  0.8177 -0.6578
  816MPD2    H112013   1.577   4.599  17.223 -3.6133 -3.1191  0.6377
  816MPD2    H212014   1.358   0.166  17.430  1.1911  0.7945 -0.0987
  816MPD2    H312015   1.540   0.021  17.408  0.5083  1.5263 -0.6011
  816MPD2     N12016   1.447   4.632  16.977 -0.4317 -0.3912 -0.4339
  816MPD2    H512017   1.390   4.662  16.899 -0.4908 -1.2144 -0.7039
  816MPD2    N112018   1.157   0.186  17.260 -0.2774 -0.3141  0.3302
  816MPD2    H712019   1.141   0.236  17.347 -1.1192 -1.5898  0.9169
  817MPD2     C12020   0.535   1.718   9.647  0.4104 -0.1498 -0.3383
  817MPD2    C112021   0.640   1.701   9.554 -1.0203  0.1408  0.0612
  817MPD2    C212022   0.678   1.809   9.476 -0.2152  0.3019 -0.2409
  817MPD2    C312023   0.617   1.930   9.494  0.4435 -0.7627 -0.4733
  817MPD2    C412024   0.506   1.943   9.577 -0.1734 -0.0496 -0.1003
  817MPD2    C512025   0.463   1.833   9.647  0.3229  0.0526  0.6594
  817MPD2     H12026   0.763   1.804   9.409 -0.2924  4.1228 -0.6057
  817MPD2    H112027   0.460   2.039   9.600 -0.4489  0.2185 -1.7338
  817MPD2    H212028   0.504   1.639   9.714  1.2804 -0.9346 -0.8559
  817MPD2    H312029   0.381   1.851   9.716  1.5206  1.1863  1.7963
  817MPD2     N12030   0.660   2.046   9.425 -1.0076 -0.3811  0.6713
  817MPD2    H512031   0.752   2.041   9.383 -0.3985  1.6505  1.7625
  817MPD2    N112032   0.702   1.582   9.535 -0.3095  0.3924 -0.6731
  817MPD2    H712033   0.766   1.569   9.457  3.3104 -1.6976  2.6620
  818MPD2     C12034   4.293   1.564  10.230 -0.4384  0.1053  1.4581
  818MPD2    C112035   4.188   1.486  10.251  1.0791  0.3424 -0.6945
  818MPD2    C212036   4.212   1.348  10.229  0.3544 -0.4935 -0.5869
  818MPD2    C312037   4.330   1.293  10.194  0.0558 -0.5900 -0.7339
  818MPD2    C412038   4.436   1.373  10.186  0.5572 -0.4537  0.5226
  818MPD2    C512039   4.416   1.513  10.197  0.2735 -0.2806  0.4909
  818MPD2     H12040   4.127   1.281  10.245  1.2477 -1.4562  0.1217
  818MPD2    H112041   4.535   1.337  10.159  1.1813  2.2387 -0.8388
  818MPD2    H212042   4.288   1.672  10.246  0.8076 -0.0733  3.0484
  818MPD2    H312043   4.499   1.582  10.201 -0.1908  0.3732 -1.2768
  818MPD2     N12044   4.356   1.165  10.154 -0.3871  0.3278  0.3514
  818MPD2    H512045   4.446   1.156  10.109  1.6367  2.7494  3.8823
  818MPD2    N112046   4.065   1.531  10.299  0.3497 -0.6294 -0.6800
  818MPD2    H712047   4.000   1.460  10.330 -2.0047  1.4064 -1.0113
  819MPD2     C12048   2.371   2.372  15.284  0.0618  0.6589 -0.6770
  819MPD2    C112049   2.344   2.411  15.414 -0.1982  0.1533 -0.1845
  819MPD2    C212050   2.454   2.439  15.496  0.0913 -0.1414 -0.2482
  819MPD2    C312051   2.585   2.430  15.456 -0.9757 -0.0779  0.9217
  819MPD2    C412052   2.603   2.395  15.319  0.1356 -0.7436 -0.3640
  819MPD2    C512053   2.497   2.371  15.235  0.0872 -0.0365 -0.0752
  819MPD2     H12054   2.433   2.475  15.596  1.9033  0.3838 -0.0591
  819MPD2    H112055   2.704   2.387  15.279  0.4471  0.1045  0.2679
  819MPD2    H212056   2.288   2.370  15.215  0.0462  2.3591 -0.6980
  819MPD2    H312057   2.527   2.348  15.133  0.4198  3.4077 -0.7689
  819MPD2     N12058   2.702   2.463  15.535  0.4298  0.0883 -0.4472
  819MPD2    H512059   2.793   2.440  15.496  1.1206  2.9050 -0.4822
  819MPD2    N112060   2.210   2.441  15.446  0.6422 -0.2849 -0.2537
  819MPD2    H712061   2.139   2.416  15.378  0.5169  1.1881 -0.6710
  820MPD2     C12062   1.452   3.042  15.188 -0.2801  0.0186 -0.6334
  820MPD2    C112063   1.588   3.078  15.188 -0.6616  0.0146  0.4695
  820MPD2    C212064   1.684   2.977  15.210  0.4438 -0.3665  0.0242
  820MPD2    C312065   1.639   2.846  15.226  0.8990  1.3065 -0.1409
  820MPD2    C412066   1.504   2.814  15.215  0.9060 -0.6635  0.1574
  820MPD2    C512067   1.411   2.912  15.207  0.1077 -0.5208 -0.0059
  820MPD2     H12068   1.790   2.996  15.199  0.1086  0.6319 -1.4997
  820MPD2    H112069   1.475   2.710  15.225 -1.0092 -0.2407 -0.9810
  820MPD2    H212070   1.375   3.115  15.166 -2.8282 -1.7726  2.2773
  820MPD2    H312071   1.306   2.886  15.211  0.8581 -3.5466  0.2574
  820MPD2     N12072   1.712   2.737  15.272 -0.0906  0.1267 -0.5382
  820MPD2    H512073   1.654   2.656  15.292 -1.0881  0.4388 -2.1589
  820MPD2    N112074   1.624   3.208  15.165 -0.2841  0.1341 -0.4552
  820MPD2    H712075   1.549   3.275  15.158  0.0205  0.4431 -0.7741
  821MPD2     C12076   2.266   4.361  12.912  0.1542 -0.0590  0.3685
  821MPD2    C112077   2.349   4.358  13.024  0.3524 -0.8912  0.4063
  821MPD2    C212078   2.471   4.416  13.016  0.0084 -0.0530  0.2063
  821MPD2    C312079   2.522   4.476  12.900 -0.2083  0.0845 -0.0891
  821MPD2    C412080   2.436   4.479  12.788  0.6965 -0.4441 -0.2060
  821MPD2    C512081   2.307   4.419  12.791  0.1532 -0.2994  0.5299
  821MPD2     H12082   2.538   4.429  13.101 -0.3147  1.5893  0.2146
  821MPD2    H112083   2.467   4.529  12.698 -0.4637 -0.8795 -0.8515
  821MPD2    H212084   2.164   4.326  12.916 -0.2677  1.3074  1.3304
  821MPD2    H312085   2.236   4.430  12.710 -0.5729 -0.0916  1.1918
  821MPD2     N12086   2.649   4.544  12.887 -0.7291  0.3079  0.3406
  821MPD2    H512087   2.665   4.572  12.790 -2.6312 -3.2252 -0.9906
  821MPD2    N112088   2.304   4.298  13.148 -0.2694 -0.1226 -0.4029
  821MPD2    H712089   2.368   4.291  13.226 -0.5555  1.9137  0.0190
  822MPD2     C12090   2.703   4.435  15.513  0.4034  0.7515  0.5808
  822MPD2    C112091   2.748   4.396  15.635  0.2651  0.3631  0.3310
  822MPD2    C212092   2.671   4.437  15.744 -0.1390  0.5517 -0.0831
  822MPD2    C312093   2.567   4.525  15.737 -0.1888  0.0265 -0.2984
  822MPD2    C412094   2.516   4.556  15.608 -0.0108  0.8375 -0.3191
  822MPD2    C512095   2.586   4.509  15.500 -0.5130 -0.4106 -0.6165
  822MPD2     H12096   2.708   4.418  15.844 -2.4000 -1.0850  0.4490
  822MPD2    H112097   2.439   4.627  15.581 -1.2959 -0.0790  0.9860
  822MPD2    H212098   2.758   4.413  15.422 -0.4335  1.4197 -0.0961
  822MPD2    H312099   2.547   4.544  15.405 -0.1005  2.0500  0.1173
  822MPD2     N12100   2.518   4.583  15.855  0.3761  0.0078 -0.3343
  822MPD2    H512101   2.547   4.543  15.944  1.3029 -0.6028 -0.9133
  822MPD2    N112102   2.870   4.322  15.660  0.0678  0.3319  0.0707
  822MPD2    H712103   2.891   4.313  15.759  0.1072 -0.1973  0.0167
  823MPD2     C12104   2.241   4.691  16.664  0.1289 -0.2946  0.3426
  823MPD2    C112105   2.281   4.629  16.552  0.1087  0.0363 -0.3967
  823MPD2    C212106   2.344   4.511  16.566 -0.2239 -0.3121 -0.0922
  823MPD2    C312107   2.354   4.450  16.690 -0.5986  0.2018  0.3773
  823MPD2    C412108   2.303   4.518  16.801  0.6415 -0.3620 -0.4890
  823MPD2    C512109   2.246   4.637  16.788  0.0965  0.4058  0.7592
  823MPD2     H12110   2.389   4.456  16.484 -1.8991 -1.2996 -0.3388
  823MPD2    H112111   2.332   4.481  16.899 -0.1082 -2.9156 -1.2327
  823MPD2    H212112   2.199   0.066  16.659  0.1331 -0.1869  2.3923
  823MPD2    H312113   2.230   4.693  16.879  0.1275  1.3047  0.2080
  823MPD2     N12114   2.420   4.327  16.711 -0.8370 -0.2529  0.4509
  823MPD2    H512115   2.407   4.293  16.806  0.8650 -0.1965  0.7150
  823MPD2    N112116   2.289   4.702  16.440 -0.2151  0.5049  0.2200
  823MPD2    H712117   2.281   0.079  16.438  0.0286  0.5039 -1.0761
  824MPD2     C12118   3.138   3.559  15.660 -0.0134 -0.1159  0.0263
  824MPD2    C112119   3.253   3.622  15.641 -0.1984 -0.5840  0.1503
  824MPD2    C212120   3.370   3.552  15.640 -0.5414 -0.1208 -0.2304
  824MPD2    C312121   3.371   3.417  15.665 -0.1222  0.0242 -0.3834
  824MPD2    C412122   3.246   3.349  15.689 -0.1040  0.6372  0.2206
  824MPD2    C512123   3.135   3.424  15.678  0.1918 -0.4191 -0.1732
  824MPD2     H12124   3.464   3.596  15.608 -1.2995  0.7903 -1.1619
  824MPD2    H112125   3.228   3.243  15.699 -2.8962  1.0984  0.1081
  824MPD2    H212126   3.050   3.622  15.674  0.1261 -0.0839  0.7520
  824MPD2    H312127   3.034   3.385  15.685 -0.1568  0.7840  1.5039
  824MPD2     N12128   3.493   3.344  15.655  0.1929 -0.2594  0.3278
  824MPD2    H512129   3.573   3.398  15.624 -0.4463  0.1115 -0.6968
  824MPD2    N112130   3.247   3.759  15.616 -0.5147  0.3832  0.3778
  824MPD2    H712131   3.335   3.807  15.601  1.2303 -2.5417  1.0663
  825MPD2     C12132   4.267   3.266  15.318  0.6434  0.2677 -0.1365
  825MPD2    C112133   4.164   3.347  15.354  0.0580 -0.1441 -0.1600
  825MPD2    C212134   4.156   3.482  15.303 -0.0529 -0.5590 -0.6684
  825MPD2    C312135   4.251   3.527  15.218 -0.7628  1.0539  1.0077
  825MPD2    C412136   4.348   3.432  15.180 -0.3703  0.5439  0.1278
  825MPD2    C512137   4.365   3.306  15.239 -0.0776 -0.3428  0.4677
  825MPD2     H12138   4.065   3.535  15.326  0.7924  0.6716 -0.1130
  825MPD2    H112139   4.423   3.457  15.107 -0.3754 -0.6376 -0.2776
  825MPD2    H212140   4.276   3.166  15.358  1.5007  0.6742  0.6866
  825MPD2    H312141   4.443   3.237  15.208  0.8930  0.2013  1.7037
  825MPD2     N12142   4.247   3.650  15.152 -0.0785  0.3367 -0.2904
  825MPD2    H512143   4.325   3.666  15.089  1.0314 -0.2642  0.9265
  825MPD2    N112144   4.076   3.281  15.442  0.4180  0.4599  1.0847
  825MPD2    H712145   4.089   3.184  15.465  3.0364  0.4121 -0.6694
  826MPD2     C12146   3.855   3.264  13.664  0.1637 -0.0081 -0.3400
  826MPD2    C112147   3.785   3.256  13.546 -0.0738 -0.4896  0.2356
  826MPD2    C212148   3.667   3.326  13.534  0.5170  0.2605 -0.3466
  826MPD2    C312149   3.618   3.412  13.632  0.2880 -0.4572  0.6812
  826MPD2    C412150   3.691   3.430  13.745  0.0273  0.5887  0.2150
  826MPD2    C512151   3.811   3.351  13.758  0.1243  0.1708 -0.3272
  826MPD2     H12152   3.607   3.320  13.444  1.0569 -0.4338 -0.6519
  826MPD2    H112153   3.659   3.501  13.821  1.0325 -0.0909  1.2690
  826MPD2    H212154   3.948   3.211  13.679  1.5032  2.1314 -1.0361
  826MPD2    H312155   3.869   3.373  13.847 -0.8444 -0.8068  0.5637
  826MPD2     N12156   3.504   3.497  13.615 -0.3441 -0.4336 -0.6201
  826MPD2    H512157   3.502   3.576  13.679  1.7771 -1.8498  1.1956
  826MPD2    N112158   3.832   3.179  13.436 -0.5231 -0.0266  0.2132
  826MPD2    H712159   3.918   3.126  13.445 -0.9015 -0.7766 -0.5687
  827MPD2     C12160   0.121   0.689   9.842  0.0009  0.6453 -0.7991
  827MPD2    C112161   0.178   0.568   9.873 -0.1318  0.0854  0.0697
  827MPD2    C212162   0.131   0.455   9.814  0.2572 -0.1955  0.3943
  827MPD2    C312163   0.024   0.463   9.728 -0.3960 -0.2769 -0.2014
  827MPD2    C412164   4.679   0.584   9.711  0.2470 -0.1245  0.5686
  827MPD2    C512165   0.007   0.695   9.769 -0.3907  0.4436 -0.1837
  827MPD2     H12166   0.182   0.362   9.835 -0.3390 -0.2060  1.7840
  827MPD2    H112167   4.589   0.587   9.651 -0.1809 -2.5012  1.1106
  827MPD2    H212168   0.146   0.784   9.888  0.0095  0.8414 -1.2064
  827MPD2    H312169   4.684   0.789   9.746  1.2181  1.1790 -0.5234
  827MPD2     N12170   4.703   0.339   9.681  0.3467 -0.5285 -0.2270
  827MPD2    H512171   0.014   0.246   9.700 -0.1183 -0.6009  0.2943
  827MPD2    N112172   0.285   0.567   9.968 -0.2308  0.0336 -0.2801
  827MPD2    H712173   0.320   0.656  10.002 -0.0719 -0.2113  0.2058
  828MPD2     C12174   3.004   4.399  12.643 -0.2882  0.2436 -0.0582
  828MPD2    C112175   3.015   4.481  12.533 -0.3798 -0.1546  0.1480
  828MPD2    C212176   3.136   4.501  12.462 -0.0792 -0.2754 -0.0934
  828MPD2    C312177   3.244   4.435  12.511 -0.2983 -0.3367  0.2533
  828MPD2    C412178   3.238   4.361  12.626  0.2786  1.1484  0.4502
  828MPD2    C512179   3.122   4.355  12.693  0.4587 -0.0627 -0.3675
  828MPD2     H12180   3.125   4.573  12.381  0.7406  0.0530  0.0864
  828MPD2    H112181   3.331   4.336  12.675  0.7181  1.0600 -0.4280
  828MPD2    H212182   2.913   4.383  12.700 -1.6527  2.8840 -1.4905
  828MPD2    H312183   3.119   4.293  12.782  1.8183 -0.2751 -0.4644
  828MPD2     N12184   3.373   4.460  12.456  0.2032  0.0010 -0.0804
  828MPD2    H512185   3.452   4.429  12.511 -0.2618  0.9230  1.1242
  828MPD2    N112186   2.911   4.558  12.474  0.4647 -0.4661 -0.1836
  828MPD2    H712187   2.923   4.606  12.386  1.4723 -0.5202 -0.0692
  829MPD2     C12188   2.969   0.429  11.867  0.1911 -1.1538 -0.4431
  829MPD2    C112189   2.839   0.401  11.847  0.3727  0.6838 -0.1551
  829MPD2    C212190   2.768   0.334  11.941  0.1772 -0.1610  0.7483
  829MPD2    C312191   2.828   0.297  12.059  0.4495  0.4535 -0.1389
  829MPD2    C412192   2.964   0.336  12.081  0.2850  0.2114  0.4491
  829MPD2    C512193   3.033   0.399  11.983  0.1171  0.4123  0.3318
  829MPD2     H12194   2.671   0.291  11.920  0.1489  0.3213 -0.1091
  829MPD2    H112195   3.011   0.311  12.175 -0.5597 -0.6823  0.6365
  829MPD2    H212196   3.022   0.470  11.782  1.5872 -1.0911  0.4659
  829MPD2    H312197   3.140   0.404  11.966 -0.5381  2.8830 -3.0640
  829MPD2     N12198   2.768   0.220  12.164 -0.1798 -0.2279  0.2528
  829MPD2    H512199   2.823   0.192  12.244  1.0603  1.0251 -0.1660
  829MPD2    N112200   2.790   0.418  11.715 -0.4321  0.1234 -0.3984
  829MPD2    H712201   2.862   0.446  11.648 -1.7559  2.2728 -0.9113
  830MPD2     C12202   3.504   2.727  15.599  0.3323  0.0081 -0.1227
  830MPD2    C112203   3.370   2.772  15.588  0.2881  0.6295 -0.3094
  830MPD2    C212204   3.343   2.891  15.522  1.0103 -0.4978  0.1163
  830MPD2    C312205   3.432   2.956  15.451  0.1700 -0.0718  0.2994
  830MPD2    C412206   3.560   2.907  15.456  0.3795 -0.2279 -0.1393
  830MPD2    C512207   3.595   2.797  15.534  0.3087 -0.2841  0.1538
  830MPD2     H12208   3.243   2.933  15.530  1.2982  0.3358 -0.6130
  830MPD2    H112209   3.637   2.950  15.392 -0.3484 -0.4688 -1.1780
  830MPD2    H212210   3.531   2.636  15.653  0.3480  0.3685  0.4790
  830MPD2    H312211   3.695   2.758  15.518 -0.5291 -1.5447 -2.0240
  830MPD2     N12212   3.405   3.076  15.378 -0.1862 -0.1995 -0.1024
  830MPD2    H512213   3.488   3.117  15.335  1.1631 -1.0265  1.6740
  830MPD2    N112214   3.265   2.687  15.639 -0.6244  0.0824  0.0066
  830MPD2    H712215   3.300   2.611  15.697  1.3058  0.0394 -1.2217
  831MPD2     C12216   2.772   0.016  16.178  0.6033  0.1803  0.1641
  831MPD2    C112217   2.792   4.642  16.080  0.0518 -0.2093 -0.1352
  831MPD2    C212218   2.734   4.518  16.105  0.9160 -0.3108 -0.0758
  831MPD2    C312219   2.668   4.488  16.223 -0.7535  0.2882  0.5547
  831MPD2    C412220   2.659   4.589  16.323  0.4847  0.1386  0.4101
  831MPD2    C512221   2.705   4.714  16.297 -0.3930 -0.1908 -0.3445
  831MPD2     H12222   2.745   4.441  16.030 -0.8356  0.1582 -0.8055
  831MPD2    H112223   2.605   4.568  16.414  0.0085 -0.1477  0.0645
  831MPD2    H212224   2.804   0.118  16.165 -0.1300  0.2475 -1.1371
  831MPD2    H312225   2.682   0.066  16.370 -2.4841 -2.4078  1.3259
  831MPD2     N12226   2.602   4.367  16.248 -0.1881 -0.0639  0.1861
  831MPD2    H512227   2.552   4.365  16.336 -1.1190 -2.2832 -0.3969
  831MPD2    N112228   2.857   4.673  15.957 -0.5423 -0.0187  0.5118
  831MPD2    H712229   2.867   0.047  15.934 -2.0129  0.2047  0.8784
  832MPD2     C12230   1.520   1.222  17.037 -0.2121  0.5131  0.4991
  832MPD2    C112231   1.467   1.343  17.060 -0.1599 -0.0026 -0.3381
  832MPD2    C212232   1.330   1.366  17.037 -0.4080 -0.3771 -0.9078
  832MPD2    C312233   1.258   1.254  17.006  0.3191 -0.1111 -0.2123
  832MPD2    C412234   1.313   1.133  16.971 -0.7813 -0.1183 -0.0233
  832MPD2    C512235   1.451   1.121  16.985 -0.4549  0.2226 -0.7066
  832MPD2     H12236   1.289   1.453  17.088  0.2182 -0.5499 -0.1126
  832MPD2    H112237   1.255   1.054  16.922 -1.0199 -0.5303  0.9302
  832MPD2    H212238   1.624   1.195  17.049 -0.2455  0.5977  1.0001
  832MPD2    H312239   1.512   1.038  16.950 -0.7361 -0.3237  0.1006
  832MPD2     N12240   1.120   1.259  16.981  0.0249  0.4386  0.3253
  832MPD2    H512241   1.082   1.168  16.958  2.5052 -0.9440  1.6709
  832MPD2    N112242   1.534   1.445  17.130  1.0006 -0.0127 -0.2199
  832MPD2    H712243   1.476   1.523  17.160  0.1142 -1.1908  1.1144
  833MPD2     C12244   3.757   2.344  12.889  0.1379  0.0284  0.1557
  833MPD2    C112245   3.707   2.415  12.791 -0.2804  0.0792  0.5965
  833MPD2    C212246   3.791   2.459  12.694  0.5367 -0.0661 -0.1552
  833MPD2    C312247   3.924   2.413  12.685  0.1746  0.3995 -0.1967
  833MPD2    C412248   3.969   2.334  12.790  0.4144 -0.7549  0.0395
  833MPD2    C512249   3.885   2.304  12.885 -0.7652 -0.5350 -0.5275
  833MPD2     H12250   3.762   2.531  12.617  0.2735 -0.4768 -0.4395
  833MPD2    H112251   4.066   2.286  12.798  2.3135  3.2687  1.4682
  833MPD2    H212252   3.700   2.317  12.978  0.0264  0.0446  0.0878
  833MPD2    H312253   3.918   2.240  12.967 -1.2053  0.3207  0.3134
  833MPD2     N12254   3.997   2.458  12.577 -1.0499  0.1038 -0.0144
  833MPD2    H512255   3.947   2.510  12.506  1.1448  0.3164 -1.4139
  833MPD2    N112256   3.577   2.464  12.805  0.5943 -0.5767 -0.0932
  833MPD2    H712257   3.528   2.438  12.890 -0.5162  1.1100 -0.2183
  834MPD2     C12258   3.554   2.035  12.000 -0.2669  0.6869  0.0567
  834MPD2    C112259   3.630   2.093  11.896 -0.0118  0.0963  1.3565
  834MPD2    C212260   3.729   2.171  11.945  0.0027  0.1758  0.1024
  834MPD2    C312261   3.766   2.191  12.076  0.3388 -0.6539 -0.0779
  834MPD2    C412262   3.694   2.124  12.168 -0.1868 -0.1312 -0.1758
  834MPD2    C512263   3.589   2.042  12.124  0.8061 -0.0944 -0.3808
  834MPD2     H12264   3.790   2.220  11.870  1.4463 -2.0611 -0.1983
  834MPD2    H112265   3.692   2.137  12.276 -1.4893  0.3032 -0.2427
  834MPD2    H212266   3.471   1.971  11.973 -2.0873  2.9170  0.2973
  834MPD2    H312267   3.528   1.989  12.196 -2.1939  3.3965 -0.4045
  834MPD2     N12268   3.872   2.278  12.109  0.3116  0.2215  0.1392
  834MPD2    H512269   3.917   2.324  12.030  1.0936  0.7556  0.8984
  834MPD2    N112270   3.596   2.090  11.755 -0.8750 -0.2488  0.4992
  834MPD2    H712271   3.504   2.055  11.728 -1.3913  0.8928  0.7602
  835MPD2     C12272   4.010   0.412  11.049 -0.3930  0.9855 -0.2386
  835MPD2    C112273   3.912   0.497  11.002 -0.6892 -0.4228 -0.1303
  835MPD2    C212274   3.819   0.543  11.089 -0.2136 -0.4244  0.0014
  835MPD2    C312275   3.807   0.488  11.223 -0.4338  0.2813 -0.2091
  835MPD2    C412276   3.912   0.409  11.267  0.5833  0.2423  0.1125
  835MPD2    C512277   4.010   0.370  11.182 -0.2021 -0.1518  0.1286
  835MPD2     H12278   3.752   0.617  11.047  2.4827  2.0990  0.1597
  835MPD2    H112279   3.916   0.375  11.370  0.1880 -2.3994 -0.7639
  835MPD2    H212280   4.088   0.380  10.981  0.5815  1.0983  0.8438
  835MPD2    H312281   4.087   0.304  11.220 -2.2167 -1.2944  2.1511
  835MPD2     N12282   3.714   0.535  11.315 -0.6250 -0.5165 -0.2445
  835MPD2    H512283   3.716   0.491  11.407  0.2439 -2.8840 -1.4157
  835MPD2    N112284   3.906   0.543  10.864  0.4314  0.3803  0.0221
  835MPD2    H712285   3.837   0.615  10.844  0.1569  0.6356  1.8116
  836MPD2     C12286   2.880   0.879  11.422 -0.8874  0.4400 -0.5124
  836MPD2    C112287   2.944   0.830  11.528  0.5559 -0.3730 -0.3667
  836MPD2    C212288   2.874   0.799  11.640 -0.7475  0.5685  0.5663
  836MPD2    C312289   2.737   0.823  11.651  0.2604  0.0589 -0.0980
  836MPD2    C412290   2.670   0.872  11.536 -0.2840  0.2879 -0.1188
  836MPD2    C512291   2.744   0.904  11.427 -0.0274 -0.4040  0.3186
  836MPD2     H12292   2.928   0.743  11.716  0.5729 -0.5239 -1.1648
  836MPD2    H112293   2.564   0.893  11.531  0.4953  4.8369  2.0006
  836MPD2    H212294   2.938   0.911  11.337 -1.3461 -1.2840 -1.4626
  836MPD2    H312295   2.698   0.957  11.344  1.0559 -2.6874 -1.7470
  836MPD2     N12296   2.663   0.780  11.761 -0.4775  0.7282  0.6435
  836MPD2    H512297   2.564   0.759  11.753 -0.2697 -0.2482  0.6478
  836MPD2    N112298   3.085   0.784  11.532  0.0608  0.3155 -0.5804
  836MPD2    H712299   3.120   0.754  11.623 -1.0296 -0.2354 -0.3360
  837MPD2     C12300   2.173   0.305   9.966  0.6450  1.2739 -0.9104
  837MPD2    C112301   2.097   0.309   9.852 -0.0864  0.1828 -0.2770
  837MPD2    C212302   2.103   0.421   9.769 -0.0439 -0.0747  0.7839
  837MPD2    C312303   2.189   0.534   9.789 -0.0055 -0.3613 -0.1259
  837MPD2    C412304   2.273   0.521   9.903 -0.6871 -0.4502 -0.1062
  837MPD2    C512305   2.255   0.421   9.988  0.2749 -0.2468 -1.1066
  837MPD2     H12306   2.048   0.424   9.676 -0.9782  2.0080  1.4106
  837MPD2    H112307   2.336   0.606   9.928 -3.5294  1.1016  1.7946
  837MPD2    H212308   2.181   0.225  10.039  1.3731  2.7087  0.5921
  837MPD2    H312309   2.318   0.417  10.076  1.2140  2.0919 -1.6574
  837MPD2     N12310   2.185   0.638   9.692 -0.5715  0.7632  0.1741
  837MPD2    H512311   2.133   0.621   9.607  0.6231  0.0982 -0.4292
  837MPD2    N112312   1.992   0.216   9.835  0.4887 -0.4017 -0.4818
  837MPD2    H712313   1.926   0.243   9.763 -0.5570 -0.1062  0.5906
  838MPD2     C12314   0.163   2.397  11.260 -0.0493  0.3040 -0.2017
  838MPD2    C112315   0.133   2.519  11.308 -0.0164  0.2214 -0.1334
  838MPD2    C212316   0.013   2.548  11.367 -0.1415  0.0232  0.6287
  838MPD2    C312317   4.643   2.453  11.393 -0.7072 -0.4936  0.7619
  838MPD2    C412318   4.666   2.334  11.326  0.6903 -0.1634  0.7762
  838MPD2    C512319   0.062   2.305  11.273 -0.3956 -0.0780 -0.0406
  838MPD2     H12320   4.714   2.644  11.411 -0.0847  0.7502 -0.9415
  838MPD2    H112321   4.595   2.253  11.338 -0.3639  0.2151 -2.9228
  838MPD2    H212322   0.252   2.372  11.203 -1.0832 -1.3814 -1.0730
  838MPD2    H312323   0.070   2.205  11.231  1.2503  0.6484 -1.4324
  838MPD2     N12324   4.531   2.484  11.475  0.0471 -0.2020 -0.1283
  838MPD2    H512325   4.541   2.573  11.522  2.0836 -0.0468 -0.8210
  838MPD2    N112326   0.235   2.623  11.306  0.0294 -0.2077 -0.0520
  838MPD2    H712327   0.202   2.711  11.344  0.5405 -1.2344  2.7120
  839MPD2     C12328   0.059   2.644  11.900  0.3997 -0.0291 -1.2226
  839MPD2    C112329   0.125   2.552  11.816 -0.2460  1.0619  0.4204
  839MPD2    C212330   0.238   2.591  11.751 -0.9323  0.1074  0.0238
  839MPD2    C312331   0.284   2.718  11.756  0.0914  0.3193  0.3165
  839MPD2    C412332   0.223   2.808  11.836 -0.4342  0.8753  0.0872
  839MPD2    C512333   0.122   2.770  11.920  0.5163  0.5593 -0.2953
  839MPD2     H12334   0.298   2.528  11.686 -1.6299 -1.9440  1.3639
  839MPD2    H112335   0.246   2.914  11.838 -1.0382  0.9832  1.2688
  839MPD2    H212336   4.700   2.611  11.961  1.3674 -0.9823 -0.4225
  839MPD2    H312337   0.070   2.845  11.979 -1.5064  0.7536 -2.3271
  839MPD2     N12338   0.392   2.752  11.671  0.1481 -0.3316 -0.5682
  839MPD2    H512339   0.436   2.679  11.617 -0.7411 -1.8894  0.8071
  839MPD2    N112340   0.072   2.427  11.788  0.5141  0.2935  0.1516
  839MPD2    H712341   0.125   2.377  11.718  0.5963  2.9325 -1.6502
  840MPD2     C12342   0.668   1.014  10.018 -0.6960  0.4218 -0.5320
  840MPD2    C112343   0.689   0.946  10.137  0.1549 -0.2943 -0.0378
  840MPD2    C212344   0.748   1.017  10.246  0.1580 -0.0552  0.2124
  840MPD2    C312345   0.787   1.152  10.234 -0.6316  0.3402  1.1003
  840MPD2    C412346   0.773   1.215  10.112  0.0415  0.6110  0.4172
  840MPD2    C512347   0.713   1.146  10.007  0.1842  0.2932 -0.2158
  840MPD2     H12348   0.759   0.970  10.344  1.8077 -0.7857 -0.3174
  840MPD2    H112349   0.796   1.320  10.103 -1.3387  0.9672  0.9824
  840MPD2    H212350   0.646   0.962   9.926  1.4758  0.0590 -0.8451
  840MPD2    H312351   0.694   1.193   9.911  1.9669 -2.0174 -1.7267
  840MPD2     N12352   0.841   1.233  10.333 -0.0436  0.1504  0.2485
  840MPD2    H512353   0.871   1.324  10.299  0.1301 -0.2568 -0.6901
  840MPD2    N112354   0.657   0.808  10.137  0.0864  0.1258 -0.5090
  840MPD2    H712355   0.610   0.779  10.052 -0.8922 -1.2558  0.5002
  841MPD2     C12356   4.550   4.680  15.071  0.7736  0.6427 -0.1931
  841MPD2    C112357   4.613   4.626  14.966 -0.1003  0.2429  0.4879
  841MPD2    C212358   4.620   4.694  14.849 -0.6962  0.0381  0.0435
  841MPD2    C312359   4.569   0.098  14.828  0.2435 -0.4388  0.8809
  841MPD2    C412360   4.494   0.151  14.939 -0.0451  0.9418  0.3322
  841MPD2    C512361   4.488   0.077  15.054  0.2187  0.3997 -0.3236
  841MPD2     H12362   4.670   4.643  14.768 -0.9023 -1.0033  0.5697
  841MPD2    H112363   4.432   0.239  14.941  2.2063  2.5080  0.8197
  841MPD2    H212364   4.552   4.649  15.175 -0.2161  2.1814  0.2761
  841MPD2    H312365   4.434   0.124  15.136  0.7681 -1.3374  1.0314
  841MPD2     N12366   4.575   0.153  14.704 -0.2518  0.7339 -0.4896
  841MPD2    H512367   4.641   0.118  14.635 -2.4329  0.1135 -2.2444
  841MPD2    N112368   4.654   4.492  14.960  0.2393  0.2868 -0.1376
  841MPD2    H712369   4.658   4.454  14.866 -1.1398 -0.7531  0.2278
  842MPD2     C12370   0.293   0.976  16.859  0.2048 -0.6699  0.6338
  842MPD2    C112371   0.325   1.116  16.877  0.7037 -0.1345 -0.1249
  842MPD2    C212372   0.340   1.158  17.006 -0.2266 -0.5550  0.0118
  842MPD2    C312373   0.348   1.069  17.111  0.2966 -0.5755  0.2254
  842MPD2    C412374   0.344   0.934  17.083  0.2293  0.1528 -0.4014
  842MPD2    C512375   0.312   0.888  16.959 -0.3287  0.7078 -0.1979
  842MPD2     H12376   0.370   1.260  17.029  0.9797 -1.1203  0.9640
  842MPD2    H112377   0.352   0.866  17.168  1.0010 -1.1600 -1.5218
  842MPD2    H212378   0.258   0.939  16.763  1.3309 -0.6414  0.2123
  842MPD2    H312379   0.292   0.782  16.955  2.4298  0.2192 -0.3919
  842MPD2     N12380   0.352   1.126  17.243  0.5779 -0.2515  0.2087
  842MPD2    H512381   0.328   1.224  17.255 -1.7269 -0.8231  0.2723
  842MPD2    N112382   0.309   1.202  16.763 -0.4740 -0.2646 -0.9604
  842MPD2    H712383   0.305   1.164  16.669  0.4839 -0.7269 -0.8157
  843MPD2     C12384   2.550   0.880   0.483  0.1850  0.4655  0.3480
  843MPD2    C112385   2.479   1.001   0.506  0.5235  0.6830  0.1637
  843MPD2    C212386   2.550   1.117   0.492 -0.2436 -0.8268 -0.2578
  843MPD2    C312387   2.685   1.116   0.466 -0.4061  0.3240  0.5478
  843MPD2    C412388   2.756   0.999   0.449  0.2535  0.6674 -0.2374
  843MPD2    C512389   2.687   0.881   0.460 -0.2566 -0.0526  0.2669
  843MPD2     H12390   2.498   1.212   0.502  1.8419  0.0048  2.7070
  843MPD2    H112391   2.861   1.004   0.423 -0.1719  3.3453 -1.4338
  843MPD2    H212392   2.510   0.780   0.496  0.9103  0.0074 -0.8608
  843MPD2    H312393   2.733   0.783   0.470  3.8930  1.9308  0.6122
  843MPD2     N12394   2.767   1.230   0.444  0.5083  0.5160 -0.4145
  843MPD2    H512395   2.865   1.215   0.425  1.0760 -0.0132  3.0599
  843MPD2    N112396   2.341   0.988   0.544 -0.3415  0.9474 -0.0202
  843MPD2    H712397   2.302   0.895   0.541  0.6044  0.5587 -0.3690
  844MPD2     C12398   0.968   1.178  16.516  0.2184 -0.4866  0.8438
  844MPD2    C112399   1.050   1.067  16.549 -0.4389 -0.6982 -0.2628
  844MPD2    C212400   1.170   1.100  16.606 -0.2651 -0.6211 -0.6247
  844MPD2    C312401   1.215   1.231  16.616  0.7036 -0.6776  0.2381
  844MPD2    C412402   1.134   1.331  16.591  0.7636  0.0215  0.1519
  844MPD2    C512403   1.011   1.303  16.541  0.7554 -0.1375  0.0999
  844MPD2     H12404   1.232   1.014  16.631 -0.2334  0.0654  1.7317
  844MPD2    H112405   1.159   1.436  16.591  0.4186  0.1059 -0.6398
  844MPD2    H212406   0.874   1.169  16.463  0.3048 -1.0352  0.7756
  844MPD2    H312407   0.942   1.386  16.530  2.1849  0.8560 -1.5626
  844MPD2     N12408   1.344   1.250  16.658 -0.1858  0.0907  0.6694
  844MPD2    H512409   1.399   1.165  16.669  0.8171  0.5702 -0.6059
  844MPD2    N112410   1.003   0.930  16.539 -0.0205 -0.3600  0.0845
  844MPD2    H712411   1.064   0.860  16.579  0.2856 -0.9554 -1.4366
  845MPD2     C12412   1.800   2.033  17.059  0.0118 -0.1517  0.9626
  845MPD2    C112413   1.677   1.969  17.089  0.9656 -0.4350  0.3971
  845MPD2    C212414   1.656   1.844  17.027 -0.4629 -0.4154 -0.5925
  845MPD2    C312415   1.746   1.787  16.939 -0.5771 -0.9843 -0.6663
  845MPD2    C412416   1.868   1.855  16.914  0.1113 -0.0664 -0.7877
  845MPD2    C512417   1.889   1.975  16.974 -0.3961  0.6533  0.0856
  845MPD2     H12418   1.568   1.786  17.053  1.0279 -2.9122 -1.1845
  845MPD2    H112419   1.937   1.813  16.841  0.3405 -2.5454  0.8576
  845MPD2    H212420   1.823   2.130  17.102 -0.2311  0.9192 -1.3207
  845MPD2    H312421   1.980   2.027  16.944 -0.1572  0.1861  0.0025
  845MPD2     N12422   1.714   1.665  16.876 -0.2111 -0.2214 -0.0896
  845MPD2    H512423   1.617   1.638  16.883 -0.4942  0.5306 -1.0070
  845MPD2    N112424   1.585   2.036  17.176 -0.0243  0.2486 -0.3576
  845MPD2    H712425   1.599   2.131  17.209  1.5242 -0.3918  0.8394
  846MPD2     C12426   2.932   1.481  13.601 -0.7411  0.1339  0.1149
  846MPD2    C112427   2.854   1.601  13.615 -0.6518  0.0632 -0.4714
  846MPD2    C212428   2.748   1.599  13.710 -0.3412  0.1928  0.0836
  846MPD2    C312429   2.718   1.484  13.782  0.8230 -0.4973 -0.2286
  846MPD2    C412430   2.791   1.372  13.761  0.1622 -0.4882 -0.2612
  846MPD2    C512431   2.900   1.367  13.672  0.6988 -0.7086  0.5694
  846MPD2     H12432   2.684   1.683  13.735  1.9582  2.1962 -0.7552
  846MPD2    H112433   2.762   1.278  13.806  0.6737 -0.8864 -0.7569
  846MPD2    H212434   3.011   1.478  13.526 -1.1794 -0.2240 -0.3344
  846MPD2    H312435   2.959   1.277  13.686 -0.5408 -1.4930  0.7417
  846MPD2     N12436   2.603   1.489  13.865  0.6807 -0.0376  0.4135
  846MPD2    H512437   2.552   1.576  13.854  0.9271  0.2276  1.3987
  846MPD2    N112438   2.888   1.710  13.539  0.0212 -0.1238 -0.5022
  846MPD2    H712439   2.838   1.793  13.569 -0.5689 -0.9282  0.7108
  847MPD2     C12440   2.822   2.649  13.630 -0.6776  0.4778  0.1406
  847MPD2    C112441   2.920   2.664  13.726 -0.7607 -0.1426  0.6862
  847MPD2    C212442   2.962   2.560  13.802  0.2498  0.6857 -0.5485
  847MPD2    C312443   2.915   2.431  13.787  0.1255 -0.2211 -0.3696
  847MPD2    C412444   2.808   2.415  13.696  0.3212  0.2927  0.4096
  847MPD2    C512445   2.764   2.525  13.629 -0.5130  0.0903 -0.4418
  847MPD2     H12446   3.040   2.587  13.872 -0.1855  1.8079 -0.4800
  847MPD2    H112447   2.755   2.322  13.683 -0.7457  0.9902 -0.2308
  847MPD2    H212448   2.785   2.733  13.573  0.1664  1.4120  0.9797
  847MPD2    H312449   2.682   2.499  13.563  0.9620  1.6186 -2.8678
  847MPD2     N12450   2.977   2.334  13.868 -0.2016 -0.1146  0.4747
  847MPD2    H512451   3.042   2.358  13.942  1.6221  1.8822 -1.7890
  847MPD2    N112452   2.975   2.786  13.765 -0.0824  0.7964  0.1724
  847MPD2    H712453   3.048   2.770  13.833  0.8332 -0.6977 -1.1469
  848MPD2     C12454   0.762   1.515  16.379 -0.2149 -0.0621  0.1938
  848MPD2    C112455   0.763   1.596  16.489 -0.7111  0.5088  0.3432
  848MPD2    C212456   0.796   1.730  16.471  0.0114  0.0888  0.5704
  848MPD2    C312457   0.787   1.792  16.351  0.1040  0.0529 -0.6464
  848MPD2    C412458   0.765   1.712  16.243 -0.3265 -1.1876  0.4604
  848MPD2    C512459   0.759   1.574  16.256 -0.4429 -0.5345 -0.3984
  848MPD2     H12460   0.808   1.789  16.561 -1.7537  1.6153 -0.2066
  848MPD2    H112461   0.770   1.744  16.139 -0.6297 -0.9367  0.5241
  848MPD2    H212462   0.772   1.407  16.383  0.0352 -0.0263  0.5136
  848MPD2    H312463   0.746   1.511  16.169  0.0920  0.4835 -1.2190
  848MPD2     N12464   0.806   1.929  16.328  0.1138  0.6208 -0.1324
  848MPD2    H512465   0.811   1.970  16.235 -1.9440 -1.1051 -1.0142
  848MPD2    N112466   0.755   1.535  16.619 -0.2076  0.5914  0.5859
  848MPD2    H712467   0.795   1.592  16.693  4.0756 -0.0259 -1.2365
  849MPD2     C12468   0.816   1.736  13.550  0.7016 -0.2623  0.1237
  849MPD2    C112469   0.768   1.614  13.578  0.4264 -0.6361  0.1256
  849MPD2    C212470   0.639   1.604  13.637  0.3770 -0.6105 -0.1895
  849MPD2    C312471   0.562   1.718  13.655 -0.1650 -0.1265 -0.4563
  849MPD2    C412472   0.611   1.843  13.624  0.2217  0.2510 -0.5980
  849MPD2    C512473   0.742   1.850  13.579 -0.3502 -0.2244 -0.3269
  849MPD2     H12474   0.596   1.508  13.662  2.8580 -1.0068  2.4882
  849MPD2    H112475   0.545   1.928  13.642  1.1237  0.4990  1.4710
  849MPD2    H212476   0.915   1.743  13.505  1.4984 -1.1807  1.7405
  849MPD2    H312477   0.788   1.946  13.559  1.3077 -0.5871  1.7695
  849MPD2     N12478   0.431   1.691  13.708  0.4458  0.1932  0.6623
  849MPD2    H512479   0.415   1.594  13.737 -2.1553  1.4107  3.2902
  849MPD2    N112480   0.832   1.493  13.561 -0.1608  0.0162  0.2297
  849MPD2    H712481   0.787   1.408  13.594  0.5118  0.3571  2.0024
  850MPD2     C12482   2.752   4.502  14.534  1.0405  0.5152  0.2761
  850MPD2    C112483   2.798   4.376  14.574 -0.6256  0.4554  0.7730
  850MPD2    C212484   2.935   4.353  14.576 -0.0148  0.3787  0.6129
  850MPD2    C312485   3.020   4.456  14.554 -0.2355 -0.0808 -0.3655
  850MPD2    C412486   2.972   4.585  14.519  0.3044  0.6945 -0.1211
  850MPD2    C512487   2.837   4.604  14.502 -0.4425  0.5071  0.5812
  850MPD2     H12488   2.960   4.256  14.617 -0.7422 -0.1617 -0.2207
  850MPD2    H112489   3.037   4.670  14.505  0.4216  0.7710  0.9147
  850MPD2    H212490   2.649   4.528  14.511  1.8131  1.2705 -2.2449
  850MPD2    H312491   2.801   4.700  14.467 -1.4096  0.2325  0.7978
  850MPD2     N12492   3.157   4.436  14.571  0.1260 -0.5914  0.5919
  850MPD2    H512493   3.220   4.516  14.565 -0.4136 -0.0196  2.5564
  850MPD2    N112494   2.706   4.285  14.625 -0.2158  0.1110 -0.4566
  850MPD2    H712495   2.616   4.324  14.651 -1.0017 -1.6635 -0.5219
  851MPD2     C12496   3.219   4.034  15.279  0.5374 -0.3157 -0.5298
  851MPD2    C112497   3.124   3.956  15.208  0.7419 -0.4616  0.0488
  851MPD2    C212498   3.148   3.816  15.204  0.9903 -0.2606 -0.1156
  851MPD2    C312499   3.260   3.763  15.256 -0.6050  0.5501  0.0537
  851MPD2    C412500   3.353   3.839  15.317  0.3997 -0.3983  0.0210
  851MPD2    C512501   3.325   3.970  15.330  0.0721 -0.4109  0.0911
  851MPD2     H12502   3.080   3.748  15.153  1.2106 -0.7907  0.3016
  851MPD2    H112503   3.445   3.801  15.358  0.2407  0.5684  1.2696
  851MPD2    H212504   3.209   4.141  15.292 -0.7500 -0.5523  0.5105
  851MPD2    H312505   3.402   4.032  15.375 -0.4755 -0.3213  0.9065
  851MPD2     N12506   3.276   3.626  15.225  0.0934  0.1153  0.0360
  851MPD2    H512507   3.203   3.574  15.178  1.2021  0.4063 -2.0497
  851MPD2    N112508   3.007   4.012  15.151 -0.5692  0.3741 -0.3987
  851MPD2    H712509   2.998   4.113  15.144 -2.6091  0.3649  2.1072
  852MPD2     C12510   3.295   1.827   9.398 -1.0319 -0.2100  0.2560
  852MPD2    C112511   3.277   1.926   9.491  0.0181  0.2345 -0.4186
  852MPD2    C212512   3.379   2.013   9.519 -0.5683  0.1800 -0.2777
  852MPD2    C312513   3.497   2.009   9.450  0.2133  0.1036  0.0862
  852MPD2    C412514   3.513   1.914   9.349  0.8013 -0.0130  0.3354
  852MPD2    C512515   3.409   1.825   9.327  0.0415 -0.3770 -0.5263
  852MPD2     H12516   3.365   2.086   9.598 -1.7415  2.1253 -2.2743
  852MPD2    H112517   3.609   1.897   9.301  1.2868  1.4583  0.7781
  852MPD2    H212518   3.217   1.759   9.365 -1.0879  0.3817 -0.8504
  852MPD2    H312519   3.410   1.748   9.251 -0.0295 -0.3300 -0.5758
  852MPD2     N12520   3.599   2.099   9.495  0.0605  0.1752  0.3739
  852MPD2    H512521   3.572   2.173   9.559 -0.7671 -0.6127  0.9395
  852MPD2    N112522   3.155   1.939   9.556 -0.7191  0.0119  0.0131
  852MPD2    H712523   3.149   2.006   9.632  0.0939  1.8157 -1.5211
  853MPD2     C12524   0.159   1.621  12.277 -0.1813 -0.4116 -0.6160
  853MPD2    C112525   0.039   1.566  12.254  0.5609  0.3300 -0.4929
  853MPD2    C212526   4.715   1.575  12.125 -0.1532 -0.3395 -0.3622
  853MPD2    C312527   0.074   1.616  12.021 -0.1158  0.0723 -0.0474
  853MPD2    C412528   0.205   1.646  12.052 -0.8055  0.5407  1.1253
  853MPD2    C512529   0.244   1.659  12.183  0.5071 -0.3997  0.6212
  853MPD2     H12530   4.611   1.553  12.106 -0.9771  2.2281  1.3151
  853MPD2    H112531   0.279   1.687  11.984 -2.1126 -0.4567 -0.9009
  853MPD2    H212532   0.200   1.627  12.378 -0.7027 -2.5188 -0.2730
  853MPD2    H312533   0.345   1.679  12.216  0.1136  1.6681  0.6157
  853MPD2     N12534   0.033   1.630  11.888 -0.0784 -0.0947 -0.6112
  853MPD2    H512535   0.110   1.658  11.828 -0.2272  0.6546 -0.4526
  853MPD2    N112536   4.679   1.536  12.369  0.0447 -0.3675  0.3110
  853MPD2    H712537   4.724   1.536  12.459 -0.9395 -2.1856  0.8130
  854MPD2     C12538   2.230   1.836  12.957  0.2696 -0.3437 -0.7180
  854MPD2    C112539   2.141   1.758  12.881 -1.3767 -0.0065  0.3017
  854MPD2    C212540   2.144   1.616  12.881  0.1021 -0.0214  0.0545
  854MPD2    C312541   2.242   1.558  12.959 -0.0105  0.5702 -0.4756
  854MPD2    C412542   2.326   1.636  13.035 -0.5800 -0.6513  0.3234
  854MPD2    C512543   2.323   1.772  13.032 -0.1138 -0.2429  0.1391
  854MPD2     H12544   2.066   1.558  12.834  0.1336 -1.0533  1.2844
  854MPD2    H112545   2.402   1.576  13.084 -0.8556 -2.3996 -1.3859
  854MPD2    H212546   2.236   1.945  12.961 -2.0280 -0.3309  3.0348
  854MPD2    H312547   2.399   1.833  13.080 -0.6757  1.8120 -1.5422
  854MPD2     N12548   2.258   1.413  12.975 -0.4771 -0.5350 -0.5601
  854MPD2    H512549   2.339   1.385  13.030  0.2780  0.9624 -0.8849
  854MPD2    N112550   2.044   1.829  12.808  0.3678 -0.0294 -0.4220
  854MPD2    H712551   2.053   1.927  12.785  0.2091 -0.3670 -1.9395
  855MPD2     C12552   1.570   0.690  12.889  0.2865 -0.1491 -0.2609
  855MPD2    C112553   1.657   0.654  12.991  0.0349 -0.5205 -0.6816
  855MPD2    C212554   1.788   0.709  12.996 -0.2057  0.3770 -0.3340
  855MPD2    C312555   1.827   0.802  12.906 -0.4995  0.2274  0.2258
  855MPD2    C412556   1.744   0.836  12.799 -0.4671  0.6396  0.0262
  855MPD2    C512557   1.612   0.780  12.794 -0.4451  0.5341  0.7996
  855MPD2     H12558   1.857   0.684  13.076  1.6307 -1.2024 -2.4051
  855MPD2    H112559   1.767   0.915  12.728  2.8750 -2.5819 -2.5057
  855MPD2    H212560   1.469   0.653  12.872  0.0902  0.3278 -0.1632
  855MPD2    H312561   1.541   0.798  12.714 -1.2191  0.8138  1.5479
  855MPD2     N12562   1.952   0.874  12.907  0.4449  0.2221 -0.3060
  855MPD2    H512563   1.955   0.955  12.847  0.7120 -0.6606 -1.4941
  855MPD2    N112564   1.622   0.557  13.083 -0.0612 -0.2148  0.2590
  855MPD2    H712565   1.693   0.532  13.151 -0.8376  0.5172  1.3520
  856MPD2     C12566   3.975   2.007  13.946  0.8695 -0.1918 -0.4599
  856MPD2    C112567   3.966   2.060  14.073  0.4171 -0.0607  0.7132
  856MPD2    C212568   3.857   2.137  14.108  0.6154  0.7454  0.1800
  856MPD2    C312569   3.764   2.177  14.015  0.0703 -0.5615  0.3458
  856MPD2    C412570   3.765   2.104  13.894  0.1488 -0.9565 -0.7131
  856MPD2    C512571   3.868   2.017  13.864 -0.2209 -0.4077  0.6087
  856MPD2     H12572   3.869   2.190  14.201 -0.7969  0.6931  0.3828
  856MPD2    H112573   3.691   2.127  13.819 -0.7405 -0.1155  0.4346
  856MPD2    H212574   4.065   1.958  13.909  1.4449  0.8406 -0.4417
  856MPD2    H312575   3.875   1.967  13.768 -2.3535  0.7882 -0.1694
  856MPD2     N12576   3.683   2.293  14.010  0.2267  0.4586 -0.0973
  856MPD2    H512577   3.640   2.324  13.924  1.3208 -0.6465 -1.0359
  856MPD2    N112578   4.088   2.078  14.144 -0.3298 -0.0428 -0.1260
  856MPD2    H712579   4.173   2.072  14.088 -0.2939  0.3850 -0.1197
  857MPD2     C12580   0.629   4.525  12.821  0.1052  0.1687  0.7943
  857MPD2    C112581   0.757   4.490  12.773 -0.6680  0.0917 -0.3294
  857MPD2    C212582   0.862   4.585  12.766 -0.5141  0.5114  0.9170
  857MPD2    C312583   0.838   4.709  12.817  0.1865  0.4816  0.0516
  857MPD2    C412584   0.719   0.019  12.872 -0.1110  0.1693 -0.6235
  857MPD2    C512585   0.611   4.653  12.864  0.0763 -0.1243  0.5622
  857MPD2     H12586   0.955   4.566  12.714 -1.4404  1.3705 -1.0231
  857MPD2    H112587   0.701   0.112  12.925 -2.3492 -1.8098  2.0240
  857MPD2    H212588   0.543   4.459  12.825  1.3048 -1.2974  2.7170
  857MPD2    H312589   0.513   4.679  12.903 -0.3081  0.6400 -0.8922
  857MPD2     N12590   0.951   0.071  12.825  0.2802 -0.0869 -0.4386
  857MPD2    H512591   1.046   0.042  12.805  1.2487  2.3960  0.4897
  857MPD2    N112592   0.775   4.362  12.723  0.1553 -0.6131  0.1382
  857MPD2    H712593   0.693   4.302  12.720  0.3771 -0.8422 -1.3894
  858MPD2     C12594   1.456   3.173  16.644  0.1460  1.0555 -0.3814
  858MPD2    C112595   1.540   3.128  16.744  0.2589 -0.1712 -0.3944
  858MPD2    C212596   1.576   3.200  16.853  0.6251 -0.0803  0.1307
  858MPD2    C312597   1.523   3.330  16.867 -0.3787 -0.0641  0.7084
  858MPD2    C412598   1.434   3.372  16.772 -0.4952  0.1954  0.3891
  858MPD2    C512599   1.400   3.296  16.659 -0.4236  0.3975  0.1110
  858MPD2     H12600   1.647   3.156  16.923 -0.8436 -1.7124  0.5967
  858MPD2    H112601   1.384   3.468  16.778  0.4876  0.6965  0.6114
  858MPD2    H212602   1.425   3.106  16.564  1.4594 -1.9522  1.6081
  858MPD2    H312603   1.333   3.337  16.585  2.6343  1.0464 -2.2598
  858MPD2     N12604   1.566   3.412  16.979  0.3397 -0.3733  0.4679
  858MPD2    H512605   1.650   3.384  17.027  1.5403 -0.7138 -1.8272
  858MPD2    N112606   1.596   3.001  16.717 -0.2055  0.0974 -0.4550
  858MPD2    H712607   1.557   2.941  16.645 -0.2769 -0.2693 -0.1109
  859MPD2     C12608   4.588   0.358  15.355  0.3272  0.2405  1.2463
  859MPD2    C112609   4.633   0.383  15.226 -0.9489  0.1943  0.2844
  859MPD2    C212610   4.722   0.292  15.173 -0.4824  0.4581 -0.0540
  859MPD2    C312611   0.015   0.167  15.239 -0.0723 -0.3960 -0.1801
  859MPD2    C412612   4.685   0.139  15.363 -0.3466 -0.6418  0.5243
  859MPD2    C512613   4.616   0.239  15.421 -0.4856 -0.6437  0.1595
  859MPD2     H12614   0.046   0.321  15.081 -0.3103 -0.4014 -0.2327
  859MPD2    H112615   4.680   0.040  15.406  0.4723 -0.6276  0.6467
  859MPD2    H212616   4.514   0.426  15.396 -0.6422  0.5334 -0.9290
  859MPD2    H312617   4.555   0.216  15.508 -0.2953 -1.0288  0.1929
  859MPD2     N12618   0.098   0.064  15.191 -0.2353 -0.4273 -0.6029
  859MPD2    H512619   0.091   4.699  15.238 -1.9660  1.2974  2.4484
  859MPD2    N112620   4.599   0.503  15.160 -0.0891 -0.0199 -0.4708
  859MPD2    H712621   4.538   0.569  15.206 -1.0775 -0.7685 -0.6796
  860MPD2     C12622   2.790   1.224  11.320  0.9515  0.2253  0.2566
  860MPD2    C112623   2.851   1.215  11.444 -0.5834 -0.3083  0.0443
  860MPD2    C212624   2.771   1.211  11.558  0.0584 -0.1869 -0.6424
  860MPD2    C312625   2.632   1.226  11.547  0.1131 -0.5228 -0.6158
  860MPD2    C412626   2.575   1.242  11.420 -0.2109 -1.3116 -0.1103
  860MPD2    C512627   2.656   1.230  11.311 -0.1645  0.2282  0.6007
  860MPD2     H12628   2.816   1.200  11.656  2.0341 -2.4999 -1.7980
  860MPD2    H112629   2.467   1.250  11.410 -0.3311 -3.1474 -0.3225
  860MPD2    H212630   2.850   1.221  11.229 -0.7669 -0.7206 -0.8317
  860MPD2    H312631   2.602   1.239  11.217  2.7933 -0.8690 -1.2194
  860MPD2     N12632   2.555   1.238  11.664  0.2763  0.2649  0.2066
  860MPD2    H512633   2.615   1.242  11.746  1.4686  0.2535 -0.6747
  860MPD2    N112634   2.986   1.198  11.462 -0.6145 -0.2149  0.4349
  860MPD2    H712635   3.000   1.159  11.554 -2.3094  1.7885  1.5402
  861MPD2     C12636   2.040   4.685  10.946 -0.6886  0.7454  0.3921
  861MPD2    C112637   1.921   4.680  11.013 -0.6108 -0.8559 -0.1742
  861MPD2    C212638   1.800   4.680  10.941 -0.1526  0.1158  0.1145
  861MPD2    C312639   1.798   4.673  10.800 -0.2569 -0.5550  0.3284
  861MPD2    C412640   1.925   4.669  10.735 -0.2059 -0.3870  0.6886
  861MPD2    C512641   2.037   4.678  10.809 -0.0212 -0.3422 -0.0024
  861MPD2     H12642   1.705   4.687  10.993 -0.7726 -1.1520 -0.8467
  861MPD2    H112643   1.927   4.659  10.628 -0.0341  1.0646  0.5512
  861MPD2    H212644   2.134   4.686  10.999 -0.2323 -0.9125 -0.4155
  861MPD2    H312645   2.134   4.685  10.763  0.6428  0.1590  1.4700
  861MPD2     N12646   1.681   4.677  10.725  0.0446 -0.0634  0.2090
  861MPD2    H512647   1.688   4.629  10.636 -0.0360 -0.5681  0.4703
  861MPD2    N112648   1.916   4.668  11.151 -0.0768  0.1568  0.5401
  861MPD2    H712649   1.832   4.628  11.193 -0.7253  0.5791 -0.3485
  862MPD2     C12650   1.153   4.219  10.428 -0.3042  0.1416  0.0976
  862MPD2    C112651   1.258   4.253  10.514  0.0806 -0.2547 -0.0332
  862MPD2    C212652   1.325   4.150  10.568 -0.5974 -0.2105 -0.1447
  862MPD2    C312653   1.296   4.018  10.539 -0.3325 -0.5510 -0.7654
  862MPD2    C412654   1.200   3.997  10.442  0.0243  0.1937 -0.6187
  862MPD2    C512655   1.127   4.098  10.385  0.5821  0.4303  0.0979
  862MPD2     H12656   1.401   4.164  10.644  0.5697  1.7035 -1.6738
  862MPD2    H112657   1.179   3.895  10.411 -2.4553  0.1311  1.2830
  862MPD2    H212658   1.105   4.296  10.369 -1.1210 -1.3676 -1.2250
  862MPD2    H312659   1.049   4.071  10.315  0.6139  0.9823 -0.1543
  862MPD2     N12660   1.352   3.909  10.609 -0.1470  0.5976 -0.0724
  862MPD2    H512661   1.322   3.815  10.583  0.7836  0.3126 -0.1237
  862MPD2    N112662   1.283   4.389  10.556  0.9412  0.0351 -0.5048
  862MPD2    H712663   1.356   4.397  10.626  0.3804 -1.9027  0.2998
  863MPD2     C12664   0.249   2.514  16.487 -0.2528 -0.0652  0.0521
  863MPD2    C112665   0.227   2.634  16.538  0.2226  0.4566  0.4109
  863MPD2    C212666   0.288   2.665  16.660 -0.4969  0.8491 -0.3633
  863MPD2    C312667   0.357   2.569  16.733  0.0033 -0.4099  0.0714
  863MPD2    C412668   0.391   2.448  16.681  0.0515  0.2449  0.0409
  863MPD2    C512669   0.329   2.420  16.559 -0.3139  0.1155 -0.0784
  863MPD2     H12670   0.255   2.757  16.708  1.0828  0.1006  2.1299
  863MPD2    H112671   0.435   2.362  16.729 -1.3658 -0.5626 -0.1230
  863MPD2    H212672   0.200   2.489  16.393 -3.3962  0.6881  1.5103
  863MPD2    H312673   0.344   2.320  16.520 -0.6241  0.6820 -1.6368
  863MPD2     N12674   0.387   2.588  16.873 -0.3651 -0.2933 -0.6610
  863MPD2    H512675   0.413   2.507  16.927 -2.0210 -0.4408 -0.0833
  863MPD2    N112676   0.152   2.729  16.468  1.1491  0.3424 -0.5742
  863MPD2    H712677   0.103   2.694  16.387  0.2919 -0.8134  0.4447
  864MPD2     C12678   0.252   4.565  16.618 -0.5156  0.3303 -0.3453
  864MPD2    C112679   0.310   4.438  16.607  0.0051  0.4510  0.1338
  864MPD2    C212680   0.419   4.431  16.527 -0.0144  0.4450 -1.1115
  864MPD2    C312681   0.474   4.541  16.465  0.3555 -0.7602 -0.5067
  864MPD2    C412682   0.411   4.663  16.473  0.3654 -0.0899  0.2140
  864MPD2    C512683   0.293   4.668  16.540  0.1473  0.0194  0.0337
  864MPD2     H12684   0.465   4.334  16.512 -0.8108 -0.4365  2.2421
  864MPD2    H112685   0.437   0.021  16.408 -0.6857 -0.2266 -0.3777
  864MPD2    H212686   0.161   4.579  16.677 -0.1821  2.7462 -0.4197
  864MPD2    H312687   0.245   0.039  16.559  0.4596 -0.1462  1.7197
  864MPD2     N12688   0.590   4.537  16.391 -0.4684 -0.7096  0.4822
  864MPD2    H512689   0.592   4.597  16.310  0.1501  0.6907  1.5396
  864MPD2    N112690   0.250   4.331  16.673  0.0794 -0.4948 -0.2847
  864MPD2    H712691   0.178   4.359  16.740  0.2538  0.5559 -0.5344
  865MPD2     C12692   0.448   4.029  15.591 -0.0422 -0.4453 -0.2629
  865MPD2    C112693   0.489   3.947  15.696 -0.4606  0.7813 -0.6041
  865MPD2    C212694   0.534   4.000  15.818  0.5591  0.5228  0.1454
  865MPD2    C312695   0.551   4.133  15.835  0.5256  0.2020 -0.3140
  865MPD2    C412696   0.505   4.212  15.732  0.3540  0.1336  0.6781
  865MPD2    C512697   0.453   4.162  15.614 -0.0182  0.2525 -0.1764
  865MPD2     H12698   0.554   3.933  15.901  0.4086  0.9310  0.5127
  865MPD2    H112699   0.506   4.319  15.745 -1.6244 -0.0459  2.2822
  865MPD2    H212700   0.398   3.994  15.501 -1.2608  0.8504 -0.0962
  865MPD2    H312701   0.410   4.232  15.543  0.6741  2.4382  1.5701
  865MPD2     N12702   0.594   4.198  15.951  0.0523  0.3222 -0.5807
  865MPD2    H512703   0.578   4.298  15.960  2.0110  0.5695  0.1720
  865MPD2    N112704   0.477   3.804  15.675 -0.0665  0.0451  0.5145
  865MPD2    H712705   0.437   3.794  15.582  1.0799 -0.0053  0.0170
  866MPD2     C12706   2.394   0.181  11.473  0.1690  0.1703 -0.3917
  866MPD2    C112707   2.426   0.200  11.341  0.0748 -0.0992  0.2257
  866MPD2    C212708   2.326   0.248  11.260  0.7050 -0.6099 -0.0125
  866MPD2    C312709   2.203   0.285  11.305  1.0754  0.6369  0.2113
  866MPD2    C412710   2.186   0.278  11.442 -0.0311 -0.2927 -0.3431
  866MPD2    C512711   2.275   0.221  11.522  0.3499  0.3223 -0.4814
  866MPD2     H12712   2.351   0.248  11.154  0.5338  2.0599 -0.0429
  866MPD2    H112713   2.099   0.310  11.499  0.3410  1.5371 -0.7984
  866MPD2    H212714   2.467   0.160  11.551  0.5556  3.6491  0.1693
  866MPD2    H312715   2.253   0.224  11.629 -0.1046  2.6381 -0.6388
  866MPD2     N12716   2.090   0.307  11.221 -0.0052  0.2909  0.4971
  866MPD2    H512717   2.007   0.346  11.264  0.0583 -0.5247  1.3602
  866MPD2    N112718   2.553   0.156  11.293  0.3153 -0.1062 -0.1569
  866MPD2    H712719   2.612   0.107  11.360  1.5329  1.9898  0.3042
  867MPD2     C12720   3.748   4.096  16.100  0.3959  0.8108 -0.2288
  867MPD2    C112721   3.794   4.057  16.224 -0.6204 -0.0747  0.2681
  867MPD2    C212722   3.710   4.085  16.327  0.4067  0.6939  0.5464
  867MPD2    C312723   3.597   4.166  16.313 -0.3099  0.0915 -0.0383
  867MPD2    C412724   3.563   4.215  16.188  0.3845 -0.1221  0.2020
  867MPD2    C512725   3.637   4.179  16.080 -0.1883  1.0530  0.0067
  867MPD2     H12726   3.728   4.042  16.425 -0.4813  1.0099  0.8471
  867MPD2    H112727   3.471   4.270  16.172 -0.5737 -2.2697 -1.6691
  867MPD2    H212728   3.807   4.066  16.014 -1.4059 -0.2834 -1.0730
  867MPD2    H312729   3.609   4.211  15.980  0.2378 -0.3422 -0.5564
  867MPD2     N12730   3.503   4.188  16.415  0.2232 -0.2249 -0.1960
  867MPD2    H512731   3.418   4.237  16.390 -1.1274 -2.0662  0.8567
  867MPD2    N112732   3.910   3.976  16.237 -0.1635  0.0205  0.1695
  867MPD2    H712733   3.939   3.932  16.150 -1.4941 -2.8747  1.1939
  868MPD2     C12734   1.278   2.866  13.088  0.5231 -0.1597 -0.6415
  868MPD2    C112735   1.324   2.818  13.208 -0.6829  0.5203 -0.2082
  868MPD2    C212736   1.246   2.830  13.328 -0.1517 -0.1396 -0.4680
  868MPD2    C312737   1.125   2.894  13.320 -0.5021 -0.3573  0.2632
  868MPD2    C412738   1.084   2.942  13.193 -1.1170 -0.1056 -0.4191
  868MPD2    C512739   1.148   2.912  13.077 -0.2817 -0.7008 -1.1917
  868MPD2     H12740   1.276   2.787  13.423 -1.0576  0.9321  0.2834
  868MPD2    H112741   0.986   2.986  13.177 -2.1196 -1.1965  2.6997
  868MPD2    H212742   1.336   2.879  12.997  1.0420  2.4848  0.0815
  868MPD2    H312743   1.115   2.943  12.978 -3.0620 -4.1795 -1.3248
  868MPD2     N12744   1.048   2.917  13.440  0.0468  0.6587 -0.0961
  868MPD2    H512745   1.088   2.880  13.525 -3.4032  3.2059  2.6554
  868MPD2    N112746   1.458   2.767  13.208  0.2578 -0.3114 -0.7024
  868MPD2    H712747   1.521   2.787  13.131  0.6613 -1.9938 -0.8052
  869MPD2     C12748   1.674   0.835   2.296  0.0561  0.5680  0.5821
  869MPD2    C112749   1.592   0.819   2.184 -0.4365 -0.1256  0.3285
  869MPD2    C212750   1.610   0.898   2.072  0.5609 -0.4975  0.1286
  869MPD2    C312751   1.710   0.997   2.077 -0.0765  0.1272 -0.5749
  869MPD2    C412752   1.796   1.002   2.186  0.1789 -0.1842 -0.7489
  869MPD2    C512753   1.771   0.926   2.297  0.2677 -0.1276  0.0187
  869MPD2     H12754   1.548   0.880   1.986  3.2803  2.0215 -2.3565
  869MPD2    H112755   1.883   1.066   2.177  0.3726 -0.1788  1.1423
  869MPD2    H212756   1.657   0.775   2.384 -2.3312  0.9626  0.3905
  869MPD2    H312757   1.835   0.943   2.383  2.2162  0.6362 -1.5664
  869MPD2     N12758   1.742   1.084   1.969 -0.2697  0.0810 -1.3775
  869MPD2    H512759   1.836   1.122   1.976 -0.6903  0.3215  2.8449
  869MPD2    N112760   1.497   0.716   2.193  0.0209  0.4125 -0.2782
  869MPD2    H712761   1.486   0.670   2.284 -0.4987 -1.3132 -1.2110
  870MPD2     C12762   1.137   4.683   0.998  0.1765  0.5179  0.3481
  870MPD2    C112763   1.243   0.006   1.077 -0.5522 -0.2017  0.6827
  870MPD2    C212764   1.366   0.018   1.015  0.2386  0.8227 -0.6813
  870MPD2    C312765   1.379   0.008   0.881 -0.1748 -0.3965  0.3533
  870MPD2    C412766   1.271   4.710   0.798 -0.0554  0.0075 -0.8155
  870MPD2    C512767   1.150   4.673   0.863  0.4245 -0.3438 -0.4170
  870MPD2     H12768   1.452   0.051   1.072 -0.0318 -1.6608  1.1904
  870MPD2    H112769   1.271   4.696   0.691  0.6526  0.2859 -0.8555
  870MPD2    H212770   1.038   4.660   1.035 -0.8684  2.2872 -1.4089
  870MPD2    H312771   1.064   4.646   0.804 -0.2080 -1.5431  1.0536
  870MPD2     N12772   1.510   0.026   0.832 -0.1525 -0.2478  0.4458
  870MPD2    H512773   1.583   0.059   0.895  1.5280 -2.3292 -0.3949
  870MPD2    N112774   1.232   0.021   1.215  0.5522  0.8346  0.1012
  870MPD2    H712775   1.136   0.008   1.244  0.0527 -0.2953 -2.0855
  871MPD2     C12776   2.886   4.043  16.127 -0.2505 -0.2061  0.1245
  871MPD2    C112777   2.900   3.960  16.236 -0.1049 -1.1323 -0.1547
  871MPD2    C212778   2.975   3.845  16.226 -0.3401 -0.7461 -0.1199
  871MPD2    C312779   3.037   3.817  16.108  0.7847  0.7538  0.8829
  871MPD2    C412780   3.013   3.898  15.999 -0.4796 -0.3347  0.3232
  871MPD2    C512781   2.949   4.011  16.015 -0.0575 -0.0636  0.9294
  871MPD2     H12782   2.985   3.779  16.311 -0.3120  1.2462  1.4141
  871MPD2    H112783   3.069   3.880  15.908 -2.5360 -0.2886 -0.9622
  871MPD2    H212784   2.829   4.136  16.134  0.0514 -0.2974  3.7485
  871MPD2    H312785   2.933   4.069  15.925  1.6779 -0.4252  0.3917
  871MPD2     N12786   3.107   3.699  16.103  0.5275  0.3248 -0.1473
  871MPD2    H512787   3.090   3.628  16.174 -2.7409  1.0556 -0.2054
  871MPD2    N112788   2.823   3.993  16.354 -0.5024  0.0877 -0.2139
  871MPD2    H712789   2.763   4.075  16.346 -0.3765  0.0315 -1.7775
  872MPD2     C12790   4.243   1.353  13.915 -0.5555 -0.7439  0.5028
  872MPD2    C112791   4.227   1.447  13.811  0.2132 -0.4212  0.3688
  872MPD2    C212792   4.110   1.524  13.813  0.5428 -0.2497 -0.4208
  872MPD2    C312793   4.009   1.498  13.906 -0.2868  0.2581 -0.5127
  872MPD2    C412794   4.025   1.399  14.001 -0.0773 -0.0075 -0.2635
  872MPD2    C512795   4.143   1.332  14.005  0.1896 -0.3037 -0.0129
  872MPD2     H12796   4.108   1.600  13.736 -0.9674 -0.1328 -0.2588
  872MPD2    H112797   3.948   1.382  14.074  0.4236 -0.5129  0.1496
  872MPD2    H212798   4.335   1.297  13.926  1.1589  1.5211 -2.2436
  872MPD2    H312799   4.161   1.262  14.086  0.6128  1.1138  1.1202
  872MPD2     N12800   3.880   1.567  13.912  0.2748  0.1276 -0.2880
  872MPD2    H512801   3.808   1.535  13.976 -0.1574 -1.8079 -1.7219
  872MPD2    N112802   4.316   1.478  13.713 -0.9772  0.3722  0.1940
  872MPD2    H712803   4.295   1.543  13.638  1.6289  0.4075 -0.5282
  873MPD2     C12804   1.658   1.930   1.036  0.2084  1.0192  0.0204
  873MPD2    C112805   1.539   1.876   0.992  0.4217 -0.5058  0.6130
  873MPD2    C212806   1.530   1.737   0.985 -0.9000  0.0384  0.4243
  873MPD2    C312807   1.635   1.656   1.036 -0.2779  0.5885 -0.6155
  873MPD2    C412808   1.752   1.715   1.072  0.0429  0.3510 -0.5827
  873MPD2    C512809   1.764   1.853   1.068 -1.3468  0.3710  0.5120
  873MPD2     H12810   1.445   1.696   0.931  0.3551 -0.8474 -0.8562
  873MPD2    H112811   1.835   1.662   1.116  0.2836  0.4893 -0.8700
  873MPD2    H212812   1.675   2.037   1.039  1.0790  0.9031 -0.5090
  873MPD2    H312813   1.856   1.893   1.110  0.8421 -3.2790 -0.7813
  873MPD2     N12814   1.619   1.516   1.056  0.5352 -0.4626 -0.3510
  873MPD2    H512815   1.699   1.468   1.096 -1.7194 -3.3309  0.7049
  873MPD2    N112816   1.426   1.960   0.982  0.2875 -0.0538 -0.4732
  873MPD2    H712817   1.433   2.060   1.000 -0.6916  0.3161 -2.1290
  874MPD2     C12818   0.160   1.975  16.268  0.0855 -0.8157 -0.0581
  874MPD2    C112819   0.265   1.921  16.341  0.2259 -0.3838 -0.4717
  874MPD2    C212820   0.378   1.996  16.373  0.1336 -0.0876 -0.1477
  874MPD2    C312821   0.384   2.126  16.323 -0.0379 -0.5373  0.2454
  874MPD2    C412822   0.283   2.177  16.256  0.2576 -0.3231  0.1257
  874MPD2    C512823   0.170   2.103  16.225 -0.3979  0.6320  0.5662
  874MPD2     H12824   0.464   1.949  16.420 -0.8096  0.7080  2.4157
  874MPD2    H112825   0.278   2.282  16.227  2.5577  0.9292  4.2126
  874MPD2    H212826   0.069   1.920  16.245 -0.4847 -0.1769  0.6819
  874MPD2    H312827   0.095   2.159  16.171 -1.2789  0.3148  1.4618
  874MPD2     N12828   0.507   2.192  16.352  0.5239  0.3752 -0.4092
  874MPD2    H512829   0.570   2.139  16.411 -0.6770 -1.1105 -0.4517
  874MPD2    N112830   0.255   1.786  16.378 -0.7136 -0.1949  0.4140
  874MPD2    H712831   0.169   1.746  16.340 -0.8496  1.5536 -1.1073
  875MPD2     C12832   1.547   0.260  14.494 -0.2963  0.6316 -0.6818
  875MPD2    C112833   1.410   0.264  14.508 -0.2542 -1.0946 -0.1887
  875MPD2    C212834   1.359   0.323  14.623  0.2873 -0.3469 -0.5299
  875MPD2    C312835   1.440   0.379  14.722 -0.5702  0.1048 -0.2824
  875MPD2    C412836   1.577   0.375  14.704  0.0351  0.3322  0.2329
  875MPD2    C512837   1.625   0.311  14.596  0.0745  0.0327 -0.3713
  875MPD2     H12838   1.258   0.305  14.659  0.8464  1.1620  1.7744
  875MPD2    H112839   1.651   0.412  14.773  1.7967  0.0250 -1.4795
  875MPD2    H212840   1.596   0.218  14.408  1.5920  0.0211  0.6948
  875MPD2    H312841   1.731   0.320  14.576  0.8296 -0.0565  3.5351
  875MPD2     N12842   1.372   0.452  14.824  0.0161  0.4800  0.3892
  875MPD2    H512843   1.274   0.468  14.801  0.2819  1.3864 -0.0967
  875MPD2    N112844   1.319   0.225  14.407 -0.0648 -0.1885 -0.4811
  875MPD2    H712845   1.225   0.246  14.440  0.0769 -0.5643  0.1749
  876MPD2     C12846   0.505   1.481  16.008 -0.1537  0.1427  0.7547
  876MPD2    C112847   0.504   1.397  15.895 -0.3620  0.6220 -0.0649
  876MPD2    C212848   0.493   1.258  15.923 -0.3342 -0.0060  0.7081
  876MPD2    C312849   0.477   1.206  16.046 -0.0845 -0.7765  0.5255
  876MPD2    C412850   0.470   1.290  16.153 -0.2119 -0.3749 -0.7019
  876MPD2    C512851   0.483   1.422  16.129  0.7136 -0.2381  0.1988
  876MPD2     H12852   0.487   1.193  15.836  0.2896 -0.0304  0.6796
  876MPD2    H112853   0.453   1.254  16.254  0.0313  1.9469  0.1702
  876MPD2    H212854   0.507   1.589  15.998  1.6437  0.0982  0.5541
  876MPD2    H312855   0.492   1.487  16.215  0.0963  1.9179 -1.3675
  876MPD2     N12856   0.462   1.067  16.051  0.6959 -0.3256  0.0935
  876MPD2    H512857   0.454   1.029  15.958 -0.6792 -0.6048  0.3204
  876MPD2    N112858   0.496   1.448  15.765 -0.0480 -0.6285  0.5875
  876MPD2    H712859   0.503   1.549  15.755 -1.4786 -0.7952 -2.4013
  877MPD2     C12860   0.121   2.035  15.427 -0.5254 -0.2036  0.2883
  877MPD2    C112861   0.192   1.966  15.333 -0.0185  0.2397  0.3849
  877MPD2    C212862   0.225   2.031  15.211  0.1065  0.1031  0.4098
  877MPD2    C312863   0.169   2.148  15.172  0.0891 -0.7854 -0.4167
  877MPD2    C412864   0.085   2.210  15.263  0.2802 -0.3108 -0.1464
  877MPD2    C512865   0.075   2.157  15.391 -0.6168  0.1809 -0.1066
  877MPD2     H12866   0.293   1.976  15.148 -0.1842  1.7908 -1.3655
  877MPD2    H112867   0.025   2.297  15.242  0.3762 -0.5260 -1.3722
  877MPD2    H212868   0.097   1.994  15.525  2.9961  0.8203  1.6008
  877MPD2    H312869   0.009   2.204  15.464 -0.2648 -0.7412  0.8052
  877MPD2     N12870   0.183   2.197  15.043 -0.1754  0.0502 -0.2010
  877MPD2    H512871   0.125   2.272  15.006  2.3428  0.8908 -2.4549
  877MPD2    N112872   0.236   1.838  15.352 -0.1578  0.1005 -0.4138
  877MPD2    H712873   0.273   1.795  15.268  0.2047 -2.5078  1.1024
  878MPD2     C12874   0.463   0.866  13.056  0.3575  0.5385  0.0628
  878MPD2    C112875   0.504   0.988  13.007 -0.0377 -0.4410  0.1354
  878MPD2    C212876   0.608   1.049  13.073 -0.8476  0.3349  0.1381
  878MPD2    C312877   0.658   0.989  13.191 -0.1571  0.0012  0.1317
  878MPD2    C412878   0.606   0.878  13.243  0.0324 -0.1528  0.4236
  878MPD2    C512879   0.501   0.828  13.178 -0.0092 -0.8745 -0.1646
  878MPD2     H12880   0.655   1.140  13.036 -0.9528  1.1560  2.0145
  878MPD2    H112881   0.623   0.861  13.349  2.4258 -1.3488 -0.1395
  878MPD2    H212882   0.387   0.816  12.997  0.2156  1.5438 -0.6113
  878MPD2    H312883   0.448   0.745  13.224 -2.0571  1.2964  1.3751
  878MPD2     N12884   0.766   1.053  13.257  0.8594 -0.3313 -0.3504
  878MPD2    H512885   0.800   1.140  13.217  1.1324 -0.7861 -1.1146
  878MPD2    N112886   0.461   1.031  12.874  0.1744  0.4429 -0.5664
  878MPD2    H712887   0.374   0.996  12.835 -0.3177  1.8497 -0.7056
  879MPD2     C12888   0.704   1.703  17.159 -0.1679 -0.7203 -0.2324
  879MPD2    C112889   0.625   1.816  17.154  0.7162  0.4433  0.0205
  879MPD2    C212890   0.514   1.815  17.078 -0.3539 -0.3369  0.3252
  879MPD2    C312891   0.479   1.701  17.008 -0.5366  0.4064 -0.6631
  879MPD2    C412892   0.559   1.587  17.004  0.6062  0.5529 -0.0530
  879MPD2    C512893   0.668   1.585  17.091  0.0765 -0.3946  0.4214
  879MPD2     H12894   0.460   1.909  17.073 -1.8783 -1.2820 -0.7703
  879MPD2    H112895   0.536   1.497  16.948  3.4809 -1.0164  1.2733
  879MPD2    H212896   0.791   1.701  17.223 -0.6210 -0.4792  0.3868
  879MPD2    H312897   0.733   1.499  17.099  0.3179 -0.3609 -1.1402
  879MPD2     N12898   0.361   1.690  16.926 -0.0170  0.0583  0.1808
  879MPD2    H512899   0.335   1.600  16.887  0.1668 -1.0206  2.5969
  879MPD2    N112900   0.663   1.931  17.226  0.0896  0.6373 -0.2019
  879MPD2    H712901   0.729   1.904  17.297 -1.8231  0.5765  1.5554
  880MPD2     C12902   1.909   3.628   0.221  0.7483  0.0070  0.4588
  880MPD2    C112903   2.045   3.647   0.231  0.3695 -0.4002 -0.2560
  880MPD2    C212904   2.126   3.553   0.301 -0.0201 -0.7142 -0.3122
  880MPD2    C312905   2.061   3.451   0.371  0.0818  0.0785 -0.4441
  880MPD2    C412906   1.924   3.432   0.349 -0.2996 -0.5079  0.4897
  880MPD2    C512907   1.847   3.521   0.279  0.6261  0.4666  0.4402
  880MPD2     H12908   2.234   3.560   0.309 -0.0430 -0.0722 -0.5674
  880MPD2    H112909   1.866   3.350   0.393 -1.2798  0.5181  1.1176
  880MPD2    H212910   1.851   3.704   0.171  0.2618 -0.3891  0.4308
  880MPD2    H312911   1.741   3.504   0.268  0.4396  2.2280 -0.4861
  880MPD2     N12912   2.131   3.375   0.462 -0.0235 -0.3621  0.4736
  880MPD2    H512913   2.232   3.384   0.470  0.4104 -3.0989 -2.1848
  880MPD2    N112914   2.107   3.758   0.162 -0.1720 -0.0621  1.0170
  880MPD2    H712915   2.042   3.819   0.113 -1.3140 -0.3051  2.2404
  881MPD2     C12916   1.706   4.273  17.280 -0.3883 -0.1540  0.0327
  881MPD2    C112917   1.823   4.342  17.302  0.1105 -0.1120  0.2091
  881MPD2    C212918   1.920   4.294  17.386 -0.1815 -0.0954  0.1761
  881MPD2    C312919   1.889   4.190  17.473  0.1719  0.4062  0.3014
  881MPD2    C412920   1.758   4.142  17.470 -0.8608  0.3437  0.4914
  881MPD2    C512921   1.663   4.185  17.375 -0.0271  0.0322 -0.3673
  881MPD2     H12922   2.019   4.336  17.402 -1.1586  1.9224  0.8267
  881MPD2    H112923   1.725   4.057  17.528 -1.1000  1.7189  2.3829
  881MPD2    H212924   1.634   4.320  17.214 -1.1643 -3.2584 -1.3279
  881MPD2    H312925   1.562   4.146  17.370 -0.6817  1.7424 -0.4236
  881MPD2     N12926   1.982   4.141  17.570  0.2715 -0.1117 -0.1518
  881MPD2    H512927   1.938   4.087  17.644 -1.3167 -1.9123 -2.4065
  881MPD2    N112928   1.852   4.438  17.207  0.5199  0.3398 -0.1142
  881MPD2    H712929   1.775   4.455  17.143 -0.0502  4.1806  1.6036
  882MPD2     C12930   4.709   2.061  14.220 -0.4162  0.8819 -0.8120
  882MPD2    C112931   4.667   2.078  14.352 -0.4378 -0.4549  0.1848
  882MPD2    C212932   4.572   1.985  14.401  0.4784 -0.0518  0.1644
  882MPD2    C312933   4.520   1.880  14.320  0.8767 -0.0034  0.5466
  882MPD2    C412934   4.568   1.861  14.190 -0.1278  0.4776  0.1083
  882MPD2    C512935   4.659   1.957  14.144  0.7764 -0.6795 -0.5450
  882MPD2     H12936   4.570   1.973  14.509 -1.2317 -1.0781  0.0168
  882MPD2    H112937   4.540   1.775  14.130  3.0765  0.2385 -1.0452
  882MPD2    H212938   0.075   2.107  14.181 -1.7219  1.1373 -3.5741
  882MPD2    H312939   4.694   1.942  14.043  1.0826  0.0946 -0.5503
  882MPD2     N12940   4.439   1.774  14.367 -0.0082 -0.0573 -0.2337
  882MPD2    H512941   4.430   1.686  14.317  0.6542  0.8850 -2.0177
  882MPD2    N112942   0.022   2.163  14.431 -0.1753  0.5618 -0.6628
  882MPD2    H712943   0.083   2.224  14.377 -0.3167 -0.6024 -2.1534
  883MPD2     C12944   2.225   1.193  16.002 -0.1167 -0.1149  0.8493
  883MPD2    C112945   2.286   1.284  15.916  0.1763 -0.1527 -0.2069
  883MPD2    C212946   2.407   1.338  15.956 -0.3902 -0.4174 -0.0915
  883MPD2    C312947   2.454   1.303  16.075  0.0672  0.3588 -0.1128
  883MPD2    C412948   2.398   1.208  16.158 -0.3624 -0.6129  0.7133
  883MPD2    C512949   2.280   1.155  16.120 -0.7224  0.0979  0.0701
  883MPD2     H12950   2.458   1.405  15.887  0.5984 -0.5964  0.4549
  883MPD2    H112951   2.456   1.169  16.241 -1.1346 -2.1389  0.5334
  883MPD2    H212952   2.123   1.159  15.985  0.0856  0.1931 -1.0329
  883MPD2    H312953   2.233   1.075  16.176 -0.0659  1.1437  2.0890
  883MPD2     N12954   2.572   1.373  16.123  0.1505 -0.3492  0.5592
  883MPD2    H512955   2.618   1.429  16.051  0.6642 -1.3510  0.1128
  883MPD2    N112956   2.238   1.324  15.787 -0.1423 -0.7558 -0.2141
  883MPD2    H712957   2.290   1.399  15.744 -2.6206  0.4482 -1.1010
  884MPD2     C12958   3.970   2.228  15.363 -0.8520  0.1467 -0.5013
  884MPD2    C112959   3.963   2.281  15.237 -0.0364 -0.9184 -0.1516
  884MPD2    C212960   3.866   2.373  15.211  0.6310 -0.4565 -0.1829
  884MPD2    C312961   3.776   2.412  15.307 -0.3829 -0.1115  0.5619
  884MPD2    C412962   3.771   2.351  15.429  0.3562  0.1400  0.3299
  884MPD2    C512963   3.874   2.266  15.458  0.7674  0.7252  0.0106
  884MPD2     H12964   3.868   2.417  15.112  0.6893 -1.6915 -0.7409
  884MPD2    H112965   3.695   2.369  15.504 -2.3860  0.0442 -2.4045
  884MPD2    H212966   4.056   2.166  15.390  0.3662  3.0744  2.3523
  884MPD2    H312967   3.881   2.238  15.562  2.5621 -0.8853 -0.5393
  884MPD2     N12968   3.670   2.497  15.264  0.9143 -0.3033  0.2272
  884MPD2    H512969   3.681   2.533  15.170 -0.9650 -0.2344  0.0211
  884MPD2    N112970   4.051   2.241  15.134  0.0594  0.8470 -0.3417
  884MPD2    H712971   4.055   2.300  15.051 -2.9969  0.1448 -0.9849
  885MPD2     C12972   2.720   2.623   0.328 -0.4234 -0.3662 -0.4040
  885MPD2    C112973   2.839   2.578   0.277  0.2788 -0.6080  0.1176
  885MPD2    C212974   2.848   2.590   0.135  0.6361 -0.2569 -0.1829
  885MPD2    C312975   2.745   2.643   0.058 -0.7708  0.4805  0.0159
  885MPD2    C412976   2.638   2.695   0.118 -0.4339  0.6211  0.8312
  885MPD2    C512977   2.629   2.685   0.255 -0.4824 -0.1651  0.9747
  885MPD2     H12978   2.940   2.553   0.090 -0.4367 -2.2138 -0.7516
  885MPD2    H112979   2.540   2.710   0.073  0.0396 -0.2448 -0.4844
  885MPD2    H212980   2.702   2.608   0.433 -1.0601 -2.6374 -0.8372
  885MPD2    H312981   2.531   2.712   0.291  0.8268  1.0061  3.5920
  885MPD2     N12982   2.759   2.632  17.616  0.9493  0.1330 -0.0388
  885MPD2    H512983   2.844   2.590  17.578  0.3829 -0.4173 -0.7120
  885MPD2    N112984   2.936   2.520   0.362 -0.3827  0.7014  0.4032
  885MPD2    H712985   2.902   2.522   0.458  1.2108  0.5703  0.9617
  886MPD2     C12986   3.705   1.109  15.236  0.2428 -0.3346  0.2437
  886MPD2    C112987   3.796   1.094  15.340  0.3661  0.2243 -0.2461
  886MPD2    C212988   3.793   1.184  15.446 -0.2128 -0.0364 -0.5100
  886MPD2    C312989   3.714   1.299  15.444  0.5248  0.0309  0.0525
  886MPD2    C412990   3.619   1.314  15.343  0.1164 -0.0202  0.1358
  886MPD2    C512991   3.617   1.216  15.245  0.1897  0.3041  0.3360
  886MPD2     H12992   3.870   1.169  15.521 -0.6525  0.3129  0.0020
  886MPD2    H112993   3.533   1.380  15.340 -0.8829 -1.2916  0.5415
  886MPD2    H212994   3.687   1.040  15.154 -0.5423 -1.0492  1.0340
  886MPD2    H312995   3.543   1.223  15.166  0.2162 -0.9870  0.2116
  886MPD2     N12996   3.740   1.394  15.539 -0.3261 -0.2051  0.6050
  886MPD2    H512997   3.753   1.358  15.633  0.3881 -0.5739  0.3648
  886MPD2    N112998   3.899   0.998  15.324 -0.1894 -0.7070  0.4722
  886MPD2    H712999   3.978   0.998  15.388 -2.3562  0.8643  3.1641
  887MPD2     C13000   4.596   1.027  15.316  0.2828 -0.7021  0.4609
  887MPD2    C113001   4.486   1.050  15.403 -0.0877  0.4227  0.7716
  887MPD2    C213002   4.488   1.156  15.494  0.1844  0.4594 -0.5671
  887MPD2    C313003   4.599   1.237  15.500 -0.3023  0.3328 -1.0627
  887MPD2    C413004   4.712   1.208  15.432  0.2091 -0.0747  0.0729
  887MPD2    C513005   4.706   1.106  15.335 -0.1983  0.0571  0.0217
  887MPD2     H13006   4.400   1.179  15.553  1.9971  0.9679  1.9132
  887MPD2    H113007   0.085   1.254  15.445 -0.0475  0.6836 -0.7258
  887MPD2    H213008   4.598   0.962  15.229  1.1942  1.5334 -1.1966
  887MPD2    H313009   0.067   1.092  15.269 -0.0347  1.1845 -0.0092
  887MPD2     N13010   4.592   1.345  15.590 -0.0746  0.3277  0.4028
  887MPD2    H513011   4.514   1.343  15.655  1.8988 -0.5652  2.7699
  887MPD2    N113012   4.367   0.975  15.385  0.8972  0.5926  0.0303
  887MPD2    H713013   4.280   1.007  15.426  0.7835  1.0395 -0.5557
  888MPD2     C13014   1.217   1.518  14.297 -0.3244  0.0077 -0.1674
  888MPD2    C113015   1.231   1.498  14.429 -0.2536  0.2650  0.4415
  888MPD2    C213016   1.309   1.587  14.507 -0.0760  0.5092  0.2940
  888MPD2    C313017   1.371   1.691  14.447  0.3683  0.3157  0.2224
  888MPD2    C413018   1.357   1.712  14.309  0.9546 -0.9128 -0.2814
  888MPD2    C513019   1.283   1.622  14.238 -0.3375 -0.3894 -0.0049
  888MPD2     H13020   1.310   1.581  14.615 -0.6031  0.2447  0.2842
  888MPD2    H113021   1.410   1.792  14.258 -2.9142  1.0834 -1.1591
  888MPD2    H213022   1.165   1.443  14.237  0.1839  0.3130 -0.9963
  888MPD2    H313023   1.287   1.624  14.130  2.6139  1.2255  0.1497
  888MPD2     N13024   1.438   1.773  14.532 -0.0288 -0.0390 -0.5569
  888MPD2    H513025   1.438   1.751  14.631 -2.5708 -0.9927 -0.7924
  888MPD2    N113026   1.179   1.393  14.497 -0.0669 -0.6257 -0.4502
  888MPD2    H713027   1.193   1.402  14.597 -1.1120  0.2264 -0.3874
  889MPD2     C13028   1.359   0.742  12.553  0.0035 -0.3868 -0.6087
  889MPD2    C113029   1.250   0.706  12.628 -0.3178  0.0778  0.7480
  889MPD2    C213030   1.136   0.792  12.622 -0.1802 -0.4215  0.2224
  889MPD2    C313031   1.143   0.920  12.560 -0.2875 -0.6587 -0.1229
  889MPD2    C413032   1.261   0.953  12.500  0.3115  0.0614  0.2392
  889MPD2    C513033   1.372   0.869  12.502  0.1373 -0.4732  0.0952
  889MPD2     H13034   1.053   0.769  12.688  1.5686 -1.1223  2.1571
  889MPD2    H113035   1.278   1.052  12.459 -0.0097  0.3600  0.8277
  889MPD2    H213036   1.447   0.679  12.548 -0.9577 -1.6795 -1.4143
  889MPD2    H313037   1.458   0.899  12.444  0.1281 -0.5867  0.0220
  889MPD2     N13038   1.032   1.010  12.580 -0.1212 -0.0414 -1.3747
  889MPD2    H513039   0.946   0.980  12.626  0.8847  0.9504  1.1934
  889MPD2    N113040   1.239   0.572  12.684  0.4008 -0.1758 -0.4349
  889MPD2    H713041   1.150   0.553  12.728 -0.5931 -1.9569 -3.2663
  890MPD2     C13042   0.464   2.694  14.961 -0.3671 -0.6190 -0.6792
  890MPD2    C113043   0.547   2.778  15.030 -0.0905  0.3193 -0.4161
  890MPD2    C213044   0.598   2.738  15.153 -0.0292 -0.1428 -0.7539
  890MPD2    C313045   0.561   2.618  15.210 -0.6923  0.8527 -1.1526
  890MPD2    C413046   0.485   2.530  15.136  0.0041  0.2499  1.0320
  890MPD2    C513047   0.442   2.569  15.008 -0.1819 -0.2123 -0.2938
  890MPD2     H13048   0.659   2.803  15.214 -0.8590  0.2898 -0.3912
  890MPD2    H113049   0.464   2.429  15.168 -0.1871 -0.6206 -1.8300
  890MPD2    H213050   0.423   2.722  14.864 -0.5977  3.2780  0.5532
  890MPD2    H313051   0.400   2.493  14.945  1.0897 -0.9216 -0.2911
  890MPD2     N13052   0.613   2.583  15.343  0.2328  0.0555 -0.3302
  890MPD2    H513053   0.680   2.646  15.386 -0.9866  0.3734  1.1039
  890MPD2    N113054   0.587   2.900  14.964  0.0800 -0.0301  0.8294
  890MPD2    H713055   0.543   2.920  14.875  1.1823  0.9483  0.5045
  891MPD2     C13056   3.364   1.014  16.069 -0.3996  0.2911  0.1515
  891MPD2    C113057   3.273   0.975  16.165 -0.1464  0.5701 -0.2952
  891MPD2    C213058   3.318   0.907  16.279 -0.2784 -0.8908  0.2706
  891MPD2    C313059   3.455   0.873  16.296  0.4266  0.1516  0.3656
  891MPD2    C413060   3.543   0.909  16.189 -0.4032  0.0053 -0.0822
  891MPD2    C513061   3.494   0.983  16.084 -0.4423  0.3335  0.4563
  891MPD2     H13062   3.248   0.878  16.356 -2.2400 -1.4400 -1.7077
  891MPD2    H113063   3.649   0.885  16.193  0.2196  3.0458  1.7551
  891MPD2    H213064   3.332   1.075  15.985 -0.6929 -0.8488 -0.5692
  891MPD2    H313065   3.558   1.017  16.004  0.3903  0.6469  1.2479
  891MPD2     N13066   3.500   0.806  16.410  0.6418 -0.2621  0.0685
  891MPD2    H513067   3.429   0.789  16.481  0.1877  3.1083  0.3993
  891MPD2    N113068   3.135   1.002  16.144 -0.1291 -0.4107  0.3103
  891MPD2    H713069   3.106   1.037  16.054 -2.6726  1.5026  1.8536
  892MPD2     C13070   4.258   1.638  15.378  0.4023  0.9488 -0.0419
  892MPD2    C113071   4.171   1.699  15.293  0.1845 -0.1466  0.0696
  892MPD2    C213072   4.181   1.673  15.157 -0.5971 -0.2887 -1.1037
  892MPD2    C313073   4.282   1.591  15.104 -0.1792  0.0588 -0.3660
  892MPD2    C413074   4.369   1.526  15.190 -0.0076 -0.3441 -0.2250
  892MPD2    C513075   4.358   1.561  15.322 -0.4433 -0.3079 -0.0490
  892MPD2     H13076   4.098   1.706  15.096 -1.7565 -1.8356 -0.3609
  892MPD2    H113077   4.443   1.453  15.159  1.1885 -0.1685  2.1966
  892MPD2    H213078   4.265   1.652  15.485  0.8394  0.6222 -0.0269
  892MPD2    H313079   4.426   1.517  15.394  0.5489  0.2661 -0.6372
  892MPD2     N13080   4.284   1.547  14.970 -0.4903 -0.8359 -0.0092
  892MPD2    H513081   4.354   1.475  14.950  0.7387  0.7711 -1.5639
  892MPD2    N113082   4.065   1.777  15.344 -0.5831  0.4908 -0.0274
  892MPD2    H713083   4.008   1.828  15.276 -0.4498  0.6602 -0.0131
  893MPD2     C13084   1.261   0.246   0.556 -0.6950 -0.7966  0.2168
  893MPD2    C113085   1.187   0.278   0.665 -0.0961 -0.2693 -0.9221
  893MPD2    C213086   1.057   0.229   0.663 -0.0485 -0.8732  0.0712
  893MPD2    C313087   0.993   0.169   0.560 -0.2112  0.2150 -0.0438
  893MPD2    C413088   1.069   0.150   0.447 -0.1985  0.4934 -0.1260
  893MPD2    C513089   1.201   0.190   0.449  0.0147  0.2485  0.1280
  893MPD2     H13090   1.004   0.253   0.754  2.8176  3.0349  0.7359
  893MPD2    H113091   1.032   0.096   0.361 -1.0244 -1.3119  1.3469
  893MPD2    H213092   1.368   0.259   0.549 -0.7899  0.7368  1.3416
  893MPD2    H313093   1.269   0.154   0.372  1.3162 -0.4272  1.6011
  893MPD2     N13094   0.858   0.117   0.566 -0.2565  0.3715 -0.3534
  893MPD2    H513095   0.821   0.076   0.480 -2.0888 -1.8055  1.4712
  893MPD2    N113096   1.258   0.325   0.777  0.0905  1.1764 -0.4403
  893MPD2    H713097   1.359   0.318   0.764 -0.0193  0.8346 -1.1236
  894MPD2     C13098   3.678   2.263   0.998 -0.1287  0.1973  0.0328
  894MPD2    C113099   3.758   2.375   1.022 -0.4890  0.6088  0.1549
  894MPD2    C213100   3.753   2.483   0.934  0.9574  0.5606 -0.1826
  894MPD2    C313101   3.660   2.489   0.835  0.6597 -0.4598  1.0730
  894MPD2    C413102   3.576   2.377   0.819 -0.2297 -0.3979  0.1415
  894MPD2    C513103   3.584   2.270   0.898  0.3828  0.0941 -0.3319
  894MPD2     H13104   3.826   2.562   0.948  4.1975 -2.4167 -0.0068
  894MPD2    H113105   3.513   2.375   0.731  0.5477  4.2667 -0.5320
  894MPD2    H213106   3.680   2.173   1.057 -1.5740  1.4673  2.0519
  894MPD2    H313107   3.515   2.188   0.881  0.7973  0.0476 -1.8131
  894MPD2     N13108   3.649   2.609   0.759  0.3898 -0.0351 -0.1555
  894MPD2    H513109   3.697   2.693   0.790  1.6578 -0.4668 -0.9584
  894MPD2    N113110   3.848   2.384   1.131 -0.3664 -0.1831  0.0669
  894MPD2    H713111   3.889   2.475   1.145 -0.1693 -0.5786  2.0614
  895MPD2     C13112   3.749   0.793  13.669  0.2642  0.7442  0.2909
  895MPD2    C113113   3.711   0.706  13.576  0.3691 -0.1834  0.6985
  895MPD2    C213114   3.773   0.582  13.572 -0.3231 -0.2816  0.2517
  895MPD2    C313115   3.863   0.546  13.671 -0.3328 -0.2407 -0.2206
  895MPD2    C413116   3.883   0.635  13.777  0.7065 -0.4809  0.1616
  895MPD2    C513117   3.828   0.755  13.772  0.0214  0.3410 -0.4785
  895MPD2     H13118   3.761   0.526  13.479  0.2762 -1.3555  0.8246
  895MPD2    H113119   3.955   0.622  13.857 -1.2502  0.2263  2.0334
  895MPD2    H213120   3.696   0.888  13.673 -2.4753 -0.8408  1.0031
  895MPD2    H313121   3.849   0.831  13.847 -1.4271  0.9517 -0.6863
  895MPD2     N13122   3.917   0.416  13.675  0.3215  0.9654 -0.4238
  895MPD2    H513123   3.903   0.361  13.591  2.1120  1.0025 -0.7556
  895MPD2    N113124   3.611   0.726  13.483  0.1763 -0.2102  0.1736
  895MPD2    H713125   3.593   0.658  13.409 -1.9653  1.4367 -0.8319
  896MPD2     C13126   0.104   4.016   1.235 -0.6340  0.0918 -0.2597
  896MPD2    C113127   0.168   3.912   1.166 -0.1239  0.3114 -0.3808
  896MPD2    C213128   0.093   3.813   1.119  0.1341  0.0193 -0.5329
  896MPD2    C313129   4.677   3.809   1.145  1.4134  0.8474 -0.3193
  896MPD2    C413130   4.624   3.917   1.214 -0.4442  0.8172 -0.1296
  896MPD2    C513131   4.697   4.024   1.264 -0.2400 -0.4736 -0.5590
  896MPD2     H13132   0.140   3.733   1.063  1.7448 -0.3890  1.4055
  896MPD2    H113133   4.519   3.922   1.241 -0.6004  0.2647 -0.6335
  896MPD2    H213134   0.154   4.106   1.270  0.5968 -1.4479  1.9557
  896MPD2    H313135   4.656   4.106   1.323  1.1359  0.3269 -0.7390
  896MPD2     N13136   4.589   3.709   1.103  0.4000  0.1630  0.1235
  896MPD2    H513137   4.489   3.724   1.108  0.1956 -1.2351  0.3105
  896MPD2    N113138   0.303   3.906   1.128 -0.1127 -0.1374  0.2189
  896MPD2    H713139   0.333   3.821   1.081 -3.0541 -0.8803 -0.3061
  897MPD2     C13140   2.368   0.594  10.294  0.0028 -0.1450 -0.5179
  897MPD2    C113141   2.323   0.723  10.305  0.1033  0.4537 -0.3656
  897MPD2    C213142   2.217   0.753  10.387 -0.6939 -0.1380 -0.3229
  897MPD2    C313143   2.148   0.657  10.461 -1.0236 -0.1117 -0.2203
  897MPD2    C413144   2.195   0.521  10.443 -0.4312  0.1685 -0.0352
  897MPD2    C513145   2.306   0.499  10.370  0.0036  0.8566 -0.1867
  897MPD2     H13146   2.188   0.855  10.410 -0.7066 -0.3647  0.6617
  897MPD2    H113147   2.153   0.437  10.496 -0.3767  0.5866  0.6703
  897MPD2    H213148   2.455   0.572  10.233  1.5688 -0.4044  1.8095
  897MPD2    H313149   2.352   0.401  10.356 -0.2804  0.9902 -2.1228
  897MPD2     N13150   2.040   0.694  10.541  0.2060 -0.7648 -0.8899
  897MPD2    H513151   2.011   0.791  10.542 -0.3166 -0.9158 -1.1544
  897MPD2    N113152   2.403   0.820  10.238  0.5682 -0.4702 -0.0699
  897MPD2    H713153   2.483   0.776  10.193  0.0085 -2.4029  0.8550
  898MPD2     C13154   4.379   1.273   0.213 -0.4144  0.2924  0.4414
  898MPD2    C113155   4.484   1.294   0.122  0.0123  0.3688  0.4948
  898MPD2    C213156   4.463   1.377   0.010  0.8119  0.1349  0.5724
  898MPD2    C313157   4.337   1.400  17.667  0.2126  0.2518  0.4867
  898MPD2    C413158   4.224   1.358   0.042  0.9248  0.2301 -0.1593
  898MPD2    C513159   4.247   1.306   0.169 -0.7725  0.7971 -0.4771
  898MPD2     H13160   4.542   1.422  17.651 -0.9848  1.9234 -0.4671
  898MPD2    H113161   4.123   1.371   0.005  1.4830  1.1964 -1.3500
  898MPD2    H213162   4.395   1.217   0.304  0.5205  0.5029  0.4021
  898MPD2    H313163   4.161   1.291   0.232  1.2167 -0.7692  1.8833
  898MPD2     N13164   4.325   1.476  17.551 -0.1858 -0.5360 -0.4931
  898MPD2    H513165   4.408   1.494  17.495  1.4851  0.7273  2.3681
  898MPD2    N113166   4.622   1.257   0.145  0.7474  0.6194  0.1527
  898MPD2    H713167   4.699   1.298   0.092  1.7524  0.7717  1.7505
  899MPD2     C13168   0.309   2.104  17.229  0.2130 -0.0654  0.3742
  899MPD2    C113169   0.309   2.213  17.316 -0.2728  0.0751 -0.1884
  899MPD2    C213170   0.254   2.196  17.446 -0.0156  1.2283 -0.4173
  899MPD2    C313171   0.198   2.073  17.473 -0.3303  0.1545  0.3220
  899MPD2    C413172   0.203   1.967  17.380 -0.1872 -0.6060 -0.0783
  899MPD2    C513173   0.258   1.980  17.255  0.1415 -0.2492 -0.0614
  899MPD2     H13174   0.255   2.276  17.519 -1.1214  1.7339 -0.9541
  899MPD2    H113175   0.178   1.866  17.410 -1.3370 -0.0156  0.9761
  899MPD2    H213176   0.336   2.128  17.126 -0.2316  0.2917  0.3394
  899MPD2    H313177   0.256   1.891  17.192 -0.7511 -0.6149  0.4768
  899MPD2     N13178   0.119   2.041  17.592 -0.4965  0.2815 -0.3326
  899MPD2    H513179   0.117   1.942  17.615 -1.5742  0.2898 -0.4116
  899MPD2    N113180   0.373   2.332  17.269 -0.4268  0.4756  0.1975
  899MPD2    H713181   0.404   2.329  17.172 -1.0300  1.0858 -0.0113
  900MPD2     C13182   4.488   3.848  12.898  0.0963  0.7621  0.3616
  900MPD2    C113183   4.501   3.780  12.776  0.3476 -0.5140  0.0430
  900MPD2    C213184   4.422   3.812  12.670 -0.1167  0.2771 -0.1368
  900MPD2    C313185   4.318   3.894  12.700  0.4025  0.0120  0.7383
  900MPD2    C413186   4.314   3.967  12.818 -0.3664  0.2299  0.1686
  900MPD2    C513187   4.405   3.950  12.919  0.3072  0.1403  0.2044
  900MPD2     H13188   4.427   3.760  12.575  0.2424 -0.4088  0.2556
  900MPD2    H113189   4.239   4.044  12.834  1.1432  1.8798 -0.7878
  900MPD2    H213190   4.548   3.816  12.982  0.6895 -1.5824 -0.9634
  900MPD2    H313191   4.405   4.010  13.009 -0.2492 -0.5789  0.6889
  900MPD2     N13192   4.225   3.917  12.590  0.1098 -1.2384 -0.2562
  900MPD2    H513193   4.246   3.863  12.507 -1.9237 -0.7650 -1.1008
  900MPD2    N113194   4.608   3.686  12.777  0.0165 -0.4924  0.3528
  900MPD2    H713195   4.631   3.642  12.865  0.5440 -0.7111  0.1068
  901MPD2     C13196   4.431   2.734  12.744  0.7547 -1.0369  0.5636
  901MPD2    C113197   4.570   2.719  12.707  0.2245 -0.9367  0.1324
  901MPD2    C213198   4.652   2.831  12.717 -0.3952 -0.5114 -0.1611
  901MPD2    C313199   4.594   2.946  12.767 -0.1475 -0.0071 -0.6048
  901MPD2    C413200   4.464   2.948  12.811 -0.1307  0.4638  0.6312
  901MPD2    C513201   4.379   2.847  12.790 -0.7115 -0.5167 -0.1537
  901MPD2     H13202   0.028   2.819  12.680 -0.3069 -1.7288  0.4491
  901MPD2    H113203   4.419   3.030  12.866 -1.1658 -0.0040  0.4633
  901MPD2    H213204   4.372   2.644  12.733 -3.5423  2.0475 -1.1639
  901MPD2    H313205   4.277   2.857  12.825 -0.4923 -2.8156  1.1033
  901MPD2     N13206   4.686   3.053  12.783 -0.0065 -1.0225 -0.1719
  901MPD2    H513207   0.055   3.031  12.751  0.9589 -0.4288  2.2001
  901MPD2    N113208   4.603   2.591  12.647 -0.3187 -0.0354 -0.1400
  901MPD2    H713209   4.532   2.520  12.663 -0.5406  0.3398  0.5784
  902MPD2     C13210   3.930   1.241  12.613 -0.7531  0.2380 -0.3585
  902MPD2    C113211   3.893   1.338  12.517 -0.8106  0.2487 -0.3541
  902MPD2    C213212   3.954   1.343  12.394 -0.9429  0.6037 -0.4038
  902MPD2    C313213   4.032   1.234  12.351 -0.1385  0.0913  0.4880
  902MPD2    C413214   4.051   1.129  12.445  0.0687 -0.0894 -0.1159
  902MPD2    C513215   4.005   1.139  12.572 -0.1362  0.5062 -0.4404
  902MPD2     H13216   3.932   1.432  12.337  0.7176  0.4544 -1.2849
  902MPD2    H113217   4.099   1.037  12.415 -2.3600 -1.0991 -0.8436
  902MPD2    H213218   3.878   1.246  12.708  0.2151  0.4132  0.1585
  902MPD2    H313219   4.035   1.062  12.642 -1.4094  1.8647  1.5777
  902MPD2     N13220   4.109   1.241  12.225  0.3787 -1.0318 -0.0355
  902MPD2    H513221   4.161   1.156  12.204  1.3578 -0.7877  1.4161
  902MPD2    N113222   3.821   1.450  12.562 -0.2674 -0.1668  0.2347
  902MPD2    H713223   3.818   1.466  12.663 -2.6262  1.3195 -0.0614
  903MPD2     C13224   3.866   1.719  11.691 -0.4789  0.0640  0.3502
  903MPD2    C113225   3.909   1.598  11.649 -0.3964  0.0854  0.4085
  903MPD2    C213226   3.817   1.515  11.585 -0.5137  0.2391  0.5901
  903MPD2    C313227   3.684   1.554  11.565  0.0216 -0.0351  0.1031
  903MPD2    C413228   3.645   1.681  11.611 -0.0684  0.0593  0.1197
  903MPD2    C513229   3.733   1.763  11.679  0.1570  0.3859 -0.0825
  903MPD2     H13230   3.836   1.413  11.556 -2.2877 -0.1472  0.8432
  903MPD2    H113231   3.543   1.715  11.597  0.7882  2.2508 -0.8925
  903MPD2    H213232   3.920   1.777  11.765 -3.9998  0.9781  2.1858
  903MPD2    H313233   3.708   1.859  11.723 -2.4369 -0.4586  0.2903
  903MPD2     N13234   3.607   1.443  11.518 -0.3038 -0.1377  0.6349
  903MPD2    H513235   3.649   1.357  11.484  1.0418  0.7805 -0.0363
  903MPD2    N113236   4.035   1.555  11.686  1.0176 -0.1057  0.1721
  903MPD2    H713237   4.086   1.611  11.753 -0.4600 -0.1939  1.3777
  904MPD2     C13238   3.527   0.047  14.036 -0.4313  0.8807  0.0916
  904MPD2    C113239   3.548   0.151  13.949 -0.5910 -0.4413  0.0121
  904MPD2    C213240   3.655   0.234  13.972 -0.0561  0.0380 -0.3877
  904MPD2    C313241   3.747   0.222  14.076 -0.3132  0.6826  0.6010
  904MPD2    C413242   3.724   0.111  14.153 -0.3244 -0.5681  0.4068
  904MPD2    C513243   3.622   0.021  14.128 -0.2862  0.4237  0.0685
  904MPD2     H13244   3.669   0.318  13.905 -0.5534 -1.8001 -2.7780
  904MPD2    H113245   3.797   0.088  14.231  0.2472  0.6120  0.2230
  904MPD2    H213246   3.444   4.704  14.020  0.5542  0.2343 -2.2107
  904MPD2    H313247   3.609   4.664  14.198 -2.2071  1.4088  0.8712
  904MPD2     N13248   3.844   0.323  14.104  0.3356 -0.3823 -0.1607
  904MPD2    H513249   3.847   0.403  14.041  3.3805 -0.0310  0.4486
  904MPD2    N113250   3.464   0.169  13.837  0.9053 -0.3946 -0.8154
  904MPD2    H713251   3.483   0.249  13.778  0.0443  0.0655 -0.4705
  905MPD2     C13252   3.478   0.012  13.194  0.2322 -0.2309  0.1198
  905MPD2    C113253   3.512   0.117  13.275 -0.0054  0.1373  0.2249
  905MPD2    C213254   3.637   0.132  13.319 -0.0571  0.4906 -0.2886
  905MPD2    C313255   3.738   0.039  13.297  0.7092 -0.5679  0.4548
  905MPD2    C413256   3.707   4.650  13.223  0.0419  0.3372  0.1214
  905MPD2    C513257   3.583   4.660  13.157 -0.6260  0.5061 -0.7542
  905MPD2     H13258   3.645   0.199  13.404 -1.1842 -2.5414  2.2220
  905MPD2    H113259   3.776   4.570  13.199  0.0355  0.3690 -0.0043
  905MPD2    H213260   3.380   0.002  13.149  0.3443 -3.5158  0.5587
  905MPD2    H313261   3.564   4.583  13.082  0.5786 -0.8256  0.3007
  905MPD2     N13262   3.861   0.035  13.374  0.2030 -0.0430 -0.1259
  905MPD2    H513263   3.924   4.680  13.373  0.0588 -0.1650  0.2424
  905MPD2    N113264   3.402   0.200  13.314  0.3687  0.1853 -0.1891
  905MPD2    H713265   3.310   0.177  13.279  0.1169 -3.5797  2.9297
  906MPD2     C13266   0.929   1.391  11.161  0.1056 -0.6279 -0.2573
  906MPD2    C113267   0.928   1.285  11.071  0.1620 -0.3303 -0.3187
  906MPD2    C213268   0.915   1.155  11.115  0.4309 -0.3670  0.2592
  906MPD2    C313269   0.909   1.128  11.252  0.4205 -0.1846  0.0936
  906MPD2    C413270   0.914   1.228  11.339 -0.4613 -0.2719 -0.1729
  906MPD2    C513271   0.926   1.359  11.292  0.1715 -0.2704  0.2403
  906MPD2     H13272   0.898   1.078  11.040 -0.0954 -1.7987  1.8276
  906MPD2    H113273   0.913   1.210  11.446  1.0668  1.6794  0.1709
  906MPD2    H213274   0.946   1.492  11.127 -2.7388 -0.3298 -0.7688
  906MPD2    H313275   0.948   1.441  11.359  2.8021 -1.8275  1.2834
  906MPD2     N13276   0.894   0.994  11.301  0.4173 -0.2493  0.4514
  906MPD2    H513277   0.849   0.978  11.390 -0.4479 -2.3608 -0.3614
  906MPD2    N113278   0.942   1.309  10.932  0.8160 -0.3852 -0.2711
  906MPD2    H713279   0.938   1.230  10.868 -1.0682  0.2773 -0.9739
  907MPD2     C13280   4.270   4.490  15.253  0.1375  0.0241 -0.4150
  907MPD2    C113281   4.312   4.358  15.290 -0.2136  0.0706  0.5877
  907MPD2    C213282   4.418   4.350  15.378 -0.4509  0.0683 -0.1774
  907MPD2    C313283   4.470   4.459  15.445 -0.1722 -0.0110  0.3932
  907MPD2    C413284   4.419   4.583  15.418 -0.4127 -0.0914  0.2800
  907MPD2    C513285   4.326   4.595  15.313  0.1178 -0.1259 -0.1159
  907MPD2     H13286   4.440   4.248  15.409  0.4854 -0.3214 -2.1689
  907MPD2    H113287   4.449   4.669  15.476 -0.4980  0.0696  0.0848
  907MPD2    H213288   4.190   4.501  15.182 -0.3203 -0.8795 -0.0400
  907MPD2    H313289   4.285   4.694  15.298  0.8761  0.2473  0.3068
  907MPD2     N13290   4.560   4.437  15.554  0.2684  1.4203 -0.3127
  907MPD2    H513291   4.574   4.340  15.580 -1.1617  1.3355  0.1639
  907MPD2    N113292   4.250   4.240  15.234 -0.0972 -0.0514 -0.0202
  907MPD2    H713293   4.287   4.155  15.275 -0.4685 -0.1131  0.1863
  908MPD2     C13294   2.509   0.696   9.368  0.1789  0.0619  0.4833
  908MPD2    C113295   2.469   0.624   9.481  0.0949  0.1625 -0.6405
  908MPD2    C213296   2.481   0.681   9.612  0.0250 -0.1647 -1.1379
  908MPD2    C313297   2.539   0.804   9.628 -0.0202  0.1268  0.9220
  908MPD2    C413298   2.590   0.862   9.517 -0.1353 -0.0540  0.2009
  908MPD2    C513299   2.577   0.814   9.385 -0.0630  0.7432 -0.1941
  908MPD2     H13300   2.449   0.622   9.698 -2.8458  2.9547 -0.0490
  908MPD2    H113301   2.630   0.963   9.520  1.5627 -0.6735 -2.1167
  908MPD2    H213302   2.505   0.654   9.268  0.1511  1.8225 -0.2559
  908MPD2    H313303   2.630   0.863   9.304 -0.3335  1.9417  0.3518
  908MPD2     N13304   2.526   0.871   9.751 -0.2697  0.4727 -1.1045
  908MPD2    H513305   2.442   0.841   9.800  1.3145 -1.4770  0.4271
  908MPD2    N113306   2.413   0.496   9.473  0.5417 -0.2214 -0.0435
  908MPD2    H713307   2.358   0.463   9.552 -0.9478  1.9362 -0.1619
  909MPD2     C13308   2.764   3.415  11.585  0.2809 -1.3827  0.6227
  909MPD2    C113309   2.717   3.547  11.568  1.1077  0.0862  0.0682
  909MPD2    C213310   2.631   3.604  11.660  0.0663 -0.1275  0.5715
  909MPD2    C313311   2.573   3.530  11.757  0.1950  1.0685 -0.5017
  909MPD2    C413312   2.626   3.404  11.783  0.1385 -0.4147  0.1601
  909MPD2    C513313   2.712   3.344  11.687 -0.1772  0.1540  0.0022
  909MPD2     H13314   2.592   3.704  11.646  0.7857  0.0639 -0.0704
  909MPD2    H113315   2.600   3.345  11.870  2.2124 -0.9288  0.4244
  909MPD2    H213316   2.839   3.361  11.528 -0.0757 -0.5517 -0.6233
  909MPD2    H313317   2.744   3.244  11.715 -0.8269  0.4377  1.7729
  909MPD2     N13318   2.465   3.588  11.833 -0.2178  0.3333  0.2626
  909MPD2    H513319   2.428   3.677  11.802 -0.8132  0.1488  0.4336
  909MPD2    N113320   2.752   3.631  11.464  0.6630  0.3633  0.4035
  909MPD2    H713321   2.712   3.724  11.458 -0.8974 -0.4555 -2.0230
  910MPD2     C13322   3.598   0.264  15.980 -0.2912 -0.0866  0.5727
  910MPD2    C113323   3.614   0.128  15.937  0.3712 -0.3211  0.1622
  910MPD2    C213324   3.596   0.099  15.804  0.0444  0.5314  0.4911
  910MPD2    C313325   3.576   0.197  15.713  0.0100  0.1499 -0.1669
  910MPD2    C413326   3.567   0.330  15.756  0.3238  0.1243 -0.5090
  910MPD2    C513327   3.571   0.364  15.890 -0.3381  0.5983  0.2469
  910MPD2     H13328   3.614   4.723  15.768  0.8869  0.4783  1.0745
  910MPD2    H113329   3.568   0.417  15.691  0.3360 -1.1110 -2.1664
  910MPD2    H213330   3.624   0.290  16.082  0.2241 -0.0816  0.4359
  910MPD2    H313331   3.581   0.467  15.921  0.7377 -0.2042  2.5977
  910MPD2     N13332   3.556   0.178  15.580 -0.5928  0.1149 -0.7316
  910MPD2    H513333   3.524   0.258  15.526 -0.8998  0.7222  0.3280
  910MPD2    N113334   3.654   0.026  16.021 -1.1676 -1.2237  0.0079
  910MPD2    H713335   3.661   4.658  15.979 -2.2757 -1.7280  0.9565
  911MPD2     C13336   1.325   0.838  16.298 -0.2246  0.0993  0.0779
  911MPD2    C113337   1.431   0.915  16.331  0.2579 -1.1679 -0.0431
  911MPD2    C213338   1.424   1.053  16.318  0.4365  0.4394 -0.6792
  911MPD2    C313339   1.306   1.104  16.266 -0.2737  1.1037 -0.2748
  911MPD2    C413340   1.205   1.019  16.235 -0.0993  0.1015 -0.8493
  911MPD2    C513341   1.208   0.882  16.244 -0.0314 -0.2121  0.3557
  911MPD2     H13342   1.510   1.119  16.326 -0.4212  1.1625  2.3785
  911MPD2    H113343   1.120   1.065  16.187 -0.5613  1.2087  1.0347
  911MPD2    H213344   1.328   0.731  16.314 -1.0227 -0.2397 -2.0382
  911MPD2    H313345   1.129   0.817  16.209  0.9714 -0.1480 -1.9841
  911MPD2     N13346   1.280   1.234  16.252  0.0518 -0.1644 -0.4108
  911MPD2    H513347   1.185   1.249  16.219  0.3508  2.7113 -0.0057
  911MPD2    N113348   1.545   0.849  16.386  0.4579  0.3145  0.1954
  911MPD2    H713349   1.545   0.749  16.401 -1.2770  0.6278  2.1872
  912MPD2     C13350   0.841   1.132  15.825  0.8481  0.0371  0.1456
  912MPD2    C113351   0.879   1.161  15.955  0.4686 -0.6725  0.3418
  912MPD2    C213352   0.873   1.062  16.056 -0.3644 -0.0631  0.1914
  912MPD2    C313353   0.831   0.935  16.023 -0.2690  0.3466  0.1422
  912MPD2    C413354   0.792   0.911  15.890 -0.2461 -0.5307  0.5067
  912MPD2    C513355   0.804   1.006  15.794 -0.2598  0.9814  0.0361
  912MPD2     H13356   0.880   1.094  16.160 -1.9598 -1.1704  0.6312
  912MPD2    H113357   0.753   0.816  15.856 -0.9458 -0.6992  1.7713
  912MPD2    H213358   0.846   1.201  15.742 -1.7804  0.1358  0.0487
  912MPD2    H313359   0.774   0.971  15.696 -2.1658 -0.1965  1.0495
  912MPD2     N13360   0.819   0.844  16.133 -0.9245 -0.8403 -0.2673
  912MPD2    H513361   0.836   0.882  16.226  0.5137  0.6846 -1.1536
  912MPD2    N113362   0.941   1.288  15.973 -0.0060  0.0298 -0.1467
  912MPD2    H713363   0.946   1.355  15.897 -1.7650  0.1644 -0.1550
  913MPD2     C13364   2.288   1.927  10.786  0.1827  0.8664  0.0872
  913MPD2    C113365   2.267   2.063  10.806 -0.2378 -0.1024  0.1050
  913MPD2    C213366   2.244   2.137  10.695  0.4409 -0.3268 -0.0110
  913MPD2    C313367   2.238   2.082  10.565 -0.2629  0.2568  0.1538
  913MPD2    C413368   2.270   1.945  10.552 -0.7183  0.2743  0.1249
  913MPD2    C513369   2.280   1.870  10.667 -0.0324 -0.0925 -0.5314
  913MPD2     H13370   2.225   2.241  10.716 -0.6782 -0.5421  0.0245
  913MPD2    H113371   2.267   1.891  10.458 -0.9818  1.4047 -0.5201
  913MPD2    H213372   2.321   1.861  10.865  1.1135  2.7599  1.2638
  913MPD2    H313373   2.295   1.763  10.657  1.4385 -0.0534  1.4090
  913MPD2     N13374   2.212   2.154  10.449 -0.2245 -0.0233  0.0036
  913MPD2    H513375   2.217   2.092  10.369  1.4930  0.6069 -0.3675
  913MPD2    N113376   2.277   2.112  10.935  0.5601 -0.6030  0.4937
  913MPD2    H713377   2.271   2.045  11.011 -0.3707 -0.9623  0.1061
  914MPD2     C13378   4.159   2.085  12.064 -0.7984  0.2685  0.0650
  914MPD2    C113379   4.224   2.208  12.052  0.2327 -0.5962 -0.2893
  914MPD2    C213380   4.322   2.252  12.142 -0.3369  0.8073  1.1677
  914MPD2    C313381   4.357   2.164  12.247 -0.0121 -0.3525 -0.3449
  914MPD2    C413382   4.287   2.045  12.262 -0.0047  0.1081  0.4453
  914MPD2    C513383   4.192   2.011  12.174 -0.1600 -0.6820  0.2613
  914MPD2     H13384   4.373   2.345  12.119 -1.3933  0.9470 -0.6800
  914MPD2    H113385   4.313   1.980  12.345 -1.1447 -0.2228  0.5390
  914MPD2    H213386   4.086   2.049  11.993 -0.3644  0.0954 -0.2941
  914MPD2    H313387   4.136   1.921  12.196 -2.1422  0.3493 -0.5317
  914MPD2     N13388   4.460   2.207  12.340 -0.6995 -0.0341  0.5764
  914MPD2    H513389   4.498   2.299  12.320  0.6762 -0.2881  2.0597
  914MPD2    N113390   4.194   2.283  11.935  0.0489  0.9626  0.2369
  914MPD2    H713391   4.141   2.233  11.864  2.1089 -0.7906 -0.0415
  915MPD2     C13392   2.700   2.082  15.378  0.1042  0.9258  0.4636
  915MPD2    C113393   2.565   2.064  15.400 -0.7312  0.0660 -0.2297
  915MPD2    C213394   2.506   2.095  15.524 -0.3313 -0.0567  0.1321
  915MPD2    C313395   2.593   2.127  15.631  0.4536  0.0031  0.0083
  915MPD2    C413396   2.723   2.152  15.605 -0.0240  0.3999  0.1289
  915MPD2    C513397   2.778   2.119  15.484 -0.6508  0.9694 -0.4353
  915MPD2     H13398   2.401   2.086  15.550 -0.2780  2.6307  1.2237
  915MPD2    H113399   2.792   2.179  15.684  1.8772  0.4950 -1.5780
  915MPD2    H213400   2.751   2.061  15.285  0.3702  0.7399  0.6511
  915MPD2    H313401   2.885   2.121  15.472 -0.7137 -1.2150 -1.4213
  915MPD2     N13402   2.547   2.159  15.754  0.6553 -0.4862  0.0941
  915MPD2    H513403   2.610   2.212  15.814  1.5909  0.6958 -1.9313
  915MPD2    N113404   2.496   1.994  15.302 -1.2228 -0.7775  0.2263
  915MPD2    H713405   2.549   1.973  15.219 -3.3909  0.8083 -1.5569
  916MPD2     C13406   0.632   0.797  15.545 -0.3886 -0.4388 -0.2068
  916MPD2    C113407   0.603   0.686  15.625  0.3306 -0.7120  0.0936
  916MPD2    C213408   0.640   0.563  15.581  0.5406  1.1910 -0.6855
  916MPD2    C313409   0.698   0.546  15.456  0.0400  0.5193  0.9511
  916MPD2    C413410   0.728   0.655  15.384 -0.2253 -0.4721  0.2273
  916MPD2    C513411   0.707   0.776  15.436  0.1020 -0.1132 -0.3222
  916MPD2     H13412   0.609   0.476  15.637 -1.3544  2.0159 -0.4573
  916MPD2    H113413   0.791   0.650  15.296  0.7200 -0.1194  0.8813
  916MPD2    H213414   0.603   0.901  15.556 -0.4032 -0.3230 -1.3360
  916MPD2    H313415   0.747   0.859  15.379 -1.6394  0.0795 -1.2558
  916MPD2     N13416   0.729   0.413  15.423  0.0076  0.2795  0.3134
  916MPD2    H513417   0.706   0.345  15.495 -1.7937 -0.3281 -0.8205
  916MPD2    N113418   0.529   0.712  15.739  0.5214  0.0510  0.0901
  916MPD2    H713419   0.502   0.809  15.753 -0.7967 -0.6766  2.5134
  917MPD2     C13420   1.392   2.906  11.053  0.6413  0.5309  0.9742
  917MPD2    C113421   1.415   2.943  11.180 -0.5884 -0.2644  0.1723
  917MPD2    C213422   1.537   3.008  11.203  0.2296 -0.1619  0.5180
  917MPD2    C313423   1.618   3.030  11.101 -0.3830  0.7826  0.5934
  917MPD2    C413424   1.580   3.011  10.971  0.1854 -0.0164 -0.2278
  917MPD2    C513425   1.469   2.947  10.949 -0.1842 -0.5296  0.0814
  917MPD2     H13426   1.564   3.044  11.301 -1.7517  3.5638 -0.3184
  917MPD2    H113427   1.643   3.028  10.885 -1.1951 -0.0077 -1.2509
  917MPD2    H213428   1.309   2.839  11.032  0.6202  0.6860  0.5637
  917MPD2    H313429   1.448   2.912  10.848  0.6779  2.8436 -1.2677
  917MPD2     N13430   1.742   3.097  11.109 -0.6661 -0.2906  0.4576
  917MPD2    H513431   1.776   3.136  11.022  2.4688  0.1004  1.8814
  917MPD2    N113432   1.315   2.925  11.281 -0.1718  0.3356  0.4665
  917MPD2    H713433   1.233   2.882  11.239  1.4587  0.8917 -3.3570
  918MPD2     C13434   1.333   3.342  12.184  0.4789 -0.7623  0.1280
  918MPD2    C113435   1.402   3.228  12.149  0.0346 -0.2936  0.6880
  918MPD2    C213436   1.357   3.143  12.053 -0.1616  0.6729 -0.1565
  918MPD2    C313437   1.237   3.167  11.992  0.4500  0.6042 -0.9175
  918MPD2    C413438   1.161   3.271  12.041 -0.9004 -0.3615  0.1352
  918MPD2    C513439   1.212   3.364  12.128  1.3847  0.2197  0.2949
  918MPD2     H13440   1.422   3.065  12.013  1.8462  1.8626  0.7907
  918MPD2    H113441   1.067   3.297  11.995  1.3134 -0.0022 -4.2284
  918MPD2    H213442   1.370   3.410  12.260 -1.6259  1.3859 -0.7634
  918MPD2    H313443   1.147   3.447  12.152  1.3762  0.0146  0.9738
  918MPD2     N13444   1.196   3.089  11.877  0.4840  0.7893  0.0524
  918MPD2    H513445   1.256   3.016  11.840 -1.6853 -0.9108 -0.0941
  918MPD2    N113446   1.523   3.211  12.198 -0.6692 -0.9002  0.1120
  918MPD2    H713447   1.564   3.121  12.176 -1.6196 -1.9339  2.5135
  919MPD2     C13448   1.901   2.327  11.332 -0.4993  0.1229  0.5060
  919MPD2    C113449   1.873   2.199  11.292 -0.3914 -0.6751 -0.0683
  919MPD2    C213450   1.877   2.165  11.159 -0.1869 -0.0149  0.7233
  919MPD2    C313451   1.908   2.268  11.058  0.0085  0.0213  0.0196
  919MPD2    C413452   1.925   2.397  11.103 -0.4033  0.3667 -0.2732
  919MPD2    C513453   1.919   2.428  11.235  0.5514 -0.2293  0.4182
  919MPD2     H13454   1.868   2.061  11.131  0.0993  0.3093 -0.5661
  919MPD2    H113455   1.946   2.478  11.033 -0.7483 -0.1409 -0.9689
  919MPD2    H213456   1.888   2.351  11.437 -0.4248  1.3624  0.2349
  919MPD2    H313457   1.945   2.526  11.275 -0.4671  0.8309 -1.5625
  919MPD2     N13458   1.912   2.242  10.922  0.1245 -0.0985 -0.0831
  919MPD2    H513459   1.933   2.320  10.860  1.1903 -0.8803 -0.6851
  919MPD2    N113460   1.845   2.095  11.386  0.4322  0.6123 -0.1680
  919MPD2    H713461   1.814   2.006  11.348 -3.3705  0.8309  2.4493
  920MPD2     C13462   1.514   2.498  10.052 -0.1141 -0.4829  0.1619
  920MPD2    C113463   1.533   2.362  10.032 -0.2864 -0.0518  0.6360
  920MPD2    C213464   1.597   2.296  10.131  0.4373  0.4975  1.2578
  920MPD2    C313465   1.665   2.355  10.237  0.3468 -0.6995  0.5118
  920MPD2    C413466   1.634   2.487  10.260  0.1625 -0.4095  0.2725
  920MPD2    C513467   1.573   2.561  10.160 -0.5873 -0.3465  0.2312
  920MPD2     H13468   1.594   2.188  10.121  1.9204  0.4737  1.1420
  920MPD2    H113469   1.684   2.540  10.341 -3.0114  1.6824  0.8645
  920MPD2    H213470   1.444   2.557   9.996 -2.0918 -1.1192  1.9650
  920MPD2    H313471   1.542   2.664  10.170  2.3679  0.7647 -2.0931
  920MPD2     N13472   1.749   2.277  10.317  0.9345  0.4750 -0.8341
  920MPD2    H513473   1.767   2.183  10.282 -1.0293  0.1061 -0.8498
  920MPD2    N113474   1.460   2.287   9.937  0.4532 -0.1446  0.3527
  920MPD2    H713475   1.457   2.187   9.949  0.5903 -0.1370  0.4444
  921MPD2     C13476   2.582   0.613  16.564 -0.6531 -0.1683 -0.5078
  921MPD2    C113477   2.527   0.716  16.489 -0.3082 -0.0671 -0.3445
  921MPD2    C213478   2.392   0.728  16.497  0.2309 -0.5602  0.3903
  921MPD2    C313479   2.313   0.648  16.580 -0.3069 -0.4631  0.7833
  921MPD2    C413480   2.371   0.546  16.652  0.1434  0.0820  0.2083
  921MPD2    C513481   2.505   0.534  16.647  0.1544  0.6273 -0.6075
  921MPD2     H13482   2.347   0.798  16.427  1.5294 -0.4314 -0.3138
  921MPD2    H113483   2.305   0.485  16.713 -0.7378  1.3003  0.4745
  921MPD2    H213484   2.689   0.595  16.564 -0.2842  1.9467 -1.8957
  921MPD2    H313485   2.561   0.465  16.709  0.0342  0.8059 -0.2999
  921MPD2     N13486   2.175   0.652  16.580 -1.1183  0.1233 -0.0544
  921MPD2    H513487   2.121   0.584  16.633 -1.9128  0.1808 -0.7961
  921MPD2    N113488   2.611   0.780  16.393 -0.0862  0.2885 -0.0257
  921MPD2    H713489   2.706   0.745  16.392  0.3690  1.4932  1.7438
  922MPD2     C13490   3.081   3.458  17.187  0.2410  0.3651 -0.3418
  922MPD2    C113491   2.979   3.494  17.095  0.4242 -0.1338 -0.4653
  922MPD2    C213492   2.916   3.396  17.030 -0.3050  0.5737  0.3443
  922MPD2    C313493   2.946   3.265  17.043  0.4442 -0.0818  0.1342
  922MPD2    C413494   3.050   3.225  17.123 -0.0397 -0.1800 -0.1987
  922MPD2    C513495   3.118   3.322  17.195  0.5511 -0.2069  0.5696
  922MPD2     H13496   2.842   3.420  16.955 -1.1984  2.9420  2.0008
  922MPD2    H113497   3.074   3.120  17.133  0.5905  0.3510  3.9636
  922MPD2    H213498   3.139   3.528  17.247  0.1239  0.3464 -0.2072
  922MPD2    H313499   3.194   3.285  17.263 -1.0327  0.2450  2.5676
  922MPD2     N13500   2.869   3.169  16.970 -0.4354  0.4817 -0.0748
  922MPD2    H513501   2.782   3.207  16.934  0.6882  0.3187 -2.9878
  922MPD2    N113502   2.949   3.624  17.055  0.0108 -0.1689 -0.1951
  922MPD2    H713503   2.888   3.637  16.975 -1.1282 -3.2836  0.1662
  923MPD2     C13504   0.258   1.239   8.657  0.7709 -0.2570 -0.0676
  923MPD2    C113505   0.283   1.268   8.790 -0.1094 -0.0794 -0.0565
  923MPD2    C213506   0.350   1.175   8.868 -0.0824 -0.3567  0.5996
  923MPD2    C313507   0.393   1.059   8.808  0.6153 -1.2347 -0.0687
  923MPD2    C413508   0.370   1.031   8.681 -0.5740 -0.0608 -0.2269
  923MPD2    C513509   0.298   1.120   8.606  0.6513 -0.1669  0.3006
  923MPD2     H13510   0.381   1.203   8.968  1.6253  0.6267 -0.1904
  923MPD2    H113511   0.400   0.935   8.642 -0.4533  0.8411 -2.3923
  923MPD2    H213512   0.189   1.300   8.601  1.6774  1.5444  0.7608
  923MPD2    H313513   0.275   1.098   8.502  0.8959  1.1289 -0.0265
  923MPD2     N13514   0.481   0.959   8.865  0.2703 -0.0550  0.0747
  923MPD2    H513515   0.513   0.883   8.806  1.5361  1.3297 -1.0026
  923MPD2    N113516   0.231   1.388   8.846 -0.7788 -0.7489 -0.4953
  923MPD2    H713517   0.185   1.447   8.778  0.0088  0.1085 -0.2827
  924MPD2     C13518   0.111   3.639  15.685  0.7676 -0.2556  0.6570
  924MPD2    C113519   0.139   3.698  15.808  0.1203 -0.1927  0.0057
  924MPD2    C213520   0.147   3.835  15.821  0.2557  0.0220 -0.2122
  924MPD2    C313521   0.102   3.918  15.714  0.0463  0.7151  0.6500
  924MPD2    C413522   0.080   3.856  15.591  0.0012 -0.3957  0.3852
  924MPD2    C513523   0.080   3.717  15.587 -0.0410  0.8357  0.0022
  924MPD2     H13524   0.186   3.882  15.910  0.3065 -1.5682  0.5886
  924MPD2    H113525   0.040   3.906  15.504 -0.7738  0.2970  1.1466
  924MPD2    H213526   0.105   3.533  15.665  0.2085  0.2187 -1.7045
  924MPD2    H313527   0.059   3.676  15.489  0.1849  0.8564 -0.0534
  924MPD2     N13528   0.108   4.059  15.709 -0.1161 -0.1686  0.1338
  924MPD2    H513529   0.094   4.100  15.618 -0.6920 -0.1329  0.2332
  924MPD2    N113530   0.165   3.605  15.911 -0.1224  0.1766 -0.1225
  924MPD2    H713531   0.201   3.516  15.879  0.1609  0.6855 -1.2171
  925MPD2     C13532   3.456   1.606  14.464 -0.4649 -0.1978  0.3661
  925MPD2    C113533   3.378   1.588  14.347 -0.0502 -0.1074  0.7208
  925MPD2    C213534   3.242   1.544  14.367 -0.5119 -0.2617 -0.2045
  925MPD2    C313535   3.187   1.527  14.491 -0.2108  0.1720 -0.4582
  925MPD2    C413536   3.265   1.548  14.603 -0.6453 -0.0737  0.4316
  925MPD2    C513537   3.397   1.582  14.583 -0.1533  0.1444  0.0097
  925MPD2     H13538   3.184   1.514  14.281  0.3708 -0.9781 -0.5468
  925MPD2    H113539   3.229   1.531  14.704 -2.9858  0.5051 -0.3149
  925MPD2    H213540   3.556   1.646  14.462 -0.3061 -0.6261 -0.2052
  925MPD2    H313541   3.466   1.602  14.665 -2.2008 -2.2601  2.3386
  925MPD2     N13542   3.055   1.482  14.504  0.3470  0.1235 -0.1631
  925MPD2    H513543   2.997   1.445  14.429 -1.9381  0.8946  1.2291
  925MPD2    N113544   3.423   1.611  14.211  0.4180 -0.3375 -0.3488
  925MPD2    H713545   3.351   1.613  14.139 -1.6335 -1.2483  1.6874
  926MPD2     C13546   1.738   4.557  13.581 -0.1773  0.2540  0.6592
  926MPD2    C113547   1.704   4.458  13.498 -0.5036 -0.0806  0.8279
  926MPD2    C213548   1.775   4.449  13.378  0.5774 -0.0774 -0.9684
  926MPD2    C313549   1.874   4.542  13.340 -0.4066  1.2696 -0.1254
  926MPD2    C413550   1.905   4.644  13.427 -0.5625  0.8654 -0.2292
  926MPD2    C513551   1.841   4.644  13.545 -0.2919  0.6709 -0.7374
  926MPD2     H13552   1.741   4.377  13.305  0.8173 -0.6628 -0.5024
  926MPD2    H113553   1.965   0.006  13.404  1.0108  0.3002  1.7814
  926MPD2    H213554   1.689   4.573  13.676  0.0828  0.7900  0.7035
  926MPD2    H313555   1.855   0.006  13.608 -0.0650  0.4938 -0.5475
  926MPD2     N13556   1.911   4.557  13.202 -0.4150  0.4966  0.0846
  926MPD2    H513557   1.993   4.611  13.177 -0.6427  1.6982  1.8887
  926MPD2    N113558   1.599   4.366  13.530  0.2600  0.1300  0.2031
  926MPD2    H713559   1.594   4.283  13.471  1.5300 -0.9786  1.6553
  927MPD2     C13560   2.520   2.354   0.324 -0.1128  0.3751  0.1022
  927MPD2    C113561   2.409   2.404   0.279  0.4112 -0.1766  0.3996
  927MPD2    C213562   2.372   2.403   0.142  0.1916  0.6299 -0.3050
  927MPD2    C313563   2.455   2.352   0.054 -0.1988  0.1550 -0.1143
  927MPD2    C413564   2.578   2.314   0.095  0.2248 -0.2027  0.5148
  927MPD2    C513565   2.614   2.311   0.229 -0.2658 -0.0872  0.1812
  927MPD2     H13566   2.280   2.453   0.116 -0.6081 -1.0062 -0.6179
  927MPD2    H113567   2.654   2.269   0.031  1.4198  1.4970  0.7254
  927MPD2    H213568   2.548   2.357   0.429  0.1929 -0.7991  0.0531
  927MPD2    H313569   2.710   2.278   0.268 -0.1609  0.3899  0.3294
  927MPD2     N13570   2.410   2.350  17.623 -0.2992 -0.0408 -0.3743
  927MPD2    H513571   2.325   2.400  17.599  0.8928  1.5622 -1.2249
  927MPD2    N113572   2.312   2.440   0.375 -0.7121 -0.3945 -0.2351
  927MPD2    H713573   2.334   2.427   0.473 -1.6887 -1.8027 -0.1934
  928MPD2     C13574   1.099   0.778   1.413  0.1270  0.3502  0.5563
  928MPD2    C113575   0.962   0.736   1.410 -0.4400  0.0710 -0.0935
  928MPD2    C213576   0.903   0.741   1.288  0.1854 -0.2311 -0.2115
  928MPD2    C313577   0.972   0.773   1.171  0.6804  0.2906  0.0563
  928MPD2    C413578   1.102   0.801   1.176 -0.2707  0.6860 -0.1995
  928MPD2    C513579   1.162   0.803   1.294  0.1589  0.9161 -0.0533
  928MPD2     H13580   0.804   0.698   1.279 -0.3679  1.1359 -0.8000
  928MPD2    H113581   1.150   0.831   1.083  0.5188  0.5455  0.1650
  928MPD2    H213582   1.159   0.773   1.503  0.0107 -0.2803  0.5995
  928MPD2    H313583   1.269   0.815   1.282  0.3448  0.3931  1.1300
  928MPD2     N13584   0.921   0.788   1.042  0.3465 -0.2112  0.3318
  928MPD2    H513585   0.990   0.809   0.971 -0.0758  1.2342  0.3547
  928MPD2    N113586   0.900   0.687   1.528 -0.5899 -0.1441 -0.6879
  928MPD2    H713587   0.959   0.667   1.608  0.2700  0.7023 -1.1112
  929MPD2     C13588   0.404   1.054  10.237  0.0612  0.6628  0.0977
  929MPD2    C113589   0.349   0.933  10.271  0.6075  0.1881  0.1344
  929MPD2    C213590   0.235   0.884  10.212 -0.4452 -0.7205 -0.0202
  929MPD2    C313591   0.162   0.968  10.126  0.1831 -0.0685  0.5711
  929MPD2    C413592   0.222   1.088  10.088 -0.6083 -0.1788  0.8384
  929MPD2    C513593   0.342   1.127  10.141  0.1849  0.4031 -0.2274
  929MPD2     H13594   0.198   0.787  10.240 -0.8755 -1.1955 -2.2307
  929MPD2    H113595   0.172   1.152  10.017 -0.3115 -0.5734  0.2655
  929MPD2    H213596   0.498   1.095  10.273  0.6652 -0.5719 -0.0617
  929MPD2    H313597   0.377   1.226  10.110  1.1956  0.8719  2.4388
  929MPD2     N13598   0.035   0.936  10.079 -0.0425  0.0526 -0.1769
  929MPD2    H513599   4.715   1.012  10.027 -1.5732  0.8383  2.2883
  929MPD2    N113600   0.415   0.871  10.377  0.0957 -0.3615 -0.4495
  929MPD2    H713601   0.478   0.934  10.426 -0.6644  1.2408 -1.5459
  930MPD2     C13602   1.838   2.758  14.509  0.7520  0.6702  1.0290
  930MPD2    C113603   1.760   2.859  14.460 -0.2585 -0.5323 -0.1180
  930MPD2    C213604   1.659   2.829  14.374 -0.0873  0.3349 -0.6852
  930MPD2    C313605   1.633   2.695  14.336 -0.2250  0.6772  0.5301
  930MPD2    C413606   1.698   2.593  14.406 -0.1287  0.3459 -0.1222
  930MPD2    C513607   1.808   2.626  14.484 -0.0292 -0.1270  0.3983
  930MPD2     H13608   1.615   2.914  14.322  0.7578  1.0843 -0.1841
  930MPD2    H113609   1.684   2.489  14.378  0.0175  0.6747 -1.4285
  930MPD2    H213610   1.915   2.775  14.584 -0.5457  1.7131  2.1341
  930MPD2    H313611   1.871   2.544  14.517  1.3025  0.8980  0.4390
  930MPD2     N13612   1.547   2.656  14.232 -1.1163 -0.2269 -0.3571
  930MPD2    H513613   1.553   2.559  14.204 -0.3989  0.7884 -3.7312
  930MPD2    N113614   1.797   2.985  14.496 -0.4985 -0.2274 -0.6587
  930MPD2    H713615   1.889   2.987  14.540 -0.3726  0.9407 -0.9833
  931MPD2     C13616   2.469   2.436   0.991 -0.2096 -0.7416 -0.2793
  931MPD2    C113617   2.330   2.413   0.983  0.2817 -0.1496 -0.0894
  931MPD2    C213618   2.263   2.381   1.105 -0.9173  0.4564 -0.4211
  931MPD2    C313619   2.339   2.346   1.217 -1.0475 -0.7243 -0.2239
  931MPD2    C413620   2.477   2.365   1.220  0.0114 -0.4265 -0.1465
  931MPD2    C513621   2.536   2.408   1.108  0.1252 -0.3712  0.0268
  931MPD2     H13622   2.156   2.369   1.102 -1.0491  1.6534 -0.5325
  931MPD2    H113623   2.531   2.342   1.311  0.2502 -0.8371 -0.3935
  931MPD2    H213624   2.529   2.474   0.909  0.7428 -0.3132  0.6164
  931MPD2    H313625   2.642   2.425   1.116  0.0763 -0.3658  0.7213
  931MPD2     N13626   2.273   2.285   1.330  0.0153 -0.3623  0.3674
  931MPD2    H513627   2.334   2.248   1.402  0.7813 -0.0089 -0.0957
  931MPD2    N113628   2.269   2.426   0.857 -0.0689  0.2968  0.5141
  931MPD2    H713629   2.327   2.437   0.774 -0.6414 -2.1272 -0.2037
  932MPD2     C13630   3.131   1.801  11.319 -0.3589  0.5020  0.0669
  932MPD2    C113631   3.265   1.812  11.289  0.6696  0.7606 -0.1976
  932MPD2    C213632   3.334   1.705  11.225  0.0507 -0.0450 -0.2990
  932MPD2    C313633   3.260   1.592  11.193  0.2275  0.1917  0.7685
  932MPD2    C413634   3.122   1.596  11.215  0.1974  0.4739  0.1406
  932MPD2    C513635   3.055   1.698  11.282 -0.0759 -0.5730 -0.2191
  932MPD2     H13636   3.442   1.713  11.216 -0.2187  2.1884 -1.5326
  932MPD2    H113637   3.066   1.509  11.184  0.7033  1.6803 -4.1771
  932MPD2    H213638   3.074   1.878  11.368 -0.2518 -0.1363  1.1964
  932MPD2    H313639   2.949   1.694  11.300 -0.5778  2.8263 -2.3616
  932MPD2     N13640   3.313   1.475  11.136 -0.1014  0.0818 -0.2133
  932MPD2    H513641   3.251   1.396  11.120  0.7075 -0.6148  0.0421
  932MPD2    N113642   3.335   1.935  11.317  0.7386 -0.3328  0.6941
  932MPD2    H713643   3.434   1.944  11.301  0.7660 -0.4217  0.8118
  933MPD2     C13644   0.351   0.343   2.187  0.2220  0.6307 -0.4570
  933MPD2    C113645   0.352   0.402   2.064  0.2175  0.5831  0.4392
  933MPD2    C213646   0.233   0.457   2.026 -0.3061 -0.2077 -0.0820
  933MPD2    C313647   0.115   0.443   2.100 -0.2103  0.2384 -0.2787
  933MPD2    C413648   0.111   0.387   2.225 -0.7579  0.2684 -0.6394
  933MPD2    C513649   0.235   0.341   2.269  0.2481 -0.4692  0.4244
  933MPD2     H13650   0.224   0.501   1.928 -3.0676 -1.4438 -0.3864
  933MPD2    H113651   0.022   0.371   2.285  0.2918  0.1856  0.9130
  933MPD2    H213652   0.441   0.307   2.235 -0.0256 -3.2837 -2.8598
  933MPD2    H313653   0.244   0.289   2.365 -0.5663 -2.5376 -0.6071
  933MPD2     N13654   4.720   0.498   2.038  0.1031  0.4430  0.2055
  933MPD2    H513655   0.010   0.555   1.955  1.2412 -0.0196  0.0899
  933MPD2    N113656   0.474   0.415   1.990  0.4345 -0.5947  0.1105
  933MPD2    H713657   0.557   0.389   2.043  0.0647 -1.4508  0.2667
  934MPD2     C13658   4.544   3.732   1.462 -0.4173  0.3414 -0.1848
  934MPD2    C113659   4.616   3.613   1.446  0.6120  0.3566 -0.1015
  934MPD2    C213660   4.545   3.496   1.407 -0.4833 -0.2081  0.1692
  934MPD2    C313661   4.409   3.491   1.406  0.6233 -0.4346  0.4933
  934MPD2    C413662   4.336   3.606   1.423 -0.1503 -0.2787 -0.2519
  934MPD2    C513663   4.406   3.726   1.440  0.0201 -0.4790  0.6136
  934MPD2     H13664   4.607   3.409   1.382 -0.3684  0.1870 -0.9509
  934MPD2    H113665   4.229   3.612   1.405 -0.2505 -0.1808  0.3602
  934MPD2    H213666   4.595   3.823   1.494  0.2784  0.3612 -1.3383
  934MPD2    H313667   4.347   3.816   1.451 -1.0131 -0.8651 -1.6010
  934MPD2     N13668   4.332   3.367   1.401 -0.1727 -0.0745 -0.0084
  934MPD2    H513669   4.231   3.371   1.415 -0.3244 -3.4771 -0.0139
  934MPD2    N113670   0.030   3.610   1.453  0.7052 -0.3112  0.8470
  934MPD2    H713671   0.077   3.522   1.434  0.6783  0.3373 -2.3142
  935MPD2     C13672   4.460   2.287   1.174 -0.0576  0.1970 -0.0413
  935MPD2    C113673   4.541   2.388   1.215 -0.1733  0.2419 -0.5178
  935MPD2    C213674   4.488   2.509   1.259 -0.7484 -0.0976  0.1344
  935MPD2    C313675   4.352   2.534   1.251 -0.0415  0.3296  0.0399
  935MPD2    C413676   4.269   2.433   1.208  0.2530  0.0660 -0.0178
  935MPD2    C513677   4.317   2.306   1.182  0.0242  0.0480 -0.1498
  935MPD2     H13678   4.562   2.582   1.290  0.7440 -2.0884  1.2386
  935MPD2    H113679   4.170   2.461   1.175  1.0465  3.6887  0.6587
  935MPD2    H213680   4.511   2.200   1.136  0.2489  0.7558 -0.8995
  935MPD2    H313681   4.244   2.232   1.150 -0.3967  0.4774 -0.1734
  935MPD2     N13682   4.300   2.659   1.286  0.6403  0.4371  0.8063
  935MPD2    H513683   4.210   2.685   1.248 -0.1465 -2.4680  0.7440
  935MPD2    N113684   4.684   2.391   1.202  0.3157 -0.0486 -0.0551
  935MPD2    H713685   0.010   2.472   1.235 -0.1381 -0.0547  0.6432
  936MPD2     C13686   3.925   0.379  12.331 -0.5914 -0.0460 -0.1458
  936MPD2    C113687   3.980   0.333  12.443 -0.5104 -0.6561  0.7605
  936MPD2    C213688   4.056   0.424  12.516 -0.4592  0.7613 -0.2304
  936MPD2    C313689   4.079   0.553  12.477 -0.3195  0.4779  0.0296
  936MPD2    C413690   4.027   0.596  12.363 -0.1386  0.0720 -0.0361
  936MPD2    C513691   3.951   0.508  12.289  0.2258  0.2661  0.4814
  936MPD2     H13692   4.105   0.397  12.609  0.9539 -0.2463 -1.2694
  936MPD2    H113693   4.050   0.694  12.321  3.2340 -1.2877 -1.4367
  936MPD2    H213694   3.866   0.312  12.270  1.8329 -0.7612 -1.7282
  936MPD2    H313695   3.910   0.542  12.194  1.3526 -4.0181 -1.5338
  936MPD2     N13696   4.169   0.623  12.565 -0.0761 -0.0802  0.1392
  936MPD2    H513697   4.196   0.573  12.649 -3.4285  0.0355  1.2967
  936MPD2    N113698   3.971   0.201  12.495  0.1746  0.1439  0.0510
  936MPD2    H713699   4.016   0.189  12.585 -0.6310  0.2107  0.4698
  937MPD2     C13700   2.144   1.459  11.393 -1.4349  0.2045  0.1681
  937MPD2    C113701   2.157   1.598  11.394 -0.2317 -0.2821  0.8760
  937MPD2    C213702   2.267   1.647  11.329 -0.2237  0.1001 -0.3391
  937MPD2    C313703   2.349   1.567  11.253  0.3966 -0.7635  0.1665
  937MPD2    C413704   2.313   1.434  11.233 -0.1243 -0.4480  0.0321
  937MPD2    C513705   2.211   1.378  11.306 -0.5567  0.3116 -0.1301
  937MPD2     H13706   2.288   1.754  11.329  0.7240 -0.0833 -0.6478
  937MPD2    H113707   2.367   1.357  11.179 -2.0889 -0.9726 -1.2075
  937MPD2    H213708   2.076   1.408  11.460  1.0885  0.0708  2.6115
  937MPD2    H313709   2.189   1.273  11.286  0.7817 -0.6004  3.1354
  937MPD2     N13710   2.446   1.626  11.176  0.7995 -0.5920 -0.9360
  937MPD2    H513711   2.469   1.721  11.202  0.0830 -1.0135  1.2354
  937MPD2    N113712   2.088   1.682  11.487  0.2872  0.2694 -0.7864
  937MPD2    H713713   2.110   1.781  11.490 -0.2196  0.3860 -0.9155
  938MPD2     C13714   4.695   2.053   0.496  0.3474 -0.0180 -0.1133
  938MPD2    C113715   4.642   2.130   0.604 -0.0625 -0.5506  0.7006
  938MPD2    C213716   4.641   2.066   0.723 -0.1862 -0.4549  0.5769
  938MPD2    C313717   4.678   1.931   0.744 -0.0308  0.3120 -0.3752
  938MPD2    C413718   0.022   1.867   0.640  0.9017  0.3726  0.1726
  938MPD2    C513719   0.030   1.928   0.516  0.0674  0.4494 -0.0175
  938MPD2     H13720   4.609   2.120   0.811  1.5587  2.1527 -0.4040
  938MPD2    H113721   0.062   1.768   0.653 -2.4764 -0.8002  1.6262
  938MPD2    H213722   4.702   2.093   0.395 -3.0402  0.1871 -0.2760
  938MPD2    H313723   0.054   1.871   0.427  1.5588 -0.1710  0.7971
  938MPD2     N13724   4.666   1.859   0.865 -0.2063 -0.2422  0.2104
  938MPD2    H513725   4.717   1.772   0.866 -0.8477 -0.6319 -0.6859
  938MPD2    N113726   4.585   2.259   0.601  0.2166 -0.6349  0.4830
  938MPD2    H713727   4.549   2.296   0.689  1.3730 -0.7480  0.9950
  939MPD2     C13728   0.115   3.801   0.751  0.7662  0.1512 -0.5229
  939MPD2    C113729   0.069   3.822   0.622  0.0210  0.5206 -0.1266
  939MPD2    C213730   0.156   3.797   0.512  0.7950  0.0862 -0.2873
  939MPD2    C313731   0.285   3.755   0.527  0.7446 -0.7015 -0.1266
  939MPD2    C413732   0.332   3.746   0.655  0.1288  0.6740  0.7328
  939MPD2    C513733   0.241   3.753   0.760  0.7338  0.5830  0.8072
  939MPD2     H13734   0.110   3.806   0.414  1.0606 -1.9623 -0.5937
  939MPD2    H113735   0.425   3.699   0.688  0.4425 -0.6776 -2.1341
  939MPD2    H213736   0.051   3.821   0.836  0.2638 -3.0796 -0.1353
  939MPD2    H313737   0.280   3.739   0.860 -0.0324 -0.2315  0.9932
  939MPD2     N13738   0.374   3.732   0.416 -0.0954 -0.5783  0.5321
  939MPD2    H513739   0.350   3.774   0.327  2.3104  1.6120  0.9121
  939MPD2    N113740   4.655   3.858   0.612 -0.0934  0.3079  0.4512
  939MPD2    H713741   4.599   3.854   0.696 -1.0605  0.6014 -0.1826
  940MPD2     C13742   4.570   4.022  13.387  0.2532  0.1810 -0.3227
  940MPD2    C113743   4.637   4.127  13.444  0.2483 -0.3206 -0.0798
  940MPD2    C213744   4.682   4.229  13.360 -0.3658 -0.3404  0.0429
  940MPD2    C313745   4.659   4.227  13.221  0.8672 -0.3079  0.9889
  940MPD2    C413746   4.607   4.114  13.168  0.1382  0.3193 -0.3004
  940MPD2    C513747   4.561   4.010  13.250 -0.0939  0.9854 -0.3832
  940MPD2     H13748   0.021   4.303  13.409 -1.5562  0.7280 -0.0147
  940MPD2    H113749   4.599   4.098  13.061  3.6063 -1.3685 -0.3166
  940MPD2    H213750   4.510   3.959  13.451  1.6670 -0.5507  0.2686
  940MPD2    H313751   4.501   3.929  13.210 -0.9674  2.0745 -1.2849
  940MPD2     N13752   4.721   4.329  13.136 -0.0092  0.6944 -0.8981
  940MPD2    H513753   4.715   4.309  13.037 -2.2153 -2.7291 -0.0950
  940MPD2    N113754   4.650   4.151  13.577 -0.3125 -0.5152  0.8809
  940MPD2    H713755   4.682   4.244  13.599  3.3258 -2.0812  2.2219
  941MPD2     C13756   4.398   3.765   9.407 -0.3974  0.7717 -0.1360
  941MPD2    C113757   4.477   3.748   9.524  0.7902  0.2170 -0.4436
  941MPD2    C213758   4.473   3.627   9.588 -0.1647  0.3119  0.3600
  941MPD2    C313759   4.402   3.517   9.549 -0.0802  0.1834  0.3683
  941MPD2    C413760   4.309   3.539   9.448 -0.1981 -0.4140  0.2628
  941MPD2    C513761   4.306   3.660   9.376  0.8426 -0.0141  0.1433
  941MPD2     H13762   4.530   3.604   9.677  0.4465  1.6843  0.3314
  941MPD2    H113763   4.238   3.464   9.414 -2.2612  0.6839  2.1598
  941MPD2    H213764   4.388   3.865   9.365 -0.1363  0.4412 -0.9845
  941MPD2    H313765   4.232   3.670   9.297  3.0243 -0.0346 -1.9209
  941MPD2     N13766   4.397   3.396   9.616 -0.7349  0.8012  1.1610
  941MPD2    H513767   4.344   3.319   9.577  2.0412 -0.0434 -1.0402
  941MPD2    N113768   4.575   3.848   9.566 -0.1959  0.2215 -0.1657
  941MPD2    H713769   4.622   3.824   9.653 -0.9507 -3.0894 -0.6708
  942MPD2     C13770   3.426   1.281   9.724 -0.0002  0.2865  0.4376
  942MPD2    C113771   3.543   1.294   9.793 -0.0400  0.4836 -0.0559
  942MPD2    C213772   3.663   1.257   9.728 -0.0506 -0.6737  0.7799
  942MPD2    C313773   3.661   1.190   9.605  0.0173 -0.2912  1.0055
  942MPD2    C413774   3.539   1.184   9.536  0.4361  0.2546  0.1894
  942MPD2    C513775   3.423   1.220   9.604 -0.2325  0.5263 -0.2320
  942MPD2     H13776   3.758   1.270   9.780  0.2175  0.3090  0.0457
  942MPD2    H113777   3.532   1.131   9.442  1.5518  1.0651 -0.3492
  942MPD2    H213778   3.328   1.311   9.761  0.0019  0.9362 -0.0677
  942MPD2    H313779   3.321   1.196   9.574 -1.4118  2.0877  2.5196
  942MPD2     N13780   3.775   1.121   9.549 -0.6152 -0.2082  0.0220
  942MPD2    H513781   3.765   1.081   9.457 -0.3342 -0.4961  0.1184
  942MPD2    N113782   3.542   1.351   9.919 -0.0471 -0.9042 -0.3203
  942MPD2    H713783   3.633   1.367   9.960  0.0121 -3.5850  0.6068
  943MPD2     C13784   2.706   3.757   9.534 -0.6726  0.7557  0.6169
  943MPD2    C113785   2.691   3.647   9.615 -0.4756  0.4351  0.1091
  943MPD2    C213786   2.808   3.592   9.672 -0.3350 -0.2884  0.0787
  943MPD2    C313787   2.929   3.649   9.666  0.1076 -0.3608 -0.1879
  943MPD2    C413788   2.941   3.763   9.596 -0.0332  0.5493  0.7831
  943MPD2    C513789   2.825   3.813   9.535 -0.0989 -0.2777 -0.5924
  943MPD2     H13790   2.806   3.503   9.733 -2.8615 -0.3208 -0.0695
  943MPD2    H113791   3.037   3.807   9.575  1.9755 -3.2155  2.2119
  943MPD2    H213792   2.623   3.805   9.484 -0.5738  1.2022  0.8855
  943MPD2    H313793   2.825   3.893   9.462  2.3457 -0.0856 -0.3928
  943MPD2     N13794   3.041   3.588   9.733  0.3054  0.1069  0.8774
  943MPD2    H513795   3.016   3.501   9.780  0.7488  0.4758  1.7999
  943MPD2    N113796   2.568   3.581   9.613  0.1625  0.3428 -0.1250
  943MPD2    H713797   2.499   3.595   9.540  1.6197  0.0585 -1.5420
  944MPD2     C13798   2.586   2.676  10.850 -0.3088 -0.3882 -0.0071
  944MPD2    C113799   2.680   2.770  10.880  0.1982  0.0484  0.5213
  944MPD2    C213800   2.655   2.864  10.984 -0.0015 -0.6183  0.1229
  944MPD2    C313801   2.538   2.861  11.049  0.0010  0.0380  0.0997
  944MPD2    C413802   2.445   2.765  11.018  0.2883  0.5338  0.1183
  944MPD2    C513803   2.468   2.675  10.923  0.2647  0.4722 -0.5057
  944MPD2     H13804   2.723   2.944  11.013 -1.2850  1.5986 -3.0198
  944MPD2    H113805   2.352   2.750  11.072  0.0695  1.1001 -0.0991
  944MPD2    H213806   2.596   2.604  10.770  1.5323 -1.3102  1.0447
  944MPD2    H313807   2.393   2.599  10.906  0.6958 -0.3213  1.2385
  944MPD2     N13808   2.524   2.953  11.154  0.2566 -0.0633 -0.0013
  944MPD2    H513809   2.598   3.020  11.170  2.6513 -2.2470 -2.0967
  944MPD2    N113810   2.796   2.768  10.803  0.4907 -0.3605 -0.1832
  944MPD2    H713811   2.801   2.701  10.727  0.5721 -0.2192 -0.3035
    1TCq1    O113812   0.691   3.406  14.153  0.1147 -0.2382 -0.2027
    1TCq1    C113813   0.651   3.468  14.270  0.4286  0.0237  0.0136
    1TCq1    O213814   0.586   3.571  14.264 -0.1801 -0.4241 -0.3997
    1TCq1    C213815   0.760   3.464  14.363 -0.0215 -0.0635 -0.2687
    1TCq1    C313816   0.850   3.360  14.363 -0.3725 -0.1871  0.0374
    1TCq1    C413817   0.966   3.364  14.427 -0.9268  0.1104 -0.7783
    1TCq1    C513818   0.999   3.479  14.490 -0.1994  1.0920  0.5088
    1TCq1    C613819   0.911   3.585  14.502  0.2091  0.2201  0.1955
    1TCq1    C713820   0.788   3.582  14.426 -0.8821 -0.0263 -0.4356
    1TCq1    C813821   0.955   3.704  14.581 -0.0908 -0.5557 -0.2654
    1TCq1    O413822   1.062   3.691  14.639 -0.4743  0.2313 -0.5705
    1TCq1    C913823   1.037   3.241  14.443 -0.1081  0.5559  0.0059
    1TCq1    O513824   1.008   3.151  14.360 -0.7745 -0.1923  0.1982
    1TCq1    O613825   1.105   3.236  14.554  0.0635  0.1253  0.2439
    1TCq1    H113826   0.784   3.376  14.167  0.1093  0.5753  1.6203
    1TCq1    H213827   0.806   3.266  14.329 -0.7287 -0.9150  2.5064
    1TCq1    H313828   1.087   3.474  14.554  1.4225  1.2927 -1.7122
    1TCq1    H413829   0.712   3.660  14.430 -1.2256 -0.3808  0.1570
    2MPD2     C13830   0.899   4.165  14.776 -0.2830 -0.2574  0.2141
    2MPD2    C113831   0.799   4.151  14.685 -0.5414 -0.1123  0.0563
    2MPD2    C213832   0.777   4.027  14.633  0.3566  0.2406  0.4976
    2MPD2    C313833   0.862   3.919  14.666  0.1389 -0.6834  0.0273
    2MPD2    C413834   0.968   3.939  14.758  0.2121 -0.6036  0.0104
    2MPD2    C513835   0.984   4.066  14.810  0.0480  0.2773  0.4166
    2MPD2     H13836   0.701   4.004  14.560  0.9967  0.5576 -0.2761
    2MPD2    H113837   1.035   3.857  14.782 -0.0844 -1.8141 -3.1848
    2MPD2    H213838   0.924   4.261  14.820 -0.1417  0.3069 -1.1089
    2MPD2    H313839   1.060   4.097  14.881 -1.0111 -1.0003  2.0825
    2MPD2     N13840   0.856   3.799  14.594 -0.0482 -0.3776  0.5364
    2MPD2    H513841   0.775   3.798  14.534  1.0375 -0.9234 -0.9304
    2MPD2    N113842   0.726   4.265  14.642  0.6048 -0.2667  0.3444
    2MPD2    H713843   0.771   4.354  14.662 -1.7890  0.9064  0.5096
    3TMC2    C113844   0.604   4.394  14.500  0.1425  0.2150  0.3978
    3TMC2    C213845   0.670   4.501  14.557  0.4401 -0.0206  0.1605
    3TMC2    C313846   0.660   4.618  14.482  0.1221  0.6350  0.3154
    3TMC2    C413847   0.549   4.394  14.372  0.1363 -0.7070 -0.4132
    3TMC2    C513848   0.546   4.508  14.303 -0.7165  0.2478 -0.7168
    3TMC2    C613849   0.601   4.623  14.357 -0.1489  0.0564  0.0437
    3TMC2     C13850   0.613   4.267  14.560 -0.6911  0.1381  0.2795
    3TMC2     O13851   0.539   4.170  14.535 -0.0070 -0.1196 -0.1344
    3TMC2     H13852   0.707   4.501  14.659  0.2708  0.6882  0.2232
    3TMC2    H113853   0.515   4.303  14.324 -0.0173 -0.0391 -1.5572
    3TMC2    H213854   0.603   4.715  14.298 -0.6139  0.3761  0.5201
    3TMC2    C713855   0.523   4.504  14.153 -0.1336  0.0655  0.1643
    3TMC2    C813856   0.735   0.002  14.545  0.3661  0.8095 -0.1116
    3TMC2    O113857   0.472   4.401  14.111 -0.1429  0.5831  0.3292
    3TMC2    O213858   0.709   0.120  14.525  1.0700 -0.5402 -0.1571
    3TMC2    O513859   0.858   4.679  14.526  0.3052  0.0937  0.2737
    3TMC2    H513860   0.871   4.582  14.537 -0.3383 -0.2352 -1.9151
    4MPD2     C13861   4.709   0.783  13.777 -0.0765  0.6988 -0.6559
    4MPD2    C113862   0.005   0.711  13.661  0.1605 -0.4600 -0.3323
    4MPD2    C213863   0.131   0.689  13.617  0.6421  0.2982  0.5242
    4MPD2    C313864   0.236   0.730  13.698 -0.5101 -0.3092 -0.1398
    4MPD2    C413865   0.214   0.790  13.823  0.3111  0.0879  0.0692
    4MPD2    C513866   0.088   0.822  13.861  0.0535 -0.4965 -0.0518
    4MPD2     H13867   0.145   0.652  13.516 -0.4414  0.4715  0.3111
    4MPD2    H113868   0.299   0.807  13.888 -1.1895  1.1958  1.7330
    4MPD2    H213869   4.606   0.811  13.800 -0.2162  0.0842 -0.5382
    4MPD2    H313870   0.067   0.877  13.952  0.3354  1.2280 -1.0445
    4MPD2     N13871   0.369   0.684  13.676  0.3786 -0.2755  0.6135
    4MPD2    H513872   0.444   0.707  13.741  0.2033 -1.1375  1.1309
    4MPD2    N113873   4.622   0.654  13.600 -0.4733  0.5450 -0.0433
    4MPD2    H713874   4.534   0.680  13.642 -1.0785  0.3621 -1.2075
    5TCq2    C113875   0.409   0.603  13.569 -0.0099 -0.2641 -0.0636
    5TCq2    O213876   0.339   0.536  13.496  0.2600  0.3264  0.0549
    5TCq2    C213877   0.553   0.573  13.583 -0.1885 -0.3072 -0.0786
    5TCq2    C313878   0.636   0.664  13.647  0.1333  0.1935  0.5417
    5TCq2    C413879   0.749   0.616  13.718  0.0631 -0.6244 -0.4770
    5TCq2    C513880   0.774   0.482  13.732  0.6882 -0.1435 -0.7425
    5TCq2    C613881   0.688   0.391  13.678 -0.6102 -0.1669 -0.3018
    5TCq2    C713882   0.577   0.436  13.609  0.0381  0.3299 -0.0509
    5TCq2    C813883   0.663   0.281  13.764 -0.2660 -0.7183  0.0496
    5TCq2    O413884   0.617   0.317  13.872 -0.6501 -0.2584  0.8056
    5TCq2    C913885   0.843   0.698  13.787 -0.2740  0.3242 -0.1562
    5TCq2    O513886   0.943   0.642  13.830  0.0110 -0.0623 -0.3110
    5TCq2    O613887   0.832   0.820  13.780 -0.2872  0.3008  0.3779
    5TCq2    H213888   0.629   0.772  13.641 -1.8347  0.0242  0.0563
    5TCq2    H313889   0.847   0.443  13.802  0.7084 -3.6133 -2.6756
    5TCq2    H413890   0.507   0.363  13.571 -1.3835  1.6912 -0.0347
    6MPD1     C13891   3.277   1.704  12.962  0.3501 -0.0971 -0.3809
    6MPD1    C113892   3.368   1.659  12.863  0.2967  0.3919 -0.3492
    6MPD1    C213893   3.473   1.589  12.914  0.5696  0.2660 -0.3083
    6MPD1    C313894   3.492   1.552  13.046  0.5454  0.5887  0.8731
    6MPD1    C413895   3.396   1.590  13.129  0.2693 -0.9982  0.3360
    6MPD1    C513896   3.298   1.671  13.093 -0.2158 -0.0287 -0.6293
    6MPD1     H13897   3.559   1.570  12.849  0.2500  1.8547 -1.1873
    6MPD1    H113898   3.404   1.576  13.236 -0.6776 -0.3550  0.4929
    6MPD1    H213899   3.199   1.774  12.935 -0.8956 -1.7740 -1.1363
    6MPD1    H313900   3.229   1.713  13.165 -0.4849  1.5719 -1.8135
    6MPD1     N13901   3.609   1.496  13.095 -0.5396  0.6129  0.7079
    6MPD1    H513902   3.617   1.478  13.195  0.2237 -2.7744  0.0444
    6MPD1    N113903   3.372   1.704  12.724  0.6190  1.1836  0.3003
    6MPD1    H613904   3.407   1.628  12.665 -0.2959  0.3795  0.7977
    6MPD1    H713905   3.280   1.728  12.690 -0.7642 -1.6515  2.0511
    7MPD2     C13906   3.803   0.969  13.304 -0.7693 -0.5537  0.0662
    7MPD2    C113907   3.906   0.986  13.392 -0.0552 -0.3152  0.3803
    7MPD2    C213908   3.979   0.882  13.435 -0.9668  0.0791 -0.1809
    7MPD2    C313909   3.969   0.761  13.368 -1.1033  0.4492  0.4971
    7MPD2    C413910   3.879   0.740  13.264  0.4744 -0.0867 -0.2807
    7MPD2    C513911   3.799   0.846  13.231 -0.9907 -0.2395 -0.0357
    7MPD2     H13912   4.051   0.895  13.515  1.0762 -0.8221 -1.8805
    7MPD2    H113913   3.869   0.651  13.203 -1.1802 -0.3905  0.4339
    7MPD2    H213914   3.732   1.048  13.281  0.2094  0.2158 -0.2629
    7MPD2    H313915   3.730   0.841  13.147 -0.8106 -3.7274  0.0344
    7MPD2     N13916   4.055   0.649  13.395 -0.1573 -0.4029  0.9352
    7MPD2    H513917   4.037   0.566  13.339 -0.7056 -0.3592  1.0511
    7MPD2    N113918   3.927   1.111  13.447 -0.8452  0.2803 -0.3168
    7MPD2    H713919   3.949   1.103  13.546  0.6799  1.7745 -0.5485
    8TMC3    C113920   4.246   0.537  13.473  0.2380  0.2520  0.0489
    8TMC3    C213921   4.368   0.568  13.523 -0.1262  0.1478  0.5889
    8TMC3    C313922   4.467   0.553  13.440 -0.5320  0.1263 -0.8634
    8TMC3    C413923   4.232   0.484  13.343  0.4759 -0.1404 -0.2112
    8TMC3    C513924   4.335   0.483  13.252  0.2083  0.1220 -1.0844
    8TMC3    C613925   4.455   0.527  13.301 -0.4735  0.1377 -0.0072
    8TMC3     C13926   4.157   0.650  13.489 -0.0998 -0.2909 -0.5482
    8TMC3     O13927   4.161   0.718  13.589 -0.4251  0.0689 -0.1168
    8TMC3     H13928   4.381   0.606  13.624 -0.1620 -0.7917  0.9421
    8TMC3    H113929   4.137   0.441  13.313  0.5595 -1.4418  1.3410
    8TMC3    H213930   4.539   0.535  13.233 -0.7211 -1.2055 -0.4723
    8TMC3    C713931   4.299   0.568  13.138  0.5187  0.4493  0.2151
    8TMC3    C813932   4.608   0.589  13.479 -0.4776 -0.2568 -0.1365
    8TMC3    O113933   4.369   0.665  13.120  0.5754  0.1262  0.3951
    8TMC3    O213934   4.698   0.546  13.414  0.0511  0.3204 -0.4890
    9TMC3    C113935   3.818   1.380  13.087 -0.6943  0.4243  0.4098
    9TMC3    C213936   3.905   1.319  13.004 -0.5651 -0.6343 -0.1036
    9TMC3    C313937   3.981   1.216  13.046 -0.1383 -0.1011  0.7009
    9TMC3    C413938   3.807   1.348  13.214 -0.7334 -0.5426 -0.1492
    9TMC3    C513939   3.904   1.253  13.254 -0.1661  0.0528  0.5821
    9TMC3    C613940   3.997   1.185  13.177 -0.6222  0.1472  0.5034
    9TMC3     C13941   3.724   1.465  13.019 -0.3086 -0.3174  0.5130
    9TMC3     O13942   3.757   1.495  12.904 -0.1047  0.1897 -0.2514
    9TMC3     H13943   3.887   1.328  12.897 -2.5470  0.4728  0.3241
    9TMC3    H113944   3.733   1.392  13.280  0.1228  0.1997  0.3314
    9TMC3    H213945   4.047   1.100  13.223 -0.4638 -0.9580 -1.7223
    9TMC3    C713946   3.890   1.232  13.398 -0.6231 -0.0885 -0.1673
    9TMC3    C813947   3.961   1.096  12.964  0.3147  0.5624  0.5300
    9TMC3    O113948   3.876   1.336  13.463  0.0488  0.4668 -0.2808
    9TMC3    O213949   3.869   1.094  12.885 -0.0097  0.0009  0.0818
   10MPD2     C13950   4.018   0.591  12.922  0.0267 -0.2879  0.1172
   10MPD2    C113951   4.109   0.627  13.014  0.1350  0.2591 -0.3297
   10MPD2    C213952   4.118   0.765  13.041 -0.5667 -0.3174 -0.0752
   10MPD2    C313953   4.043   0.862  12.967  0.0368 -0.3095  0.2551
   10MPD2    C413954   3.958   0.817  12.869  0.1384 -0.3489 -0.1341
   10MPD2    C513955   3.944   0.683  12.852  0.4493  0.5174 -0.0115
   10MPD2     H13956   4.173   0.801  13.127  1.8361 -0.2076 -1.6347
   10MPD2    H113957   3.903   0.889  12.809 -0.2898 -0.8198 -0.3095
   10MPD2    H213958   4.013   0.485  12.901  5.1849 -0.2599 -1.1542
   10MPD2    H313959   3.868   0.650  12.782 -0.5736  0.7450  0.9934
   10MPD2     N13960   4.041   1.001  13.010 -0.3169 -0.3907 -0.5022
   10MPD2    H513961   4.114   1.043  13.066 -0.0556 -1.0572 -0.3373
   10MPD2    N113962   4.177   0.534  13.085  0.1480 -0.2972 -0.1874
   10MPD2    H713963   4.158   0.436  13.066  0.9719 -0.5059  0.0388
   11MPD2     C13964   0.532   4.525  13.858 -0.0356  0.3174  0.3770
   11MPD2    C113965   0.551   4.632  13.943  0.6570  1.2676  0.3953
   11MPD2    C213966   0.586   0.031  13.889 -0.6033  0.2228  0.4702
   11MPD2    C313967   0.597   0.043  13.752  0.1676 -0.1270 -0.2512
   11MPD2    C413968   0.570   4.664  13.670  0.1967 -0.0861 -0.0239
   11MPD2    C513969   0.533   4.543  13.723  0.1263  1.0233 -1.1468
   11MPD2     H13970   0.607   0.119  13.948  0.1038  1.1610 -1.1610
   11MPD2    H113971   0.565   4.688  13.565  4.3683 -2.4891 -0.7793
   11MPD2    H213972   0.506   4.425  13.892 -0.6045  0.3229 -0.0270
   11MPD2    H313973   0.496   4.462  13.662 -1.5358  0.2452  0.8987
   11MPD2     N13974   0.644   0.167  13.694 -0.3359 -1.2426  0.2590
   11MPD2    H513975   0.652   0.157  13.594 -0.9642  2.1094 -0.1269
   11MPD2    N113976   0.564   4.616  14.082  0.2932 -0.6044 -0.2899
   11MPD2    H713977   0.596   4.696  14.134  2.0658 -0.6332 -1.3565
    1MPD1     C13978   3.040   0.829   0.289  0.7267 -0.0388 -0.0863
    1MPD1    C113979   3.157   0.879   0.240 -0.8075 -0.2878  0.0954
    1MPD1    C213980   3.172   0.909   0.105  0.1296 -0.4040  0.8920
    1MPD1    C313981   3.065   0.905   0.020 -0.8811 -0.1300  0.4282
    1MPD1    C413982   2.948   0.854   0.065  0.2484 -0.1926 -0.1185
    1MPD1    C513983   2.940   0.815   0.195  0.4973 -0.4000 -0.1877
    1MPD1     H13984   3.264   0.955   0.070 -0.3576 -0.6116 -0.6468
    1MPD1    H113985   2.860   0.855   0.002  0.6816 -0.1742 -0.7282
    1MPD1    H213986   3.018   0.806   0.393  0.6965 -3.1275 -0.7862
    1MPD1    H313987   2.848   0.775   0.235 -0.0186  1.5196  0.5286
    1MPD1     N13988   3.075   0.952  17.587  0.6046 -0.1779  0.0018
    1MPD1    H513989   2.987   0.934  17.539 -0.1746  0.5976  1.1473
    1MPD1    N113990   3.269   0.862   0.320 -0.4535  0.0484  0.2741
    1MPD1    H613991   3.345   0.927   0.302 -1.3637  1.0373 -0.0458
    1MPD1    H713992   3.253   0.867   0.420 -2.4107  0.5578 -0.0520
    2MPD1     C13993   3.090   1.833  16.967 -0.7327 -0.4999  0.7764
    2MPD1    C113994   3.059   1.734  16.879  0.0631 -0.3166 -0.5158
    2MPD1    C213995   3.036   1.612  16.930  0.4974 -0.3193  0.9589
    2MPD1    C313996   3.055   1.580  17.063 -0.0165 -0.6501 -0.1860
    2MPD1    C413997   3.082   1.682  17.156  0.0919  0.1898 -0.4367
    2MPD1    C513998   3.102   1.804  17.098 -0.7759  0.5117  0.6272
    2MPD1     H13999   2.997   1.535  16.863  2.5127 -0.2992 -0.2248
    2MPD1    H114000   3.102   1.681  17.262  0.1013  1.8735 -0.4180
    2MPD1    H214001   3.099   1.934  16.931 -1.7864 -1.1191 -1.2238
    2MPD1    H314002   3.122   1.885  17.166 -0.7341  1.6398 -0.7400
    2MPD1     N14003   3.043   1.443  17.115  0.1055  0.5562 -0.0543
    2MPD1    H514004   3.004   1.379  17.046  1.5418  0.4959 -0.8094
    2MPD1    N114005   3.037   1.770  16.743  1.0040 -0.7241  0.3248
    2MPD1    H614006   3.054   1.692  16.679 -1.0803  0.3144 -1.4812
    2MPD1    H714007   2.937   1.787  16.738  1.3063  0.9069 -0.3796
    3TMC3    C114008   3.060   1.269  17.278  0.4050 -0.2402  0.7860
    3TMC3    C214009   2.979   1.191  17.197 -0.4470 -0.0444 -0.1748
    3TMC3    C314010   2.972   1.057  17.225  0.0050  0.1676 -0.0173
    3TMC3    C414011   3.131   1.220  17.386  0.4553 -0.2760  0.6950
    3TMC3    C514012   3.116   1.086  17.415 -0.1719  0.0291  0.1122
    3TMC3    C614013   3.048   1.004  17.328 -0.5196  1.0559 -0.3301
    3TMC3     C14014   3.080   1.413  17.248 -0.9728 -0.0524  0.3600
    3TMC3     O14015   3.126   1.474  17.347 -0.4581 -0.6171  0.3496
    3TMC3     H14016   2.912   1.233  17.123  1.5237  1.6875 -1.0012
    3TMC3    H114017   3.170   1.278  17.469  0.6496 -0.2338  0.5749
    3TMC3    H214018   3.052   0.896  17.330 -1.4307  1.0018 -2.0536
    3TMC3    C714019   3.171   1.030  17.534 -0.0605 -0.0467  0.0432
    3TMC3    C814020   2.879   0.966  17.154  0.3189 -0.2088  0.0363
    3TMC3    O114021   3.258   1.094  17.592  0.7899  0.6815  0.0348
    3TMC3    O214022   2.909   0.848  17.154  0.0511  0.0645  0.4280
    4MPD1     C14023   2.532   0.883  16.792  0.0613 -0.1050  0.3086
    4MPD1    C114024   2.529   1.015  16.820  0.3473  0.9760  0.5304
    4MPD1    C214025   2.616   1.052  16.923  0.6992  0.0979  0.1944
    4MPD1    C314026   2.701   0.968  16.984 -0.1172  0.0561  0.3292
    4MPD1    C414027   2.694   0.831  16.958  0.3942  0.3284  0.3665
    4MPD1    C514028   2.607   0.792  16.861  0.0826 -0.0417  1.2576
    4MPD1     H14029   2.624   1.158  16.944 -1.2953  0.6747 -1.9232
    4MPD1    H114030   2.735   0.751  17.018 -1.7189 -0.6246  0.5280
    4MPD1    H214031   2.465   0.840  16.719 -1.4107 -0.9337  2.1408
    4MPD1    H314032   2.592   0.689  16.833  0.9450  0.4410 -0.9879
    4MPD1     N14033   2.787   1.030  17.079 -0.0770  0.0466  0.1247
    4MPD1    H514034   2.790   1.132  17.075  1.1341  0.0168  0.3213
    4MPD1    N114035   2.424   1.091  16.771 -0.2590  0.3100  0.0044
    4MPD1    H614036   2.380   1.059  16.685 -0.7147  2.2560 -0.4896
    4MPD1    H714037   2.433   1.192  16.770  0.0742  0.2858  0.3559
    1TCq1    O114038   2.324   0.909  10.984 -0.5186 -0.0423  0.1054
    1TCq1    C114039   2.361   1.039  10.976  0.3315  0.0552 -0.5366
    1TCq1    O214040   2.294   1.139  11.003 -0.2930 -0.1345 -0.3967
    1TCq1    C214041   2.497   1.052  10.940  0.8761 -0.1151 -0.4373
    1TCq1    C314042   2.585   0.965  10.998 -0.1905  0.0239 -0.1775
    1TCq1    C414043   2.707   1.008  11.037  0.8274  0.4419 -0.1334
    1TCq1    C514044   2.764   1.110  10.967  1.0038 -0.1426 -0.1368
    1TCq1    C614045   2.683   1.198  10.900  0.4165 -0.4722 -0.1010
    1TCq1    C714046   2.542   1.170  10.883  0.2158 -0.7307  0.3042
    1TCq1    C814047   2.733   1.301  10.812 -0.2157  0.4212 -0.0279
    1TCq1    O414048   2.662   1.339  10.716 -0.1734  0.2777  0.1342
    1TCq1    C914049   2.796   0.906  11.074 -0.2684  0.0815 -0.4523
    1TCq1    O514050   2.919   0.925  11.054 -0.1796 -1.0323 -0.0572
    1TCq1    O614051   2.742   0.791  11.100 -0.2184  0.3200 -0.6276
    1TCq1    H114052   2.391   0.851  10.940 -0.3888  0.6259 -0.5800
    1TCq1    H214053   2.553   0.876  11.052 -1.6341 -0.4346 -1.7751
    1TCq1    H314054   2.872   1.117  10.971  1.0697  0.8622 -3.5056
    1TCq1    H414055   2.475   1.241  10.836  0.0999  0.0196  1.6034
    2MPD1     C14056   3.080   1.656  10.673  0.1343 -0.2477  0.0283
    2MPD1    C114057   3.098   1.639  10.811  0.2693  0.3144 -0.3795
    2MPD1    C214058   3.009   1.543  10.871 -0.6491  0.0348  0.5880
    2MPD1    C314059   2.922   1.461  10.791 -0.4486 -0.7728 -0.2838
    2MPD1    C414060   2.911   1.484  10.656 -0.1428  0.0328 -0.6006
    2MPD1    C514061   2.996   1.575  10.602 -0.4552 -0.0657  0.1894
    2MPD1     H14062   3.004   1.523  10.977 -2.5889  0.0065  0.4802
    2MPD1    H114063   2.849   1.428  10.588 -1.3140  0.2692  0.2743
    2MPD1    H214064   3.140   1.726  10.615 -1.1207  0.9732  0.1959
    2MPD1    H314065   2.995   1.593  10.496  0.7509  0.5411  0.2905
    2MPD1     N14066   2.848   1.356  10.852 -0.5354 -0.5344  0.3312
    2MPD1    H514067   2.899   1.311  10.928  0.5276  1.3445  0.7371
    2MPD1    N114068   3.177   1.725  10.893  0.4403 -0.2127  0.0152
    2MPD1    H614069   3.210   1.675  10.974 -0.4932  0.6290  0.9242
    2MPD1    H714070   3.260   1.763  10.849  1.0130 -0.3397  1.0020
    1TCq1    O114071   4.471   2.135   9.028 -0.4850 -0.2869 -0.3804
    1TCq1    C114072   4.460   2.117   8.895  0.0389 -0.3515  0.3009
    1TCq1    O214073   4.552   2.151   8.821  0.1081  0.7371  0.3407
    1TCq1    C214074   4.399   1.983   8.884  0.1832 -0.0755  0.3880
    1TCq1    C314075   4.413   1.930   8.759 -0.0371  0.3165  0.0269
    1TCq1    C414076   4.447   1.800   8.743  0.2627 -0.1804 -0.1148
    1TCq1    C514077   4.408   1.715   8.841  0.0125 -1.0056 -0.3269
    1TCq1    C614078   4.391   1.768   8.962  0.3105 -0.1269  0.2188
    1TCq1    C714079   4.397   1.899   8.996 -0.3199  0.0098 -0.4676
    1TCq1    C814080   4.333   1.682   9.064  0.9194 -0.2619  0.2945
    1TCq1    O414081   4.370   1.566   9.074  0.1112 -0.1889 -0.5274
    1TCq1    C914082   4.440   1.748   8.611  0.8100 -0.7572 -0.2650
    1TCq1    O514083   4.455   1.622   8.596  0.4794 -0.1099  0.5701
    1TCq1    O614084   4.386   1.827   8.533 -0.3933 -0.5131 -0.3060
    1TCq1    H114085   4.388   2.103   9.070  0.8977 -0.1945  2.4169
    1TCq1    H214086   4.423   1.995   8.672  0.6215 -1.5873 -1.3239
    1TCq1    H314087   4.369   1.617   8.815  0.7610 -0.8337 -2.0657
    1TCq1    H414088   4.381   1.924   9.100 -1.5936  1.2167 -0.9530
    2MPD1     C14089   4.038   1.575   9.458 -0.0332  0.3565  0.4822
    2MPD1    C114090   3.989   1.690   9.401  0.2000 -0.1703 -0.0066
    2MPD1    C214091   4.065   1.755   9.302  0.7824 -0.7639 -0.0417
    2MPD1    C314092   4.174   1.693   9.253 -0.7310  0.4622 -0.3077
    2MPD1    C414093   4.233   1.585   9.322 -0.2391  0.0684 -0.2873
    2MPD1    C514094   4.159   1.524   9.424 -0.4117  0.0562  0.3173
    2MPD1     H14095   4.020   1.834   9.243  1.9276 -1.2392 -1.5381
    2MPD1    H114096   4.331   1.542   9.306  1.0067  2.8135  0.1132
    2MPD1    H214097   3.976   1.523   9.530  1.0380 -0.6064  0.7122
    2MPD1    H314098   4.193   1.426   9.457  0.5973  0.3807  0.2256
    2MPD1     N14099   4.237   1.748   9.137  0.2884 -0.0538  0.9545
    2MPD1    H514100   4.210   1.844   9.115 -0.7987 -0.3823  0.8677
    2MPD1    N114101   3.860   1.729   9.428 -0.5660 -0.0961  0.0049
    2MPD1    H614102   3.831   1.693   9.519 -0.1124 -0.6270 -0.0633
    2MPD1    H714103   3.852   1.831   9.426 -0.7057 -0.0724  1.8726
    1MPD1     C14104   0.559   1.928  10.513 -0.9268  0.3048 -0.1844
    1MPD1    C114105   0.622   2.032  10.446 -0.0319 -0.4607  0.6740
    1MPD1    C214106   0.653   2.002  10.315 -0.1178 -0.5550  0.3446
    1MPD1    C314107   0.623   1.875  10.261 -0.2750 -0.2241 -0.4445
    1MPD1    C414108   0.558   1.784  10.331  0.4817  0.1200  0.0675
    1MPD1    C514109   0.526   1.809  10.454  0.6474  0.1186  0.3611
    1MPD1     H14110   0.721   2.067  10.261 -1.8665 -0.2354 -1.4837
    1MPD1    H114111   0.559   1.679  10.304 -0.6270 -0.1998  1.2418
    1MPD1    H214112   0.542   1.928  10.620 -1.0379  0.8208 -0.2042
    1MPD1    H314113   0.488   1.734  10.523 -0.4658 -2.5273 -3.0858
    1MPD1     N14114   0.670   1.852  10.129 -0.3530  0.3733 -0.1179
    1MPD1    H514115   0.711   1.933  10.084 -2.3805  0.8391 -1.1254
    1MPD1    N114116   0.678   2.143  10.507  0.0759 -0.5098 -0.2365
    1MPD1    H614117   0.689   2.227  10.451 -0.6804  0.3641  0.9397
    1MPD1    H714118   0.639   2.177  10.595  1.7631  0.8722 -0.0319
    2MPD1     C14119   1.463   1.716  11.983  0.0121 -0.8436 -0.3055
    2MPD1    C114120   1.493   1.599  11.923  0.0538  0.0645 -0.2495
    2MPD1    C214121   1.495   1.586  11.780 -0.1561 -0.3638  0.3913
    2MPD1    C314122   1.458   1.697  11.700 -0.0006 -0.0241  0.6028
    2MPD1    C414123   1.433   1.823  11.768 -0.2324 -0.4492 -0.1076
    2MPD1    C514124   1.437   1.827  11.904  0.2807  0.1182 -1.0243
    2MPD1     H14125   1.515   1.487  11.741 -1.5356 -0.0599 -1.1056
    2MPD1    H114126   1.396   1.910  11.715  1.0168  0.8575  1.1594
    2MPD1    H214127   1.444   1.723  12.089  1.8985  1.4927 -0.1175
    2MPD1    H314128   1.398   1.915  11.954 -0.6943 -1.6827  1.4155
    2MPD1     N14129   1.421   1.689  11.563 -0.1456  0.0786  0.2356
    2MPD1    H514130   1.379   1.775  11.528 -1.3464 -1.3491 -1.8469
    2MPD1    N114131   1.498   1.481  12.000 -0.9210 -0.1256  0.1029
    2MPD1    H614132   1.546   1.404  11.955 -0.8677  0.9767 -1.7453
    2MPD1    H714133   1.521   1.492  12.099 -4.0049 -0.3243  0.8523
    3MPD1     C14134   0.692   2.066  11.034 -0.0596  0.5264  0.3639
    3MPD1    C114135   0.751   1.981  10.945  0.0864  0.7989 -0.2861
    3MPD1    C214136   0.825   1.880  11.000 -0.2293 -0.2182  0.2456
    3MPD1    C314137   0.857   1.864  11.130 -0.0854  0.0739  0.7937
    3MPD1    C414138   0.797   1.952  11.218  0.1145  0.1130 -0.0905
    3MPD1    C514139   0.707   2.049  11.169 -0.0290 -0.0993  0.2141
    3MPD1     H14140   0.866   1.813  10.925 -0.6721 -1.4916  1.1257
    3MPD1    H114141   0.830   1.945  11.321 -0.3440 -0.3186  0.0279
    3MPD1    H214142   0.633   2.150  11.001 -0.0243  1.5413  2.8278
    3MPD1    H314143   0.658   2.121  11.234  0.4229  2.5371 -2.3713
    3MPD1     N14144   0.963   1.772  11.165 -0.6178  0.1994 -0.8830
    3MPD1    H514145   0.986   1.713  11.086  1.2720 -0.7422  0.3761
    3MPD1    N114146   0.723   1.998  10.804 -0.5033 -0.1191  1.2447
    3MPD1    H614147   0.686   2.091  10.783 -1.5798 -1.2296 -1.7538
    3MPD1    H714148   0.805   1.995  10.743 -1.0673 -1.4085  0.5643
    4MPD2     C14149   1.270   1.397   9.809 -0.2580 -0.1784 -0.7710
    4MPD2    C114150   1.255   1.527   9.845  0.0952  0.6216  0.7930
    4MPD2    C214151   1.360   1.596   9.899  0.1946  0.4442  0.0892
    4MPD2    C314152   1.480   1.547   9.928  0.3018 -0.4045  0.3944
    4MPD2    C414153   1.494   1.418   9.891  0.5109  0.4058  0.4117
    4MPD2    C514154   1.393   1.342   9.844 -0.4417  0.5219  0.4464
    4MPD2     H14155   1.341   1.702   9.917 -0.9316  0.2697 -0.1040
    4MPD2    H114156   1.591   1.373   9.912  0.3716 -0.5052 -0.8976
    4MPD2    H214157   1.194   1.325   9.781  0.2825 -0.7688 -0.7239
    4MPD2    H314158   1.393   1.236   9.822 -0.8212  1.0536 -2.1050
    4MPD2     N14159   1.575   1.629   9.997  0.3614  0.1156  0.2711
    4MPD2    H514160   1.551   1.726  10.015  0.9435  0.3788 -0.3452
    4MPD2    N114161   1.135   1.599   9.823 -0.0892 -0.3044  0.4364
    4MPD2    H714162   1.128   1.700   9.835 -2.3540 -0.2715 -1.2036
    5TMC3    C114163   0.910   1.647   9.807  0.0992 -0.6489  0.5819
    5TMC3    C214164   0.807   1.629   9.897  0.3355  0.2029 -0.0132
    5TMC3    C314165   0.742   1.742   9.934  0.4021  0.5782 -0.6487
    5TMC3    C414166   0.954   1.767   9.772 -0.2839  0.4032 -0.2997
    5TMC3    C514167   0.903   1.880   9.838 -0.1552 -0.0846  0.1538
    5TMC3    C614168   0.788   1.869   9.916 -0.1315  0.0099 -0.2359
    5TMC3     C14169   1.016   1.544   9.800 -0.9524 -0.3132  1.0199
    5TMC3     O14170   0.988   1.427   9.794  1.2695  0.2610  0.1812
    5TMC3     H14171   0.767   1.531   9.922 -1.1248  0.8472  0.2017
    5TMC3    H114172   1.024   1.791   9.693 -0.4986  1.8522 -0.0515
    5TMC3    H214173   0.733   1.961   9.935  0.0619  0.2199 -0.7074
    5TMC3    C714174   1.015   1.932   9.906 -0.1996 -0.1224  0.1063
    5TMC3    C814175   0.666   1.728  10.062  0.3877  0.3315 -0.0899
    5TMC3    O114176   1.117   1.865   9.900  0.4987 -0.2518 -0.2809
    5TMC3    O214177   0.606   1.621  10.084 -1.0991 -0.0674 -0.0581
    6TMC3    C114178   1.337   1.581  11.371  0.0694  0.4067  0.2402
    6TMC3    C214179   1.220   1.643  11.383 -0.0727  0.4491  0.4801
    6TMC3    C314180   1.158   1.682  11.263  0.7193  0.8041 -0.0286
    6TMC3    C414181   1.401   1.563  11.251  0.4782  0.0945  0.5889
    6TMC3    C514182   1.341   1.602  11.133 -0.3975  0.3436  0.1506
    6TMC3    C614183   1.219   1.663  11.141 -0.5716  0.1493 -0.1193
    6TMC3     C14184   1.421   1.569  11.485  0.1610  0.3891 -0.6295
    6TMC3     O14185   1.473   1.460  11.508 -0.1014  0.2043 -0.1226
    6TMC3     H14186   1.175   1.654  11.481 -1.3721 -0.6599  0.0071
    6TMC3    H114187   1.502   1.524  11.252  0.1669 -0.7272  0.2671
    6TMC3    H214188   1.165   1.694  11.051  1.7435 -2.1062 -2.2878
    6TMC3    C714189   1.408   1.602  11.004 -0.1430 -0.4819 -0.2800
    6TMC3    C814190   1.043   1.773  11.276  0.1715  0.2472  0.3969
    6TMC3    O114191   1.378   1.698  10.930  0.4489 -0.8448  0.2566
    6TMC3    O214192   1.026   1.828  11.386  0.0754  0.4239  0.5263
    7MPD2     C14193   1.238   2.195  10.273 -0.5525 -0.3176 -0.5262
    7MPD2    C114194   1.290   2.103  10.186 -0.3036  0.6453 -0.6250
    7MPD2    C214195   1.213   2.054  10.083 -0.3530 -0.4856  0.1729
    7MPD2    C314196   1.081   2.095  10.073 -0.3611  0.5545 -0.1124
    7MPD2    C414197   1.035   2.197  10.156 -0.7008  0.5939  0.2288
    7MPD2    C514198   1.109   2.237  10.265 -0.0804 -0.5203  0.4338
    7MPD2     H14199   1.256   1.984  10.013  2.5792  0.0764  1.4059
    7MPD2    H114200   0.929   2.214  10.164 -0.5441  1.0076  1.4452
    7MPD2    H214201   1.292   2.229  10.361  0.3281  2.5912 -2.2011
    7MPD2    H314202   1.075   2.311  10.336  1.0864 -1.0562  1.5446
    7MPD2     N14203   0.985   2.042   9.988  0.0917  0.3559 -0.3693
    7MPD2    H514204   0.891   2.081   9.983 -0.7245 -1.6062 -0.2671
    7MPD2    N114205   1.406   2.033  10.224 -0.4974 -0.5900 -0.2263
    7MPD2    H714206   1.441   2.045  10.318  0.7824 -4.3014 -0.2476
    8TMC3    C114207   1.584   1.886  10.203  0.5800 -0.1601 -0.6418
    8TMC3    C214208   1.545   1.838  10.332  0.3021 -0.0446 -0.1275
    8TMC3    C314209   1.599   1.715  10.369  0.0939  0.2016  0.2219
    8TMC3    C414210   1.660   1.817  10.118 -0.5864  0.4918  0.0437
    8TMC3    C514211   1.708   1.697  10.160 -0.6169  0.0602 -0.3281
    8TMC3    C614212   1.677   1.647  10.283  0.3156  0.0364 -0.4670
    8TMC3     C14213   1.475   1.957  10.139 -0.7707 -0.8274 -0.1605
    8TMC3     O14214   1.494   1.956  10.020 -0.0188 -0.3899  0.7035
    8TMC3     H14215   1.479   1.891  10.401  0.5204 -1.0506  0.8488
    8TMC3    H114216   1.691   1.865  10.027  1.1222  0.8595  0.8207
    8TMC3    H214217   1.705   1.544  10.306  2.1978  0.6591  0.0194
    8TMC3    C714218   1.696   1.598  10.056  1.1018  0.9462  0.6943
    8TMC3    C814219   1.579   1.665  10.505  0.5183  0.1775 -0.4337
    8TMC3    O114220   1.745   1.487  10.078 -1.1092 -0.0075 -0.7981
    8TMC3    O214221   1.485   1.717  10.569  0.0642  0.0652 -0.4586
    9MPD2     C14222   1.741   1.397  10.690 -0.2789 -0.2029 -0.6640
    9MPD2    C114223   1.667   1.514  10.676  0.3288 -0.1211 -0.2707
    9MPD2    C214224   1.580   1.546  10.779 -0.2598 -0.3893  0.4184
    9MPD2    C314225   1.586   1.475  10.899  0.7851 -1.3647 -0.3877
    9MPD2    C414226   1.682   1.377  10.921  0.3301  0.3029 -0.0015
    9MPD2    C514227   1.735   1.320  10.808  0.2420 -0.6049  0.0020
    9MPD2     H14228   1.505   1.621  10.759  0.3225 -0.1390 -0.8113
    9MPD2    H114229   1.684   1.313  11.009  0.8784  2.7185  1.7557
    9MPD2    H214230   1.786   1.349  10.604 -2.9075 -2.6596 -0.6870
    9MPD2    H314231   1.802   1.235  10.817 -1.2758 -1.6404  1.4799
    9MPD2     N14232   1.495   1.498  11.001 -0.2224 -0.2207 -0.6214
    9MPD2    H514233   1.492   1.447  11.089  3.6836 -0.4493 -0.6272
    9MPD2    N114234   1.669   1.573  10.548 -0.0063  0.3494  0.0104
    9MPD2    H714235   1.735   1.537  10.480  0.6023  1.2442  0.1297
    1MPD1     C14236   0.440   0.393  17.476  0.1821  0.2662 -0.0679
    1MPD1    C114237   0.434   0.309  17.373 -0.4165  0.1726 -0.7755
    1MPD1    C214238   0.534   0.215  17.353  0.5790 -0.1995  0.2226
    1MPD1    C314239   0.634   0.192  17.452 -0.4833 -0.9476  0.3963
    1MPD1    C414240   0.630   0.270  17.566  0.1941  0.7654  0.2894
    1MPD1    C514241   0.531   0.365  17.573 -0.1123  0.8550  0.1495
    1MPD1     H14242   0.528   0.150  17.266 -0.8909 -0.0235  0.1874
    1MPD1    H114243   0.683   0.242  17.656  1.6962 -0.0306 -0.8360
    1MPD1    H214244   0.372   0.474  17.497  0.0976 -0.1056  1.0743
    1MPD1    H314245   0.532   0.422  17.665 -0.3445  0.7283  0.2301
    1MPD1     N14246   0.729   0.087  17.439  0.0531  0.4774 -0.1940
    1MPD1    H514247   0.804   0.077  17.506  0.8034  1.5213 -0.8885
    1MPD1    N114248   0.336   0.336  17.278  0.5111  0.0295  0.0141
    1MPD1    H614249   0.253   0.369  17.326 -0.1725 -2.1176  0.3219
    1MPD1    H714250   0.315   0.252  17.224 -0.7416  0.6378 -0.4408
    2MPD1     C14251   1.329   4.131  16.830  0.6722  0.3045 -0.1193
    2MPD1    C114252   1.393   4.146  16.950  0.1096 -0.0551 -0.1318
    2MPD1    C214253   1.345   4.250  17.030 -0.0542 -0.4980 -0.3094
    2MPD1    C314254   1.236   4.323  17.000 -0.1396 -0.6979  0.2724
    2MPD1    C414255   1.175   4.299  16.881  0.0271 -0.3811 -0.3675
    2MPD1    C514256   1.223   4.205  16.795 -0.5754  0.5519 -0.0322
    2MPD1     H14257   1.402   4.270  17.120 -0.3125  0.9332 -0.4708
    2MPD1    H114258   1.078   4.343  16.860 -0.8729 -0.5389  3.5159
    2MPD1    H214259   1.365   4.059  16.758  0.2695 -0.4097  0.3958
    2MPD1    H314260   1.169   4.191  16.702  0.0223  2.5874 -0.6802
    2MPD1     N14261   1.190   4.418  17.092 -0.1007  0.1082  0.2655
    2MPD1    H514262   1.247   4.436  17.175  2.0098 -1.8855 -0.7417
    2MPD1    N114263   1.513   4.074  16.970 -0.9251 -0.5687 -0.2924
    2MPD1    H614264   1.505   4.059  17.071  0.2344  1.4162  0.0989
    2MPD1    H714265   1.507   3.987  16.918  1.4296 -1.3181  0.6807
    3TCq2    C114266   1.072   4.490  17.078  0.3533 -0.7408  0.3207
    3TCq2    O214267   1.003   4.507  16.981  0.1030  0.5992  0.1497
    3TCq2    C214268   1.051   4.561  17.205  0.4617  0.7093  0.2276
    3TCq2    C314269   1.110   4.526  17.325  0.4444  0.0884  0.7316
    3TCq2    C414270   1.069   4.591  17.440 -0.6571  0.3613 -0.1950
    3TCq2    C514271   0.949   4.663  17.446  0.0786  0.2819 -0.2902
    3TCq2    C614272   0.883   4.683  17.332 -0.4787  0.2711 -0.2443
    3TCq2    C714273   0.932   4.635  17.212  0.1773  1.1151 -0.3717
    3TCq2    C814274   0.755   0.026  17.320 -0.2181 -0.7015  0.1267
    3TCq2    O414275   0.690   0.013  17.220 -0.2450  0.2653 -0.3701
    3TCq2    C914276   1.128   4.550  17.563 -0.0064 -0.1180 -0.4553
    3TCq2    O514277   1.241   4.489  17.565  0.1976 -0.0359 -0.7308
    3TCq2    O614278   1.050   4.560  17.662 -0.1591 -0.0104 -0.6366
    3TCq2    H214279   1.182   4.447  17.337 -0.3384 -0.9200 -1.1347
    3TCq2    H314280   0.918   4.694  17.545  1.4677 -0.5262  0.3936
    3TCq2    H414281   0.881   4.670  17.123  0.6054  1.2880 -0.5480
    1TCq1    O114282   3.188   3.117  12.995 -0.3689 -0.3384 -0.3380
    1TCq1    C114283   3.079   3.142  12.923  0.2901  0.3942  0.1093
    1TCq1    O214284   3.008   3.053  12.873  0.2920 -0.5138  0.2848
    1TCq1    C214285   3.041   3.279  12.943  0.2650  0.0083 -0.1609
    1TCq1    C314286   2.909   3.300  12.933  0.8103  0.2935  0.8769
    1TCq1    C414287   2.865   3.424  12.968 -0.8921 -0.6343 -0.2209
    1TCq1    C514288   2.948   3.523  13.019  0.4305  0.1871 -0.5016
    1TCq1    C614289   3.080   3.490  13.036  0.0272 -0.2682  0.4573
    1TCq1    C714290   3.131   3.362  13.005  0.4523 -0.0982 -0.3855
    1TCq1    C814291   3.172   3.595  13.074  0.2878  0.3006  0.7952
    1TCq1    O414292   3.133   3.714  13.069 -0.3099 -0.1892  0.0476
    1TCq1    C914293   2.724   3.448  12.938  0.0514  0.3955 -0.5166
    1TCq1    O514294   2.669   3.371  12.856 -0.2344 -0.1433 -0.4404
    1TCq1    O614295   2.676   3.553  12.988  0.7222 -0.1807  0.7600
    1TCq1    H114296   3.223   3.204  13.025  1.6307 -1.0297 -0.6437
    1TCq1    H214297   2.853   3.223  12.881 -0.2918  0.8252  1.2725
    1TCq1    H314298   2.896   3.614  13.049 -0.3231 -0.6606  0.7259
    1TCq1    H414299   3.239   3.350  12.998  0.2681 -3.1865  2.0841
    2MPD2     C14300   3.395   3.747  13.172 -0.0749 -0.0448  0.3439
    2MPD2    C114301   3.398   3.610  13.162  0.1167 -0.0597 -0.7196
    2MPD2    C214302   3.516   3.542  13.190 -0.4350 -0.0637  0.4920
    2MPD2    C314303   3.628   3.611  13.225 -0.9748 -0.5474 -0.0324
    2MPD2    C414304   3.623   3.747  13.222 -0.1376  0.0049  0.3384
    2MPD2    C514305   3.509   3.814  13.186  0.1225  0.7072 -0.5241
    2MPD2     H14306   3.524   3.434  13.195 -0.7125 -0.1195 -0.2014
    2MPD2    H114307   3.709   3.803  13.256 -0.5877  1.4091 -0.8113
    2MPD2    H214308   3.314   3.818  13.173  0.7976  0.9708 -0.6810
    2MPD2    H314309   3.498   3.920  13.208  0.1667  0.7119 -0.5247
    2MPD2     N14310   3.747   3.545  13.265  0.2701 -0.2499  0.4336
    2MPD2    H514311   3.745   3.443  13.262 -0.6891 -0.2411  0.6112
    2MPD2    N114312   3.285   3.537  13.126  0.2226  0.2634 -0.4958
    2MPD2    H714313   3.299   3.438  13.111  0.3298  0.3938 -1.2763
    3TCq1    O114314   4.201   3.311  13.671 -0.3391  0.4952 -0.2782
    3TCq1    C114315   4.170   3.442  13.662 -0.3197  0.0366  0.8008
    3TCq1    O214316   4.145   3.518  13.755 -0.2090 -0.5468  0.0118
    3TCq1    C214317   4.126   3.458  13.530  0.3486 -0.5385 -0.3172
    3TCq1    C314318   4.184   3.389  13.434  0.1672  0.0924  0.1927
    3TCq1    C414319   4.132   3.388  13.314  0.7510 -0.0629 -0.4622
    3TCq1    C514320   4.019   3.452  13.283 -0.4370 -0.4412 -0.1693
    3TCq1    C614321   3.946   3.507  13.387 -0.3207 -0.2245 -0.2233
    3TCq1    C714322   4.014   3.527  13.509 -0.6049 -0.5709 -0.2483
    3TCq1    C814323   3.845   3.600  13.349 -0.2545 -0.7315  0.3740
    3TCq1    O414324   3.847   3.709  13.404  0.0644 -0.1703 -0.4124
    3TCq1    C914325   4.207   3.325  13.208  0.5791  0.4331 -0.5509
    3TCq1    O514326   4.309   3.254  13.239  0.5720  0.8270  0.3211
    3TCq1    O614327   4.154   3.329  13.096 -0.1128 -0.2872  0.2584
    3TCq1    H114328   4.193   3.270  13.583  0.0881 -1.0120  0.3936
    3TCq1    H214329   4.280   3.341  13.450  0.1136  0.4182  1.4745
    3TCq1    H314330   3.985   3.461  13.180 -2.0947 -1.4002  0.2936
    3TCq1    H414331   3.963   3.573  13.593 -1.6356  0.4765 -1.4426
    1MPD2     C14332   2.154   0.528  14.326 -0.0029 -0.3531  0.3873
    1MPD2    C114333   2.096   0.562  14.444  0.1183  0.1094  0.8153
    1MPD2    C214334   2.056   0.454  14.526 -0.2372 -1.1398  0.3635
    1MPD2    C314335   2.069   0.323  14.491  0.0504 -0.1506 -0.2362
    1MPD2    C414336   2.127   0.292  14.370 -0.0923  0.4559 -0.3580
    1MPD2    C514337   2.168   0.396  14.291 -0.0376 -0.0097 -0.0026
    1MPD2     H14338   2.024   0.476  14.627 -0.7784 -0.9154  0.1437
    1MPD2    H114339   2.164   0.194  14.345  1.7563  0.6733  1.5583
    1MPD2    H214340   2.190   0.603  14.256 -1.8148  0.1171 -0.0523
    1MPD2    H314341   2.225   0.358  14.207 -1.9235  0.5183 -1.5210
    1MPD2     N14342   2.038   0.232  14.593  0.1064  0.0311  0.1983
    1MPD2    H514343   2.027   0.277  14.683  2.2040 -0.9699  0.9578
    1MPD2    N114344   2.082   0.696  14.482  0.4886 -0.1635  0.5013
    1MPD2    H714345   2.039   0.709  14.573  1.7729 -1.2550  1.2601
    2TMC3    C114346   2.142   0.924  14.535 -0.2025 -0.7085 -0.1057
    2TMC3    C214347   2.069   0.898  14.654 -0.9414  0.4308  0.6098
    2TMC3    C314348   2.083   0.990  14.756  0.1739  0.3490  0.5367
    2TMC3    C414349   2.240   1.023  14.535  0.4914  0.8648  0.2973
    2TMC3    C514350   2.256   1.101  14.640 -0.8066 -0.4955 -0.3607
    2TMC3    C614351   2.171   1.099  14.747 -0.2718  0.4718  0.1725
    2TMC3     C14352   2.138   0.817  14.433 -0.3218  0.2807 -0.4633
    2TMC3     O14353   2.203   0.837  14.335  0.3256  0.0368 -0.0578
    2TMC3     H14354   1.999   0.817  14.670  0.5269 -0.4946  2.3605
    2TMC3    H114355   2.279   1.062  14.442  1.1494  0.2846  0.3352
    2TMC3    H214356   2.180   1.165  14.832  0.1451  0.2552  0.2937
    2TMC3    C714357   2.330   1.223  14.616  0.9720 -0.6453  0.3552
    2TMC3    C814358   2.069   0.947  14.901  0.1200  0.1199  0.3207
    2TMC3    O114359   2.290   1.326  14.668 -0.1075 -0.0105 -0.2285
    2TMC3    O214360   2.114   1.022  14.988 -0.1352 -0.4795 -0.0980
    3TCq1    O114361   3.350   1.145  14.124  0.5495  0.5139  0.0832
    3TCq1    C114362   3.310   1.241  14.042 -0.2439  0.1493  0.1604
    3TCq1    O214363   3.365   1.349  14.023  0.5714  0.4302  0.2833
    3TCq1    C214364   3.165   1.220  14.030 -0.8727 -0.3425 -0.0166
    3TCq1    C314365   3.112   1.097  13.990 -0.4427  0.0720  0.2587
    3TCq1    C414366   2.977   1.080  13.982 -0.2366 -0.3654  0.5066
    3TCq1    C514367   2.902   1.181  14.030  0.8935 -0.2904  0.1369
    3TCq1    C614368   2.955   1.300  14.066 -0.2110  0.1872  1.0651
    3TCq1    C714369   3.086   1.322  14.075  0.4118 -0.2800 -0.1800
    3TCq1    C814370   2.879   1.379  14.165 -0.4288 -0.1462 -0.4399
    3TCq1    O414371   2.928   1.482  14.206 -0.2334  0.1892  0.0225
    3TCq1    C914372   2.924   0.952  13.939  0.3956 -0.2464  0.0773
    3TCq1    O514373   3.006   0.872  13.896 -0.2653  0.2856  0.1602
    3TCq1    O614374   2.801   0.939  13.933  0.2923 -0.3008 -0.0145
    3TCq1    H114375   3.280   1.082  14.153 -0.3557  1.3190 -0.3512
    3TCq1    H214376   3.164   1.020  13.935  0.9475  0.1561  1.4530
    3TCq1    H314377   2.795   1.169  14.018  0.7384  0.1625  1.0597
    3TCq1    H414378   3.134   1.413  14.112 -0.3366 -1.0826  2.7911
    4MPD2     C14379   2.680   1.500  14.348 -0.9842  0.7041  0.7519
    4MPD2    C114380   2.679   1.365  14.310 -0.6831 -1.0858 -0.5598
    4MPD2    C214381   2.589   1.279  14.367 -0.0597  0.2198  0.0572
    4MPD2    C314382   2.508   1.316  14.471  0.8398  0.3509  0.5428
    4MPD2    C414383   2.513   1.443  14.516 -0.8027 -0.4987  0.3520
    4MPD2    C514384   2.593   1.537  14.446  0.3721 -0.1742  0.0510
    4MPD2     H14385   2.589   1.175  14.337 -1.0383  0.4731 -0.8045
    4MPD2    H114386   2.463   1.481  14.605 -1.5277  0.0640 -0.2976
    4MPD2    H214387   2.739   1.582  14.310 -0.5095 -0.2106 -0.4936
    4MPD2    H314388   2.594   1.640  14.481  1.5760 -0.7412  1.6922
    4MPD2     N14389   2.435   1.213  14.531  0.0370  0.3946 -0.0172
    4MPD2    H514390   2.467   1.121  14.504  1.7368  1.0725 -0.3398
    4MPD2    N114391   2.770   1.309  14.215 -0.2872  0.7635 -0.4599
    4MPD2    H714392   2.744   1.218  14.180 -1.3003  0.7151  0.4037
    5TMC2    C114393   2.045   0.165  14.923  0.6328 -0.1927  0.0071
    5TMC2    C214394   2.175   0.125  14.950  0.5963  0.4108  0.3521
    5TMC2    C314395   2.241   0.039  14.862 -0.6987  0.2129 -0.3045
    5TMC2    C414396   1.986   0.123  14.805  0.5860 -0.0086  0.8398
    5TMC2    C514397   2.048   0.037  14.718 -0.0159  0.3123 -0.1781
    5TMC2    C614398   2.175   4.716  14.745  0.3569 -0.8202  0.0387
    5TMC2     C14399   2.030   0.312  14.931 -0.1735 -0.1778 -0.7862
    5TMC2     O14400   1.981   0.357  14.830  0.3729 -0.0838 -0.4105
    5TMC2     H14401   2.237   0.165  15.029 -1.0743  0.6462  1.5382
    5TMC2    H114402   1.884   0.157  14.788  0.4430 -0.9009 -0.1122
    5TMC2    H214403   2.232   4.662  14.670 -0.1055 -1.1245 -0.0921
    5TMC2    C714404   2.055   0.095  14.583 -0.1121  0.2764  0.1484
    5TMC2    C814405   2.380   0.020  14.880  0.5164  0.3990 -0.4497
    5TMC2    O114406   2.098   0.026  14.497  0.5511 -0.2773  0.0912
    5TMC2    O214407   2.426   4.644  14.825  0.8701  0.3461 -0.0227
    5TMC2    O514408   2.441   0.135  14.876 -0.2461  0.1211 -0.2618
    5TMC2    H514409   2.381   0.212  14.884  0.5495  0.7379 -0.2641
    6MPD2     C14410   2.128   0.768  15.135  0.0060  0.0330 -0.0812
    6MPD2    C114411   2.077   0.732  15.017  0.2800 -0.2143  0.8923
    6MPD2    C214412   2.064   0.599  14.989 -1.1784 -0.0693 -0.2110
    6MPD2    C314413   2.106   0.501  15.079  0.6147 -0.3815  0.3165
    6MPD2    C414414   2.147   0.537  15.203 -0.8832 -0.4828  0.1964
    6MPD2    C514415   2.152   0.672  15.229  0.1718  0.7104 -0.2793
    6MPD2     H14416   2.026   0.569  14.893  0.8807 -1.5111 -0.5784
    6MPD2    H114417   2.180   0.461  15.273  0.3787  0.2661  0.4274
    6MPD2    H214418   2.159   0.870  15.154  1.3266 -0.8305  2.3789
    6MPD2    H314419   2.211   0.709  15.312  0.4296 -3.1622  1.2736
    6MPD2     N14420   2.091   0.365  15.044 -0.2386  0.1721  0.8203
    6MPD2    H514421   2.108   0.299  15.118  0.1820  0.2248  0.7720
    6MPD2    N114422   2.051   0.814  14.908  0.0920 -1.0945  0.2831
    6MPD2    H714423   2.022   0.770  14.821  0.2323  0.3674 -0.5001
  945NH3     N114424   1.537   2.690   1.159  0.8763 -0.3784 -0.6201
  945NH3     H214425   1.614   2.755   1.168  0.9493 -0.4382 -0.8249
  945NH3     H314426   1.474   2.719   1.085 -0.0999 -1.7787 -0.3532
  945NH3     H414427   1.477   2.711   1.238 -0.0897 -2.0546 -0.8956
  946SOD     NA14428   3.599   3.888  12.753  0.1954  0.8029  0.6274
  947SOD     NA14429   0.742   2.540   1.908  0.4430 -0.4059 -0.1946
  948SOD     NA14430   0.114   2.320   8.601 -0.0280 -0.0515  0.3221
  949SOD     NA14431   3.308   0.104  14.704 -0.1958 -0.0216 -0.4141
  950SOD     NA14432   1.469   1.934   0.619  0.2532 -0.0810  0.1970
  951SOD     NA14433   4.536   2.193  17.113  0.1476 -0.0513 -0.0661
  952SOD     NA14434   0.046   4.270   0.662  0.1289  0.4246 -0.2037
  953SOD     NA14435   3.681   1.935  10.101 -0.0649 -0.3787  0.1321
  954SOD     NA14436   2.458   3.573  12.934  0.0250  0.1593  0.0301
  955SOD     NA14437   1.391   2.996  14.417  0.0442  0.1139 -0.4469
  956SOD     NA14438   3.355   0.158   4.990  0.5829  0.5856 -0.1275
  957SOD     NA14439   3.101   0.797  11.100 -0.2997 -0.4910  0.0742
  958SOD     NA14440   0.703   2.318  13.462 -0.0846  0.5193  0.2444
  959SOD     NA14441   0.762   2.313  15.097 -0.3041 -0.2470  0.4611
  960SOD     NA14442   4.358   3.412  12.429 -0.2760  0.1179 -0.1766
  961SOD     NA14443   0.885   1.239   2.008 -0.3357  0.0200  0.0298
  962SOD     NA14444   4.588   3.685  12.317  0.2902 -0.2923 -0.2005
  963SOD     NA14445   0.262   4.696   3.899 -0.3995  0.1769 -0.4682
  964SOD     NA14446   3.461   3.226  10.583 -0.0628 -0.6972  0.1879
  965SOD     NA14447   0.385   2.922   1.297 -0.2904  0.3444 -0.1473
  966SOD     NA14448   0.792   4.265  15.251 -0.1386 -0.0269  0.0943
  967SOD     NA14449   4.347   4.706   4.324  0.3933 -0.0399 -0.1846
  968SOD     NA14450   1.367   4.470   3.535 -0.0931 -0.1674  0.7016
  969SOD     NA14451   0.342   4.589   9.968  0.0724  0.0394 -0.4671
  970SOD     NA14452   2.922   2.601   5.902 -0.3731  0.0314  0.0142
  971SOD     NA14453   0.437   2.200  13.060 -0.2392  0.1671  0.3466
  972SOD     NA14454   2.756   1.847  12.895 -0.2881  0.2378 -0.2987
  973SOD     NA14455   3.356   3.184  10.931 -0.1428  0.2791  0.2495
  974SOD     NA14456   2.533   3.212  12.860  0.1551  0.5817 -0.1530
  975SOD     NA14457   3.834   1.836   0.156 -0.2906  0.2334  0.1793
  976SOD     NA14458   3.683   0.034  14.698 -0.4319 -0.1214 -0.1074
  977SOD     NA14459   3.519   3.554  11.974 -0.1424  0.0641  0.2258
  978SOD     NA14460   0.325   2.998   0.965  0.0587 -0.2494 -0.6252
  979SOD     NA14461   4.289   3.838  11.350 -0.2530  0.1654 -0.0922
  980SOD     NA14462   2.271   2.958  15.114  0.1148  0.0789 -0.5193
  981SOD     NA14463   3.425   4.204  10.046  0.3967 -0.2440  0.0494
  982SOD     NA14464   2.770   0.204  10.625 -0.6967  0.4472  0.1982
  983SOD     NA14465   0.446   3.253  15.428  0.5995 -0.0599  0.1739
  984SOD     NA14466   2.186   4.704  10.134  0.4280  0.5538  0.3219
  985SOD     NA14467   4.248   4.236  11.628  0.1881 -0.1306 -0.4865
  986SOD     NA14468   0.930   2.777  16.447  0.2018 -0.3202 -0.4783
  987SOD     NA14469   0.000   0.476   9.077  0.5783  0.0147  0.0471
  988SOD     NA14470   2.121   3.025   9.379 -0.2817 -0.3516 -0.9024
  989SOD     NA14471   1.772   2.250   8.912 -0.1240 -0.1785 -0.2110
  990SOD     NA14472   0.685   3.406  17.320  0.4136  0.0996  0.0903
  991SOD     NA14473   2.581   0.291  13.533  0.0603  0.5554  0.4938
  992SOD     NA14474   2.983   0.147  15.143 -0.0732  0.2512 -0.5647
  993SOD     NA14475   3.846   1.166  10.663  0.7000  0.5579 -0.0879
  994SOD     NA14476   1.070   0.830  13.777  0.3740  0.0040 -0.1134
  995SOD     NA14477   0.298   4.190  14.615  0.5766 -0.2470  0.0366
  996SOD     NA14478   3.351   0.445   8.989  0.3432  0.2394  0.0343
  997SOD     NA14479   0.781   4.166   9.986 -0.0882  0.3873  0.0985
  998SOD     NA14480   0.944   0.746  12.162 -0.3162  0.1968  0.6816
  999SOD     NA14481   0.539   3.945  17.462 -0.0130  0.2748  0.1805
 1000SOD     NA14482   3.619   2.664   1.702  0.2328  0.5724 -1.0421
 1001SOD     NA14483   4.210   1.315   1.916  0.1114  0.2978 -0.2341
 1002SOD     NA14484   1.346   4.499  12.987  0.2431 -0.0404 -0.3955
 1003SOD     NA14485   0.178   0.493  13.344  0.1054  0.0199  0.0406
 1004SOD     NA14486   3.646   3.422  17.145 -0.0710 -0.6085  0.1727
 1005SOD     NA14487   0.733   0.452  15.909 -0.4522  0.2944 -0.0010
 1006SOD     NA14488   3.089   4.134  10.121 -0.1110  0.1284  0.3815
 1007SOD     NA14489   3.865   4.008  10.132 -0.3226  0.2113 -0.2044
 1008SOD     NA14490   1.451   3.204  12.780 -0.0273  0.2802 -0.1203
 1009SOD     NA14491   1.492   4.000   1.116 -0.1282  0.5484  0.5767
 1010SOD     NA14492   2.374   0.272  10.914 -0.8905 -0.1067  0.1798
 1011SOD     NA14493   3.956   4.319  11.420 -0.4813 -0.3794 -0.0882
 1012SOL     OW14494   2.532   0.942   8.278  0.6622 -0.3383 -0.1769
 1012SOL    HW114495   2.583   0.888   8.339 -0.2965 -0.5530  0.4320
 1012SOL    HW214496   2.509   0.886   8.204  1.5133 -0.4212 -0.3755
 1013SOL     OW14497   2.569   1.340   2.508  0.8375 -0.2708  0.1575
 1013SOL    HW114498   2.533   1.252   2.503 -0.1865  0.1619 -0.1568
 1013SOL    HW214499   2.493   1.384   2.545  0.3782 -1.7519  0.9404
 1014SOL     OW14500   0.464   0.252  12.732 -0.0010  0.0681  0.0065
 1014SOL    HW114501   0.444   0.159  12.735  0.8406 -0.1214 -0.1258
 1014SOL    HW214502   0.422   0.283  12.812 -0.6308  1.9752 -1.0488
 1015SOL     OW14503   2.109   3.674   8.475 -0.2678 -0.0334  0.1070
 1015SOL    HW114504   2.041   3.738   8.454  0.9272  0.3871 -2.4550
 1015SOL    HW214505   2.132   3.662   8.383 -0.3680  0.5062  0.0095
 1016SOL     OW14506   1.361   3.491   2.019 -0.2813 -0.2016 -0.0407
 1016SOL    HW114507   1.390   3.406   1.985  1.0048  1.2261 -2.5239
 1016SOL    HW214508   1.266   3.480   2.021 -0.5384  2.0555 -0.0462
 1017SOL     OW14509   0.626   3.253  15.579  0.1825 -0.0901 -0.4985
 1017SOL    HW114510   0.673   3.229  15.659  1.2948  1.6033 -0.6402
 1017SOL    HW214511   0.663   3.341  15.568 -1.2148  0.6461  0.6622
 1018SOL     OW14512   4.361   2.492   2.416 -0.6164  0.0667  0.6136
 1018SOL    HW114513   4.330   2.463   2.330 -1.2504  2.0669  0.1859
 1018SOL    HW214514   4.453   2.469   2.404  0.3120  3.0828  2.1503
 1019SOL     OW14515   3.281   2.238   9.991  0.3192 -0.5491  0.9120
 1019SOL    HW114516   3.314   2.292   9.919  0.4444 -0.2441  1.2026
 1019SOL    HW214517   3.237   2.303  10.045  0.2171  1.3260 -1.4143
 1020SOL     OW14518   3.493   4.624   3.305  1.1255 -0.3328 -0.2944
 1020SOL    HW114519   3.507   4.530   3.289 -0.5744 -0.6476  0.0701
 1020SOL    HW214520   3.493   4.625   3.400  1.2644 -1.2062 -0.2854
 1021SOL     OW14521   4.143   4.615   7.515  0.4684  0.7850  0.0197
 1021SOL    HW114522   4.202   4.674   7.468  0.6754 -0.1309 -0.8691
 1021SOL    HW214523   4.197   4.575   7.583  2.3894  1.5713 -1.0718
 1022SOL     OW14524   2.150   1.844   8.217 -0.1901 -0.6240  0.1505
 1022SOL    HW114525   2.211   1.795   8.272 -0.6071  0.4865  1.5973
 1022SOL    HW214526   2.125   1.926   8.259  2.7770  0.5588 -0.4616
 1023SOL     OW14527   0.343   2.892   0.024  0.1366 -0.0582 -0.4864
 1023SOL    HW114528   0.357   2.937  17.641  2.5152 -1.7427 -1.0102
 1023SOL    HW214529   0.337   2.799   0.002 -0.7878 -0.0983 -0.0761
 1024SOL     OW14530   1.278   4.035   7.009 -0.2954 -0.6942  1.1248
 1024SOL    HW114531   1.358   3.999   6.970 -2.2519 -1.1381 -2.4932
 1024SOL    HW214532   1.243   3.956   7.050 -0.6753 -0.6456  0.9011
 1025SOL     OW14533   0.830   2.016   1.701  0.0639  0.1429 -0.7052
 1025SOL    HW114534   0.925   2.001   1.703  0.2013  1.1876  0.5344
 1025SOL    HW214535   0.826   2.067   1.782  2.0192 -0.1984 -0.3947
 1026SOL     OW14536   0.318   0.666   8.871 -0.0841  0.4986 -0.2662
 1026SOL    HW114537   0.404   0.703   8.852  0.5617 -1.0243 -0.3392
 1026SOL    HW214538   0.354   0.589   8.914 -2.0208 -0.6680 -0.7182
 1027SOL     OW14539   1.620   2.487   5.260  0.0030  0.1371  0.2382
 1027SOL    HW114540   1.557   2.550   5.297 -1.0330 -0.1821 -0.9672
 1027SOL    HW214541   1.702   2.517   5.299  0.3982 -0.9221  0.1942
 1028SOL     OW14542   3.719   2.562  11.333 -0.3926  0.1506 -0.3222
 1028SOL    HW114543   3.644   2.549  11.275 -0.3144 -2.9137  0.2821
 1028SOL    HW214544   3.679   2.588  11.416 -0.5439  1.2017 -0.7233
 1029SOL     OW14545   1.398   0.294   2.616 -0.0716  0.4144  0.2373
 1029SOL    HW114546   1.327   0.232   2.627 -0.5685  0.5295 -2.4907
 1029SOL    HW214547   1.427   0.277   2.527 -1.8556  0.1824 -0.2857
 1030SOL     OW14548   2.107   0.730   3.123 -0.0656 -0.0256  0.2074
 1030SOL    HW114549   2.137   0.795   3.060  0.4610 -0.2361  0.2348
 1030SOL    HW214550   2.082   0.788   3.195  0.9654  0.7121 -0.0226
 1031SOL     OW14551   1.788   1.255  13.147 -0.0587  0.2036 -0.0119
 1031SOL    HW114552   1.767   1.289  13.234 -0.7783  0.9734 -0.4858
 1031SOL    HW214553   1.841   1.324  13.106 -3.1634  2.9453  0.5808
 1032SOL     OW14554   1.782   2.354   2.374  0.2278 -0.3959 -0.3791
 1032SOL    HW114555   1.780   2.310   2.289  0.1003 -1.3794  0.1333
 1032SOL    HW214556   1.801   2.273   2.422  0.5139 -0.2441 -0.2383
 1033SOL     OW14557   3.271   0.593   1.528  0.3710  0.3065  0.2364
 1033SOL    HW114558   3.275   0.579   1.623 -0.4402  2.2254  0.5518
 1033SOL    HW214559   3.353   0.558   1.494 -0.5515  0.7359 -2.4403
 1034SOL     OW14560   4.644   1.051   2.013  0.1085 -0.5513  0.4073
 1034SOL    HW114561   4.628   1.013   1.926  0.7935  0.0386  0.0341
 1034SOL    HW214562   4.615   0.976   2.066 -3.2001  2.0489  2.2739
 1035SOL     OW14563   2.267   1.067   7.614  0.1080  0.1420 -0.2974
 1035SOL    HW114564   2.323   1.109   7.549  0.1858 -1.0653 -1.0142
 1035SOL    HW214565   2.305   0.979   7.621  0.6281  0.3069 -1.1228
 1036SOL     OW14566   2.290   4.519   1.651 -0.3545 -0.2219 -0.1028
 1036SOL    HW114567   2.335   4.594   1.611  0.0331 -0.9794 -1.1058
 1036SOL    HW214568   2.239   4.489   1.576  1.1530  0.1807 -1.3051
 1037SOL     OW14569   2.122   4.080   3.300  0.1547  0.1903 -0.1409
 1037SOL    HW114570   2.200   4.104   3.249  1.0352 -1.2428  0.5242
 1037SOL    HW214571   2.139   3.989   3.324 -0.6106  0.1579  0.2686
 1038SOL     OW14572   0.223   1.231   7.955  0.3253  0.4613  0.1401
 1038SOL    HW114573   0.251   1.139   7.958  0.2011  0.4451  0.8036
 1038SOL    HW214574   0.262   1.259   8.038 -0.9866 -3.2653  2.0153
 1039SOL     OW14575   2.034   1.663   6.410 -0.0857 -0.2366 -0.0063
 1039SOL    HW114576   1.983   1.584   6.394 -0.3092 -0.0422 -0.2578
 1039SOL    HW214577   2.068   1.639   6.496  2.1984  0.3699 -0.7210
 1040SOL     OW14578   2.866   0.183   8.862 -0.0039  0.1890 -0.5355
 1040SOL    HW114579   2.907   0.208   8.945 -0.5567  1.3681 -0.6146
 1040SOL    HW214580   2.891   0.091   8.871  0.1506  0.1142 -1.7410
 1041SOL     OW14581   2.648   1.184  15.095 -0.1818  0.0176 -0.3174
 1041SOL    HW114582   2.614   1.271  15.076 -0.6575 -0.1795 -0.3836
 1041SOL    HW214583   2.568   1.132  15.106  0.7241 -1.1423  0.9374
 1042SOL     OW14584   0.255   3.537   7.210 -0.4659 -0.0594 -0.2821
 1042SOL    HW114585   0.218   3.614   7.253  1.7550  1.0647 -0.3864
 1042SOL    HW214586   0.206   3.469   7.257 -0.8667  0.1381 -0.4171
 1043SOL     OW14587   0.420   0.057   6.593 -0.1431  0.5059  0.3153
 1043SOL    HW114588   0.496   0.039   6.647 -0.7600  1.3235  1.4590
 1043SOL    HW214589   0.388   4.693   6.580 -1.3621  1.0480 -0.4118
 1044SOL     OW14590   0.948   0.451   9.325 -0.6053  0.0523  0.0231
 1044SOL    HW114591   0.969   0.508   9.400  0.2507 -0.3443  0.0884
 1044SOL    HW214592   0.870   0.405   9.356  1.8698 -3.0318  1.7593
 1045SOL     OW14593   0.508   3.138   7.080 -0.6055  0.1702 -0.4778
 1045SOL    HW114594   0.479   3.111   7.166 -0.9951  2.4247  0.0977
 1045SOL    HW214595   0.603   3.126   7.092 -0.5987 -0.2533 -0.9253
 1046SOL     OW14596   2.825   2.831   1.548 -0.4668  0.1450  0.0200
 1046SOL    HW114597   2.877   2.911   1.555 -0.8740  0.5336 -1.3176
 1046SOL    HW214598   2.740   2.871   1.532 -0.3167  0.3973 -0.1532
 1047SOL     OW14599   0.340   2.316   7.378  0.3344 -0.4897  0.1003
 1047SOL    HW114600   0.251   2.341   7.402  0.3250 -0.2618 -0.1793
 1047SOL    HW214601   0.381   2.331   7.463 -1.5295 -3.1810  1.4849
 1048SOL     OW14602   1.365   1.998   7.559  0.1530  0.6562  0.0016
 1048SOL    HW114603   1.453   1.960   7.565 -0.1385 -0.0030  0.2209
 1048SOL    HW214604   1.375   2.081   7.604 -1.8904  1.3348 -0.8025
 1049SOL     OW14605   1.828   2.461   3.788  0.3180 -0.1301  0.0381
 1049SOL    HW114606   1.788   2.376   3.808  0.9733 -0.8238 -1.6298
 1049SOL    HW214607   1.819   2.478   3.694  1.5155 -1.4063 -0.3135
 1050SOL     OW14608   4.400   3.290   4.982 -0.0505 -0.1552  0.2810
 1050SOL    HW114609   4.459   3.308   4.908 -2.5463 -1.1037 -1.9591
 1050SOL    HW214610   4.335   3.359   4.970 -1.5741 -1.7845 -1.0160
 1051SOL     OW14611   3.526   2.312   4.202 -0.5302 -0.3876 -0.1203
 1051SOL    HW114612   3.468   2.374   4.248  1.1446 -1.1122  2.9565
 1051SOL    HW214613   3.480   2.282   4.124  1.3843 -1.9212 -0.6641
 1052SOL     OW14614   3.950   0.952   0.593 -0.0337 -0.3777  0.0453
 1052SOL    HW114615   3.870   0.901   0.607 -0.2528 -0.1640 -0.4185
 1052SOL    HW214616   4.009   0.891   0.550 -2.0118 -1.3835 -1.2332
 1053SOL     OW14617   0.133   3.343   0.608 -0.5587 -0.2308 -0.2713
 1053SOL    HW114618   0.134   3.382   0.521 -1.6054 -1.1652 -0.7027
 1053SOL    HW214619   0.221   3.339   0.645  0.7168  3.0147 -2.9479
 1054SOL     OW14620   0.116   2.885   1.559  0.2067  0.3264 -0.1341
 1054SOL    HW114621   0.097   2.923   1.645  0.3866  1.2982 -0.5237
 1054SOL    HW214622   0.154   2.802   1.587 -0.8085 -0.2876 -0.5688
 1055SOL     OW14623   2.227   2.233   8.077  0.3025  0.2110  0.2918
 1055SOL    HW114624   2.193   2.252   7.990 -0.3187 -0.6998  0.3396
 1055SOL    HW214625   2.261   2.316   8.110  0.6609  0.0613  0.3039
 1056SOL     OW14626   1.231   4.118   7.312  0.0321  0.3777 -0.2568
 1056SOL    HW114627   1.297   4.147   7.248 -0.6094  1.2752 -0.5048
 1056SOL    HW214628   1.209   4.201   7.354  1.0345 -0.1079  1.2023
 1057SOL     OW14629   2.137   2.990   7.079 -0.0902 -0.8764 -0.2272
 1057SOL    HW114630   2.126   2.898   7.057  0.0866 -0.9383 -0.0432
 1057SOL    HW214631   2.177   3.023   6.998 -1.3188  1.5371  0.1316
 1058SOL     OW14632   4.596   4.292   1.058 -0.1363  0.3026  0.3463
 1058SOL    HW114633   4.675   4.339   1.083  1.7957 -2.3547 -0.7053
 1058SOL    HW214634   4.525   4.354   1.074  0.6803  1.4658 -0.5414
 1059SOL     OW14635   4.468   0.715   2.354 -0.1321  0.3192  1.3273
 1059SOL    HW114636   4.522   0.673   2.420 -1.1727 -0.7796  1.4915
 1059SOL    HW214637   4.388   0.662   2.359 -0.5604  0.9761  1.4213
 1060SOL     OW14638   2.747   0.439   1.807 -0.4172 -0.0011 -0.3734
 1060SOL    HW114639   2.731   0.491   1.729 -0.1544  0.3624 -0.1836
 1060SOL    HW214640   2.765   0.510   1.869  0.2394 -0.0392 -0.5283
 1061SOL     OW14641   1.512   4.430   8.772  0.0394  0.2365 -0.4812
 1061SOL    HW114642   1.436   4.393   8.818 -1.2766  0.3308 -2.6033
 1061SOL    HW214643   1.465   4.460   8.694  0.3383 -1.4349 -1.2960
 1062SOL     OW14644   1.159   3.738   5.937 -0.1913  0.8201 -0.2424
 1062SOL    HW114645   1.097   3.793   5.985 -0.0845  0.4088  0.3719
 1062SOL    HW214646   1.148   3.648   5.967 -1.6219  0.6632 -1.2117
 1063SOL     OW14647   2.143   0.880   3.794 -0.5815  0.1578 -0.2460
 1063SOL    HW114648   2.049   0.894   3.784 -0.5034  0.9796  0.2072
 1063SOL    HW214649   2.166   0.957   3.845 -3.4531  0.8711 -0.0105
 1064SOL     OW14650   0.826   1.705   9.024 -0.3814  0.4831 -0.3439
 1064SOL    HW114651   0.874   1.640   8.974 -1.8824 -1.7353  1.0740
 1064SOL    HW214652   0.769   1.734   8.952 -1.9244 -0.6611  0.4123
 1065SOL     OW14653   3.210   2.099   5.850  0.7510 -0.1370 -0.1675
 1065SOL    HW114654   3.287   2.043   5.857  1.0390 -0.0867 -3.1540
 1065SOL    HW214655   3.247   2.174   5.897  1.4280 -0.1343 -0.7127
 1066SOL     OW14656   3.138   1.780  11.740  0.3075  0.2709  0.3786
 1066SOL    HW114657   3.148   1.691  11.708  0.2959  0.2024  0.5654
 1066SOL    HW214658   3.069   1.800  11.676  2.2998 -0.5249 -2.0211
 1067SOL     OW14659   2.437   2.123   0.848 -0.1161  0.3071  0.1646
 1067SOL    HW114660   2.525   2.095   0.822 -0.1713 -0.1001  0.4199
 1067SOL    HW214661   2.459   2.187   0.916 -0.0250 -0.0820  0.5047
 1068SOL     OW14662   2.506   2.084  13.687 -0.0797  0.0656  0.6853
 1068SOL    HW114663   2.431   2.026  13.677 -0.3738  0.5585  0.0306
 1068SOL    HW214664   2.504   2.141  13.610 -1.3805 -0.9086  0.0008
 1069SOL     OW14665   1.429   0.737   8.113 -0.2293 -0.0305 -0.3699
 1069SOL    HW114666   1.511   0.690   8.127 -0.8822 -0.5248  1.8276
 1069SOL    HW214667   1.418   0.738   8.018 -2.2703  2.3587 -0.0958
 1070SOL     OW14668   3.256   4.608   7.674  0.5260  0.2589  0.1026
 1070SOL    HW114669   3.253   4.659   7.593 -1.3286  0.0418  0.0374
 1070SOL    HW214670   3.211   4.670   7.732  0.0650 -0.4567  0.5111
 1071SOL     OW14671   2.802   2.158  10.520 -0.4146 -0.4188 -0.1871
 1071SOL    HW114672   2.787   2.153  10.425  2.3823 -0.8620 -0.6064
 1071SOL    HW214673   2.784   2.068  10.547  1.6788 -0.7094  0.2372
 1072SOL     OW14674   1.415   4.020   8.843  0.4737  0.2893  0.4189
 1072SOL    HW114675   1.457   3.967   8.910  1.7069  1.9620  0.9807
 1072SOL    HW214676   1.418   4.110   8.876  1.0777  0.8735 -1.2236
 1073SOL     OW14677   0.689   4.407  15.075  0.6301  0.2702  0.2280
 1073SOL    HW114678   0.668   4.342  15.008 -0.4481 -2.7699  3.4901
 1073SOL    HW214679   0.719   4.471  15.011 -0.1120 -0.2286 -0.6224
 1074SOL     OW14680   0.653   3.906   1.913  0.0730 -0.4282 -0.4120
 1074SOL    HW114681   0.593   3.964   1.961  0.2999  2.0011 -3.0684
 1074SOL    HW214682   0.606   3.896   1.830 -0.1679  2.0974 -0.5910
 1075SOL     OW14683   3.654   1.332  13.983  0.2280  0.1812 -0.1098
 1075SOL    HW114684   3.678   1.271  14.053 -0.3328  0.3760  0.2517
 1075SOL    HW214685   3.565   1.355  14.010  0.4116  0.4449  0.2717
 1076SOL     OW14686   3.838   1.675   5.388 -0.3793 -0.2551 -0.6620
 1076SOL    HW114687   3.769   1.706   5.447 -0.1553 -2.1711  0.5918
 1076SOL    HW214688   3.890   1.619   5.444 -2.0504 -0.9789  0.1686
 1077SOL     OW14689   0.849   4.684  12.253  0.1644 -0.0115 -0.4528
 1077SOL    HW114690   0.862   0.009  12.334  1.7836 -1.1500 -0.0139
 1077SOL    HW214691   0.931   4.638  12.233 -0.3214 -0.7464 -0.7716
 1078SOL     OW14692   2.378   2.072   2.900 -0.0542 -0.0428  0.3158
 1078SOL    HW114693   2.354   2.023   2.979 -0.3063 -1.7476 -0.8277
 1078SOL    HW214694   2.295   2.121   2.895  0.3216  0.5131 -0.6032
 1079SOL     OW14695   4.405   2.745   4.181 -0.0949 -0.3783  0.0903
 1079SOL    HW114696   4.379   2.756   4.089 -0.2927  0.4695  0.2474
 1079SOL    HW214697   4.380   2.653   4.193  2.7564 -1.2725 -0.8104
 1080SOL     OW14698   0.652   0.146   8.537 -0.0257  0.2610 -0.0656
 1080SOL    HW114699   0.634   0.095   8.457  3.4926  2.7725 -2.4733
 1080SOL    HW214700   0.712   0.215   8.508 -0.0711  0.3596  0.0749
 1081SOL     OW14701   3.952   0.232  12.788 -1.1106  0.5379 -0.4294
 1081SOL    HW114702   3.930   0.153  12.837  2.4131 -1.9500 -2.8632
 1081SOL    HW214703   3.890   0.292  12.830  0.2329 -0.4136  2.8486
 1082SOL     OW14704   3.328   4.395   9.965 -0.3488  0.2652 -0.1067
 1082SOL    HW114705   3.401   4.438   9.920  1.0128 -1.7481  0.1411
 1082SOL    HW214706   3.255   4.437   9.920 -1.0982  0.9913  1.8035
 1083SOL     OW14707   1.711   4.286   4.755 -0.2414 -0.1361 -0.1651
 1083SOL    HW114708   1.717   4.213   4.693 -1.4120 -0.7388  0.4237
 1083SOL    HW214709   1.658   4.248   4.825  1.3721 -1.0369  0.5594
 1084SOL     OW14710   1.840   1.341   3.648 -0.1073  0.0727 -0.7567
 1084SOL    HW114711   1.885   1.424   3.633  0.6645 -0.0684  0.8009
 1084SOL    HW214712   1.766   1.344   3.710  0.7484 -0.4345  0.2918
 1085SOL     OW14713   3.223   0.786   4.245 -0.0151 -0.2918 -0.1506
 1085SOL    HW114714   3.277   0.746   4.177 -0.4734  0.0779 -0.7417
 1085SOL    HW214715   3.202   0.871   4.206  0.8422 -0.9439 -2.0275
 1086SOL     OW14716   2.951   0.004   4.868 -0.0200 -0.2124 -0.0972
 1086SOL    HW114717   2.994   4.704   4.786 -1.7506 -2.6118 -0.2876
 1086SOL    HW214718   2.949   0.098   4.850 -0.6924 -0.1780  0.1552
 1087SOL     OW14719   4.516   2.937   2.095 -0.0096 -0.1199 -0.2394
 1087SOL    HW114720   4.563   2.922   2.013 -0.5533 -0.1333 -0.5459
 1087SOL    HW214721   4.551   2.866   2.150  2.4890  1.1718 -0.1515
 1088SOL     OW14722   1.213   3.649  10.514  0.1230  0.7337 -0.2274
 1088SOL    HW114723   1.220   3.624  10.422 -1.6447  0.1201 -0.1855
 1088SOL    HW214724   1.119   3.661  10.526 -0.1488 -3.2132  1.8198
 1089SOL     OW14725   3.076   0.223   2.196  0.2694 -0.9073 -0.5207
 1089SOL    HW114726   3.048   0.265   2.115  0.7001  0.8446  0.2190
 1089SOL    HW214727   3.008   0.159   2.215 -0.4009  0.6860  2.5057
 1090SOL     OW14728   1.040   3.032   1.237  0.0857  0.5414  0.3393
 1090SOL    HW114729   1.127   3.015   1.270  0.0175  0.6921  0.5943
 1090SOL    HW214730   1.033   3.125   1.259  0.8031  0.6121  0.2425
 1091SOL     OW14731   0.709   3.516   4.458  0.3091  0.7848  0.8455
 1091SOL    HW114732   0.685   3.485   4.546 -1.3369 -0.8992 -0.1967
 1091SOL    HW214733   0.785   3.568   4.482  0.0588  0.5048  2.2700
 1092SOL     OW14734   1.617   3.140   8.837  0.0153 -0.1937 -0.1781
 1092SOL    HW114735   1.614   3.184   8.922 -0.4140  1.3725 -1.0213
 1092SOL    HW214736   1.713   3.144   8.834 -0.0565  2.0725  1.0384
 1093SOL     OW14737   4.097   4.384   6.778 -0.3265  0.1702 -0.0394
 1093SOL    HW114738   4.153   4.353   6.849  0.9472 -1.0629 -1.5820
 1093SOL    HW214739   4.024   4.413   6.832  1.2089  0.0917  2.0545
 1094SOL     OW14740   2.734   0.622   5.748 -0.0336 -0.2998 -0.3404
 1094SOL    HW114741   2.706   0.604   5.658 -0.4760 -1.1629 -0.0314
 1094SOL    HW214742   2.818   0.667   5.737  0.2277 -0.6590  0.2022
 1095SOL     OW14743   2.498   4.218   4.557 -0.4076 -0.0659 -0.4503
 1095SOL    HW114744   2.497   4.122   4.556  0.5830 -0.0639 -0.8039
 1095SOL    HW214745   2.405   4.224   4.582  0.0483 -1.2672  1.5327
 1096SOL     OW14746   3.916   1.947   5.876  0.2707  0.1473  0.4256
 1096SOL    HW114747   4.012   1.946   5.873  0.2298 -1.1590 -0.2934
 1096SOL    HW214748   3.914   2.042   5.863 -3.5554 -0.2508 -1.7784
 1097SOL     OW14749   3.147   3.733   2.516 -0.6619 -1.0082  0.4949
 1097SOL    HW114750   3.203   3.655   2.524 -0.5983 -1.0131  0.0339
 1097SOL    HW214751   3.056   3.705   2.521 -0.5947 -1.5186 -0.8850
 1098SOL     OW14752   3.983   3.752  17.284 -0.0590 -0.4085  0.5133
 1098SOL    HW114753   3.954   3.785  17.370  3.0861  2.4364  0.4983
 1098SOL    HW214754   3.975   3.836  17.239  2.0837 -1.1184 -1.1858
 1099SOL     OW14755   2.878   0.433   1.332 -0.0978 -0.5903 -0.1949
 1099SOL    HW114756   2.958   0.476   1.303  0.8536 -1.7387  0.7183
 1099SOL    HW214757   2.891   0.428   1.427  1.4836 -1.9527 -0.4843
 1100SOL     OW14758   0.673   0.937   4.012 -0.7370  0.1962  0.9595
 1100SOL    HW114759   0.682   1.011   3.952 -0.4481 -0.0730  0.6720
 1100SOL    HW214760   0.694   0.974   4.098  0.3538  0.2206  0.6812
 1101SOL     OW14761   2.317   0.746   6.132 -0.0402 -0.3980  0.2023
 1101SOL    HW114762   2.356   0.721   6.049 -0.2845 -0.0149 -0.0287
 1101SOL    HW214763   2.334   0.841   6.136 -1.3296 -0.1356 -0.4757
 1102SOL     OW14764   2.400   3.020  12.285  0.4532  0.5627  0.3269
 1102SOL    HW114765   2.375   2.927  12.281  1.9299  0.1975 -0.3458
 1102SOL    HW214766   2.487   3.009  12.322 -0.5661  0.8677  2.7905
 1103SOL     OW14767   2.493   3.168   8.213 -0.0040  0.1756  0.3250
 1103SOL    HW114768   2.570   3.114   8.197 -0.7544 -0.6648 -0.4440
 1103SOL    HW214769   2.426   3.112   8.174  0.2559  0.1247 -0.0440
 1104SOL     OW14770   1.890   1.828   7.844  0.0344  0.4361 -0.0371
 1104SOL    HW114771   1.904   1.815   7.938 -0.9435  0.3857  0.1091
 1104SOL    HW214772   1.854   1.742   7.821  0.7975 -0.5004  2.2880
 1105SOL     OW14773   1.945   0.778  14.168  0.7534  0.6295  0.1659
 1105SOL    HW114774   2.003   0.838  14.122  2.0133  0.7360  1.8905
 1105SOL    HW214775   1.979   0.768  14.257 -1.8373  1.3933  1.2455
 1106SOL     OW14776   4.040   1.898   7.495  0.6695  0.1367  0.0416
 1106SOL    HW114777   4.066   1.975   7.545  0.3379  0.0182  0.3950
 1106SOL    HW214778   3.993   1.849   7.562  2.7232 -1.7833  0.0666
 1107SOL     OW14779   0.427   0.657   5.934 -0.3752 -0.7356 -0.0463
 1107SOL    HW114780   0.459   0.572   5.966 -0.6113 -0.9643 -0.4284
 1107SOL    HW214781   0.427   0.706   6.016 -1.1905 -1.3483  0.3252
 1108SOL     OW14782   3.359   3.862   6.302 -0.1517  0.1572  0.6867
 1108SOL    HW114783   3.444   3.863   6.346 -0.3856 -2.4196  1.2130
 1108SOL    HW214784   3.308   3.912   6.366 -0.2548  0.7165  0.1654
 1109SOL     OW14785   3.337   3.115   7.722 -0.4461 -0.2647  0.2397
 1109SOL    HW114786   3.357   3.086   7.633 -1.1922  0.4992 -0.1756
 1109SOL    HW214787   3.354   3.035   7.772 -0.9522 -1.3340 -1.3128
 1110SOL     OW14788   4.706   3.980   6.948  0.5693 -0.2794  0.3362
 1110SOL    HW114789   0.047   3.911   6.948 -0.0203 -0.8407 -0.8406
 1110SOL    HW214790   4.702   4.003   7.041 -1.8254 -1.2196  0.4781
 1111SOL     OW14791   1.812   1.317  14.823 -0.4876  0.4400  0.4382
 1111SOL    HW114792   1.872   1.321  14.898  0.3154  0.3034 -0.2025
 1111SOL    HW214793   1.855   1.380  14.765 -1.9066 -0.0425 -1.1344
 1112SOL     OW14794   1.662   1.361   4.628 -0.6728  0.3833 -0.4823
 1112SOL    HW114795   1.620   1.275   4.636  0.7514 -0.2272  0.5946
 1112SOL    HW214796   1.648   1.366   4.534 -1.4800  2.1391 -0.2507
 1113SOL     OW14797   0.006   4.648   7.808 -0.4498  0.4779  0.0967
 1113SOL    HW114798   0.037   4.561   7.833  2.5870  1.5584  0.0239
 1113SOL    HW214799   4.637   4.636   7.827 -1.2697 -0.1151 -4.2541
 1114SOL     OW14800   2.638   0.160   6.755  0.0819  0.1688 -0.2430
 1114SOL    HW114801   2.604   0.070   6.759 -0.0496  0.2605  0.7214
 1114SOL    HW214802   2.596   0.192   6.835  0.7613  0.0182  0.1710
 1115SOL     OW14803   0.364   1.173   3.668  0.2190  0.3359 -0.3894
 1115SOL    HW114804   0.350   1.081   3.693  1.4305  0.4745  0.8537
 1115SOL    HW214805   0.285   1.214   3.703  0.7733  0.9625  0.1404
 1116SOL     OW14806   2.672   2.863  16.167  0.2511 -0.2168  0.0123
 1116SOL    HW114807   2.666   2.776  16.127 -3.7969 -0.7852  1.9082
 1116SOL    HW214808   2.722   2.863  16.249 -1.5372  2.5302  1.1052
 1117SOL     OW14809   3.916   2.481  11.011 -0.4711  0.7657 -0.3489
 1117SOL    HW114810   3.903   2.473  10.916 -1.6210  0.6887 -0.1835
 1117SOL    HW214811   3.942   2.390  11.026  1.0650  1.4473  1.0703
 1118SOL     OW14812   1.185   3.749  15.537 -0.0034 -0.6303 -0.0107
 1118SOL    HW114813   1.174   3.834  15.495 -0.8538  0.4313  2.3557
 1118SOL    HW214814   1.280   3.761  15.543  0.1948 -1.0862 -2.1824
 1119SOL     OW14815   2.094   1.552   3.342 -0.3663  0.0094  0.5636
 1119SOL    HW114816   2.141   1.620   3.390  1.2580  0.0636 -1.1066
 1119SOL    HW214817   2.009   1.586   3.372 -0.7961  0.2555 -0.9246
 1120SOL     OW14818   1.817   2.547   9.927 -0.2359 -0.2126  0.3766
 1120SOL    HW114819   1.774   2.493   9.993 -1.6159  2.2090  1.4566
 1120SOL    HW214820   1.744   2.596   9.888  1.1191 -1.0875 -3.2802
 1121SOL     OW14821   1.550   0.188   3.901 -0.0221 -0.7731  0.0558
 1121SOL    HW114822   1.610   0.154   3.835  0.4885  1.2572 -0.5132
 1121SOL    HW214823   1.476   0.131   3.878 -1.1016 -0.8638  3.7125
 1122SOL     OW14824   2.853   4.027   9.851 -0.5275  0.1189 -0.1825
 1122SOL    HW114825   2.857   4.011   9.946 -0.4918 -2.3598 -0.5947
 1122SOL    HW214826   2.944   4.007   9.829 -0.4154 -1.1922  1.4427
 1123SOL     OW14827   2.740   3.920   9.046  0.4410 -0.0867  0.1105
 1123SOL    HW114828   2.801   3.991   9.025  2.1367 -1.4147  0.5587
 1123SOL    HW214829   2.744   3.878   8.960  0.0820  2.0806 -0.9630
 1124SOL     OW14830   4.501   0.401   7.459 -0.2803  0.1331  0.5129
 1124SOL    HW114831   4.555   0.325   7.481  0.9473  0.8985  0.1765
 1124SOL    HW214832   4.423   0.389   7.512  1.1529  0.9728  2.8372
 1125SOL     OW14833   2.706   1.978   2.309 -0.2196 -0.1638  0.6341
 1125SOL    HW114834   2.748   2.042   2.251 -1.7774 -0.1318 -0.4460
 1125SOL    HW214835   2.623   2.016   2.337  0.0724  0.0468  1.2220
 1126SOL     OW14836   1.688   4.155  15.883 -0.2459  0.4819 -0.2561
 1126SOL    HW114837   1.678   4.244  15.918 -2.4885  1.2756 -2.8909
 1126SOL    HW214838   1.759   4.130  15.943  0.0194  1.6776 -0.0629
 1127SOL     OW14839   2.931   4.478   3.851 -0.1148  0.4161 -0.3433
 1127SOL    HW114840   2.857   4.527   3.813 -0.4393  0.4250  0.3115
 1127SOL    HW214841   2.896   4.390   3.840 -0.7338  0.8302 -1.7418
 1128SOL     OW14842   0.489   1.282  11.659 -0.2191  0.0431 -0.2903
 1128SOL    HW114843   0.466   1.198  11.699  2.3867 -0.1167  0.8794
 1128SOL    HW214844   0.403   1.325  11.656 -0.0160  0.3973 -0.9995
 1129SOL     OW14845   2.104   3.968   4.269  0.1830  0.0116 -0.0828
 1129SOL    HW114846   2.046   3.894   4.252  1.1914 -0.7679 -0.1298
 1129SOL    HW214847   2.126   3.989   4.179  0.3962  1.3605  0.2900
 1130SOL     OW14848   2.479   1.626  11.935 -0.6163 -0.5002 -0.9980
 1130SOL    HW114849   2.384   1.612  11.942 -1.0716  2.3704 -1.5079
 1130SOL    HW214850   2.497   1.612  12.028  4.0945 -0.1404 -1.8697
 1131SOL     OW14851   0.403   4.547   3.763 -1.1262  0.2579  0.5812
 1131SOL    HW114852   0.444   4.462   3.747 -0.6230  0.5939  0.0426
 1131SOL    HW214853   0.423   4.588   3.679  0.5518 -1.7636  0.0177
 1132SOL     OW14854   2.104   1.064   8.428 -0.0497  0.0001  0.1860
 1132SOL    HW114855   2.187   1.079   8.384 -0.9768  0.5728 -1.3597
 1132SOL    HW214856   2.096   1.152   8.464  0.0087  0.2585 -0.4271
 1133SOL     OW14857   2.173   0.091   4.470  0.1218  0.5474 -0.4971
 1133SOL    HW114858   2.170   0.169   4.414  0.0671  2.3788  2.0925
 1133SOL    HW214859   2.095   0.046   4.436 -0.1858  1.0138 -0.4027
 1134SOL     OW14860   3.935   1.581   4.327 -0.1595 -0.0230 -0.1515
 1134SOL    HW114861   3.859   1.638   4.320 -1.0544 -1.3671 -1.2253
 1134SOL    HW214862   3.960   1.584   4.419  0.7543  2.0803 -0.4449
 1135SOL     OW14863   0.625   0.772   7.940  0.2778  0.1422 -0.1614
 1135SOL    HW114864   0.716   0.751   7.958 -0.2514 -0.5043  1.7259
 1135SOL    HW214865   0.612   0.818   8.022  1.6256  1.6156 -0.7835
 1136SOL     OW14866   1.707   4.597   4.171 -0.2013 -0.5945 -0.2613
 1136SOL    HW114867   1.664   4.680   4.193  0.4137  0.1570 -1.8623
 1136SOL    HW214868   1.770   4.625   4.104  1.2514 -2.6823  0.2351
 1137SOL     OW14869   0.727   3.048   9.197  0.0898 -0.0333 -0.2324
 1137SOL    HW114870   0.712   3.068   9.105  0.5062  2.6041  0.2708
 1137SOL    HW214871   0.761   2.959   9.185 -0.9199 -0.4165 -0.2463
 1138SOL     OW14872   3.746   1.526   6.895 -0.3308 -0.0545  0.0015
 1138SOL    HW114873   3.818   1.587   6.904  0.3005 -0.7922 -0.0483
 1138SOL    HW214874   3.757   1.505   6.802 -0.9197  0.9960 -0.2966
 1139SOL     OW14875   3.440   1.455  14.886 -0.5542  0.0408  0.3587
 1139SOL    HW114876   3.479   1.543  14.888 -0.3819 -0.0770  2.4795
 1139SOL    HW214877   3.524   1.420  14.855  1.5202  1.5900  4.2210
 1140SOL     OW14878   3.852   3.826   8.499 -0.0999 -0.3139  0.5025
 1140SOL    HW114879   3.931   3.878   8.481  0.4978 -0.9440  1.2763
 1140SOL    HW214880   3.886   3.776   8.573 -1.5957 -0.8621  0.8110
 1141SOL     OW14881   3.225   3.464   0.647  0.1098  0.2082 -0.7117
 1141SOL    HW114882   3.212   3.557   0.662  0.9215  0.3247 -0.7767
 1141SOL    HW214883   3.317   3.442   0.633  0.4046  0.5801  0.7027
 1142SOL     OW14884   3.274   2.149  11.904 -0.4083 -0.6372 -0.2734
 1142SOL    HW114885   3.225   2.085  11.854 -0.9846 -0.9931  0.7564
 1142SOL    HW214886   3.276   2.120  11.995 -0.4725  0.8956  0.2208
 1143SOL     OW14887   3.526   1.681   8.310 -0.3868  0.0049  0.5670
 1143SOL    HW114888   3.557   1.692   8.220 -0.4050 -1.6800  0.3564
 1143SOL    HW214889   3.606   1.633   8.333 -0.0371 -0.1860 -1.0560
 1144SOL     OW14890   2.599   2.264   5.193 -0.1168  0.3565  0.2808
 1144SOL    HW114891   2.548   2.183   5.201  1.6271 -0.7437  0.0593
 1144SOL    HW214892   2.534   2.334   5.184 -0.9410 -0.4030  0.3009
 1145SOL     OW14893   1.855   1.655   0.481  0.6703  0.0177 -0.0166
 1145SOL    HW114894   1.792   1.593   0.442  0.9423  0.7348 -1.6080
 1145SOL    HW214895   1.929   1.627   0.427  1.3623  0.2711  0.8115
 1146SOL     OW14896   4.120   3.758   4.889  0.1134 -0.6433  0.0965
 1146SOL    HW114897   4.096   3.807   4.968 -1.3679 -0.8787 -0.2144
 1146SOL    HW214898   4.203   3.801   4.869  0.3677 -0.2230  1.9749
 1147SOL     OW14899   0.468   4.360   8.345  0.3323 -0.2344  0.1786
 1147SOL    HW114900   0.401   4.378   8.412 -0.8654  0.4222 -1.1921
 1147SOL    HW214901   0.411   4.370   8.269 -0.7271  2.6336  1.3413
 1148SOL     OW14902   3.471   2.150   4.833  0.6295  1.1674 -0.2417
 1148SOL    HW114903   3.438   2.188   4.752 -1.6181 -0.0640  0.0735
 1148SOL    HW214904   3.388   2.134   4.878  1.4596 -0.1811  0.8212
 1149SOL     OW14905   3.187   0.956  14.234  0.3633  0.0412 -0.4352
 1149SOL    HW114906   3.097   0.971  14.265  1.4138  0.7306  2.2189
 1149SOL    HW214907   3.179   0.874  14.186 -1.8241  0.4032 -0.6993
 1150SOL     OW14908   2.558   2.219  11.535 -0.0348  0.0772 -0.0836
 1150SOL    HW114909   2.576   2.128  11.554 -0.3183  0.4457  1.9040
 1150SOL    HW214910   2.531   2.209  11.443 -1.1809  0.5662  0.1946
 1151SOL     OW14911   0.066   2.874  11.384 -0.5003 -0.6037 -0.3937
 1151SOL    HW114912   0.089   2.965  11.402 -1.2406 -0.4570 -0.1946
 1151SOL    HW214913   0.031   2.851  11.470 -1.0383 -0.3117 -0.5384
 1152SOL     OW14914   1.560   2.236  13.143 -0.3419  0.5075  0.9940
 1152SOL    HW114915   1.586   2.144  13.150  0.5964  0.6971  0.0192
 1152SOL    HW214916   1.622   2.282  13.198 -1.0297 -0.2763  2.4302
 1153SOL     OW14917   4.677   3.797   9.836 -0.2005 -0.2310  0.2078
 1153SOL    HW114918   0.027   3.809   9.895 -1.5911  0.4626  1.7977
 1153SOL    HW214919   4.608   3.772   9.897 -0.3230  0.6152  0.4247
 1154SOL     OW14920   2.976   4.381   2.459  0.5025  0.0068 -0.0506
 1154SOL    HW114921   2.964   4.289   2.435  0.4265 -0.2286  0.8845
 1154SOL    HW214922   3.071   4.380   2.472  0.5921 -1.5303 -0.8511
 1155SOL     OW14923   0.945   2.777  15.330  0.2524 -0.1834 -0.1852
 1155SOL    HW114924   0.955   2.872  15.337  1.0899 -0.3398  0.7078
 1155SOL    HW214925   1.033   2.763  15.366  0.3819  0.6653 -0.1604
 1156SOL     OW14926   3.508   4.640   7.657  0.4205  0.1128 -0.3946
 1156SOL    HW114927   3.419   4.657   7.689  0.5006  1.6004 -0.9962
 1156SOL    HW214928   3.485   4.547   7.650  2.9680 -0.5677  0.4739
 1157SOL     OW14929   0.786   3.871   3.250  0.0720  0.4580 -0.0725
 1157SOL    HW114930   0.802   3.914   3.166  1.0415  1.6184  0.7123
 1157SOL    HW214931   0.831   3.788   3.236  1.7480  1.5566 -1.1581
 1158SOL     OW14932   1.595   3.855   2.689 -0.0645  0.2657  0.1341
 1158SOL    HW114933   1.558   3.943   2.689 -0.9385 -0.1016  2.1077
 1158SOL    HW214934   1.663   3.856   2.622 -0.6472  1.3402 -0.4423
 1159SOL     OW14935   0.392   2.411   1.623  0.1148 -0.3329 -0.7699
 1159SOL    HW114936   0.310   2.362   1.620 -0.3573  0.4324 -0.2792
 1159SOL    HW214937   0.430   2.390   1.537  0.8592  0.7458 -0.7064
 1160SOL     OW14938   4.437   3.423   6.863 -0.6090  0.3143 -0.0770
 1160SOL    HW114939   4.507   3.360   6.883 -0.6735 -0.2050 -1.4411
 1160SOL    HW214940   4.491   3.495   6.895 -0.5351  0.7165 -1.1180
 1161SOL     OW14941   0.288   1.170   4.558  0.0056 -0.6328  0.1390
 1161SOL    HW114942   0.206   1.216   4.575 -0.3201 -0.5773 -1.6539
 1161SOL    HW214943   0.271   1.090   4.609  0.3366  0.2668  1.6794
 1162SOL     OW14944   2.776   1.017   5.584  0.4187 -0.0122 -0.2074
 1162SOL    HW114945   2.746   0.959   5.514 -0.4891  0.4957 -0.2340
 1162SOL    HW214946   2.849   1.056   5.536  0.5494  0.5358  0.4370
 1163SOL     OW14947   3.426   2.788  11.596 -0.4539 -0.6070 -0.6543
 1163SOL    HW114948   3.474   2.705  11.596 -0.5765 -0.6626  2.5496
 1163SOL    HW214949   3.478   2.825  11.667  0.9790  1.7052 -2.8875
 1164SOL     OW14950   2.316   0.122   4.948 -0.1004  0.8828  0.2800
 1164SOL    HW114951   2.406   0.126   4.916  0.6970 -3.3323  1.9312
 1164SOL    HW214952   2.316   0.060   5.021  2.5020 -0.1398 -0.5904
 1165SOL     OW14953   0.130   0.810   6.000 -0.0491 -0.6675  0.6241
 1165SOL    HW114954   0.166   0.867   5.931 -0.8232 -0.0887  0.7003
 1165SOL    HW214955   0.205   0.808   6.059  1.0759  0.2527 -0.7608
 1166SOL     OW14956   2.931   0.012   1.766  0.0605  0.2240 -1.4209
 1166SOL    HW114957   2.838   4.717   1.783  0.1306  2.8488  1.8192
 1166SOL    HW214958   2.955   4.645   1.780 -0.8601  0.1043 -0.6039
 1167SOL     OW14959   1.964   3.382   6.969  0.0910 -0.0591  0.4077
 1167SOL    HW114960   2.043   3.364   7.021 -0.3886  1.5445  1.6792
 1167SOL    HW214961   1.918   3.448   7.020 -1.2867 -0.0744 -0.8005
 1168SOL     OW14962   1.945   3.161   8.594  0.4109 -0.8174 -0.1668
 1168SOL    HW114963   2.036   3.147   8.621  0.3569  1.3928  1.1483
 1168SOL    HW214964   1.927   3.233   8.654  1.0548 -0.9027  0.1371
 1169SOL     OW14965   2.774   3.319   8.272  0.2508  0.0890 -0.0170
 1169SOL    HW114966   2.712   3.390   8.285 -0.0132 -0.0205 -0.6325
 1169SOL    HW214967   2.746   3.252   8.334  1.2771 -0.9411 -0.6654
 1170SOL     OW14968   2.655   3.817   5.871 -0.5391  0.9034  0.7780
 1170SOL    HW114969   2.703   3.883   5.921 -0.2161  1.0407  0.2907
 1170SOL    HW214970   2.719   3.746   5.864  0.2919  1.6778  0.3803
 1171SOL     OW14971   2.295   0.465  15.939 -0.4387  0.0701  0.6502
 1171SOL    HW114972   2.246   0.490  15.861 -1.0226 -1.6058  0.4786
 1171SOL    HW214973   2.337   0.544  15.972 -0.6642 -0.2476  1.7028
 1172SOL     OW14974   1.763   1.416  12.826 -0.2460  0.9035  0.3972
 1172SOL    HW114975   1.849   1.373  12.826 -0.2354  0.9181 -1.6800
 1172SOL    HW214976   1.791   1.507  12.817 -0.5711  1.2761  2.9749
 1173SOL     OW14977   0.152   3.426   5.964  0.2346  0.3158 -0.2092
 1173SOL    HW114978   0.085   3.421   6.032 -0.0641  2.8781 -0.3139
 1173SOL    HW214979   0.089   3.442   5.894 -1.8165  0.6162  1.7171
 1174SOL     OW14980   0.928   0.715  10.055  1.0271  0.3071 -1.0721
 1174SOL    HW114981   1.011   0.739  10.012  1.0007  0.9389 -0.7724
 1174SOL    HW214982   0.853   0.746  10.005  0.8935  2.3102  0.3874
 1175SOL     OW14983   0.453   4.485  15.532 -0.3524  0.1774 -0.1882
 1175SOL    HW114984   0.364   4.507  15.560  0.3590  1.6393  0.9233
 1175SOL    HW214985   0.438   4.431  15.454 -2.0194 -1.2474  1.1346
 1176SOL     OW14986   4.018   2.129  11.751 -0.3885  0.2802  0.3084
 1176SOL    HW114987   3.924   2.135  11.732 -0.6013  2.2894  1.9893
 1176SOL    HW214988   4.039   2.046  11.709  2.6128 -0.2794  2.8865
 1177SOL     OW14989   3.062   0.594   4.378 -0.6170  0.1942  0.3922
 1177SOL    HW114990   3.067   0.679   4.335 -1.3013  1.0978  2.0994
 1177SOL    HW214991   3.019   0.539   4.313 -2.0023  2.2109 -0.3748
 1178SOL     OW14992   0.616   1.664   5.714 -0.3443  0.0713 -0.0915
 1178SOL    HW114993   0.670   1.710   5.779 -1.4390 -1.3934  1.8454
 1178SOL    HW214994   0.564   1.621   5.782  0.8976 -0.8395  0.2697
 1179SOL     OW14995   1.445   1.410  14.777 -0.0039 -0.0780  0.3903
 1179SOL    HW114996   1.423   1.329  14.823  0.6590 -1.1097 -1.1037
 1179SOL    HW214997   1.500   1.376  14.707  0.3686  0.4479  0.4297
 1180SOL     OW14998   2.551   2.913   3.551 -0.1288  0.3437  0.0724
 1180SOL    HW114999   2.567   2.883   3.641 -1.8464  0.8601  0.5412
 1180SOL    HW215000   2.636   2.890   3.512  0.2826 -0.1062  1.2249
 1181SOL     OW15001   3.742   2.927   9.462  0.6672 -0.0288 -0.0362
 1181SOL    HW115002   3.698   2.891   9.538  0.8206 -1.1987 -0.4898
 1181SOL    HW215003   3.823   2.955   9.505  0.6186  0.5499 -0.3208
 1182SOL     OW15004   1.543   2.960   3.186 -0.3932 -0.1869 -0.5524
 1182SOL    HW115005   1.524   3.039   3.236  1.2291 -0.4199  0.4443
 1182SOL    HW215006   1.462   2.939   3.140 -1.0457  0.0249  0.5121
 1183SOL     OW15007   1.282   3.367   6.245  0.2796 -0.4035 -0.2040
 1183SOL    HW115008   1.294   3.276   6.215  0.0422 -0.5388  0.1126
 1183SOL    HW215009   1.252   3.355   6.335  0.6966 -1.5044 -0.2104
 1184SOL     OW15010   2.888   2.108   7.116 -0.5076 -0.3942 -0.4958
 1184SOL    HW115011   2.806   2.058   7.119 -0.6164 -0.2502 -0.9754
 1184SOL    HW215012   2.859   2.199   7.123  2.5192  0.6329 -1.2812
 1185SOL     OW15013   2.070   0.389  16.691 -0.3926 -0.2065  0.8196
 1185SOL    HW115014   1.989   0.348  16.661  0.0589  0.0944 -0.8056
 1185SOL    HW215015   2.054   0.380  16.785 -1.3653 -0.7941  0.6029
 1186SOL     OW15016   1.602   3.099   2.178  0.2520  0.0921  0.0304
 1186SOL    HW115017   1.539   3.028   2.190  0.1096  0.0936 -0.7212
 1186SOL    HW215018   1.557   3.151   2.112  0.4746  0.6723  0.3386
 1187SOL     OW15019   2.858   0.106   5.122  0.2056  0.4017  0.6434
 1187SOL    HW115020   2.918   0.084   5.051 -0.9535 -0.3361 -0.1056
 1187SOL    HW215021   2.856   0.033   5.183 -0.1950  0.7189  1.0164
 1188SOL     OW15022   1.864   1.060   0.204  0.0668 -0.0739 -0.1598
 1188SOL    HW115023   1.771   1.054   0.180  0.2932 -0.8013 -0.8398
 1188SOL    HW215024   1.890   0.972   0.232 -1.0507  0.1808  1.6905
 1189SOL     OW15025   2.323   1.469   2.577  0.1554 -0.2470  0.0278
 1189SOL    HW115026   2.369   1.510   2.650 -0.4010 -2.4952  1.6244
 1189SOL    HW215027   2.238   1.471   2.619  0.2208  1.6981  0.0613
 1190SOL     OW15028   3.127   2.364   6.831 -0.3123 -0.7330  0.1799
 1190SOL    HW115029   3.058   2.321   6.780  0.1360 -1.6784  0.3662
 1190SOL    HW215030   3.118   2.329   6.920 -0.1184  1.8264  1.1853
 1191SOL     OW15031   1.239   2.587   6.080 -0.4345  0.1084 -0.3493
 1191SOL    HW115032   1.160   2.604   6.131 -0.6657  2.1088 -1.3864
 1191SOL    HW215033   1.224   2.657   6.016 -1.7544  0.2970  0.1650
 1192SOL     OW15034   4.268   2.752  10.126 -0.4569 -0.1633  0.2608
 1192SOL    HW115035   4.223   2.832  10.097  0.4100 -0.4442 -1.8591
 1192SOL    HW215036   4.306   2.717  10.046 -0.5233  1.6930 -0.5901
 1193SOL     OW15037   1.826   0.837   3.547 -0.2483 -0.4800  0.0685
 1193SOL    HW115038   1.807   0.878   3.631 -0.2344 -1.9390  0.7799
 1193SOL    HW215039   1.881   0.766   3.577  2.4410  1.4563 -0.2965
 1194SOL     OW15040   1.053   2.254  14.964  0.0094  0.6938 -0.1653
 1194SOL    HW115041   1.131   2.206  14.990  0.7902  1.6817 -0.6790
 1194SOL    HW215042   0.980   2.194  14.982 -0.3156  0.9881 -0.4941
 1195SOL     OW15043   0.593   4.266   7.543 -0.3109  0.5899 -0.2524
 1195SOL    HW115044   0.677   4.253   7.499 -0.4548 -2.8224  0.4617
 1195SOL    HW215045   0.625   4.282   7.632  1.5305  0.8609 -0.9553
 1196SOL     OW15046   3.252   0.975   6.155 -0.4302  0.1860 -0.1629
 1196SOL    HW115047   3.238   0.883   6.178  0.0681 -0.1990 -1.4453
 1196SOL    HW215048   3.347   0.968   6.162 -0.4263  1.9428  1.7046
 1197SOL     OW15049   1.756   2.075   4.535 -0.1973  0.4355 -0.2816
 1197SOL    HW115050   1.743   2.055   4.442 -0.3510 -0.1856 -0.1262
 1197SOL    HW215051   1.782   1.987   4.563 -0.4719  0.2796 -0.5046
 1198SOL     OW15052   2.431   1.699  13.800  0.0534 -0.0938  0.2528
 1198SOL    HW115053   2.368   1.692  13.727  0.5262  0.4179 -0.2055
 1198SOL    HW215054   2.387   1.767  13.851  1.4109  0.7460  0.2857
 1199SOL     OW15055   3.327   0.596   0.228  0.3978 -0.5085 -0.0917
 1199SOL    HW115056   3.270   0.544   0.285  0.4026  0.3783  0.7148
 1199SOL    HW215057   3.284   0.681   0.238 -0.0798 -0.9026  1.2513
 1200SOL     OW15058   0.901   3.714   1.435 -0.4653  0.7449 -0.2312
 1200SOL    HW115059   0.956   3.758   1.499  1.2990 -0.0296 -1.2279
 1200SOL    HW215060   0.818   3.748   1.469 -1.3792  1.6233 -3.3131
 1201SOL     OW15061   4.447   1.395   6.478 -0.6595  0.0160 -0.1897
 1201SOL    HW115062   4.385   1.376   6.549 -1.6648 -0.6444 -1.2446
 1201SOL    HW215063   4.457   1.489   6.493 -0.7064  0.1518 -1.0015
 1202SOL     OW15064   2.465   1.984   6.587 -0.2983  0.5305 -0.5454
 1202SOL    HW115065   2.456   2.052   6.654 -1.8382  0.2291 -0.4494
 1202SOL    HW215066   2.373   1.993   6.563 -0.1522 -0.2972 -1.4102
 1203SOL     OW15067   0.822   2.537   2.135  0.6773 -0.2782  0.3708
 1203SOL    HW115068   0.913   2.553   2.158  0.9590 -2.8292  0.9504
 1203SOL    HW215069   0.801   2.485   2.212 -1.3572  0.1407  0.1102
 1204SOL     OW15070   3.160   1.387   9.000 -0.0291  0.1937 -0.4663
 1204SOL    HW115071   3.175   1.361   8.909 -0.7376 -2.7396  0.2567
 1204SOL    HW215072   3.219   1.462   9.011  1.0563 -0.7494  0.1404
 1205SOL     OW15073   3.084   0.569   7.735 -0.3033  0.6040 -0.1902
 1205SOL    HW115074   3.148   0.538   7.798  0.6271  0.4372 -1.2226
 1205SOL    HW215075   3.039   0.492   7.701 -1.8765  2.1977 -1.7659
 1206SOL     OW15076   2.863   1.617   9.329  0.1107 -0.3772 -0.0110
 1206SOL    HW115077   2.915   1.646   9.404 -0.2350  1.1298 -0.3565
 1206SOL    HW215078   2.786   1.670   9.351 -0.6447 -1.4874  0.0452
 1207SOL     OW15079   0.016   3.270  15.558  0.1501 -0.1076  0.0919
 1207SOL    HW115080   0.039   3.220  15.479 -1.6605  0.7384 -0.9625
 1207SOL    HW215081   0.004   3.355  15.515  1.3011  0.9762  1.9282
 1208SOL     OW15082   0.647   1.966   8.303 -0.1002 -0.8323  0.0690
 1208SOL    HW115083   0.570   1.955   8.248  0.5769 -3.3850 -0.3447
 1208SOL    HW215084   0.647   1.878   8.341 -1.1143 -1.2462 -0.8883
 1209SOL     OW15085   2.220   1.366   5.720 -0.2742  0.0265  0.6520
 1209SOL    HW115086   2.229   1.306   5.646 -1.1440  3.4610 -2.2431
 1209SOL    HW215087   2.232   1.311   5.797 -2.8083 -0.1084  0.9354
 1210SOL     OW15088   0.950   3.076  14.110 -0.2957  0.1743 -0.2965
 1210SOL    HW115089   0.963   3.098  14.202 -1.8315  1.8498 -0.4993
 1210SOL    HW215090   0.913   3.162  14.090 -0.3721 -0.6679 -3.8300
 1211SOL     OW15091   0.278   3.874  12.149 -0.5112  0.7750  0.1657
 1211SOL    HW115092   0.364   3.874  12.107 -0.2519  2.5938  0.7079
 1211SOL    HW215093   0.220   3.861  12.074 -0.5265 -0.0250  0.3189
 1212SOL     OW15094   2.122   1.504   4.045 -0.0117 -0.1235  0.3997
 1212SOL    HW115095   2.032   1.537   4.035  0.7574  1.5366 -1.1264
 1212SOL    HW215096   2.110   1.424   3.995  3.5784 -0.2028 -0.2919
 1213SOL     OW15097   2.496   3.825   2.825  0.1015  0.3760 -0.0372
 1213SOL    HW115098   2.469   3.733   2.830 -0.5704  0.4882 -1.5496
 1213SOL    HW215099   2.446   3.859   2.751  0.6068  0.6459 -0.2531
 1214SOL     OW15100   4.632   0.844   4.037 -0.3467 -0.0319  0.1530
 1214SOL    HW115101   4.620   0.765   3.985 -1.5652 -2.1547  3.6061
 1214SOL    HW215102   4.600   0.807   4.119 -2.3526  0.0964 -0.5890
 1215SOL     OW15103   2.715   2.221   4.919 -0.3337 -0.3452  0.2773
 1215SOL    HW115104   2.692   2.128   4.912  1.2450 -0.7446  0.2338
 1215SOL    HW215105   2.673   2.235   5.004 -0.2140  0.8716  0.1237
 1216SOL     OW15106   2.394   3.248   5.673  0.1208 -0.1929 -0.3291
 1216SOL    HW115107   2.322   3.226   5.732  0.9774 -2.1547 -0.0134
 1216SOL    HW215108   2.352   3.209   5.596 -0.1476 -2.6907  1.0988
 1217SOL     OW15109   3.898   1.626   0.164  0.0157  0.1832  0.5335
 1217SOL    HW115110   3.873   1.536   0.143 -0.9055  0.7110 -0.6354
 1217SOL    HW215111   3.993   1.614   0.159 -0.0254  0.2551 -0.4900
 1218SOL     OW15112   3.291   4.355   4.887 -0.2310  0.0273 -0.7591
 1218SOL    HW115113   3.278   4.413   4.962 -3.1587  0.5325 -1.6361
 1218SOL    HW215114   3.372   4.381   4.843 -0.9784  1.1185 -1.5010
 1219SOL     OW15115   2.437   1.286  16.535 -0.4941 -0.7868 -0.3294
 1219SOL    HW115116   2.446   1.326  16.448  1.7873  0.0838  0.3043
 1219SOL    HW215117   2.405   1.197  16.515 -1.2939 -0.5951  0.1137
 1220SOL     OW15118   0.568   2.517  14.689  0.0457  0.2195  0.4252
 1220SOL    HW115119   0.475   2.538  14.674  0.5914  1.0460 -1.8149
 1220SOL    HW215120   0.595   2.492  14.601 -2.2210  3.2354 -1.1499
 1221SOL     OW15121   3.329   4.511  16.078 -0.0294  0.0387 -0.1489
 1221SOL    HW115122   3.311   4.431  16.029 -0.5546  0.8264 -1.2570
 1221SOL    HW215123   3.414   4.535  16.040 -0.4779  0.6600 -0.7680
 1222SOL     OW15124   3.129   0.868   2.857 -0.3051 -0.0449 -0.1338
 1222SOL    HW115125   3.078   0.903   2.930 -2.2536 -3.3079  0.0681
 1222SOL    HW215126   3.193   0.938   2.839 -2.3306  2.2864  1.6892
 1223SOL     OW15127   2.444   0.901  13.272 -0.2696 -0.5076 -0.5650
 1223SOL    HW115128   2.478   0.830  13.218  0.4270 -0.1365 -0.6257
 1223SOL    HW215129   2.352   0.880  13.289 -0.7448  1.3457 -0.8253
 1224SOL     OW15130   4.468   1.385   9.646  0.1696 -0.4439 -0.0199
 1224SOL    HW115131   4.438   1.318   9.708  0.7362 -2.3513 -1.8032
 1224SOL    HW215132   4.431   1.355   9.563  0.6310  0.0280 -0.4023
 1225SOL     OW15133   4.622   0.883   6.808 -0.5425 -0.1426  0.1555
 1225SOL    HW115134   4.540   0.892   6.857 -1.1919  0.7539 -1.0903
 1225SOL    HW215135   4.661   0.816   6.864 -0.1347 -1.6741 -1.9736
 1226SOL     OW15136   1.468   2.891   7.822 -0.4118  0.4792  0.5239
 1226SOL    HW115137   1.485   2.973   7.869 -1.5511 -0.1845  2.0958
 1226SOL    HW215138   1.430   2.918   7.739 -0.9365 -1.7023  0.0433
 1227SOL     OW15139   4.616   1.427   7.593  0.2127 -0.5619  0.1933
 1227SOL    HW115140   4.527   1.461   7.588  0.3951 -0.1768 -0.4198
 1227SOL    HW215141   4.665   1.503   7.561  2.0268 -0.7446  2.4905
 1228SOL     OW15142   4.319   4.260  11.172 -0.0783  0.2493 -0.7444
 1228SOL    HW115143   4.362   4.205  11.107  0.1293  0.2393 -0.5961
 1228SOL    HW215144   4.387   4.325  11.188  0.0921  0.5590 -2.7306
 1229SOL     OW15145   4.506   2.193   7.224 -0.3497  0.9888  0.7761
 1229SOL    HW115146   4.577   2.228   7.171  0.4814 -2.5577 -0.4195
 1229SOL    HW215147   4.504   2.260   7.292  3.5497  0.3653  1.4873
 1230SOL     OW15148   1.978   0.432   6.142 -0.2373  0.3337 -0.0112
 1230SOL    HW115149   1.948   0.342   6.155  1.1906 -0.2438 -0.7875
 1230SOL    HW215150   2.067   0.409   6.167 -0.4999  2.3285  2.8304
 1231SOL     OW15151   3.398   3.776   7.018  0.0891  0.2488 -0.3205
 1231SOL    HW115152   3.353   3.818   7.092  0.7035  1.1524 -0.4672
 1231SOL    HW215153   3.466   3.842   7.017 -1.0188  1.4174  0.7728
 1232SOL     OW15154   4.391   4.716   4.550 -0.0964 -0.0794  0.9288
 1232SOL    HW115155   4.355   0.045   4.620 -0.1838 -1.4273  1.9196
 1232SOL    HW215156   4.484   4.713   4.571 -0.1131  0.0592  1.0191
 1233SOL     OW15157   0.270   0.713  14.200  0.4180  0.0419 -0.1288
 1233SOL    HW115158   0.178   0.739  14.197  0.8679  1.5950 -0.3109
 1233SOL    HW215159   0.315   0.775  14.257 -2.2296  0.1632  1.8427
 1234SOL     OW15160   3.330   1.542   3.279  0.1630 -0.0186  0.5390
 1234SOL    HW115161   3.280   1.535   3.198 -3.0027 -2.0102  2.6842
 1234SOL    HW215162   3.418   1.534   3.243  0.4877 -1.2209  1.6021
 1235SOL     OW15163   0.215   0.578   3.961 -0.6710 -0.2601  0.4925
 1235SOL    HW115164   0.143   0.586   3.899  2.2324  1.5148 -2.6204
 1235SOL    HW215165   0.240   0.670   3.966  0.6766 -0.7026  1.7149
 1236SOL     OW15166   1.940   4.722   1.614 -0.1225 -0.0384  0.2274
 1236SOL    HW115167   1.863   4.696   1.665  0.4762  1.2643  1.8071
 1236SOL    HW215168   1.994   0.052   1.672  0.6931 -1.4366  0.8056
 1237SOL     OW15169   3.701   1.498   6.622  0.0641 -0.2189 -1.2500
 1237SOL    HW115170   3.760   1.435   6.580  2.4122  0.4824  1.0475
 1237SOL    HW215171   3.713   1.567   6.557 -1.2924  0.0302 -1.2312
 1238SOL     OW15172   3.425   0.216  14.861 -0.3326 -0.1597  0.6601
 1238SOL    HW115173   3.495   0.161  14.896  0.3579 -0.6400 -1.4797
 1238SOL    HW215174   3.464   0.301  14.840 -2.5834  0.9238  0.9502
 1239SOL     OW15175   2.514   1.323   3.502  0.5758 -0.1700  0.8375
 1239SOL    HW115176   2.491   1.403   3.549  3.6345  0.3585  1.3948
 1239SOL    HW215177   2.599   1.306   3.543  1.5788  1.9970 -0.3192
 1240SOL     OW15178   0.962   3.585   8.606  0.2000  0.0940 -0.7828
 1240SOL    HW115179   0.966   3.580   8.702 -0.3232  0.5995 -0.7334
 1240SOL    HW215180   0.869   3.567   8.590 -0.2068 -0.1462  1.6887
 1241SOL     OW15181   2.319   3.600   7.601 -0.0450 -0.0330 -0.8019
 1241SOL    HW115182   2.375   3.523   7.609  0.1653  0.2485  0.3358
 1241SOL    HW215183   2.257   3.587   7.673  1.6939  0.5366  0.7910
 1242SOL     OW15184   0.095   4.320  12.074 -0.3440  0.5242 -0.1666
 1242SOL    HW115185   0.008   4.335  12.111 -0.3636  0.3541 -0.1429
 1242SOL    HW215186   0.087   4.226  12.062 -0.1453  0.7723 -2.1152
 1243SOL     OW15187   1.031   3.142   6.607 -0.4256 -0.0234  0.6906
 1243SOL    HW115188   1.068   3.065   6.651 -1.8744 -0.2696  1.4795
 1243SOL    HW215189   1.007   3.201   6.678 -1.9658 -0.5029  0.5687
 1244SOL     OW15190   1.356   0.934  14.914 -0.5733  0.4511  0.1974
 1244SOL    HW115191   1.330   1.026  14.914  2.0120  1.1985  0.3529
 1244SOL    HW215192   1.436   0.941  14.965  0.0885  0.2212 -0.8025
 1245SOL     OW15193   1.455   3.851   5.087  0.5817 -0.0153 -0.0965
 1245SOL    HW115194   1.507   3.777   5.055  0.1672 -0.5996  0.5727
 1245SOL    HW215195   1.497   3.933   5.060  1.5985 -0.5718 -0.2176
 1246SOL     OW15196   0.810   3.213   2.119  0.0201  0.0616 -0.2263
 1246SOL    HW115197   0.848   3.125   2.127 -0.8030 -0.1583  1.3536
 1246SOL    HW215198   0.778   3.240   2.205  2.2953  1.3554  0.2123
 1247SOL     OW15199   0.371   4.618   4.098 -0.4030 -0.2844  0.5557
 1247SOL    HW115200   0.398   4.530   4.122 -1.5063 -1.8287 -3.9169
 1247SOL    HW215201   0.361   4.655   4.186 -0.0240  0.9733  0.0750
 1248SOL     OW15202   1.662   2.635   6.795  0.1315 -0.3688  0.0161
 1248SOL    HW115203   1.632   2.553   6.755  1.5382 -2.5513  3.3995
 1248SOL    HW215204   1.579   2.680   6.811  0.9331  1.0684  0.1407
 1249SOL     OW15205   2.825   2.981   4.652  0.3691  0.7627 -0.4106
 1249SOL    HW115206   2.910   2.961   4.691  1.3236  3.9522 -0.8658
 1249SOL    HW215207   2.771   3.038   4.706  1.6252  1.7500 -0.1869
 1250SOL     OW15208   3.182   1.298  10.581 -0.2737  0.0014  0.0334
 1250SOL    HW115209   3.179   1.378  10.634 -1.3160  0.7638 -1.1670
 1250SOL    HW215210   3.248   1.241  10.621  0.2242  0.1676 -0.5437
 1251SOL     OW15211   0.646   3.896   3.461 -0.5366  0.5542 -0.1115
 1251SOL    HW115212   0.709   3.886   3.389 -1.5881  1.6322 -1.1680
 1251SOL    HW215213   0.600   3.965   3.413 -0.1301  1.2344  0.4671
 1252SOL     OW15214   3.298   2.417   7.258 -0.3397 -0.2685  0.2076
 1252SOL    HW115215   3.252   2.442   7.178  0.2728  0.7412  0.1573
 1252SOL    HW215216   3.306   2.323   7.243  0.1536 -0.2706  0.4787
 1253SOL     OW15217   1.856   2.264   4.024 -0.1388 -0.5116  0.9671
 1253SOL    HW115218   1.904   2.259   4.106 -1.8497 -1.3761  1.9198
 1253SOL    HW215219   1.782   2.321   4.045 -0.1709  0.9717 -3.1329
 1254SOL     OW15220   4.716   1.149   2.803  0.3018 -0.0877 -0.1995
 1254SOL    HW115221   4.654   1.174   2.872  1.2637 -0.2394  0.7304
 1254SOL    HW215222   0.008   1.234   2.761  2.4357  0.8360  2.4305
 1255SOL     OW15223   0.409   0.969   7.086 -0.1966  0.2350  0.1668
 1255SOL    HW115224   0.382   0.881   7.110 -1.1060  0.9501  1.8345
 1255SOL    HW215225   0.453   0.959   7.002  0.2214  3.0576  0.0217
 1256SOL     OW15226   0.846   0.733   4.054 -0.0134  0.4848 -0.0284
 1256SOL    HW115227   0.791   0.797   4.008  0.6908  0.1603 -1.3170
 1256SOL    HW215228   0.860   0.773   4.139 -0.5193  1.6932 -0.5000
 1257SOL     OW15229   1.438   3.471   7.775 -0.2729 -0.3128  0.2119
 1257SOL    HW115230   1.385   3.435   7.845 -0.6834 -0.2096 -0.0479
 1257SOL    HW215231   1.390   3.545   7.738  1.0122  0.4964  0.1541
 1258SOL     OW15232   1.097   0.540  14.297 -0.1830  0.1976  0.1386
 1258SOL    HW115233   1.040   0.508  14.367 -1.1157 -1.3287 -1.3226
 1258SOL    HW215234   1.143   0.598  14.357 -1.8207 -2.4087  3.9399
 1259SOL     OW15235   1.114   4.494   4.358 -0.2491  0.4589  0.2264
 1259SOL    HW115236   1.157   4.543   4.428 -0.7754  0.0640  0.8229
 1259SOL    HW215237   1.175   4.509   4.285 -0.6219  1.3628  0.1044
 1260SOL     OW15238   2.009   2.358  15.251 -0.0328  0.0432 -0.2712
 1260SOL    HW115239   1.936   2.331  15.195  2.2116  0.1792 -3.2681
 1260SOL    HW215240   2.038   2.436  15.205  0.7779  0.4185  0.8940
 1261SOL     OW15241   3.342   1.149  10.715  0.3478 -0.0334 -0.0027
 1261SOL    HW115242   3.300   1.134  10.799  0.6757  1.9732  0.5210
 1261SOL    HW215243   3.365   1.059  10.690 -1.8594 -0.8482  0.9205
 1262SOL     OW15244   4.381   0.687  16.756  0.5983 -0.1407  0.2372
 1262SOL    HW115245   4.373   0.708  16.849 -0.2058 -0.3809  0.2183
 1262SOL    HW215246   4.464   0.640  16.746  1.5321  1.1513  1.9608
 1263SOL     OW15247   4.184   2.625   8.011  0.1120 -0.3725 -0.6253
 1263SOL    HW115248   4.239   2.704   8.014 -0.4830  0.0491 -0.8337
 1263SOL    HW215249   4.177   2.605   8.104 -0.2265  1.3453 -0.2853
 1264SOL     OW15250   2.423   1.947  17.380 -0.0976 -0.1336 -0.1887
 1264SOL    HW115251   2.404   1.853  17.374  1.7708 -0.4544 -1.2457
 1264SOL    HW215252   2.499   1.952  17.437  0.2558  1.4062 -0.7980
 1265SOL     OW15253   4.456   1.411  16.211 -0.1046 -0.1247  0.7669
 1265SOL    HW115254   4.551   1.420  16.208 -0.0281 -0.5521  1.7794
 1265SOL    HW215255   4.424   1.501  16.221 -2.0453 -0.7805  0.3414
 1266SOL     OW15256   0.246   1.494   5.384  0.0956 -0.3660  0.3021
 1266SOL    HW115257   0.181   1.444   5.433  1.4025 -1.3615  1.0292
 1266SOL    HW215258   0.249   1.574   5.437 -1.8942 -0.7839  1.0224
 1267SOL     OW15259   3.016   2.539   4.717 -0.1550  0.4826  0.4834
 1267SOL    HW115260   3.001   2.611   4.655 -1.5798 -0.5303 -0.3385
 1267SOL    HW215261   2.934   2.542   4.767  1.3545  1.1094  2.9282
 1268SOL     OW15262   2.336   1.949   8.623  0.1212  0.5559 -0.1625
 1268SOL    HW115263   2.357   2.029   8.671 -1.9874  0.7248  0.4790
 1268SOL    HW215264   2.425   1.911   8.622 -1.3626 -2.9536 -0.1694
 1269SOL     OW15265   1.633   1.036   7.159 -0.1258  0.4418 -1.1750
 1269SOL    HW115266   1.623   1.109   7.220 -1.0338 -0.9213  0.2946
 1269SOL    HW215267   1.660   1.081   7.078 -0.8545 -1.9038 -2.7096
 1270SOL     OW15268   2.266   1.920   9.338 -0.0405 -0.4893  0.4411
 1270SOL    HW115269   2.222   1.980   9.398 -0.6777  0.1157 -0.6333
 1270SOL    HW215270   2.229   1.834   9.357 -0.5493 -0.9913 -2.7903
 1271SOL     OW15271   1.349   1.060   8.582  0.3207  0.5328  0.8839
 1271SOL    HW115272   1.254   1.071   8.580  0.6349  2.6369 -1.8398
 1271SOL    HW215273   1.359   0.966   8.596  3.0701  0.7916  0.8130
 1272SOL     OW15274   3.186   1.624   6.981 -0.3281  0.2535 -0.5410
 1272SOL    HW115275   3.266   1.596   7.025  0.8327  1.3616 -1.9324
 1272SOL    HW215276   3.146   1.699   7.026 -0.5249  0.1555 -0.5496
 1273SOL     OW15277   1.446   0.796   1.477 -0.3419  0.0522 -0.2613
 1273SOL    HW115278   1.417   0.773   1.565  1.4565  0.8583  0.5548
 1273SOL    HW215279   1.525   0.743   1.469  1.5387  2.7089  0.8360
 1274SOL     OW15280   1.224   2.066   2.764  0.5952 -0.2258  0.0681
 1274SOL    HW115281   1.289   1.998   2.784 -0.0174 -0.7766  0.1909
 1274SOL    HW215282   1.226   2.082   2.670 -1.3533 -3.5783 -0.5290
 1275SOL     OW15283   0.741   2.130  12.700 -0.4101 -0.0915  0.4136
 1275SOL    HW115284   0.801   2.059  12.675 -0.2353  0.0319  0.4794
 1275SOL    HW215285   0.766   2.127  12.793 -0.0371  0.8023  0.3379
 1276SOL     OW15286   3.302   2.728   2.543 -0.0684  0.8800 -0.6260
 1276SOL    HW115287   3.257   2.807   2.575 -2.1852 -0.4625 -0.2744
 1276SOL    HW215288   3.221   2.676   2.547 -0.2304  1.1519 -0.3727
 1277SOL     OW15289   4.123   3.287   3.854  0.6020 -0.9116  0.5652
 1277SOL    HW115290   4.071   3.227   3.802  0.9013 -0.2837 -0.4668
 1277SOL    HW215291   4.214   3.264   3.834 -0.1220 -1.1274 -2.5477
 1278SOL     OW15292   1.181   1.808   2.998  0.1399  0.3407 -0.1766
 1278SOL    HW115293   1.095   1.845   2.975  0.6091  1.0522 -0.7739
 1278SOL    HW215294   1.166   1.717   2.972  0.9687  0.2226 -0.2243
 1279SOL     OW15295   3.075   1.503   4.424 -0.0835  0.6537 -0.2062
 1279SOL    HW115296   3.029   1.578   4.461 -2.8042 -0.1969 -1.8861
 1279SOL    HW215297   3.134   1.477   4.494  0.8776  1.6195 -0.6573
 1280SOL     OW15298   4.689   4.222   3.316  0.1988  0.5337  0.2163
 1280SOL    HW115299   4.666   4.129   3.309  1.1320  0.1028  2.8662
 1280SOL    HW215300   4.689   4.242   3.222  1.4107  2.7542  0.6897
 1281SOL     OW15301   2.968   4.455   2.725 -0.4468 -0.1394  0.1884
 1281SOL    HW115302   3.062   4.441   2.730 -0.2214  1.2221 -0.1257
 1281SOL    HW215303   2.945   4.446   2.633 -0.7174  0.8245  0.1613
 1282SOL     OW15304   1.602   3.749   4.739  0.0249 -0.0297  0.4091
 1282SOL    HW115305   1.697   3.742   4.733 -0.0634 -0.9983  0.1259
 1282SOL    HW215306   1.588   3.720   4.829 -2.5373 -0.8477 -0.2541
 1283SOL     OW15307   1.261   1.048  11.073 -0.3473 -0.3623 -0.3516
 1283SOL    HW115308   1.174   1.017  11.099 -0.0686 -1.9674 -1.2992
 1283SOL    HW215309   1.252   1.107  10.998  1.6304 -0.9188 -1.0471
 1284SOL     OW15310   0.844   2.240  15.330  0.3753  0.1770  0.2075
 1284SOL    HW115311   0.926   2.260  15.376  1.9079 -1.6972 -1.6986
 1284SOL    HW215312   0.798   2.184  15.392 -0.8905 -0.9999 -1.7914
 1285SOL     OW15313   2.853   4.354   1.473  0.3644  0.7454 -0.2095
 1285SOL    HW115314   2.846   4.445   1.446 -0.4712  0.7181 -0.0957
 1285SOL    HW215315   2.769   4.314   1.448 -0.0631  0.2372  2.0199
 1286SOL     OW15316   1.651   3.845   7.345 -0.7459  0.4686  0.0957
 1286SOL    HW115317   1.581   3.862   7.282 -2.5041  0.8852  2.1863
 1286SOL    HW215318   1.721   3.886   7.294  1.4013  0.7366  3.2732
 1287SOL     OW15319   0.367   1.875   7.738 -0.1929 -0.7733  0.6720
 1287SOL    HW115320   0.380   1.928   7.660  0.8707  1.2427  2.1985
 1287SOL    HW215321   0.407   1.791   7.716 -0.1517 -0.6320  0.2268
 1288SOL     OW15322   3.873   1.729  16.922  0.2719  0.2174 -0.4207
 1288SOL    HW115323   3.886   1.679  17.003 -1.6447  1.6868  0.7870
 1288SOL    HW215324   3.834   1.660  16.867 -0.6343 -1.2702  2.0823
 1289SOL     OW15325   1.386   2.510  17.311 -0.5212 -0.2039 -0.1464
 1289SOL    HW115326   1.441   2.459  17.370  0.2378  0.9283  0.1257
 1289SOL    HW215327   1.352   2.570  17.378 -0.6569  0.1759 -0.5515
 1290SOL     OW15328   1.326   3.966   7.538 -0.2103  0.2991 -0.8704
 1290SOL    HW115329   1.278   4.013   7.469 -1.5240  1.0096  0.5214
 1290SOL    HW215330   1.307   4.011   7.620 -1.1235  1.4119 -1.6822
 1291SOL     OW15331   0.879   1.025   2.059 -0.1163  0.6651  0.1040
 1291SOL    HW115332   0.867   0.959   2.127 -0.7687  0.0372 -0.6258
 1291SOL    HW215333   0.948   0.981   2.010  0.4714  0.6638  0.9250
 1292SOL     OW15334   3.529   3.259   5.460  0.3526 -0.4121 -0.1279
 1292SOL    HW115335   3.453   3.244   5.404  1.8250 -2.2023 -1.6427
 1292SOL    HW215336   3.497   3.329   5.516 -0.0757  0.9217 -2.0385
 1293SOL     OW15337   2.039   3.868   7.889 -0.0771 -0.1106 -0.1263
 1293SOL    HW115338   1.990   3.787   7.903  1.0954 -1.0145 -1.2961
 1293SOL    HW215339   2.114   3.858   7.947  0.6638 -1.4966 -1.3457
 1294SOL     OW15340   2.902   1.066   6.543  0.3442  0.3000  0.8410
 1294SOL    HW115341   2.990   1.103   6.550  0.2398  1.2003 -2.7105
 1294SOL    HW215342   2.848   1.138   6.512  0.0543 -0.3762 -0.2213
 1295SOL     OW15343   0.736   2.880   7.120  0.2592 -0.0336  0.2078
 1295SOL    HW115344   0.715   2.964   7.078  2.4689 -0.2273 -1.3288
 1295SOL    HW215345   0.663   2.870   7.181 -0.0447 -1.4772 -0.4005
 1296SOL     OW15346   1.250   0.993   3.397  0.2784  0.3558  0.2501
 1296SOL    HW115347   1.240   0.913   3.449  2.2805  0.6765  1.1167
 1296SOL    HW215348   1.340   0.991   3.364  1.0324  2.1849  2.2352
 1297SOL     OW15349   0.693   4.530   9.176  0.2115  0.1522 -0.2227
 1297SOL    HW115350   0.638   4.530   9.098  1.9347 -1.6620 -1.4348
 1297SOL    HW215351   0.774   4.502   9.134  0.3412  0.4934 -0.1979
 1298SOL     OW15352   3.769   3.918   5.993 -0.4468 -0.4803  0.0013
 1298SOL    HW115353   3.757   3.948   6.083  0.9158  0.2024 -0.0528
 1298SOL    HW215354   3.760   3.824   6.009  0.6166 -0.9736 -2.3463
 1299SOL     OW15355   0.123   2.125   4.099 -0.3200 -0.1080  0.0229
 1299SOL    HW115356   0.212   2.133   4.131 -0.4890  0.4944  0.3442
 1299SOL    HW215357   0.119   2.030   4.105  0.7572 -0.1008  0.7271
 1300SOL     OW15358   2.973   3.684  14.817 -0.1928  0.2318 -0.3194
 1300SOL    HW115359   2.970   3.748  14.889  1.5630  2.1360 -1.9471
 1300SOL    HW215360   2.976   3.607  14.874 -1.5672  0.2396 -0.2419
 1301SOL     OW15361   4.055   0.124   6.538  0.2326 -0.0220  0.7336
 1301SOL    HW115362   4.062   0.168   6.453  0.4072  0.9678  1.2665
 1301SOL    HW215363   4.045   0.032   6.511 -6.3206  0.5909  1.2676
 1302SOL     OW15364   3.645   1.904   4.707  0.4006 -0.0937 -0.1809
 1302SOL    HW115365   3.635   1.999   4.695  0.1817  0.0441  1.0470
 1302SOL    HW215366   3.610   1.895   4.796 -0.6553 -1.5315 -0.7479
 1303SOL     OW15367   1.105   3.111   1.900 -0.2998  0.0564 -0.1054
 1303SOL    HW115368   1.113   3.184   1.962  1.8418  0.8518 -1.3162
 1303SOL    HW215369   1.034   3.063   1.943  0.2742  0.2787  1.1037
 1304SOL     OW15370   4.223   2.833   7.807 -0.3485  0.2877 -0.0586
 1304SOL    HW115371   4.187   2.790   7.730 -0.5789 -2.0994  1.3887
 1304SOL    HW215372   4.224   2.925   7.780  2.9968  0.2718 -0.0102
 1305SOL     OW15373   3.461   0.871   6.849  0.0787  0.2543 -0.0438
 1305SOL    HW115374   3.455   0.882   6.754  1.7981 -1.0759 -0.2966
 1305SOL    HW215375   3.540   0.922   6.863  0.9775 -0.7792 -1.4033
 1306SOL     OW15376   3.579   1.434   4.800 -0.0133 -0.2973  0.1657
 1306SOL    HW115377   3.621   1.388   4.873 -0.0248  1.2578  1.1567
 1306SOL    HW215378   3.647   1.452   4.735  2.4602 -0.4791  2.7412
 1307SOL     OW15379   3.032   2.891   3.599  0.3029  0.5272  0.3494
 1307SOL    HW115380   2.978   2.957   3.556 -0.1302  0.2013  0.3907
 1307SOL    HW215381   3.019   2.919   3.690  0.5323  0.0707  0.5245
 1308SOL     OW15382   1.653   1.521   7.183  0.3069 -0.4540 -0.1869
 1308SOL    HW115383   1.635   1.485   7.097 -2.2619  2.0100 -0.6758
 1308SOL    HW215384   1.564   1.518   7.217  0.2088  0.0615 -0.4066
 1309SOL     OW15385   2.390   0.870  15.915 -0.9471  0.2168  0.0586
 1309SOL    HW115386   2.368   0.798  15.974  0.6433 -0.9978 -0.8436
 1309SOL    HW215387   2.301   0.902  15.899 -1.2644 -0.1878  1.0159
 1310SOL     OW15388   2.040   0.870   5.024  0.5128  0.2836 -0.1344
 1310SOL    HW115389   1.987   0.796   4.993 -1.4515  2.0760 -1.0450
 1310SOL    HW215390   2.050   0.832   5.112  1.1841  0.0739 -0.3074
 1311SOL     OW15391   0.120   1.795   4.955  0.2033 -0.1887 -0.2814
 1311SOL    HW115392   0.118   1.726   5.022  1.5393 -2.3065 -2.4450
 1311SOL    HW215393   0.161   1.864   5.007 -0.8798 -0.6419  1.1752
 1312SOL     OW15394   3.962   3.066   7.978 -0.1689 -0.4021  0.0511
 1312SOL    HW115395   3.977   3.000   8.045 -0.8767  0.1692  0.7693
 1312SOL    HW215396   4.048   3.082   7.938 -0.2594 -0.6084 -0.2278
 1313SOL     OW15397   2.616   3.052   5.099 -0.3689  0.4267  0.2871
 1313SOL    HW115398   2.591   3.005   5.020  0.4639 -0.0217  0.2993
 1313SOL    HW215399   2.557   3.006   5.160 -0.0082 -2.4957 -1.6363
 1314SOL     OW15400   2.507   3.451  17.543  0.2039 -0.1353 -0.3345
 1314SOL    HW115401   2.486   3.503  17.621 -1.4624 -0.8331 -0.3140
 1314SOL    HW215402   2.461   3.503  17.477 -1.9383 -0.5052  0.8556
 1315SOL     OW15403   1.585   0.084   4.906 -0.0582  0.1923  0.4943
 1315SOL    HW115404   1.521   0.152   4.886  1.3031  0.9396 -1.2731
 1315SOL    HW215405   1.608   0.041   4.824  3.1999 -0.3473  1.6760
 1316SOL     OW15406   1.431   4.083  11.909  0.2064 -0.5171 -0.5078
 1316SOL    HW115407   1.360   4.139  11.940  0.5958 -0.2016 -0.1861
 1316SOL    HW215408   1.383   4.034  11.843  0.6067 -1.6308  0.0228
 1317SOL     OW15409   3.297   0.620   4.551 -0.1308  0.2594 -0.2116
 1317SOL    HW115410   3.307   0.716   4.555 -1.5476  0.3049  1.8975
 1317SOL    HW215411   3.224   0.594   4.496 -0.2671 -0.4565  0.3035
 1318SOL     OW15412   3.816   0.586  15.883 -0.3607  0.1022  0.4333
 1318SOL    HW115413   3.821   0.492  15.871 -0.9930  0.2161 -0.7235
 1318SOL    HW215414   3.826   0.582  15.978 -2.5918 -1.9406  0.5779
 1319SOL     OW15415   2.891   1.373   9.021 -0.8454  0.5732  0.2389
 1319SOL    HW115416   2.986   1.371   9.021 -0.8413  0.7562  0.7564
 1319SOL    HW215417   2.874   1.348   9.112 -2.6349  4.6509  1.0556
 1320SOL     OW15418   3.802   3.544  17.570  0.0423 -0.4301 -0.1400
 1320SOL    HW115419   3.850   3.557  17.652  2.0204  0.6702 -1.4641
 1320SOL    HW215420   3.854   3.600  17.511  1.1794 -0.4297  0.8587
 1321SOL     OW15421   0.065   2.670   4.663  1.0366  0.3439 -0.9622
 1321SOL    HW115422   0.132   2.731   4.633  2.3337 -0.4533  0.3122
 1321SOL    HW215423   0.006   2.668   4.588  0.1589  3.1748 -0.3364
 1322SOL     OW15424   3.817   1.077   9.957  0.4718  0.0540  0.3508
 1322SOL    HW115425   3.822   1.065   9.862 -0.9215 -1.3640  0.4538
 1322SOL    HW215426   3.842   1.169   9.961  1.5385 -0.2114 -0.1691
 1323SOL     OW15427   1.209   2.521   0.310 -0.3564  0.1813  0.1240
 1323SOL    HW115428   1.233   2.556   0.225  3.4802 -2.0439  0.3124
 1323SOL    HW215429   1.278   2.458   0.330 -1.3491 -0.8696  0.1794
 1324SOL     OW15430   2.551   0.916   6.360 -0.2482 -0.0694  1.0843
 1324SOL    HW115431   2.579   0.876   6.278  2.3779 -1.2985  2.5894
 1324SOL    HW215432   2.470   0.960   6.334 -0.2324 -0.8058 -0.1765
 1325SOL     OW15433   3.127   2.197  15.497 -0.2085  0.1666 -0.4860
 1325SOL    HW115434   3.113   2.105  15.520 -1.7340  0.3651 -0.5974
 1325SOL    HW215435   3.219   2.193  15.473 -0.2494 -2.2699 -0.2633
 1326SOL     OW15436   3.000   3.592   6.306  0.2252 -0.5061  0.3655
 1326SOL    HW115437   2.937   3.624   6.241 -0.2353 -2.9023 -0.3516
 1326SOL    HW215438   3.017   3.508   6.264  1.5705 -0.0585  0.0256
 1327SOL     OW15439   1.382   3.207   6.685  0.2203  0.0183  0.2290
 1327SOL    HW115440   1.357   3.116   6.668 -1.6911  0.8779 -1.5684
 1327SOL    HW215441   1.475   3.203   6.710  0.7770  1.5150 -1.5543
 1328SOL     OW15442   3.684   2.512   3.198  0.1563 -0.3002 -0.0741
 1328SOL    HW115443   3.666   2.538   3.288  3.4386 -0.7198  0.6884
 1328SOL    HW215444   3.616   2.563   3.154  0.6712  1.4473  1.1564
 1329SOL     OW15445   4.591   3.122   1.664 -0.8103  0.0402 -0.5466
 1329SOL    HW115446   4.577   3.160   1.578 -0.3106 -0.5866 -0.9105
 1329SOL    HW215447   4.652   3.183   1.705  2.3925 -2.0893 -2.1043
 1330SOL     OW15448   3.868   4.472   2.813 -0.4926 -0.5316 -0.5759
 1330SOL    HW115449   3.815   4.400   2.779  0.5203 -1.1466 -0.8380
 1330SOL    HW215450   3.811   4.500   2.885  1.6401 -0.9415  1.2375
 1331SOL     OW15451   1.400   0.984   4.851  0.1089 -0.4463  0.2546
 1331SOL    HW115452   1.385   1.079   4.855 -1.2963 -0.7652  2.4451
 1331SOL    HW215453   1.474   0.977   4.912  0.2389 -0.4106  0.0986
 1332SOL     OW15454   3.653   0.706   5.742 -0.0248  0.2740 -0.4335
 1332SOL    HW115455   3.693   0.619   5.742 -1.4339 -0.3766 -2.0330
 1332SOL    HW215456   3.564   0.671   5.730  0.3191 -1.6109  2.4668
 1333SOL     OW15457   0.153   1.752  13.332  1.0052 -0.2511  0.3163
 1333SOL    HW115458   0.134   1.660  13.313 -1.0043  0.0889  0.6911
 1333SOL    HW215459   0.176   1.785  13.245 -4.2681 -0.3838 -1.1171
 1334SOL     OW15460   2.747   1.575   3.886  0.2357  0.2831  0.0397
 1334SOL    HW115461   2.829   1.612   3.853  0.7327 -0.7001  0.1746
 1334SOL    HW215462   2.706   1.652   3.927 -1.6274  0.0768 -1.4355
 1335SOL     OW15463   1.633   1.501   5.634 -0.0421  0.3943  0.2686
 1335SOL    HW115464   1.643   1.558   5.711  0.9786 -0.6392  0.9128
 1335SOL    HW215465   1.574   1.434   5.670  0.1084 -1.2161 -2.5338
 1336SOL     OW15466   0.938   3.080   7.995  0.2545  0.1017 -0.6462
 1336SOL    HW115467   1.016   3.074   7.940 -0.2869  2.8170 -1.6924
 1336SOL    HW215468   0.888   3.005   7.962 -0.8311  0.4506  0.1791
 1337SOL     OW15469   0.817   2.174   6.638 -0.4872  0.4197 -0.2121
 1337SOL    HW115470   0.866   2.098   6.670  2.1020  1.7462 -1.0075
 1337SOL    HW215471   0.821   2.163   6.543  1.5905  0.1084 -0.0841
 1338SOL     OW15472   4.172   4.400  11.470 -0.1683 -0.4237  0.1313
 1338SOL    HW115473   4.232   4.440  11.406 -0.8498 -0.9402 -0.8400
 1338SOL    HW215474   4.137   4.480  11.509  0.8221 -0.6552  1.5032
 1339SOL     OW15475   2.821   2.528   7.607 -0.1098 -0.0262 -0.0479
 1339SOL    HW115476   2.901   2.572   7.637  0.0030 -0.9592  0.9808
 1339SOL    HW215477   2.759   2.560   7.672  1.8285  0.3222  1.6426
 1340SOL     OW15478   1.776   1.657   6.526 -0.5215  0.3016 -0.0476
 1340SOL    HW115479   1.846   1.652   6.462 -0.2242  2.1680  0.1157
 1340SOL    HW215480   1.772   1.753   6.535 -0.1312  0.5819 -3.1147
 1341SOL     OW15481   3.956   3.992  11.189  0.4778  0.0216 -0.4542
 1341SOL    HW115482   3.860   3.993  11.188  0.5041  1.0911 -1.8622
 1341SOL    HW215483   3.964   3.919  11.128 -1.8866 -1.5903  1.1084
 1342SOL     OW15484   2.658   2.636   4.217  0.4410 -0.0554 -0.1656
 1342SOL    HW115485   2.698   2.680   4.292  2.2738  0.2986 -1.3689
 1342SOL    HW215486   2.669   2.546   4.248 -2.8697 -0.2885  0.3832
 1343SOL     OW15487   1.993   4.476   4.869  0.0958  0.3555 -0.8571
 1343SOL    HW115488   1.911   4.426   4.871  0.7994 -0.6686  2.4166
 1343SOL    HW215489   2.011   4.511   4.956 -0.7156  0.2693 -0.6504
 1344SOL     OW15490   2.164   2.007   5.309  0.4562 -0.2599  0.2861
 1344SOL    HW115491   2.177   1.934   5.370 -2.4146  0.2316  1.4721
 1344SOL    HW215492   2.184   1.978   5.220  0.0148 -2.3790  0.8717
 1345SOL     OW15493   3.398   1.098  15.428 -0.1327  0.5446  0.3140
 1345SOL    HW115494   3.471   1.047  15.462  0.7589  1.5325 -0.1198
 1345SOL    HW215495   3.397   1.054  15.343  1.8083  1.1561 -0.0305
 1346SOL     OW15496   2.850   1.443   2.735  0.0029 -0.1583  0.4422
 1346SOL    HW115497   2.780   1.506   2.719  0.6064  0.9527  2.1484
 1346SOL    HW215498   2.921   1.506   2.726  0.3035 -0.7438 -1.3105
 1347SOL     OW15499   0.568   4.503   8.937  0.4732  0.0022  0.3591
 1347SOL    HW115500   0.569   4.556   8.858  2.4826 -2.1190 -1.0687
 1347SOL    HW215501   0.485   4.456   8.935  0.3706  0.2938 -3.1056
 1348SOL     OW15502   3.098   1.276  12.037 -0.1921  0.2314  0.4544
 1348SOL    HW115503   3.055   1.245  12.116  1.2631  0.1253  1.1954
 1348SOL    HW215504   3.082   1.369  12.054 -1.2976 -0.4359  3.0402
 1349SOL     OW15505   0.865   2.606   8.476  0.5482  0.3208  0.3991
 1349SOL    HW115506   0.898   2.694   8.493 -1.4832  0.9939  0.8452
 1349SOL    HW215507   0.929   2.569   8.414 -1.7491 -1.7709 -0.7301
 1350SOL     OW15508   3.889   0.822   5.646  0.4148 -0.2606 -0.5622
 1350SOL    HW115509   3.802   0.797   5.678  1.3901 -2.2113  0.5509
 1350SOL    HW215510   3.937   0.836   5.727 -1.2849  0.9805  0.2320
 1351SOL     OW15511   0.266   1.362   2.825  0.1252  0.6715 -0.0679
 1351SOL    HW115512   0.199   1.337   2.888 -1.1047  1.7307 -0.9337
 1351SOL    HW215513   0.223   1.431   2.774 -0.3550  1.1033  0.9164
 1352SOL     OW15514   2.667   1.833   6.154  0.2092 -0.2535 -0.0962
 1352SOL    HW115515   2.753   1.862   6.123 -0.7399  1.4631 -1.1461
 1352SOL    HW215516   2.703   1.770   6.216 -0.6854  0.4190  1.0947
 1353SOL     OW15517   0.750   2.691   4.848 -0.1421  0.2079 -0.2577
 1353SOL    HW115518   0.723   2.717   4.760  1.0617 -1.1359 -1.0251
 1353SOL    HW215519   0.837   2.655   4.836  0.2837  1.0490  0.2690
 1354SOL     OW15520   3.686   1.893   7.908 -0.7122 -0.0454  0.4700
 1354SOL    HW115521   3.752   1.954   7.940  0.2749  0.2317 -2.0581
 1354SOL    HW215522   3.618   1.953   7.878 -0.1315 -0.7289 -2.2582
 1355SOL     OW15523   2.674   0.496  14.674 -0.2399 -0.3215  0.2490
 1355SOL    HW115524   2.611   0.564  14.699 -0.4233 -1.3136  2.5140
 1355SOL    HW215525   2.632   0.464  14.594  1.5593 -0.6955 -0.5528
 1356SOL     OW15526   1.154   2.573  13.043  0.3986 -0.0452  1.0360
 1356SOL    HW115527   1.176   2.660  13.077  0.7185 -0.1597  1.1263
 1356SOL    HW215528   1.214   2.511  13.085  0.2755 -1.6468 -1.1810
 1357SOL     OW15529   3.831   0.805   2.958 -0.0847  0.4658 -0.6913
 1357SOL    HW115530   3.753   0.855   2.983  1.0565  1.6429  0.5103
 1357SOL    HW215531   3.854   0.765   3.042 -1.1298  0.5060 -0.3807
 1358SOL     OW15532   4.249   0.465   9.539 -0.0649 -0.0165  0.2249
 1358SOL    HW115533   4.170   0.476   9.593  0.7515  0.5952  1.2779
 1358SOL    HW215534   4.301   0.392   9.571 -0.4765 -0.3077  0.2299
 1359SOL     OW15535   2.353   3.676  11.558 -0.3868 -0.3978 -0.3095
 1359SOL    HW115536   2.286   3.635  11.504 -0.0858 -0.8248 -0.3566
 1359SOL    HW215537   2.364   3.762  11.519  2.2566 -0.2333  0.7572
 1360SOL     OW15538   0.497   3.138   6.814 -0.1006  0.3313  0.0299
 1360SOL    HW115539   0.545   3.218   6.792 -0.6084  0.4071 -0.7857
 1360SOL    HW215540   0.486   3.155   6.907 -0.7258 -2.1505  0.4058
 1361SOL     OW15541   0.206   1.716   2.924  0.4964 -0.4001  0.0247
 1361SOL    HW115542   0.292   1.757   2.930  0.2213  0.0213  1.0248
 1361SOL    HW215543   0.225   1.646   2.987  1.8590 -0.4335 -0.4180
 1362SOL     OW15544   0.234   4.671  15.589  0.4126 -0.3210  0.0850
 1362SOL    HW115545   0.186   0.017  15.546 -0.4217 -0.3988  0.8861
 1362SOL    HW215546   0.179   4.603  15.550 -1.3925  1.0645  0.1719
 1363SOL     OW15547   3.493   1.902  13.463 -0.0314 -0.5627 -0.1579
 1363SOL    HW115548   3.445   1.824  13.492  0.6449 -0.3496  1.5487
 1363SOL    HW215549   3.420   1.940  13.413 -1.5844 -2.7122  0.4843
 1364SOL     OW15550   1.526   1.026  12.089 -0.7461 -0.4945  0.3957
 1364SOL    HW115551   1.553   0.944  12.131 -0.5128 -0.3888  0.4533
 1364SOL    HW215552   1.580   1.039  12.011 -0.6590  0.2801  0.5873
 1365SOL     OW15553   3.502   4.489   2.213 -0.0274  0.0050  0.1182
 1365SOL    HW115554   3.414   4.523   2.203  1.0463  2.6477 -0.1756
 1365SOL    HW215555   3.478   4.398   2.232 -0.3627  0.4322  1.7012
 1366SOL     OW15556   4.309   4.100   4.844  0.3366 -0.3477  0.9108
 1366SOL    HW115557   4.352   4.016   4.829  0.5537 -0.2914  1.2364
 1366SOL    HW215558   4.388   4.151   4.826  0.1892 -1.0297 -1.7100
 1367SOL     OW15559   3.322   0.577  10.595 -0.2987 -0.5281 -0.2007
 1367SOL    HW115560   3.230   0.586  10.619 -0.6369  0.0287 -1.7593
 1367SOL    HW215561   3.318   0.566  10.500 -0.0057 -3.5921  0.1101
 1368SOL     OW15562   2.853   2.535  12.901 -0.2189 -0.2788 -0.4977
 1368SOL    HW115563   2.904   2.616  12.898  1.4524 -1.2858  0.4831
 1368SOL    HW215564   2.920   2.466  12.907  0.2366  0.3800  2.1303
 1369SOL     OW15565   2.642   3.933  12.726  0.3690 -0.0024 -0.6055
 1369SOL    HW115566   2.651   4.000  12.794 -1.4116  1.0089 -1.3532
 1369SOL    HW215567   2.626   3.998  12.658 -0.0466  1.4722  0.8979
 1370SOL     OW15568   0.475   0.052   3.297 -0.2325 -0.7179 -0.3945
 1370SOL    HW115569   0.508   0.118   3.236  2.2563 -2.6978 -1.1756
 1370SOL    HW215570   0.381   0.041   3.281 -1.1827  4.7634  1.1445
 1371SOL     OW15571   1.513   4.045   6.518 -0.6465  0.1868  0.3222
 1371SOL    HW115572   1.521   4.137   6.492 -0.0770  0.4207  1.3406
 1371SOL    HW215573   1.603   4.032   6.546 -0.6227 -0.4985 -0.0845
 1372SOL     OW15574   2.762   2.541   6.616 -0.2472 -0.0033 -0.2091
 1372SOL    HW115575   2.766   2.555   6.522  0.5907  0.9733 -0.0341
 1372SOL    HW215576   2.677   2.496   6.623 -1.0706  1.5941  0.1073
 1373SOL     OW15577   1.819   0.843   7.633 -0.2120 -0.0292 -0.6573
 1373SOL    HW115578   1.860   0.929   7.645  0.0877 -0.2231 -0.2714
 1373SOL    HW215579   1.789   0.821   7.721  0.4540 -0.7138 -0.5929
 1374SOL     OW15580   0.675   0.800   4.393 -0.4156 -0.0970 -0.9053
 1374SOL    HW115581   0.615   0.767   4.326 -0.7312 -0.1603 -0.5930
 1374SOL    HW215582   0.614   0.818   4.464  0.6806  0.6955 -0.1631
 1375SOL     OW15583   4.189   1.673   0.227 -0.0307 -0.7143  0.0274
 1375SOL    HW115584   4.196   1.638   0.316 -1.4157 -0.1388  0.3632
 1375SOL    HW215585   4.275   1.648   0.193 -0.8681 -2.8091 -0.5837
 1376SOL     OW15586   2.279   4.445   3.603 -0.0718 -0.3112 -0.3594
 1376SOL    HW115587   2.267   4.540   3.604 -2.1315 -0.5529 -1.1773
 1376SOL    HW215588   2.266   4.424   3.511  1.2250 -4.5592  0.4553
 1377SOL     OW15589   2.483   1.495   2.808  0.0693  1.0422 -0.1368
 1377SOL    HW115590   2.512   1.562   2.869  1.0997 -0.3249  0.8713
 1377SOL    HW215591   2.446   1.429   2.867  1.8681 -0.0372 -0.2143
 1378SOL     OW15592   3.553   1.545   9.180 -0.8662 -0.2961 -0.0229
 1378SOL    HW115593   3.505   1.533   9.098 -1.9221  2.7382  0.1673
 1378SOL    HW215594   3.595   1.629   9.163 -1.2973 -0.4846 -1.9249
 1379SOL     OW15595   3.814   0.712   7.785 -0.5575 -0.0908 -0.0756
 1379SOL    HW115596   3.788   0.804   7.776  1.5054  0.3879 -1.1329
 1379SOL    HW215597   3.810   0.693   7.691 -0.0790  1.1711 -0.3471
 1380SOL     OW15598   2.164   0.123   2.833 -0.2796  0.2350 -0.2423
 1380SOL    HW115599   2.075   0.158   2.831 -0.2467  0.6783  4.5440
 1380SOL    HW215600   2.197   0.140   2.745  0.6869  0.0708  0.0930
 1381SOL     OW15601   3.548   3.679  14.286 -0.4922  0.5505  0.1912
 1381SOL    HW115602   3.537   3.773  14.295  1.0943  0.8256 -0.7912
 1381SOL    HW215603   3.493   3.657  14.211 -1.6695 -0.6668  1.4052
 1382SOL     OW15604   0.731   3.345   6.845  0.4220 -0.5789 -0.3304
 1382SOL    HW115605   0.823   3.322   6.839  1.1407  2.2345  0.2085
 1382SOL    HW215606   0.714   3.341   6.751 -1.3963 -0.4954 -0.0082
 1383SOL     OW15607   0.124   4.501  15.433  0.2228 -0.3574 -0.1638
 1383SOL    HW115608   0.197   4.445  15.407  0.2426 -0.0800 -0.7080
 1383SOL    HW215609   0.056   4.453  15.384 -0.9984  3.1277 -1.8916
 1384SOL     OW15610   3.268   0.042   9.568  0.0017  0.4247 -0.3094
 1384SOL    HW115611   3.186   0.001   9.595  0.0191  0.8016  0.3130
 1384SOL    HW215612   3.279   0.095   9.647  0.3087  0.5171 -0.4148
 1385SOL     OW15613   0.392   3.095   8.006 -0.1892  0.4371 -0.7354
 1385SOL    HW115614   0.409   3.043   8.084  0.5697 -0.4845 -1.5152
 1385SOL    HW215615   0.443   3.175   8.023 -1.5242  1.1579 -0.1402
 1386SOL     OW15616   1.667   0.020   1.326 -0.8833 -0.1799 -0.1139
 1386SOL    HW115617   1.719   0.078   1.381  1.7651 -0.7913 -1.9944
 1386SOL    HW215618   1.583   0.066   1.320 -0.9412 -0.2014  0.6325
 1387SOL     OW15619   4.341   0.086   7.046  0.4640 -0.7210 -0.2841
 1387SOL    HW115620   4.308   0.161   7.096 -0.1366 -1.9518  1.1582
 1387SOL    HW215621   4.259   0.048   7.013 -0.4033  0.7540  0.1491
 1388SOL     OW15622   4.622   1.076   8.295  0.2924 -0.1505 -0.1955
 1388SOL    HW115623   4.668   1.073   8.211  1.0000 -0.7735  0.2148
 1388SOL    HW215624   4.611   0.986   8.323  2.5429 -0.0186  1.0642
 1389SOL     OW15625   3.662   3.792   3.348  0.6873 -0.1587 -0.2545
 1389SOL    HW115626   3.739   3.849   3.350  0.7437 -0.2948  1.3969
 1389SOL    HW215627   3.702   3.706   3.356  2.0292  0.6560  1.8032
 1390SOL     OW15628   4.632   3.023   5.787 -0.5344  0.3934  0.1349
 1390SOL    HW115629   4.637   3.118   5.792 -3.0256  0.6743 -2.5449
 1390SOL    HW215630   4.708   3.029   5.728 -0.1536  1.0996  0.7006
 1391SOL     OW15631   0.553   2.287   6.661  0.2831 -0.4280 -0.4634
 1391SOL    HW115632   0.579   2.356   6.599  0.7450 -0.7636 -0.6384
 1391SOL    HW215633   0.638   2.248   6.678  0.1382 -0.0051  1.3206
 1392SOL     OW15634   3.826   0.769   8.431 -0.7496  0.4216  0.0278
 1392SOL    HW115635   3.850   0.849   8.382  1.3127 -0.7706 -0.9187
 1392SOL    HW215636   3.765   0.723   8.374 -2.4865 -0.4778  2.6323
 1393SOL     OW15637   2.315   4.352   5.573 -0.2233  0.6745 -0.3587
 1393SOL    HW115638   2.280   4.327   5.658  1.1180 -0.8200 -0.2518
 1393SOL    HW215639   2.403   4.314   5.583 -0.3261  1.2869  2.7401
 1394SOL     OW15640   0.129   2.665   8.205 -0.3919 -0.0012 -0.8038
 1394SOL    HW115641   0.220   2.635   8.196  0.1729  1.8897 -1.6172
 1394SOL    HW215642   0.083   2.601   8.152 -2.2559  0.5419  0.1807
 1395SOL     OW15643   3.679   3.632   2.967  0.4611 -0.2099  0.4516
 1395SOL    HW115644   3.655   3.678   2.886  0.3272 -1.3580 -0.1488
 1395SOL    HW215645   3.773   3.623   2.956  0.1328 -0.7250 -1.9947
 1396SOL     OW15646   2.173   4.364   2.052 -0.3363  0.3203 -0.1784
 1396SOL    HW115647   2.138   4.386   2.138 -1.8079  0.6406 -0.8584
 1396SOL    HW215648   2.144   4.436   1.995 -0.7192  0.5226  0.2718
 1397SOL     OW15649   0.380   1.339   3.113 -0.7587  0.1696  0.5783
 1397SOL    HW115650   0.437   1.263   3.119  0.2675  0.8705 -0.2915
 1397SOL    HW215651   0.301   1.297   3.078 -0.0091  0.8826 -1.9763
 1398SOL     OW15652   2.579   2.236   3.112 -0.1347 -0.2563  0.5978
 1398SOL    HW115653   2.564   2.314   3.166  1.2836 -0.3151  1.0587
 1398SOL    HW215654   2.549   2.265   3.025 -1.2295 -2.0688  0.3742
 1399SOL     OW15655   2.570   1.535   3.659 -0.0022  0.1240 -0.4171
 1399SOL    HW115656   2.491   1.576   3.694  0.8633 -0.0036  1.6854
 1399SOL    HW215657   2.628   1.554   3.733 -0.3820  1.4395 -0.4581
 1400SOL     OW15658   3.024   2.786   7.950  1.2147  0.3374 -0.6856
 1400SOL    HW115659   3.020   2.857   7.886 -0.2041  0.5307 -0.3719
 1400SOL    HW215660   2.932   2.760   7.955  1.4409 -0.8115 -2.8433
 1401SOL     OW15661   1.103   3.046   5.034  0.2332 -0.1202 -0.2468
 1401SOL    HW115662   1.034   2.998   5.080 -0.3365  0.4633 -0.4930
 1401SOL    HW215663   1.168   3.056   5.104  2.2213 -1.1678 -1.9335
 1402SOL     OW15664   4.287   0.990   5.208  0.6268 -0.8105  0.0272
 1402SOL    HW115665   4.236   1.003   5.288  2.3512 -0.8940  1.1499
 1402SOL    HW215666   4.275   1.075   5.165  1.0084 -1.1058 -0.6663
 1403SOL     OW15667   4.382   1.017  17.025 -0.1838 -0.3541  0.0120
 1403SOL    HW115668   4.386   0.921  17.023 -1.7501 -0.4365  1.2530
 1403SOL    HW215669   4.457   1.047  16.972  1.7914 -1.0315  2.4356
 1404SOL     OW15670   2.955   2.417  16.817  0.1299 -0.1319  0.3286
 1404SOL    HW115671   2.860   2.419  16.806  0.3499 -1.2982 -1.7625
 1404SOL    HW215672   2.962   2.405  16.912  0.5949 -0.5880  0.2366
 1405SOL     OW15673   2.337   3.768  14.464  0.0568  0.3074  0.2617
 1405SOL    HW115674   2.331   3.772  14.368  1.1160 -2.7672  0.0750
 1405SOL    HW215675   2.432   3.781  14.466 -0.0683  1.3609 -0.9730
 1406SOL     OW15676   0.739   0.147   7.072 -0.3184 -0.0341  0.3310
 1406SOL    HW115677   0.729   0.065   7.121 -2.1052  0.5234  0.8783
 1406SOL    HW215678   0.729   0.217   7.136 -0.9259 -0.2881  0.5137
 1407SOL     OW15679   3.103   4.104   4.978 -0.2653 -0.3078 -0.2880
 1407SOL    HW115680   3.131   4.028   4.926  0.8427  0.7337 -1.2104
 1407SOL    HW215681   3.158   4.177   4.952  0.7496 -0.9188  0.1205
 1408SOL     OW15682   1.615   2.734   3.802  0.4043  0.2479  0.2576
 1408SOL    HW115683   1.536   2.787   3.798 -0.2627 -0.9967 -2.5629
 1408SOL    HW215684   1.609   2.670   3.732 -1.3157 -0.9542  1.5133
 1409SOL     OW15685   2.110   2.721   7.090  0.0159 -0.4261  0.1033
 1409SOL    HW115686   2.032   2.679   7.051  0.1941  1.6451 -2.5309
 1409SOL    HW215687   2.172   2.649   7.085 -0.5097 -0.8249 -0.8562
 1410SOL     OW15688   1.112   1.665   7.625  0.3829 -0.1028 -0.2297
 1410SOL    HW115689   1.139   1.728   7.558 -1.8829  0.1692 -0.8877
 1410SOL    HW215690   1.153   1.695   7.706 -0.7756  0.5037  0.1159
 1411SOL     OW15691   4.013   1.453  16.723 -0.3407 -0.1776  0.3079
 1411SOL    HW115692   4.052   1.384  16.776  2.0024 -0.2814 -1.5748
 1411SOL    HW215693   4.088   1.471  16.667 -0.4010 -0.6057  0.0938
 1412SOL     OW15694   2.433   3.143   3.723  0.1642  0.5298 -0.2706
 1412SOL    HW115695   2.337   3.140   3.722  0.2075 -1.1774  0.2973
 1412SOL    HW215696   2.456   3.051   3.736 -4.1372 -0.5556 -0.1923
 1413SOL     OW15697   3.702   1.221   9.133 -0.5117  0.0025 -0.2287
 1413SOL    HW115698   3.630   1.253   9.186 -0.5738  0.9437 -0.8821
 1413SOL    HW215699   3.771   1.282   9.158 -1.1129  0.2713  0.7540
 1414SOL     OW15700   2.932   1.716  15.465 -0.0546  0.3792 -0.0327
 1414SOL    HW115701   2.933   1.623  15.442 -0.7566  0.1290  0.9635
 1414SOL    HW215702   2.992   1.758  15.404 -0.6076  0.1947 -0.6989
 1415SOL     OW15703   1.549   2.651   4.685  0.0909  0.8670 -0.0980
 1415SOL    HW115704   1.587   2.734   4.658 -0.5319  0.9772 -0.6187
 1415SOL    HW215705   1.456   2.665   4.668  0.1471  0.0084 -1.1462
 1416SOL     OW15706   2.753   0.987  10.446 -0.0170  0.2997 -0.0068
 1416SOL    HW115707   2.751   0.955  10.356 -1.3608 -3.9609  1.5550
 1416SOL    HW215708   2.846   1.008  10.458  0.4948 -1.2226 -1.2104
 1417SOL     OW15709   1.065   4.355   0.206 -0.2073 -0.0129  0.3720
 1417SOL    HW115710   0.991   4.376   0.148  0.6564 -1.5429 -1.2879
 1417SOL    HW215711   1.041   4.263   0.220  0.6615 -0.3596 -0.3964
 1418SOL     OW15712   1.828   3.481  16.620 -0.1613 -0.1729  0.6783
 1418SOL    HW115713   1.841   3.387  16.633  0.9678 -0.1941 -0.6705
 1418SOL    HW215714   1.850   3.493  16.528 -2.5827  0.3201  0.1840
 1419SOL     OW15715   4.382   4.145   1.191  0.0738  0.2423  0.2058
 1419SOL    HW115716   4.360   4.216   1.250  0.4076 -0.2853  0.9619
 1419SOL    HW215717   4.471   4.175   1.175  0.3839 -0.5477  0.4412
 1420SOL     OW15718   0.387   2.189   1.997 -0.9435  0.0144 -0.7179
 1420SOL    HW115719   0.308   2.180   1.943 -0.8072  2.1020 -1.2927
 1420SOL    HW215720   0.453   2.130   1.962 -0.9862 -0.5877  0.2295
 1421SOL     OW15721   3.510   0.696   6.076 -0.1780  0.1104 -0.0154
 1421SOL    HW115722   3.430   0.654   6.046  0.9354 -2.9890  1.3954
 1421SOL    HW215723   3.503   0.773   6.019 -0.8875 -0.2264 -0.3883
 1422SOL     OW15724   2.979   2.047  11.991 -0.1880  0.1415 -0.0652
 1422SOL    HW115725   2.949   2.026  11.903  0.8548  3.0641 -1.0969
 1422SOL    HW215726   2.973   2.143  11.987 -0.9109  0.0199 -1.7641
 1423SOL     OW15727   2.274   4.375   3.319  0.2445 -0.2232  0.2496
 1423SOL    HW115728   2.333   4.424   3.261 -0.7811 -0.0959 -0.7025
 1423SOL    HW215729   2.258   4.298   3.264  0.7649 -1.0957  1.3339
 1424SOL     OW15730   1.551   2.833   6.041  0.2946  0.4639  0.1749
 1424SOL    HW115731   1.478   2.825   5.980  0.1885 -0.0430  0.3723
 1424SOL    HW215732   1.601   2.907   6.006 -1.4556  1.2921 -0.5199
 1425SOL     OW15733   0.293   1.242   5.611  0.3667  0.4967 -0.1308
 1425SOL    HW115734   0.389   1.234   5.617  0.4890  2.9767  1.4059
 1425SOL    HW215735   0.276   1.182   5.539 -1.8889  0.7906  0.1548
 1426SOL     OW15736   4.552   3.362   7.245  0.1382  0.2206  0.3149
 1426SOL    HW115737   4.588   3.402   7.166 -1.5782  0.7630 -0.1947
 1426SOL    HW215738   4.504   3.285   7.213  0.8979  0.6005 -1.7478
 1427SOL     OW15739   2.389   3.194   4.541 -0.1275 -0.2428 -0.3244
 1427SOL    HW115740   2.356   3.117   4.496  1.6980 -1.0646 -0.2523
 1427SOL    HW215741   2.361   3.259   4.477 -0.5473 -1.3526 -1.2598
 1428SOL     OW15742   0.125   2.514   8.743  0.0094 -0.4162  0.3479
 1428SOL    HW115743   0.035   2.548   8.739 -0.0149 -0.7092 -1.7500
 1428SOL    HW215744   0.111   2.442   8.804 -0.1970 -0.5330  0.1657
 1429SOL     OW15745   1.421   2.068   3.988  0.0443 -0.2206 -0.1015
 1429SOL    HW115746   1.428   2.050   4.082  2.9802 -3.0669 -0.8561
 1429SOL    HW215747   1.345   2.126   3.998  2.6898  3.4184 -1.0912
 1430SOL     OW15748   3.702   1.528   8.475 -0.1300  0.3909  0.9156
 1430SOL    HW115749   3.788   1.498   8.503  0.0108 -1.7934 -1.8335
 1430SOL    HW215750   3.669   1.440   8.457  0.2443  0.7222 -1.4300
 1431SOL     OW15751   3.057   3.967   1.052  0.3450  0.1002 -0.1613
 1431SOL    HW115752   3.097   3.995   1.134  0.5337  1.5272 -0.7352
 1431SOL    HW215753   3.128   3.979   0.988  0.4463  1.6553  0.2225
 1432SOL     OW15754   1.374   2.014   4.605 -0.6924 -0.2167  0.1385
 1432SOL    HW115755   1.347   2.030   4.696  1.0902 -1.2493  0.8283
 1432SOL    HW215756   1.456   1.970   4.623 -1.0848 -1.1137 -0.2718
 1433SOL     OW15757   1.828   3.360   7.998 -0.6985  0.0512 -0.4013
 1433SOL    HW115758   1.741   3.338   8.032 -1.0941  0.0237 -1.4451
 1433SOL    HW215759   1.799   3.371   7.908 -0.7747  1.4920 -0.1925
 1434SOL     OW15760   2.054   1.292  16.600  0.1213  0.6575 -0.4302
 1434SOL    HW115761   1.969   1.295  16.556  0.3006 -0.1689 -0.8389
 1434SOL    HW215762   2.107   1.314  16.523  1.1775 -1.4016 -0.2938
 1435SOL     OW15763   4.282   4.189   1.448  0.2020  0.3393 -0.1037
 1435SOL    HW115764   4.319   4.258   1.504  2.6712  0.2811 -1.6970
 1435SOL    HW215765   4.357   4.130   1.453  0.1383  0.1183 -1.7680
 1436SOL     OW15766   2.147   2.140  17.341 -0.6113  0.3134  0.3061
 1436SOL    HW115767   2.117   2.091  17.265  2.3785  1.1692 -1.4143
 1436SOL    HW215768   2.156   2.074  17.409 -0.7221 -0.9556 -0.9263
 1437SOL     OW15769   3.956   2.543   9.287 -0.3497  0.2647  0.4259
 1437SOL    HW115770   3.994   2.629   9.308 -3.6048  2.2259 -1.7213
 1437SOL    HW215771   4.040   2.506   9.260 -0.4724  1.4175 -1.5379
 1438SOL     OW15772   0.960   1.056   7.821  0.0517 -0.2764 -0.5713
 1438SOL    HW115773   0.931   0.973   7.782  0.7644 -1.1082  0.6279
 1438SOL    HW215774   1.042   1.024   7.859 -0.3214 -1.6272 -0.8944
 1439SOL     OW15775   3.230   2.394  10.742 -0.7247  0.4265 -0.0123
 1439SOL    HW115776   3.167   2.363  10.677 -1.2309 -0.1505  0.7594
 1439SOL    HW215777   3.303   2.419  10.685  1.4330 -2.1849  1.6315
 1440SOL     OW15778   3.749   2.018  13.415  0.3929  0.3538 -0.1607
 1440SOL    HW115779   3.668   1.974  13.440  2.0720 -2.8137 -0.3519
 1440SOL    HW215780   3.789   2.040  13.499  0.4392  0.6045 -0.2474
 1441SOL     OW15781   4.341   1.137   6.931 -0.0522 -0.6574  0.2787
 1441SOL    HW115782   4.368   1.046   6.943  3.5967  0.5467  1.1248
 1441SOL    HW215783   4.263   1.119   6.984 -0.4619  1.5529  0.4299
 1442SOL     OW15784   3.383   1.321   7.998  0.1590  0.0664  0.1514
 1442SOL    HW115785   3.375   1.244   7.943  2.3246  0.3097 -0.5230
 1442SOL    HW215786   3.379   1.296   8.091 -2.2998  1.5378  0.4497
 1443SOL     OW15787   1.274   3.369   8.545 -0.3928  0.2132  0.0617
 1443SOL    HW115788   1.323   3.418   8.612 -0.6654  0.3200  0.1850
 1443SOL    HW215789   1.243   3.303   8.607  0.6495  1.6340  2.1359
 1444SOL     OW15790   2.438   1.820   1.388  0.8019 -0.5524 -0.0931
 1444SOL    HW115791   2.388   1.741   1.412  1.9312 -1.1609  0.2814
 1444SOL    HW215792   2.496   1.830   1.464  0.9621  1.0242 -0.4241
 1445SOL     OW15793   1.767   1.546   5.002  0.6805  0.5598 -0.6291
 1445SOL    HW115794   1.705   1.616   5.023 -0.0821 -1.1077  2.6894
 1445SOL    HW215795   1.702   1.486   4.967 -1.3116  0.6840  2.8488
 1446SOL     OW15796   1.236   0.934   9.407  0.5353  0.3626 -0.2330
 1446SOL    HW115797   1.284   0.982   9.474  0.4465  0.7960 -0.4799
 1446SOL    HW215798   1.168   0.895   9.461  0.3554 -1.2439 -1.6233
 1447SOL     OW15799   3.417   1.935   4.475  0.0181  0.3078 -0.8472
 1447SOL    HW115800   3.353   1.915   4.543  2.0331  1.8084  1.4322
 1447SOL    HW215801   3.421   1.856   4.420 -0.7643  0.6004 -1.3243
 1448SOL     OW15802   2.197   3.879  16.979  0.0446 -0.0209  0.0562
 1448SOL    HW115803   2.228   3.895  16.889  0.1099 -4.4815 -0.6954
 1448SOL    HW215804   2.173   3.968  17.007  0.3451 -0.5346  1.9353
 1449SOL     OW15805   1.157   3.054   1.593  0.1346 -0.1917 -0.1318
 1449SOL    HW115806   1.069   3.060   1.629  0.2631 -1.8311  0.4298
 1449SOL    HW215807   1.185   3.144   1.609 -0.5682 -0.0484  0.3029
 1450SOL     OW15808   1.496   3.019   8.489  0.1083 -0.5128 -0.1286
 1450SOL    HW115809   1.415   3.002   8.537  0.2592 -2.2031 -0.4605
 1450SOL    HW215810   1.531   3.085   8.550 -2.3561 -0.8365  1.6553
 1451SOL     OW15811   3.710   0.999   1.488  0.1265 -0.5263  0.0500
 1451SOL    HW115812   3.707   1.064   1.559 -0.4158 -1.2149  0.6483
 1451SOL    HW215813   3.618   0.973   1.486  0.2864 -1.2263  2.8485
 1452SOL     OW15814   4.696   3.807   8.755 -0.3578  0.1010  0.5659
 1452SOL    HW115815   0.063   3.809   8.725 -0.2529 -0.3473  0.8581
 1452SOL    HW215816   4.703   3.899   8.779 -4.5896  0.7720 -0.8591
 1453SOL     OW15817   0.597   4.088   5.532 -0.6605 -0.1780  0.3207
 1453SOL    HW115818   0.671   4.035   5.559  1.6850  2.2672 -1.2525
 1453SOL    HW215819   0.567   4.041   5.454 -0.8835 -1.5175  1.2128
 1454SOL     OW15820   3.348   1.071   7.872 -0.6203  0.1170  0.4656
 1454SOL    HW115821   3.415   1.011   7.906 -3.1339 -2.7474  0.2947
 1454SOL    HW215822   3.365   1.055   7.780  0.8664 -0.8447  0.9132
 1455SOL     OW15823   2.073   4.012  11.314  0.5112  0.2353 -0.4332
 1455SOL    HW115824   2.055   4.102  11.342  0.4015 -0.2508  1.1043
 1455SOL    HW215825   2.169   4.009  11.318  0.4366 -0.1184  1.2000
 1456SOL     OW15826   3.696   4.167   4.971  0.0550  0.3198  0.4500
 1456SOL    HW115827   3.601   4.153   4.970  0.2360 -0.8590  0.1039
 1456SOL    HW215828   3.713   4.160   5.065 -0.4569 -1.0205  0.4444
 1457SOL     OW15829   4.096   2.701   2.802 -0.0946  0.2951  0.3403
 1457SOL    HW115830   4.102   2.770   2.737  0.1153 -1.0549 -1.0621
 1457SOL    HW215831   4.096   2.747   2.886 -0.7482 -0.6651  0.8720
 1458SOL     OW15832   2.753   1.961   6.485 -0.2345 -0.2669 -0.0334
 1458SOL    HW115833   2.662   1.955   6.514 -0.1815 -0.6558  0.0593
 1458SOL    HW215834   2.767   1.870   6.458  0.0289 -0.7490  1.7767
 1459SOL     OW15835   3.162   4.376   7.591 -0.2336 -0.2815 -0.0984
 1459SOL    HW115836   3.200   4.462   7.609 -4.0220  1.3610 -0.0471
 1459SOL    HW215837   3.230   4.316   7.621 -1.1310 -2.5710 -2.6296
 1460SOL     OW15838   3.387   2.708   8.741  0.0701  0.7537  0.6566
 1460SOL    HW115839   3.440   2.745   8.811  3.0728  0.6988 -1.6277
 1460SOL    HW215840   3.425   2.751   8.665  1.6633 -0.0371  1.0230
 1461SOL     OW15841   1.410   2.626  16.072  0.4800 -0.3359  0.4869
 1461SOL    HW115842   1.366   2.654  16.153 -1.6742 -0.3472 -0.6814
 1461SOL    HW215843   1.489   2.679  16.081 -0.3967  0.8633  1.1660
 1462SOL     OW15844   0.710   2.877  10.864  0.3604 -0.2228 -0.4489
 1462SOL    HW115845   0.685   2.911  10.778 -0.6639  0.8256  0.2710
 1462SOL    HW215846   0.804   2.895  10.864  0.0113  1.5664 -0.8493
 1463SOL     OW15847   0.818   4.128   0.030 -0.1872  0.5063  0.4803
 1463SOL    HW115848   0.881   4.095   0.094  0.0429  1.3658  0.7019
 1463SOL    HW215849   0.828   4.220   0.055 -0.3630 -0.1421  2.9093
 1464SOL     OW15850   3.026   2.893  14.559 -0.5538 -0.0897 -0.1203
 1464SOL    HW115851   3.077   2.955  14.506 -1.1022  0.4091 -0.0581
 1464SOL    HW215852   3.070   2.917  14.640 -0.8049 -0.7571  0.2111
 1465SOL     OW15853   3.351   1.240   1.532  0.2131  0.3032 -0.7696
 1465SOL    HW115854   3.302   1.273   1.457 -1.5779 -0.7852 -0.0758
 1465SOL    HW215855   3.276   1.206   1.581  0.9832 -0.0995  0.1252
 1466SOL     OW15856   2.202   1.942   6.237  0.3455 -0.1345 -0.4585
 1466SOL    HW115857   2.239   1.875   6.180 -0.3784  0.4580 -1.6333
 1466SOL    HW215858   2.289   1.955   6.274 -0.5144 -1.0555  1.8465
 1467SOL     OW15859   1.118   1.142   5.787 -0.1815  0.0932 -0.2992
 1467SOL    HW115860   1.138   1.190   5.866 -2.0357 -1.3927  1.0823
 1467SOL    HW215861   1.143   1.053   5.812 -2.7739 -0.5560 -0.0016
 1468SOL     OW15862   2.709   2.523  16.788  0.1397  0.3421 -0.0761
 1468SOL    HW115863   2.634   2.469  16.762 -0.6099  0.4307  1.9115
 1468SOL    HW215864   2.663   2.580  16.850 -2.6513 -1.3675 -0.5822
 1469SOL     OW15865   2.397   2.026   8.098 -0.1672  0.4060 -0.0248
 1469SOL    HW115866   2.392   1.980   8.014 -1.8738 -1.8338  1.3078
 1469SOL    HW215867   2.333   2.097   8.094 -0.2651  0.4285  2.0549
 1470SOL     OW15868   2.118   3.943  11.700  0.2865  0.3734  0.2610
 1470SOL    HW115869   2.084   3.867  11.652  1.1495 -2.4735  4.1160
 1470SOL    HW215870   2.152   3.991  11.625  2.2247 -0.4411  0.6184
 1471SOL     OW15871   0.498   0.457   4.029  0.2483  1.0225  0.7784
 1471SOL    HW115872   0.404   0.455   4.009  0.9314 -2.3943 -2.0978
 1471SOL    HW215873   0.514   0.551   4.034 -0.0486  1.1516 -0.7942
 1472SOL     OW15874   3.743   3.621   9.220 -0.2910  0.0382 -0.2979
 1472SOL    HW115875   3.807   3.682   9.181 -0.7367  0.9541  0.4141
 1472SOL    HW215876   3.680   3.602   9.151  0.0361 -1.3616 -0.2197
 1473SOL     OW15877   0.879   0.561  15.772 -0.1806 -0.4555  0.1471
 1473SOL    HW115878   0.890   0.626  15.702  0.3985  0.3048  0.9488
 1473SOL    HW215879   0.959   0.585  15.818 -2.0375  3.2368  1.4627
 1474SOL     OW15880   1.282   4.402   1.876  0.6023  0.4013  0.3995
 1474SOL    HW115881   1.193   4.436   1.867  0.1634 -0.7492  0.3188
 1474SOL    HW215882   1.318   4.419   1.789 -1.8890  0.4837 -0.6198
 1475SOL     OW15883   3.012   0.720  16.921  0.0407 -0.6477  0.1795
 1475SOL    HW115884   2.960   0.776  16.979 -0.0546 -2.7768  2.1321
 1475SOL    HW215885   3.041   0.656  16.986  1.2200  0.1422  0.4448
 1476SOL     OW15886   4.008   3.742   9.611  0.4305 -0.1042  0.4479
 1476SOL    HW115887   4.011   3.647   9.601  0.7038 -0.2515  1.9658
 1476SOL    HW215888   3.943   3.748   9.681 -1.7435 -0.0516 -1.5794
 1477SOL     OW15889   1.304   2.502   1.834  0.2721  0.2327  0.2941
 1477SOL    HW115890   1.224   2.456   1.860 -0.5726  2.9015  2.5066
 1477SOL    HW215891   1.330   2.456   1.754  0.6294 -0.3914  0.7667
 1478SOL     OW15892   0.462   0.719   3.457  0.1740  0.2718 -0.2087
 1478SOL    HW115893   0.505   0.687   3.536 -4.4463 -1.0684  1.7339
 1478SOL    HW215894   0.371   0.733   3.481  0.1821 -0.2678  0.1248
 1479SOL     OW15895   0.708   4.058   2.758  0.0016  0.1915 -0.0450
 1479SOL    HW115896   0.664   4.143   2.754 -1.0449 -0.4670 -2.2674
 1479SOL    HW215897   0.802   4.077   2.757  0.2074 -0.8275 -0.7772
 1480SOL     OW15898   4.189   1.353   4.020 -0.3430 -0.1816 -0.2649
 1480SOL    HW115899   4.249   1.360   3.945 -0.8480  0.0055 -0.6554
 1480SOL    HW215900   4.161   1.443   4.035  0.6749  0.3591 -1.6449
 1481SOL     OW15901   1.079   4.694  16.012 -0.8248 -0.4566 -0.4980
 1481SOL    HW115902   1.112   4.628  16.072  2.1659  0.3963 -1.1893
 1481SOL    HW215903   1.139   4.682  15.938  0.2276 -0.1747  0.3136
 1482SOL     OW15904   2.636   2.600   7.805 -0.4280  0.1520 -0.2657
 1482SOL    HW115905   2.544   2.591   7.832  0.0223  0.7306  1.4965
 1482SOL    HW215906   2.685   2.552   7.872  2.0045  0.6551 -1.6867
 1483SOL     OW15907   3.469   0.338   5.100  0.6107 -0.0130 -0.2038
 1483SOL    HW115908   3.423   0.421   5.112 -0.5203 -0.5524 -0.8613
 1483SOL    HW215909   3.523   0.348   5.179  0.5772 -0.8195 -0.0713
 1484SOL     OW15910   4.002   3.206   0.727 -0.1084  0.3083  0.4226
 1484SOL    HW115911   4.029   3.119   0.757 -0.9614 -1.0932 -2.9551
 1484SOL    HW215912   4.056   3.214   0.649 -2.3007  1.4006 -0.9730
 1485SOL     OW15913   4.339   0.732   5.430  0.0804 -0.0292 -0.4108
 1485SOL    HW115914   4.251   0.766   5.412  0.4471  0.4786 -1.2551
 1485SOL    HW215915   4.338   0.714   5.524  2.3208  0.8295 -0.2219
 1486SOL     OW15916   4.449   4.316   0.268 -0.0484 -0.1962 -0.6397
 1486SOL    HW115917   4.418   4.394   0.222  0.6995  0.4789  0.0080
 1486SOL    HW215918   4.513   4.287   0.203  0.2704 -1.6284  0.3233
 1487SOL     OW15919   4.138   4.251  16.404  0.2834 -0.0784  0.3457
 1487SOL    HW115920   4.217   4.274  16.453 -0.2207  0.3761  0.9489
 1487SOL    HW215921   4.090   4.200  16.469  1.1797 -1.7590 -0.3010
 1488SOL     OW15922   3.399   1.272   5.359 -0.2157  0.6080 -0.4309
 1488SOL    HW115923   3.346   1.201   5.324  0.8197 -1.4006  2.0963
 1488SOL    HW215924   3.386   1.254   5.452  1.5069 -0.4147 -0.3868
 1489SOL     OW15925   3.399   2.864   8.514 -0.0517 -0.4223  0.5989
 1489SOL    HW115926   3.385   2.940   8.458  1.4161  0.6122  1.6335
 1489SOL    HW215927   3.309   2.862   8.549 -0.7560 -2.5409 -1.3258
 1490SOL     OW15928   2.880   1.181  12.550  0.2356  0.0317 -0.3174
 1490SOL    HW115929   2.836   1.099  12.530  0.8640  0.6063 -4.0018
 1490SOL    HW215930   2.946   1.184  12.480  1.3405  1.5129  0.7676
 1491SOL     OW15931   0.510   0.287   5.235  0.5464  0.2120  0.3964
 1491SOL    HW115932   0.517   0.204   5.282  1.4032  1.1204  1.8995
 1491SOL    HW215933   0.601   0.319   5.234  1.1744 -1.7461 -3.9119
 1492SOL     OW15934   4.334   2.961  17.581 -0.6253 -0.5639 -0.3633
 1492SOL    HW115935   4.372   2.942  17.667 -1.6093  1.6220  0.5336
 1492SOL    HW215936   4.328   3.055  17.592 -2.1296 -0.4315 -2.2212
 1493SOL     OW15937   3.358   3.274  14.783  0.1668 -0.8016 -0.0612
 1493SOL    HW115938   3.401   3.235  14.859 -1.7610 -3.8885 -0.5572
 1493SOL    HW215939   3.429   3.280  14.719 -0.0898 -5.8087 -0.7878
 1494SOL     OW15940   4.456   0.031   1.087 -0.6235 -0.6250  0.0496
 1494SOL    HW115941   4.506   0.080   1.022 -0.8074  1.4989  1.5052
 1494SOL    HW215942   4.371   0.073   1.081  0.7159  2.0955  0.3610
 1495SOL     OW15943   0.775   4.133   6.534  0.1395  0.3507  0.4981
 1495SOL    HW115944   0.754   4.039   6.529  1.5128  0.0012  1.4711
 1495SOL    HW215945   0.825   4.140   6.615  0.5688 -0.8666  0.3398
 1496SOL     OW15946   1.437   2.320   4.725  0.5959 -0.6539  0.1940
 1496SOL    HW115947   1.465   2.302   4.815 -0.3898 -1.3138  0.3641
 1496SOL    HW215948   1.493   2.251   4.688 -0.7761 -1.1746 -0.9000
 1497SOL     OW15949   3.243   3.815   7.236 -0.4797 -0.1322 -0.4288
 1497SOL    HW115950   3.154   3.781   7.249 -0.4776  1.3088  3.5239
 1497SOL    HW215951   3.238   3.883   7.304  1.0052 -0.7784  0.3414
 1498SOL     OW15952   0.424   2.427  12.996  0.3235  0.1287  0.3019
 1498SOL    HW115953   0.344   2.463  12.958  0.3364 -0.8318 -0.6364
 1498SOL    HW215954   0.484   2.502  12.995 -0.4683  0.7929  2.2358
 1499SOL     OW15955   4.609   4.449   3.469 -0.1544  0.1898 -0.1560
 1499SOL    HW115956   4.688   4.503   3.462 -0.7670  0.8735 -1.8889
 1499SOL    HW215957   4.627   4.378   3.408  0.4029  0.7927 -0.6980
 1500SOL     OW15958   3.151   2.338  14.799 -0.6023 -0.2429  0.0391
 1500SOL    HW115959   3.166   2.341  14.704 -2.3257 -1.3856 -0.2788
 1500SOL    HW215960   3.190   2.422  14.824 -0.8748 -0.4452  1.1217
 1501SOL     OW15961   3.737   2.172   4.829 -0.5841 -0.4002 -0.0675
 1501SOL    HW115962   3.776   2.131   4.906  0.9864  2.3146  0.6063
 1501SOL    HW215963   3.645   2.174   4.855 -0.1187  0.4688  1.5361
 1502SOL     OW15964   4.705   4.618  12.290  0.0740 -0.1762  0.0581
 1502SOL    HW115965   4.637   4.561  12.256  0.0981  0.2795 -0.7572
 1502SOL    HW215966   4.648   4.694  12.307 -0.2726 -0.6565  1.0487
 1503SOL     OW15967   4.473   4.575   7.882 -0.4431 -0.6301 -0.1002
 1503SOL    HW115968   4.404   4.554   7.945 -0.7299 -0.3684 -0.3317
 1503SOL    HW215969   4.431   4.541   7.803 -1.3354  2.0872 -0.7807
 1504SOL     OW15970   2.814   3.488   4.659  0.2805  0.2658 -0.1859
 1504SOL    HW115971   2.804   3.521   4.748  0.3785  2.6311 -1.0622
 1504SOL    HW215972   2.909   3.488   4.653  0.4140 -0.4796  1.9528
 1505SOL     OW15973   1.493   3.101  14.055 -0.7262  0.1280  0.1248
 1505SOL    HW115974   1.545   3.177  14.080 -1.4998  0.8888 -0.5621
 1505SOL    HW215975   1.449   3.084  14.138 -2.1203 -0.3725 -0.7096
 1506SOL     OW15976   2.841   3.330   4.112 -0.7622  0.3854  0.4144
 1506SOL    HW115977   2.767   3.314   4.171 -0.8130 -0.1685  0.2025
 1506SOL    HW215978   2.804   3.312   4.026  0.0068 -0.1596  0.1990
 1507SOL     OW15979   1.684   3.271   7.257  0.3482 -0.1613 -0.0949
 1507SOL    HW115980   1.611   3.311   7.209  1.4002  0.4365 -1.2104
 1507SOL    HW215981   1.727   3.221   7.187  1.4456  1.8545 -0.8909
 1508SOL     OW15982   0.307   2.069   5.834  0.0510 -0.1128 -0.5800
 1508SOL    HW115983   0.387   2.015   5.835 -0.0039 -0.1887  0.3605
 1508SOL    HW215984   0.348   2.154   5.849 -0.4366  0.1022 -0.4692
 1509SOL     OW15985   4.279   4.490   0.158  0.2652  0.4173 -0.4301
 1509SOL    HW115986   4.299   4.578   0.187 -1.3060  0.7130 -0.2307
 1509SOL    HW215987   4.183   4.485   0.166  0.0660  1.0037 -2.3202
 1510SOL     OW15988   2.870   1.880  15.022 -0.3253 -0.0233 -0.0574
 1510SOL    HW115989   2.958   1.903  15.051 -0.2147 -0.6616  0.1131
 1510SOL    HW215990   2.892   1.791  14.996  0.8290  0.5495 -1.0324
 1511SOL     OW15991   3.749   3.533   1.462 -0.2746 -0.1059 -0.2330
 1511SOL    HW115992   3.819   3.543   1.525  0.0641 -1.6311 -0.3885
 1511SOL    HW215993   3.749   3.620   1.420 -2.0108 -0.1217 -0.2946
 1512SOL     OW15994   3.439   4.611   1.257 -0.2762  0.1235  0.2730
 1512SOL    HW115995   3.430   4.706   1.265 -0.8172  0.1554 -0.7201
 1512SOL    HW215996   3.416   4.600   1.165  0.5689 -2.3567  0.3533
 1513SOL     OW15997   1.783   0.268  12.126  0.4599  0.1306  0.6680
 1513SOL    HW115998   1.855   0.313  12.083  0.8763  1.8903  3.1869
 1513SOL    HW215999   1.729   0.255  12.048  0.0807 -2.3639  1.3443
 1514SOL     OW16000   2.960   2.764   2.063 -0.2657  0.0510 -0.0659
 1514SOL    HW116001   2.871   2.800   2.055  0.3904  1.8398  0.5818
 1514SOL    HW216002   2.950   2.674   2.034  0.2068  0.5179 -1.6817
 1515SOL     OW16003   3.269   1.987  12.805 -0.0771 -0.4347 -0.0389
 1515SOL    HW116004   3.214   1.990  12.727 -0.2324 -1.2467  0.0373
 1515SOL    HW216005   3.310   1.903  12.783  1.1059  0.5018 -1.3476
 1516SOL     OW16006   3.572   1.700  11.968  0.0174  1.0573  0.5305
 1516SOL    HW116007   3.561   1.661  11.882 -1.5697 -0.9563  1.6392
 1516SOL    HW216008   3.651   1.657  12.001  0.1688  1.5943  0.8601
 1517SOL     OW16009   4.119   3.117  13.480  0.4005 -0.3137  0.1726
 1517SOL    HW116010   4.205   3.100  13.442  1.0512  0.4514  1.2957
 1517SOL    HW216011   4.106   3.058  13.554  2.4345 -1.0949 -0.0746
 1518SOL     OW16012   1.717   1.709   3.888 -0.1295  0.1308 -0.0633
 1518SOL    HW116013   1.634   1.662   3.875 -0.7468  1.0274  0.6043
 1518SOL    HW216014   1.684   1.794   3.857  2.2001  1.3106  0.7670
 1519SOL     OW16015   2.772   3.575   2.916 -0.7273 -0.0038  0.5262
 1519SOL    HW116016   2.710   3.636   2.877  0.1197  0.0394 -0.7525
 1519SOL    HW216017   2.832   3.641   2.950  1.2254 -1.7021  0.4450
 1520SOL     OW16018   2.830   4.074   3.134 -0.5655  0.5927  0.3328
 1520SOL    HW116019   2.865   4.128   3.062  0.0894  0.3373  0.4555
 1520SOL    HW216020   2.810   4.000   3.077  0.6138  0.5932 -0.0874
 1521SOL     OW16021   1.653   3.948  15.116  0.2448  0.0886  0.1593
 1521SOL    HW116022   1.733   3.972  15.162 -0.6907  1.8701  0.8650
 1521SOL    HW216023   1.648   4.027  15.062 -3.7212  1.2420  2.2356
 1522SOL     OW16024   4.074   3.555   5.894 -0.1222 -0.1813 -0.0799
 1522SOL    HW116025   4.082   3.546   5.799 -0.2516  0.4406 -0.1482
 1522SOL    HW216026   4.009   3.490   5.921 -0.3518 -0.2849 -0.8583
 1523SOL     OW16027   1.790   3.533   2.055  0.2156 -0.1155 -0.7038
 1523SOL    HW116028   1.825   3.475   1.987  1.8555 -2.0282  1.7887
 1523SOL    HW216029   1.755   3.475   2.123 -2.0835  2.2004  0.0927
 1524SOL     OW16030   4.087   3.433  17.494  0.0801  0.0810 -0.6265
 1524SOL    HW116031   4.067   3.393  17.579  1.9530 -0.8946 -0.6429
 1524SOL    HW216032   4.098   3.522  17.529 -1.1317 -0.1207  0.2662
 1525SOL     OW16033   3.337   2.035   7.445 -0.0340  0.1296  0.1612
 1525SOL    HW116034   3.242   2.047   7.454  0.1783  1.8383  0.2439
 1525SOL    HW216035   3.329   1.948   7.407 -1.2282  0.3165 -0.0190
 1526SOL     OW16036   3.067   0.234   3.916  0.2892  0.7524  0.1782
 1526SOL    HW116037   3.022   0.177   3.854 -1.6450  0.4531  1.8366
 1526SOL    HW216038   2.993   0.288   3.943 -1.1233 -0.6521 -0.8414
 1527SOL     OW16039   0.889   3.479  11.432 -0.2170  0.0430 -0.3857
 1527SOL    HW116040   0.839   3.490  11.512 -2.6422 -1.6201 -1.6906
 1527SOL    HW216041   0.973   3.442  11.459  0.2522  1.6258  0.3642
 1528SOL     OW16042   1.442   1.063  11.480 -0.3480  0.2361  0.4274
 1528SOL    HW116043   1.500   1.128  11.520 -0.1146 -2.0269  3.7400
 1528SOL    HW216044   1.414   1.110  11.402  0.2422  1.0830  0.7179
 1529SOL     OW16045   1.100   3.882   2.646 -0.6200  0.2973  0.2183
 1529SOL    HW116046   1.107   3.791   2.675 -2.0475  0.1021 -0.0309
 1529SOL    HW216047   1.059   3.868   2.560  1.2075 -0.7991 -0.4700
 1530SOL     OW16048   1.619   3.515   0.632 -0.3152  0.0076 -0.4139
 1530SOL    HW116049   1.711   3.541   0.634  0.3391 -2.2447 -1.5688
 1530SOL    HW216050   1.615   3.420   0.642  2.3330 -0.1707 -0.8788
 1531SOL     OW16051   4.218   0.456   8.765 -0.0190  0.2604  0.5214
 1531SOL    HW116052   4.270   0.457   8.684 -0.4519  0.0232  0.2429
 1531SOL    HW216053   4.198   0.549   8.752  0.5087  0.4468  1.0663
 1532SOL     OW16054   3.339   3.120  11.164 -0.1275 -0.0936  0.1026
 1532SOL    HW116055   3.276   3.049  11.153 -0.4162  0.1306  0.3027
 1532SOL    HW216056   3.351   3.119  11.259  1.9442 -1.6743 -0.1793
 1533SOL     OW16057   3.784   2.832   9.184 -0.4071 -0.2843 -0.0741
 1533SOL    HW116058   3.726   2.894   9.139 -0.4675  0.7327  1.3762
 1533SOL    HW216059   3.767   2.859   9.275 -0.6405  0.2733 -0.2817
 1534SOL     OW16060   4.045   0.338   8.109  0.5951  0.3059  0.3237
 1534SOL    HW116061   4.134   0.360   8.082  1.2538 -0.5468  1.8018
 1534SOL    HW216062   4.027   0.425   8.144 -0.8183  0.2544 -0.2835
 1535SOL     OW16063   2.082   3.176   4.665  0.1231 -0.4670 -0.1517
 1535SOL    HW116064   2.110   3.089   4.634 -1.4779 -1.3840  0.9896
 1535SOL    HW216065   2.058   3.195   4.574 -0.0262  2.9425  0.6269
 1536SOL     OW16066   2.803   1.619   8.625  0.5154  0.1191 -0.6060
 1536SOL    HW116067   2.765   1.706   8.622 -1.8541 -0.8561  1.0491
 1536SOL    HW216068   2.726   1.561   8.622  1.5522 -1.3043  0.1202
 1537SOL     OW16069   1.371   1.790   8.123 -0.6315  0.2679 -0.1740
 1537SOL    HW116070   1.451   1.781   8.175 -0.1343  0.0241 -0.9875
 1537SOL    HW216071   1.386   1.847   8.048 -0.5680  0.7389  0.1992
 1538SOL     OW16072   4.610   3.612   8.224  0.1675 -0.0112  0.1168
 1538SOL    HW116073   4.558   3.626   8.145 -0.3505 -1.8333  0.1225
 1538SOL    HW216074   4.698   3.621   8.186  0.1789  1.4089  0.5120
 1539SOL     OW16075   2.340   0.150   7.567  0.4643 -0.0238  0.1986
 1539SOL    HW116076   2.324   0.207   7.491 -4.4920  1.3918  2.2756
 1539SOL    HW216077   2.250   0.155   7.600 -0.7897  1.1128 -3.3245
 1540SOL     OW16078   4.220   1.519   7.207 -0.1618 -0.2186 -0.1549
 1540SOL    HW116079   4.223   1.600   7.258  2.3640 -0.1010 -0.5034
 1540SOL    HW216080   4.299   1.473   7.235  0.7762  0.5100 -1.5964
 1541SOL     OW16081   3.417   2.326   2.452 -0.1129  0.1810 -0.4095
 1541SOL    HW116082   3.424   2.234   2.425  0.0122 -0.6222  2.3411
 1541SOL    HW216083   3.332   2.343   2.411  0.2114 -0.8311 -1.5353
 1542SOL     OW16084   4.618   3.160   6.702  0.1067 -0.8703  0.4820
 1542SOL    HW116085   4.544   3.105   6.676  0.3521 -0.3221 -1.3650
 1542SOL    HW216086   4.589   3.241   6.658  1.6570  0.0059  1.0775
 1543SOL     OW16087   3.457   0.542   6.981  0.0525 -0.2867 -0.0096
 1543SOL    HW116088   3.478   0.450   6.995  2.5872  0.2879 -0.0663
 1543SOL    HW216089   3.543   0.582   6.973  0.2435 -0.5795  0.5837
 1544SOL     OW16090   4.629   0.343  12.569 -0.2201  0.0160  0.3828
 1544SOL    HW116091   4.539   0.361  12.542 -0.3048  0.3425  0.8748
 1544SOL    HW216092   4.627   0.328  12.664 -0.3166  1.1708  0.5649
 1545SOL     OW16093   0.569   1.915   8.588 -0.3381  0.1972  0.4093
 1545SOL    HW116094   0.565   1.946   8.497 -0.6593  2.8179  1.3445
 1545SOL    HW216095   0.509   1.980   8.623  1.1119  1.1884  1.0508
 1546SOL     OW16096   0.735   0.810  12.073 -0.0002 -0.5404  0.2881
 1546SOL    HW116097   0.650   0.768  12.086 -0.2161  0.7268  2.8480
 1546SOL    HW216098   0.728   0.826  11.979 -2.1635 -1.2192  0.3376
 1547SOL     OW16099   2.708   2.367   4.379 -0.9163 -0.0014  0.4202
 1547SOL    HW116100   2.793   2.375   4.337 -0.1966  1.0027  2.0814
 1547SOL    HW216101   2.702   2.435   4.447  0.7043 -0.7383  1.2769
 1548SOL     OW16102   2.837   3.351   0.678 -0.0422 -0.0028  0.2223
 1548SOL    HW116103   2.913   3.305   0.716 -0.6896 -2.2056 -1.1936
 1548SOL    HW216104   2.840   3.317   0.589  0.5946 -2.3843  1.1419
 1549SOL     OW16105   2.735   2.426   8.439  0.0211  0.5815 -0.4266
 1549SOL    HW116106   2.661   2.434   8.378 -0.2367 -0.4295 -0.2496
 1549SOL    HW216107   2.751   2.332   8.444 -1.6189  0.2338 -1.6278
 1550SOL     OW16108   3.025   1.019  13.190  0.6313 -0.5532 -0.0379
 1550SOL    HW116109   2.952   1.076  13.167  1.8440  1.2257  0.4620
 1550SOL    HW216110   3.093   1.073  13.150  0.2976 -1.9207 -2.4571
 1551SOL     OW16111   0.128   4.602  12.525 -0.0112 -0.5096 -0.0123
 1551SOL    HW116112   0.068   4.665  12.565 -0.8256 -0.4302 -1.3751
 1551SOL    HW216113   0.099   4.604  12.434  0.1841 -2.7994 -0.1100
 1552SOL     OW16114   2.029   4.154   1.904 -1.0844  0.0021 -0.3418
 1552SOL    HW116115   2.058   4.215   1.971  0.7477  0.6481 -1.7070
 1552SOL    HW216116   2.009   4.075   1.955  2.0533 -0.7126 -0.2276
 1553SOL     OW16117   0.013   1.324   5.172 -0.1220 -0.4342 -0.2420
 1553SOL    HW116118   0.067   1.257   5.131 -1.0615 -1.2155 -0.1953
 1553SOL    HW216119   4.712   1.280   5.253  0.2978  0.6039  0.4544
 1554SOL     OW16120   3.045   2.485   7.116 -0.2035 -0.1713 -0.2179
 1554SOL    HW116121   2.969   2.427   7.118 -0.1148 -0.3573 -2.4891
 1554SOL    HW216122   3.052   2.527   7.202 -0.0013 -0.4878 -0.0781
 1555SOL     OW16123   1.874   1.114   6.283 -0.0116 -0.1986  0.0713
 1555SOL    HW116124   1.841   1.035   6.326 -3.4216  1.9253  1.3336
 1555SOL    HW216125   1.920   1.147   6.360  2.3601 -0.8188 -1.0904
 1556SOL     OW16126   3.067   3.652   2.245  0.5500  0.3014  0.2163
 1556SOL    HW116127   3.015   3.681   2.320 -0.5795 -2.2375  0.4092
 1556SOL    HW216128   3.015   3.578   2.216  1.9274 -0.4828 -0.2626
 1557SOL     OW16129   1.526   0.958   7.662 -0.0422  0.3548 -0.1904
 1557SOL    HW116130   1.615   0.925   7.646 -1.0602 -2.2063 -0.4606
 1557SOL    HW216131   1.531   0.974   7.756 -0.4580  0.1318 -0.1319
 1558SOL     OW16132   2.062   2.654  11.692 -0.0528 -0.0628  0.0263
 1558SOL    HW116133   2.107   2.702  11.623 -0.4382  1.2927  0.7358
 1558SOL    HW216134   2.118   2.674  11.767 -0.8263  1.2716  0.2383
 1559SOL     OW16135   3.971   1.957   2.186  0.3653  0.5897  0.5959
 1559SOL    HW116136   4.055   1.910   2.178  0.6589  0.7272  2.7549
 1559SOL    HW216137   3.981   1.975   2.280  1.3202 -0.6372  0.7331
 1560SOL     OW16138   0.184   3.476  16.835  0.2928  0.4746 -0.5694
 1560SOL    HW116139   0.271   3.507  16.860  1.2143  0.0137 -3.1502
 1560SOL    HW216140   0.191   3.386  16.867 -0.4377  1.0347  1.1362
 1561SOL     OW16141   0.230   3.135   7.760  0.2083 -0.5859  0.4621
 1561SOL    HW116142   0.284   3.155   7.836  2.3238  4.0550 -2.2385
 1561SOL    HW216143   0.214   3.044   7.787  2.8722 -1.0863  0.2888
 1562SOL     OW16144   0.123   3.972  12.497  0.5120  0.0692  0.1748
 1562SOL    HW116145   0.201   3.959  12.552  0.4171  3.4492  1.0983
 1562SOL    HW216146   0.152   4.038  12.435 -1.8211 -0.4404 -1.4564
 1563SOL     OW16147   3.123   4.255  13.855  0.5174  0.0517 -0.3683
 1563SOL    HW116148   3.171   4.209  13.924 -1.5364 -1.7395 -0.1288
 1563SOL    HW216149   3.094   4.176  13.811  0.6131  0.6796 -1.5508
 1564SOL     OW16150   1.599   4.506  17.579 -0.7584 -0.1953  0.9922
 1564SOL    HW116151   1.623   4.457  17.657 -1.7620  0.3449  1.6391
 1564SOL    HW216152   1.586   4.437  17.514  0.7938 -0.5403  1.0441
 1565SOL     OW16153   4.306   0.909   6.687  0.0067 -0.4053 -0.2332
 1565SOL    HW116154   4.252   0.853   6.743 -1.8050  0.0406 -1.5404
 1565SOL    HW216155   4.366   0.840   6.660 -2.1415 -2.0730 -0.7057
 1566SOL     OW16156   4.221   3.026   6.758 -0.1538 -0.4155  1.0269
 1566SOL    HW116157   4.286   3.022   6.687 -1.2670  3.1939 -0.1725
 1566SOL    HW216158   4.245   2.949   6.810 -1.4385 -2.0751 -0.8051
 1567SOL     OW16159   2.670   0.188  17.405 -0.2764  0.1243  0.2489
 1567SOL    HW116160   2.617   0.185  17.485  0.3293 -1.4410  0.5897
 1567SOL    HW216161   2.713   0.103  17.413 -0.7831 -0.3666 -2.2749
 1568SOL     OW16162   4.659   0.625   9.250  0.0318 -0.0938  0.2843
 1568SOL    HW116163   4.568   0.645   9.271  0.1324 -1.4325  2.0762
 1568SOL    HW216164   4.689   0.708   9.214  2.7244 -0.7049  1.1123
 1569SOL     OW16165   3.820   3.286   1.820 -0.6188  0.3978 -0.0491
 1569SOL    HW116166   3.877   3.227   1.869 -2.0692  0.3430  1.5703
 1569SOL    HW216167   3.784   3.230   1.751 -3.5312  0.9703  0.9883
 1570SOL     OW16168   1.368   0.007   7.395 -0.3487 -0.2629 -0.0976
 1570SOL    HW116169   1.287   4.704   7.350  0.4713 -0.9700 -1.1317
 1570SOL    HW216170   1.352   0.101   7.384 -0.0016 -0.2804 -0.7422
 1571SOL     OW16171   3.134   1.460   1.759 -0.4279 -0.1527  0.3133
 1571SOL    HW116172   3.077   1.472   1.835 -0.2677  0.3947  0.3518
 1571SOL    HW216173   3.107   1.374   1.728 -1.7252  0.7340 -1.0444
 1572SOL     OW16174   0.918   0.634   6.454 -0.5895  0.4301 -0.8406
 1572SOL    HW116175   0.833   0.595   6.470 -0.2640 -0.1370 -0.4991
 1572SOL    HW216176   0.884   0.705   6.400 -3.2779  0.4234  0.8522
 1573SOL     OW16177   0.056   0.648   7.148  0.0135 -0.1207  0.3973
 1573SOL    HW116178   0.052   0.580   7.216 -1.3070 -0.6052 -0.1615
 1573SOL    HW216179   0.017   0.725   7.188 -1.6198 -0.3350 -0.7712
 1574SOL     OW16180   1.849   3.223   2.174  0.3644 -0.2563  0.2797
 1574SOL    HW116181   1.765   3.175   2.172  0.2861 -0.1879  1.7616
 1574SOL    HW216182   1.898   3.172   2.109 -1.1624  1.6357 -2.3518
 1575SOL     OW16183   0.675   4.226   3.482  0.7582 -0.5613  0.0194
 1575SOL    HW116184   0.766   4.222   3.455  1.1341 -0.7278  1.3219
 1575SOL    HW216185   0.634   4.251   3.399  0.6785 -1.0175 -0.0784
 1576SOL     OW16186   4.106   4.485   6.174 -0.3399  0.1006 -0.1472
 1576SOL    HW116187   4.167   4.452   6.240 -1.4331 -2.8950 -0.6549
 1576SOL    HW216188   4.057   4.409   6.144  1.0739  0.1186 -2.4651
 1577SOL     OW16189   4.134   3.914   2.873  0.3817 -0.3042 -0.2151
 1577SOL    HW116190   4.128   3.837   2.816 -0.0724  1.5055 -2.5991
 1577SOL    HW216191   4.138   3.988   2.813 -0.4958 -1.4591 -1.6855
 1578SOL     OW16192   4.320   0.337  16.205 -0.0506  0.4964 -0.2860
 1578SOL    HW116193   4.375   0.413  16.186 -1.7524  1.6602 -0.5468
 1578SOL    HW216194   4.246   0.342  16.144  1.2713 -0.7268 -1.9901
 1579SOL     OW16195   2.731   0.105   8.337  0.3396 -0.2363  0.3449
 1579SOL    HW116196   2.752   0.148   8.254 -0.3347 -0.2112  0.1894
 1579SOL    HW216197   2.819   0.110   8.376 -0.4215 -0.5907  2.0867
 1580SOL     OW16198   0.795   4.558  10.174  0.6568  0.3427 -0.3009
 1580SOL    HW116199   0.817   4.518  10.258 -1.3696  0.2754  0.2185
 1580SOL    HW216200   0.864   4.624  10.170 -0.3736  1.4713  0.2733
 1581SOL     OW16201   2.966   1.723   2.724 -0.4659  0.5106  0.0798
 1581SOL    HW116202   2.995   1.755   2.639 -0.4223  0.9424  0.2553
 1581SOL    HW216203   2.871   1.731   2.717 -0.4621 -0.2274 -0.7691
 1582SOL     OW16204   0.459   1.616   6.720 -0.2840 -0.5166 -0.0365
 1582SOL    HW116205   0.533   1.652   6.672  0.2114  0.8493  1.7476
 1582SOL    HW216206   0.459   1.525   6.691  1.1633 -1.0361  1.6015
 1583SOL     OW16207   0.208   3.288   6.888  0.6917  0.2836 -0.6208
 1583SOL    HW116208   0.274   3.336   6.938 -1.0519  1.6636  0.3506
 1583SOL    HW216209   0.221   3.203   6.929 -2.0803  0.9708  1.6587
 1584SOL     OW16210   1.753   0.204   1.609  0.2151 -0.3950 -0.0709
 1584SOL    HW116211   1.691   0.157   1.665  0.8059  0.7175  1.5174
 1584SOL    HW216212   1.798   0.253   1.678  0.8262  1.7309 -2.0066
 1585SOL     OW16213   4.250   2.574   5.705  0.1743 -0.8547 -0.0209
 1585SOL    HW116214   4.236   2.664   5.736  0.1658 -1.0573  0.5614
 1585SOL    HW216215   4.178   2.524   5.743 -0.2554  0.4967  0.9290
 1586SOL     OW16216   2.723   3.856   8.790 -0.0976  0.0633  0.2298
 1586SOL    HW116217   2.732   3.944   8.755 -0.3168  0.4357  1.1262
 1586SOL    HW216218   2.801   3.812   8.755 -0.6467 -2.9315  2.7262
 1587SOL     OW16219   1.696   3.920   0.304  0.0135 -0.3575 -0.2491
 1587SOL    HW116220   1.740   3.933   0.388  3.1863  1.5749 -2.2305
 1587SOL    HW216221   1.643   3.842   0.321 -1.1833  0.6462  0.6322
 1588SOL     OW16222   3.523   3.767   3.734 -0.4530 -0.0685  0.4391
 1588SOL    HW116223   3.551   3.838   3.676  0.4611 -1.4915 -0.8485
 1588SOL    HW216224   3.518   3.691   3.676 -1.7743  0.0604  0.3968
 1589SOL     OW16225   3.283   3.926  11.954  0.1527  0.7054  0.0812
 1589SOL    HW116226   3.256   4.012  11.987 -0.2488  0.3234  0.7561
 1589SOL    HW216227   3.195   3.893  11.936  0.9085 -1.2349 -0.0907
 1590SOL     OW16228   3.366   4.450   8.692 -0.2339  0.0809 -0.4624
 1590SOL    HW116229   3.447   4.495   8.714 -1.1512  1.4043  0.1770
 1590SOL    HW216230   3.389   4.403   8.611 -0.0625 -0.8567  0.1301
 1591SOL     OW16231   2.261   1.725   4.096 -0.8269  0.7109  0.0523
 1591SOL    HW116232   2.231   1.637   4.073 -0.1053  1.0697 -2.2313
 1591SOL    HW216233   2.302   1.743   4.011  0.1233 -0.3056  0.2896
 1592SOL     OW16234   4.232   2.743   2.444 -0.1604  0.4496 -0.2689
 1592SOL    HW116235   4.323   2.719   2.427 -0.1202 -0.4146  1.1570
 1592SOL    HW216236   4.186   2.663   2.469 -0.0611  0.3709 -0.3386
 1593SOL     OW16237   4.383   2.075  16.734  0.0379 -0.3302  0.2341
 1593SOL    HW116238   4.326   2.148  16.760  0.4118  1.0288 -2.8034
 1593SOL    HW216239   4.362   2.068  16.641  0.2984 -2.6319  0.3566
 1594SOL     OW16240   3.935   1.963  17.693 -0.3485 -0.6856 -0.4155
 1594SOL    HW116241   4.018   2.011  17.688 -0.1570 -1.2391 -2.3085
 1594SOL    HW216242   3.947   1.901  17.621 -1.2971 -1.4838  0.1055
 1595SOL     OW16243   2.122   2.696   3.006  0.3867 -0.4993 -0.0177
 1595SOL    HW116244   2.125   2.662   2.916 -0.3584  0.7686 -0.5094
 1595SOL    HW216245   2.099   2.616   3.052  0.0716 -0.9469 -0.9397
 1596SOL     OW16246   3.600   0.607   4.240 -0.3245 -0.0991 -0.0647
 1596SOL    HW116247   3.652   0.579   4.316  1.5910 -1.6970 -1.9677
 1596SOL    HW216248   3.622   0.700   4.244  0.4381 -0.2746 -0.1636
 1597SOL     OW16249   4.629   1.206   8.944  0.2568  0.3233 -0.8447
 1597SOL    HW116250   4.620   1.284   8.889  1.8360  0.9426 -0.2081
 1597SOL    HW216251   4.603   1.243   9.028 -1.1457  0.6538 -1.4041
 1598SOL     OW16252   1.315   1.078   3.020  0.1006  0.4582 -0.1703
 1598SOL    HW116253   1.378   1.139   2.981  1.8803 -0.1250  1.7833
 1598SOL    HW216254   1.236   1.090   2.967  0.2535 -1.4968 -0.8102
 1599SOL     OW16255   3.285   1.778  15.987  0.0586  0.2820 -0.2031
 1599SOL    HW116256   3.330   1.739  15.911  1.3479  0.3386  0.5363
 1599SOL    HW216257   3.357   1.793  16.048 -0.7047 -0.4383  0.8726
 1600SOL     OW16258   4.337   2.004  11.384 -0.1660  0.2143 -0.5776
 1600SOL    HW116259   4.322   2.098  11.397  2.9861  0.4137  1.6294
 1600SOL    HW216260   4.251   1.970  11.409  0.7530  0.5288  3.1027
 1601SOL     OW16261   3.316   0.312  12.373 -0.1199  0.1201  0.6507
 1601SOL    HW116262   3.334   0.399  12.336  0.4818 -0.0995  0.4259
 1601SOL    HW216263   3.402   0.274  12.389  0.7365  0.9594 -2.0661
 1602SOL     OW16264   0.409   4.514   6.511 -0.4674 -0.1605  0.3208
 1602SOL    HW116265   0.436   4.477   6.427 -0.4286 -0.7750  0.6075
 1602SOL    HW216266   0.403   4.437   6.567  0.5670 -0.6964 -0.2923
 1603SOL     OW16267   2.417   0.705  14.989  0.0605  0.0400 -0.2199
 1603SOL    HW116268   2.453   0.746  15.068  3.0832  0.4984 -1.8538
 1603SOL    HW216269   2.337   0.687  15.039 -2.1241 -0.2742 -3.8503
 1604SOL     OW16270   4.154   4.632  11.118  0.6040 -0.4265  0.0772
 1604SOL    HW116271   4.167   4.564  11.052  2.2627 -1.8922  1.9188
 1604SOL    HW216272   4.244   4.664  11.124  0.4698 -0.7960  4.1348
 1605SOL     OW16273   1.383   4.195   1.086  0.1496  0.2542 -0.2876
 1605SOL    HW116274   1.399   4.242   1.004 -1.2292 -0.0078 -0.7158
 1605SOL    HW216275   1.289   4.200   1.104  0.3106 -0.1825  0.6583
 1606SOL     OW16276   4.613   4.013   1.615 -0.0542 -0.1959 -0.4476
 1606SOL    HW116277   4.682   3.948   1.633  0.6937  0.9575  0.9085
 1606SOL    HW216278   4.647   4.099   1.639  0.0558 -1.3261  3.5484
 1607SOL     OW16279   0.614   1.259   4.345 -0.2786  0.1067  0.0122
 1607SOL    HW116280   0.585   1.240   4.434 -2.3837 -1.1676 -0.9417
 1607SOL    HW216281   0.531   1.285   4.304 -0.4480  0.9199  0.8492
 1608SOL     OW16282   0.828   2.381   6.917 -0.5367  0.4490  0.5356
 1608SOL    HW116283   0.782   2.305   6.952  0.9731 -0.4465  0.5715
 1608SOL    HW216284   0.832   2.366   6.822  0.6991  0.6443  0.5461
 1609SOL     OW16285   2.814   3.247   7.976 -0.8838  0.1965  0.1941
 1609SOL    HW116286   2.763   3.272   8.053  1.2557  1.0256  1.3294
 1609SOL    HW216287   2.889   3.208   8.021 -1.1551  0.6272  1.0364
 1610SOL     OW16288   2.188   1.104   3.932 -0.2279  0.1837  0.2351
 1610SOL    HW116289   2.260   1.164   3.914  2.3444 -2.3132  2.1979
 1610SOL    HW216290   2.117   1.168   3.939 -0.0869  0.6601 -2.3394
 1611SOL     OW16291   0.074   4.493   2.929 -0.6843 -0.0692  0.7581
 1611SOL    HW116292   0.115   4.556   2.869  1.6212 -1.5567  0.7574
 1611SOL    HW216293   0.072   4.416   2.873  0.7105  1.5023 -1.4547
 1612SOL     OW16294   4.079   4.596   5.926 -0.0529 -1.0031  0.0395
 1612SOL    HW116295   3.986   4.571   5.922 -0.3124 -0.3172  1.8436
 1612SOL    HW216296   4.102   4.568   6.015  1.9829  1.1624  0.1798
 1613SOL     OW16297   0.461   1.394  17.282  0.5189 -0.3032  0.0182
 1613SOL    HW116298   0.536   1.336  17.282  0.6200 -0.1699 -0.5721
 1613SOL    HW216299   0.481   1.462  17.347 -2.5755  0.1129  0.5791
 1614SOL     OW16300   2.504   0.278   5.805 -0.1723  0.1603  0.2615
 1614SOL    HW116301   2.519   0.258   5.712  1.1806  0.8261  0.3389
 1614SOL    HW216302   2.444   0.211   5.838 -2.1341  1.2674 -1.0457
 1615SOL     OW16303   1.392   4.447   0.502 -0.3525  1.0675  0.6273
 1615SOL    HW116304   1.403   4.537   0.533 -1.5719  2.0713 -1.8779
 1615SOL    HW216305   1.306   4.463   0.464 -0.1108 -0.5921 -0.6275
 1616SOL     OW16306   1.597   1.883   7.304 -0.3642  0.0810 -0.1855
 1616SOL    HW116307   1.567   1.815   7.365 -0.3100 -0.9834 -1.3449
 1616SOL    HW216308   1.666   1.923   7.357  0.0171 -0.2417 -0.4382
 1617SOL     OW16309   1.831   0.910   3.807 -0.2987 -0.1461  0.2511
 1617SOL    HW116310   1.800   0.831   3.850  1.2076 -1.0822 -0.4016
 1617SOL    HW216311   1.803   0.981   3.865 -2.2596  1.9394 -3.2585
 1618SOL     OW16312   0.253   0.007   6.037  0.3838  0.4041 -0.0025
 1618SOL    HW116313   0.325   4.713   5.977 -0.4352 -2.8044 -0.0127
 1618SOL    HW216314   0.304   4.719   6.117  0.6769  0.5802 -0.1612
 1619SOL     OW16315   2.706   1.462   9.681 -0.0840 -0.1881  0.2427
 1619SOL    HW116316   2.655   1.521   9.736 -1.2025 -0.5939 -0.3455
 1619SOL    HW216317   2.670   1.482   9.594 -0.4329 -1.2636  0.1397
 1620SOL     OW16318   0.804   2.704   7.689  0.4091 -0.0231  0.3306
 1620SOL    HW116319   0.827   2.748   7.770  3.0213  1.3354 -1.1523
 1620SOL    HW216320   0.886   2.675   7.649  0.7602  1.2773  0.1178
 1621SOL     OW16321   0.551   3.159   1.442 -0.0768 -0.0841 -0.2298
 1621SOL    HW116322   0.620   3.113   1.395  1.1704  1.6040 -0.0095
 1621SOL    HW216323   0.479   3.152   1.378  0.6641 -2.1187 -0.8575
 1622SOL     OW16324   2.718   3.300   4.909  0.5017  0.7820  0.1817
 1622SOL    HW116325   2.714   3.219   4.960  0.7384 -0.1914 -1.3647
 1622SOL    HW216326   2.675   3.262   4.833  3.7797  0.3578 -1.4836
 1623SOL     OW16327   1.151   3.351   8.951  0.5150  0.2748 -0.2382
 1623SOL    HW116328   1.221   3.288   8.940  0.7337  0.4372  0.2296
 1623SOL    HW216329   1.193   3.424   8.997  0.2953 -2.0433  3.5957
 1624SOL     OW16330   3.459   1.393   7.717  0.4396 -0.6237  0.0617
 1624SOL    HW116331   3.554   1.405   7.724  0.2646  1.2805 -0.7801
 1624SOL    HW216332   3.443   1.374   7.809  1.3664 -0.4263  0.2660
 1625SOL     OW16333   3.920   3.003   9.658  0.0019  0.0209  0.4592
 1625SOL    HW116334   3.928   3.065   9.731  0.6638  0.7229 -0.2235
 1625SOL    HW216335   4.008   2.965   9.660  0.1128  0.1904 -1.9494
 1626SOL     OW16336   4.134   3.100   3.356  0.2171 -0.4652 -0.6669
 1626SOL    HW116337   4.191   3.023   3.367  1.6861  0.6345 -0.5853
 1626SOL    HW216338   4.195   3.164   3.319  0.2786  0.2274  0.6564
 1627SOL     OW16339   0.411   3.062   4.685 -0.3851 -0.2628  0.6108
 1627SOL    HW116340   0.361   2.981   4.677 -0.3886 -0.1091 -0.8725
 1627SOL    HW216341   0.383   3.092   4.772  0.5115  0.6648  0.5764
 1628SOL     OW16342   1.470   4.665   8.986  0.2887 -0.0893 -0.2208
 1628SOL    HW116343   1.429   0.007   8.931 -2.1660 -0.5069  1.1242
 1628SOL    HW216344   1.424   4.581   8.978 -1.2461  0.8151 -0.9043
 1629SOL     OW16345   2.043   2.810   5.428 -0.0075  0.4752  0.1516
 1629SOL    HW116346   2.089   2.892   5.443  1.2672 -0.0519 -0.9362
 1629SOL    HW216347   2.103   2.765   5.368  0.1311 -0.6388  1.1147
 1630SOL     OW16348   3.777   2.065   5.083  0.9833 -0.3795 -0.3996
 1630SOL    HW116349   3.715   2.065   5.156  1.2357  0.2076 -0.1730
 1630SOL    HW216350   3.828   1.987   5.103  0.4035 -0.9507 -1.1969
 1631SOL     OW16351   0.061   4.683  13.503  0.4627  0.0929  0.0978
 1631SOL    HW116352   0.130   0.016  13.538  1.5320 -0.4392 -1.1206
 1631SOL    HW216353   0.094   4.635  13.427  1.6944 -1.7328  1.7785
 1632SOL     OW16354   4.182   4.710  10.006  0.1466 -0.1335 -0.4687
 1632SOL    HW116355   4.231   0.041   9.947  1.0030  0.3540  0.7062
 1632SOL    HW216356   4.113   0.047  10.031 -0.7043 -1.4626  0.4758
 1633SOL     OW16357   0.836   1.470   5.932 -0.4595  0.8175 -0.3220
 1633SOL    HW116358   0.746   1.497   5.949 -1.5731 -3.3257  0.3619
 1633SOL    HW216359   0.823   1.420   5.851 -0.6981  0.8110 -0.2795
 1634SOL     OW16360   2.770   1.313   6.374 -0.1899 -0.6282  0.2537
 1634SOL    HW116361   2.826   1.387   6.396 -0.5113 -1.1414  2.7545
 1634SOL    HW216362   2.798   1.301   6.283  0.1388 -0.2233  0.2984
 1635SOL     OW16363   1.703   3.836   3.551  1.0781 -0.5950  0.1874
 1635SOL    HW116364   1.753   3.876   3.623 -1.4998  0.4376  1.4208
 1635SOL    HW216365   1.673   3.908   3.496 -2.1059 -0.7908  1.6926
 1636SOL     OW16366   2.883   3.870   7.386  0.1084 -0.4752 -0.1913
 1636SOL    HW116367   2.803   3.907   7.348 -0.1110 -0.6090  0.1358
 1636SOL    HW216368   2.904   3.805   7.320  0.6289  0.1343 -0.6270
 1637SOL     OW16369   0.269   1.502   9.755  0.4709 -0.6213 -0.2567
 1637SOL    HW116370   0.324   1.490   9.832 -1.7560  1.1433  1.5802
 1637SOL    HW216371   0.241   1.593   9.765  0.0058 -0.4067 -3.2912
 1638SOL     OW16372   2.674   4.214   0.780 -0.5106  0.1911 -0.6216
 1638SOL    HW116373   2.724   4.140   0.814  2.7576  1.7810 -1.9942
 1638SOL    HW216374   2.730   4.249   0.711  1.8040 -1.4147  0.4277
 1639SOL     OW16375   4.354   4.481   4.834  0.1418 -0.4623 -0.6472
 1639SOL    HW116376   4.440   4.524   4.835 -1.4982  2.8887 -2.2882
 1639SOL    HW216377   4.369   4.412   4.770  0.5542 -1.1266  0.1659
 1640SOL     OW16378   3.052   0.138   5.470 -0.4106  0.1013 -0.1489
 1640SOL    HW116379   2.966   0.096   5.470 -0.3262 -0.0741 -0.3888
 1640SOL    HW216380   3.104   0.070   5.513  0.4200 -1.8436 -4.2174
 1641SOL     OW16381   3.186   4.325   8.992 -0.8128 -0.4446 -0.0838
 1641SOL    HW116382   3.162   4.237   8.963  2.0331 -1.0503 -0.6701
 1641SOL    HW216383   3.111   4.378   8.963 -0.0171  0.6999 -0.0675
 1642SOL     OW16384   3.136   3.646   7.988  0.1206 -0.3519 -0.3758
 1642SOL    HW116385   3.056   3.600   7.961 -0.4864  1.1381 -1.1481
 1642SOL    HW216386   3.093   3.714   8.039  0.6334 -0.9728  0.8776
 1643SOL     OW16387   2.128   3.658   4.577 -0.1606 -0.8552 -0.6061
 1643SOL    HW116388   2.133   3.608   4.496 -2.7080 -0.8663 -0.7838
 1643SOL    HW216389   2.136   3.752   4.556  0.5112 -0.7432  0.1718
 1644SOL     OW16390   1.994   3.997  12.448 -0.2014 -0.1373  0.2107
 1644SOL    HW116391   2.070   3.999  12.390 -0.5237 -0.6775 -0.2211
 1644SOL    HW216392   1.958   4.075  12.405  0.9270  0.0865 -0.3112
 1645SOL     OW16393   0.842   3.762   9.304 -0.5135 -0.1271  0.0856
 1645SOL    HW116394   0.868   3.670   9.308  0.4822  0.0612 -2.1444
 1645SOL    HW216395   0.911   3.799   9.359 -0.5151 -1.1369  0.7584
 1646SOL     OW16396   4.254   4.012   4.271  0.9581  0.1016 -0.1510
 1646SOL    HW116397   4.177   4.068   4.275 -0.1789 -1.4578 -0.4155
 1646SOL    HW216398   4.320   4.075   4.241  1.1103  0.1222  0.2264
 1647SOL     OW16399   2.330   0.145  10.230  0.3393 -0.3403  0.5285
 1647SOL    HW116400   2.365   0.129  10.318  0.7026 -1.3341  0.2016
 1647SOL    HW216401   2.393   0.212  10.205 -2.2891  1.2893 -1.6933
 1648SOL     OW16402   0.384   3.272   5.984  0.1241  0.0664 -0.2583
 1648SOL    HW116403   0.302   3.317   5.963 -0.8077 -2.3076 -1.7447
 1648SOL    HW216404   0.450   3.311   5.928 -1.7390  3.0324 -0.3665
 1649SOL     OW16405   3.534   2.643   5.781 -0.0793  0.3620  0.2675
 1649SOL    HW116406   3.629   2.635   5.792  0.0278  2.6001  1.0484
 1649SOL    HW216407   3.522   2.607   5.694 -1.9892  1.9200 -0.1246
 1650SOL     OW16408   0.587   0.133   5.660 -0.0135 -0.4440 -0.4349
 1650SOL    HW116409   0.636   0.124   5.578 -0.8430 -0.2842 -0.9480
 1650SOL    HW216410   0.651   0.140   5.730  0.3164  1.5380 -0.9225
 1651SOL     OW16411   3.777   4.126   7.047 -0.1613 -0.6162 -0.4414
 1651SOL    HW116412   3.753   4.148   7.137 -0.8675 -0.2136 -0.7232
 1651SOL    HW216413   3.746   4.210   7.013 -1.0128 -0.5397  0.5257
 1652SOL     OW16414   1.941   1.093  12.735 -0.3183  0.2409  0.5785
 1652SOL    HW116415   1.899   1.132  12.659  1.3623 -0.1903 -0.5596
 1652SOL    HW216416   2.014   1.155  12.741  1.4021 -1.8603  1.2459
 1653SOL     OW16417   0.966   0.274  12.056  0.4012  0.0681 -0.4289
 1653SOL    HW116418   1.032   0.250  12.120 -0.1687 -0.0906  0.0956
 1653SOL    HW216419   0.945   0.185  12.027  1.1443 -0.3333  0.2858
 1654SOL     OW16420   1.127   2.256   7.634  0.9927  0.2374  0.0597
 1654SOL    HW116421   1.058   2.298   7.582  0.4685 -0.1598  0.4270
 1654SOL    HW216422   1.116   2.164   7.609  0.9157  0.5223 -0.9410
 1655SOL     OW16423   2.901   0.972   7.935 -0.4881 -0.6100 -0.3720
 1655SOL    HW116424   2.922   0.900   7.994 -1.7046  1.1846  2.2632
 1655SOL    HW216425   2.962   1.039   7.965  0.7840 -1.7638 -0.3855
 1656SOL     OW16426   4.293   3.028   4.888 -0.4359  0.2760 -0.0981
 1656SOL    HW116427   4.328   3.114   4.911 -1.9915  0.9944 -0.4017
 1656SOL    HW216428   4.296   3.028   4.792 -1.2018  0.5145 -0.1223
 1657SOL     OW16429   1.311   1.953   3.602  0.0627 -0.3034  0.0066
 1657SOL    HW116430   1.316   1.860   3.578  2.2174 -0.4049  0.8466
 1657SOL    HW216431   1.236   1.942   3.661 -0.5020  2.9116 -0.1315
 1658SOL     OW16432   2.832   2.682   4.924  0.1864 -0.1120 -0.0633
 1658SOL    HW116433   2.892   2.641   4.985 -0.4015  0.6064  1.0011
 1658SOL    HW216434   2.876   2.767   4.924  1.8062 -0.9596  0.2494
 1659SOL     OW16435   0.588   4.534  17.575 -0.1902  0.5500  0.1001
 1659SOL    HW116436   0.614   4.586  17.651  0.7569  0.0047  0.1452
 1659SOL    HW216437   0.539   4.607  17.535  2.3156  0.2487 -3.5296
 1660SOL     OW16438   3.645   2.739   8.960  0.2499 -0.5306  0.7039
 1660SOL    HW116439   3.706   2.710   9.027  2.6412  0.2927 -1.1422
 1660SOL    HW216440   3.627   2.831   8.983 -0.6913 -1.1035  2.2877
 1661SOL     OW16441   4.390   0.411   8.331  0.5878  0.4081 -0.1376
 1661SOL    HW116442   4.423   0.492   8.371 -0.7362  1.6675 -1.6121
 1661SOL    HW216443   4.418   0.346   8.396  0.4921  1.2516  0.7486
 1662SOL     OW16444   4.076   3.912   4.000  0.2056  0.3231  0.1543
 1662SOL    HW116445   4.067   3.944   4.090 -1.0651  0.2461  0.0571
 1662SOL    HW216446   4.081   3.996   3.955  0.2328 -0.5704 -1.5038
 1663SOL     OW16447   3.980   3.647   2.245 -0.5743  0.2631  0.4411
 1663SOL    HW116448   4.010   3.556   2.252 -1.3932 -0.1161 -1.0953
 1663SOL    HW216449   3.922   3.642   2.169  0.8515  0.9770 -0.6879
 1664SOL     OW16450   2.090   3.297   3.226 -0.6019  0.0685  0.2304
 1664SOL    HW116451   2.083   3.296   3.321 -0.9593  0.6282  0.2055
 1664SOL    HW216452   2.173   3.249   3.218 -0.7182 -0.0809 -0.1061
 1665SOL     OW16453   0.108   3.197   2.232  0.0182  0.2294 -0.0906
 1665SOL    HW116454   0.161   3.250   2.292  0.4974 -0.8700  0.4617
 1665SOL    HW216455   0.087   3.260   2.163  0.1808 -0.3927 -0.7122
 1666SOL     OW16456   4.122   4.032   3.684 -0.1193 -0.0774  0.3441
 1666SOL    HW116457   4.085   4.073   3.763 -1.0868  1.6498 -1.0088
 1666SOL    HW216458   4.043   4.011   3.635 -1.5074 -1.7518  3.3238
 1667SOL     OW16459   3.928   3.903   9.048 -0.1257  0.3949 -0.6990
 1667SOL    HW116460   3.949   3.810   9.057 -0.1622  0.1462 -3.2144
 1667SOL    HW216461   3.833   3.901   9.041 -0.1180 -3.5310  0.6728
 1668SOL     OW16462   1.897   3.625   8.124  0.8540  0.0954 -0.0618
 1668SOL    HW116463   1.973   3.620   8.182  0.3526  0.2754  0.6087
 1668SOL    HW216464   1.914   3.571   8.047  0.8967  1.7901 -1.2402
 1669SOL     OW16465   2.037   2.319   0.043 -0.2751  0.0887  0.0877
 1669SOL    HW116466   2.083   2.331   0.126  0.5501  1.5702 -0.5834
 1669SOL    HW216467   1.984   2.243   0.066  1.3631 -1.1638 -0.2932
 1670SOL     OW16468   1.869   3.436   5.070  0.6259 -0.1691 -0.3409
 1670SOL    HW116469   1.856   3.371   5.002 -0.2085 -0.4406  0.0751
 1670SOL    HW216470   1.781   3.447   5.106  1.0044 -1.7878  1.1051
 1671SOL     OW16471   1.594   4.013   5.757  0.2899  0.0557  0.5213
 1671SOL    HW116472   1.505   4.006   5.790 -0.3619  0.8395 -1.0726
 1671SOL    HW216473   1.592   4.010   5.661 -0.6553  0.0926  0.5402
 1672SOL     OW16474   0.698   3.165   8.933  0.2133 -0.2736 -0.0021
 1672SOL    HW116475   0.727   3.098   8.870  0.1963  1.1033 -1.4614
 1672SOL    HW216476   0.756   3.239   8.920 -1.9770  1.6359  1.2286
 1673SOL     OW16477   4.264   1.786   7.744  0.3794  0.1690  0.8189
 1673SOL    HW116478   4.187   1.842   7.759  2.1693  2.2917  2.0429
 1673SOL    HW216479   4.302   1.830   7.667 -1.6950 -1.0348 -0.8969
 1674SOL     OW16480   3.843   2.344   8.940 -0.0753 -0.2847  0.4089
 1674SOL    HW116481   3.934   2.314   8.947 -0.4916 -1.1888  1.7415
 1674SOL    HW216482   3.793   2.286   8.997 -2.4261  0.4806 -0.8540
 1675SOL     OW16483   1.787   2.059   3.591 -0.1641  0.2107 -0.5779
 1675SOL    HW116484   1.830   2.047   3.676 -0.9973 -0.5155 -0.2643
 1675SOL    HW216485   1.836   2.127   3.545  2.6087 -0.1532  1.8032
 1676SOL     OW16486   4.435   1.406   4.818  0.1868 -0.1747 -0.4379
 1676SOL    HW116487   4.409   1.322   4.856  0.7251  0.8175  2.0598
 1676SOL    HW216488   4.529   1.402   4.832  0.1761 -1.4966 -0.7050
 1677SOL     OW16489   2.413   0.686   4.041 -0.4369  0.3997 -0.1117
 1677SOL    HW116490   2.430   0.780   4.051  0.1092  0.2861  0.0091
 1677SOL    HW216491   2.396   0.672   3.948 -0.4745  0.3773 -0.1016
 1678SOL     OW16492   4.686   0.864   7.255  0.2190  0.2516  0.4728
 1678SOL    HW116493   0.018   0.910   7.193 -0.0171  0.3002  0.2931
 1678SOL    HW216494   4.604   0.913   7.248  0.4875  0.5322 -0.7486
 1679SOL     OW16495   2.089   1.919  17.606 -0.9305  0.1133 -0.5742
 1679SOL    HW116496   2.103   1.897  17.514  4.6140 -2.8330  0.9255
 1679SOL    HW216497   2.175   1.908  17.648  0.0191  0.4101 -2.4350
 1680SOL     OW16498   4.589   2.276   1.507 -0.3526  0.0173  0.5581
 1680SOL    HW116499   4.507   2.253   1.550  0.5192 -0.3631  2.0156
 1680SOL    HW216500   4.558   2.324   1.430  0.2074 -0.6337 -0.0793
 1681SOL     OW16501   0.003   0.861   9.174  0.2573  0.1206  0.1980
 1681SOL    HW116502   0.057   0.919   9.121 -0.1850 -1.3700 -1.8789
 1681SOL    HW216503   0.022   0.894   9.262  1.0964  3.9305 -1.4135
 1682SOL     OW16504   0.511   2.615   5.424  0.3968  0.2960  0.2297
 1682SOL    HW116505   0.531   2.531   5.383 -2.2312 -1.0442  1.6756
 1682SOL    HW216506   0.523   2.671   5.347  0.6730  1.1784  0.9062
 1683SOL     OW16507   4.059   0.513   8.966 -0.1605  0.1359 -0.3863
 1683SOL    HW116508   4.136   0.495   8.911  0.4879  1.2532  0.1461
 1683SOL    HW216509   4.088   0.481   9.051 -0.4655 -1.0519 -0.7173
 1684SOL     OW16510   1.190   3.539  10.233  0.6985 -0.3021 -0.0256
 1684SOL    HW116511   1.112   3.484  10.222  0.5532 -0.0374 -0.3343
 1684SOL    HW216512   1.257   3.472  10.237  0.0855 -0.9209 -0.0320
 1685SOL     OW16513   0.026   4.403   5.158  0.3975  0.3339 -0.4983
 1685SOL    HW116514   0.002   4.483   5.110 -1.1446  0.7114  0.8751
 1685SOL    HW216515   0.115   4.418   5.192  1.1132 -1.4714 -1.6322
 1686SOL     OW16516   0.107   3.573   4.797 -0.0171  0.2038 -0.4007
 1686SOL    HW116517   0.114   3.577   4.892  2.0532 -0.4017 -0.5408
 1686SOL    HW216518   0.154   3.492   4.779 -0.6919 -0.1187 -0.7395
 1687SOL     OW16519   3.095   4.180   7.992 -0.3908  0.0822 -0.4042
 1687SOL    HW116520   3.047   4.098   7.990  0.7886 -0.6101 -0.4873
 1687SOL    HW216521   3.020   4.239   7.981 -1.1920 -1.4849 -3.2974
 1688SOL     OW16522   2.038   2.865   3.790  0.4915 -0.3681 -0.2253
 1688SOL    HW116523   2.023   2.791   3.849 -1.3031  2.1126  2.4569
 1688SOL    HW216524   1.997   2.837   3.709 -0.9008 -0.5517  0.5343
 1689SOL     OW16525   4.409   4.022   6.988 -0.0097  0.6721  0.2018
 1689SOL    HW116526   4.445   4.092   6.934 -0.1962  0.7794  0.2174
 1689SOL    HW216527   4.490   3.991   7.029  0.1575  0.2698 -0.4422
 1690SOL     OW16528   4.413   3.524  10.729 -0.5735 -0.0507  0.7482
 1690SOL    HW116529   4.502   3.554  10.748 -0.1822 -1.5575  1.3036
 1690SOL    HW216530   4.430   3.452  10.669 -0.7487  0.5692 -0.0492
 1691SOL     OW16531   3.989   1.350   7.218 -0.3247 -0.2952 -0.1245
 1691SOL    HW116532   4.006   1.297   7.296  2.4715 -0.1699 -0.6676
 1691SOL    HW216533   4.067   1.405   7.209 -0.1300 -0.4027  0.9441
 1692SOL     OW16534   2.902   3.510   7.901 -0.2560 -0.1615 -0.2022
 1692SOL    HW116535   2.828   3.524   7.841  1.7860 -1.0405 -2.9249
 1692SOL    HW216536   2.897   3.416   7.913  0.9341 -0.1450  0.4568
 1693SOL     OW16537   2.916   0.357   3.655  0.2778  0.0920  0.5438
 1693SOL    HW116538   2.873   0.391   3.576  0.3125 -0.4711  0.2829
 1693SOL    HW216539   3.001   0.400   3.647  0.7448 -1.0121 -0.3747
 1694SOL     OW16540   1.229   3.635   3.874  0.6160  0.3898  0.0885
 1694SOL    HW116541   1.142   3.601   3.854  0.9062 -0.6371  0.5801
 1694SOL    HW216542   1.245   3.700   3.805 -2.3196  0.8567 -0.1335
 1695SOL     OW16543   0.395   2.408   4.807  0.0118  0.4016  0.4142
 1695SOL    HW116544   0.440   2.329   4.776 -0.0318  0.9699 -1.1224
 1695SOL    HW216545   0.319   2.376   4.855  0.5948 -0.4241  0.7953
 1696SOL     OW16546   1.518   4.192  16.219  0.4494 -0.2372 -0.1042
 1696SOL    HW116547   1.453   4.127  16.245 -1.2432  1.0559 -1.0835
 1696SOL    HW216548   1.565   4.229  16.294 -2.3917  0.3515  1.4015
 1697SOL     OW16549   1.866   1.316   8.093 -0.7721 -0.2379  0.1252
 1697SOL    HW116550   1.869   1.235   8.144 -0.1712 -0.1904  0.1599
 1697SOL    HW216551   1.938   1.299   8.034 -0.7897  0.2867 -0.0515
 1698SOL     OW16552   1.010   0.665  10.285  0.8214 -0.1333 -0.1293
 1698SOL    HW116553   1.000   0.709  10.200 -1.4545 -0.7030 -0.1756
 1698SOL    HW216554   0.922   0.668  10.322  0.3242 -1.4838 -1.1799
 1699SOL     OW16555   0.818   1.714  16.818  0.4642  0.3932 -0.1713
 1699SOL    HW116556   0.756   1.786  16.807  0.7212  0.7198  0.5540
 1699SOL    HW216557   0.883   1.747  16.879  1.2967  0.0270 -0.8543
 1700SOL     OW16558   0.962   1.614   3.099 -0.1944 -0.1159  0.0611
 1700SOL    HW116559   1.009   1.532   3.113 -0.2419 -0.3155 -0.9851
 1700SOL    HW216560   0.907   1.585   3.027 -1.2589 -0.0725  0.8569
 1701SOL     OW16561   2.045   3.866   0.641 -0.0602  0.0164 -0.2455
 1701SOL    HW116562   2.090   3.855   0.725 -3.2664  0.9716  1.6056
 1701SOL    HW216563   2.093   3.939   0.602  2.1389 -0.6086  1.2898
 1702SOL     OW16564   0.764   3.152  11.609  0.3638 -0.4704 -0.6869
 1702SOL    HW116565   0.693   3.166  11.671  0.2288 -2.6332 -0.3651
 1702SOL    HW216566   0.831   3.199  11.659 -0.8958 -1.4611  1.9291
 1703SOL     OW16567   0.596   0.312  16.379 -0.4339 -0.4841  0.1961
 1703SOL    HW116568   0.523   0.292  16.321 -0.6235  1.8985 -0.3612
 1703SOL    HW216569   0.663   0.248  16.355 -1.4216 -0.3035 -3.0152
 1704SOL     OW16570   3.891   4.076   1.669 -0.1146 -0.4928 -0.0200
 1704SOL    HW116571   3.905   4.150   1.609 -3.8985 -0.1978 -0.5438
 1704SOL    HW216572   3.965   4.018   1.650 -0.4036 -0.4725 -1.1992
 1705SOL     OW16573   0.055   1.489  17.660  0.2740  0.7611 -0.2680
 1705SOL    HW116574   0.071   1.505  17.567 -2.5449  0.8232 -0.7410
 1705SOL    HW216575   0.001   1.563  17.690 -0.0742  0.8789 -1.1899
 1706SOL     OW16576   2.033   2.670  13.834  0.2050 -0.2202 -0.1834
 1706SOL    HW116577   1.956   2.671  13.891  1.0537 -0.0807  0.9700
 1706SOL    HW216578   2.006   2.728  13.764 -2.5740  0.1289  1.1816
 1707SOL     OW16579   2.771   0.441   8.843 -0.5082  0.0966  0.2429
 1707SOL    HW116580   2.813   0.357   8.828  0.1690  0.6193 -0.7924
 1707SOL    HW216581   2.680   0.424   8.867 -0.1291  0.7442  2.0889
 1708SOL     OW16582   3.192   3.473   4.037  0.0136 -0.1124  0.1006
 1708SOL    HW116583   3.116   3.514   4.078  1.6867 -0.8484  3.8822
 1708SOL    HW216584   3.249   3.550   4.028  0.2369 -0.0613  1.9319
 1709SOL     OW16585   1.731   4.409   9.099 -0.1078 -0.4588  0.2503
 1709SOL    HW116586   1.803   4.402   9.161 -1.1216 -2.1213  1.2472
 1709SOL    HW216587   1.693   4.492   9.127 -0.6455 -1.1760  1.6825
 1710SOL     OW16588   3.594   1.541  13.413  0.2128  0.5185  0.1563
 1710SOL    HW116589   3.567   1.598  13.486  1.0224  1.3109 -0.1590
 1710SOL    HW216590   3.571   1.454  13.446 -0.2783  1.0406  1.1931
 1711SOL     OW16591   4.541   4.556  10.989  0.3246 -0.1473  0.1802
 1711SOL    HW116592   4.506   4.468  10.976 -0.6067  0.5108 -1.7824
 1711SOL    HW216593   4.530   4.589  10.900  1.8048 -2.1543 -0.7490
 1712SOL     OW16594   0.153   4.556  11.925 -0.3176  0.0580  0.3442
 1712SOL    HW116595   0.101   4.626  11.966 -2.8151 -0.6330 -1.6416
 1712SOL    HW216596   0.173   4.498  11.998  1.6432 -0.6501 -0.7394
 1713SOL     OW16597   4.090   0.389   7.788 -0.0034 -0.1532 -0.0696
 1713SOL    HW116598   4.032   0.365   7.861  1.9460 -0.5968  1.3493
 1713SOL    HW216599   4.027   0.418   7.723  0.0652 -1.2832 -0.6493
 1714SOL     OW16600   3.114   0.941  15.846 -0.1605  0.4155 -0.0600
 1714SOL    HW116601   3.169   0.938  15.768  0.6901 -1.7623  0.6075
 1714SOL    HW216602   3.035   0.896  15.816 -0.8380  0.7225  1.2556
 1715SOL     OW16603   4.038   4.441  17.665  0.3330 -0.4024 -0.2503
 1715SOL    HW116604   4.015   4.419   0.056 -0.8319 -0.5504 -0.5925
 1715SOL    HW216605   4.134   4.435  17.668  0.3747  0.8146  0.5229
 1716SOL     OW16606   4.658   2.898   4.487 -0.1614 -0.1511 -0.0445
 1716SOL    HW116607   4.723   2.955   4.445 -1.2977  0.0102 -1.5736
 1716SOL    HW216608   4.685   2.821   4.438 -1.4371 -0.9200  0.4742
 1717SOL     OW16609   1.378   2.727   9.808 -0.6872 -0.8982  0.3096
 1717SOL    HW116610   1.344   2.639   9.797 -0.6748 -0.9227  0.4727
 1717SOL    HW216611   1.472   2.713   9.801 -0.4160  1.7769 -1.8940
 1718SOL     OW16612   0.099   4.716   7.436  0.3933  0.0173 -0.0219
 1718SOL    HW116613   0.107   4.625   7.465 -0.9218  0.2597  1.1218
 1718SOL    HW216614   0.187   0.029   7.443 -0.2713  1.8531 -1.6626
 1719SOL     OW16615   2.884   0.005   6.890 -0.5089  0.4569 -0.3155
 1719SOL    HW116616   2.809   4.715   6.833 -1.9493 -0.2795  1.7466
 1719SOL    HW216617   2.855   4.717   6.981 -1.7588 -0.1309 -0.7873
 1720SOL     OW16618   0.270   3.584   4.334 -0.1334 -0.0592  0.1323
 1720SOL    HW116619   0.210   3.587   4.259  1.3719  2.9915 -0.9701
 1720SOL    HW216620   0.345   3.634   4.302  0.8325 -0.7402  1.3276
 1721SOL     OW16621   2.083   0.599  13.284 -0.6192  0.0465 -0.2068
 1721SOL    HW116622   2.077   0.635  13.195 -0.2317 -2.2455 -1.1658
 1721SOL    HW216623   2.167   0.554  13.286 -1.1526 -0.8826  1.4236
 1722SOL     OW16624   1.448   4.671  11.677 -0.3425 -0.6288 -0.1770
 1722SOL    HW116625   1.520   4.616  11.648  0.0888 -0.6936  1.0419
 1722SOL    HW216626   1.374   4.639  11.626 -0.8316  0.7505 -0.3503
 1723SOL     OW16627   3.802   3.367  11.248 -0.2875  0.4038  0.1156
 1723SOL    HW116628   3.884   3.318  11.239  0.1373  1.2818 -0.9033
 1723SOL    HW216629   3.736   3.301  11.265 -0.5380  0.3561 -1.0261
 1724SOL     OW16630   0.682   0.490   6.185  0.1877 -0.1595 -1.0698
 1724SOL    HW116631   0.627   0.442   6.124 -0.5381 -1.4293  0.5980
 1724SOL    HW216632   0.739   0.544   6.129  0.1539 -1.4644 -2.3690
 1725SOL     OW16633   0.695   1.048   5.006  0.0501  0.0449 -0.4006
 1725SOL    HW116634   0.655   1.132   4.984 -0.2934 -0.2209 -0.8139
 1725SOL    HW216635   0.705   1.055   5.101 -0.8570  0.7963 -0.3626
 1726SOL     OW16636   1.843   2.728   0.943  0.5476 -0.0866  0.2044
 1726SOL    HW116637   1.874   2.795   1.003 -0.9187  0.8795 -0.1175
 1726SOL    HW216638   1.819   2.657   1.002 -0.3701 -0.3639 -0.4929
 1727SOL     OW16639   4.419   0.594   0.718 -0.3856  0.0849  0.0426
 1727SOL    HW116640   4.448   0.600   0.809 -0.4561  0.5752  0.0330
 1727SOL    HW216641   4.377   0.680   0.705 -0.6304  0.2539  2.0367
 1728SOL     OW16642   3.068   4.449   8.215 -0.3339  0.2693  0.6187
 1728SOL    HW116643   3.119   4.451   8.296  0.4683  2.7593  0.0824
 1728SOL    HW216644   3.000   4.509   8.246  0.5523  1.0224  1.1009
 1729SOL     OW16645   3.156   0.921   8.028 -0.6914 -0.2287  0.6456
 1729SOL    HW116646   3.180   0.828   8.038 -0.5793 -0.2600  0.0392
 1729SOL    HW216647   3.213   0.960   7.963 -1.2492  0.3395  0.4987
 1730SOL     OW16648   3.744   1.867   3.248 -0.0963 -0.1844  0.5437
 1730SOL    HW116649   3.771   1.958   3.260 -0.2355  0.3289 -3.0433
 1730SOL    HW216650   3.768   1.850   3.157 -2.8768  2.1212 -0.6327
 1731SOL     OW16651   1.496   2.402  10.551 -0.1740  0.0708 -0.0543
 1731SOL    HW116652   1.443   2.473  10.585  1.3584  1.2125 -0.0431
 1731SOL    HW216653   1.587   2.431  10.544 -0.0535  0.4235  3.2447
 1732SOL     OW16654   1.997   3.508  15.094  0.0200 -0.7314 -0.5102
 1732SOL    HW116655   1.952   3.590  15.113 -3.8234 -2.9559  0.1048
 1732SOL    HW216656   2.058   3.537  15.027  0.8379  0.6981  0.8491
 1733SOL     OW16657   4.394   3.212   3.750 -0.3279 -0.0101  0.5107
 1733SOL    HW116658   4.405   3.302   3.720  1.4572 -0.0805  0.9537
 1733SOL    HW216659   4.470   3.176   3.704  0.1135  1.1578  0.3226
 1734SOL     OW16660   4.557   4.603   4.262  0.3111  0.6239 -0.1866
 1734SOL    HW116661   4.558   4.511   4.290 -0.3204  0.8405  0.5463
 1734SOL    HW216662   4.558   4.592   4.167 -1.1738  0.6138 -0.2110
 1735SOL     OW16663   2.621   0.763  13.475  0.1135 -0.5284 -0.4835
 1735SOL    HW116664   2.544   0.787  13.423  0.4999  3.6035  0.9089
 1735SOL    HW216665   2.691   0.795  13.418 -0.0305  1.0061  0.2117
 1736SOL     OW16666   2.331   0.690   8.626 -0.1249 -0.0209  0.5442
 1736SOL    HW116667   2.275   0.612   8.630  1.2077 -1.0423 -0.8873
 1736SOL    HW216668   2.330   0.709   8.532  0.2877 -3.4904 -0.1468
 1737SOL     OW16669   1.970   1.733   6.144  0.4264 -0.8862  0.1774
 1737SOL    HW116670   1.966   1.644   6.110 -1.9330 -1.2253  1.3911
 1737SOL    HW216671   2.011   1.719   6.230 -0.3973  1.1153  0.8960
 1738SOL     OW16672   1.103   0.490  13.689 -0.3975  0.1120 -0.7291
 1738SOL    HW116673   1.031   0.532  13.737  0.6164  2.6803 -1.4298
 1738SOL    HW216674   1.170   0.511  13.754  1.5819 -0.7803 -2.4911
 1739SOL     OW16675   0.466   2.840  14.569  0.1633  0.3839 -0.4940
 1739SOL    HW116676   0.482   2.934  14.569 -2.0450  0.7632  0.1329
 1739SOL    HW216677   0.413   2.837  14.489 -0.0191 -1.3396 -0.3142
 1740SOL     OW16678   3.842   0.259   7.558  0.0244  0.9480 -0.3214
 1740SOL    HW116679   3.889   0.249   7.475  0.8901  2.5726 -0.0186
 1740SOL    HW216680   3.782   0.185   7.551  0.3534  0.7401 -0.9113
 1741SOL     OW16681   2.381   3.864   2.585 -0.6691  0.6185  0.1845
 1741SOL    HW116682   2.401   3.931   2.519  2.5993  0.6784  1.2344
 1741SOL    HW216683   2.302   3.823   2.550  0.3625 -1.2925  0.0931
 1742SOL     OW16684   3.221   4.550   1.586  0.0165 -0.2906 -0.4342
 1742SOL    HW116685   3.159   4.484   1.618  1.1989 -1.4591 -0.5290
 1742SOL    HW216686   3.258   4.503   1.511 -1.8428 -1.9430 -0.3308
 1743SOL     OW16687   1.054   2.521   3.258 -0.2044 -0.1034 -0.2844
 1743SOL    HW116688   1.147   2.504   3.274 -0.5275  0.1529  1.8957
 1743SOL    HW216689   1.024   2.507   3.347  0.4375  0.1239 -0.0301
 1744SOL     OW16690   2.752   2.528   1.427 -0.5448  0.3686  0.2122
 1744SOL    HW116691   2.830   2.575   1.456 -0.1777  1.1814 -2.1675
 1744SOL    HW216692   2.691   2.594   1.394 -1.0525 -0.3857 -0.3538
 1745SOL     OW16693   3.632   0.619   1.306  0.6349 -0.4627 -0.2759
 1745SOL    HW116694   3.706   0.665   1.264  0.8358  0.3891  1.0157
 1745SOL    HW216695   3.575   0.617   1.229  0.8380 -0.1246 -0.4345
 1746SOL     OW16696   4.187   1.392  10.586 -0.0236  0.7192 -0.4191
 1746SOL    HW116697   4.276   1.427  10.578 -0.7921  2.7073 -0.2686
 1746SOL    HW216698   4.147   1.459  10.641  0.4143  1.4201 -0.9371
 1747SOL     OW16699   2.978   0.995  13.466 -0.6528 -0.0316  0.0030
 1747SOL    HW116700   3.049   0.961  13.519 -2.4914 -1.9930  1.2067
 1747SOL    HW216701   3.015   1.015  13.380 -2.5076 -1.3882 -1.1155
 1748SOL     OW16702   0.239   1.136   5.007  0.6696  0.1175 -0.3393
 1748SOL    HW116703   0.315   1.131   5.064  1.0692  0.5670 -0.8361
 1748SOL    HW216704   0.254   1.217   4.958 -3.1863  1.7301  1.1559
 1749SOL     OW16705   2.504   0.628   3.553 -0.0581  0.3038  0.2980
 1749SOL    HW116706   2.514   0.678   3.472 -1.6052  1.6373  0.9286
 1749SOL    HW216707   2.411   0.633   3.576 -0.0840  0.0506  0.2512
 1750SOL     OW16708   2.574   3.843  15.912 -0.5397 -0.2581 -0.4914
 1750SOL    HW116709   2.562   3.933  15.881  1.5683  0.3970  0.5481
 1750SOL    HW216710   2.633   3.810  15.843  0.4437 -0.7460  0.5790
 1751SOL     OW16711   4.497   1.328   9.174  0.2499 -0.3811 -0.7819
 1751SOL    HW116712   4.430   1.375   9.124 -0.4448 -1.4388 -0.8413
 1751SOL    HW216713   4.515   1.398   9.237 -1.5553 -0.4766 -0.1601
 1752SOL     OW16714   1.980   3.057   3.482  0.5519  0.2318  0.0207
 1752SOL    HW116715   1.950   2.967   3.499  1.7466  0.0959  1.3631
 1752SOL    HW216716   1.904   3.100   3.442  1.0523  0.5855 -0.5376
 1753SOL     OW16717   1.609   2.422  15.181 -0.4031  0.2616  0.2963
 1753SOL    HW116718   1.683   2.404  15.123  0.1672 -0.0770  1.1252
 1753SOL    HW216719   1.640   2.396  15.268 -0.0343 -0.8789 -0.1685
 1754SOL     OW16720   0.313   0.252  13.899  0.1432 -0.2986 -0.5504
 1754SOL    HW116721   0.409   0.249  13.900  0.1866  0.6945 -1.6126
 1754SOL    HW216722   0.289   0.331  13.947  1.2600 -0.5424  0.4128
 1755SOL     OW16723   2.540   2.619   7.278 -0.1426 -0.2111 -0.2905
 1755SOL    HW116724   2.634   2.600   7.278 -0.2169 -0.5832 -0.4973
 1755SOL    HW216725   2.522   2.600   7.370  0.6002 -0.2218 -0.1455
 1756SOL     OW16726   3.342   3.084   5.782 -0.0170 -0.0798 -0.2872
 1756SOL    HW116727   3.319   3.034   5.861 -1.5437 -0.0599 -0.7058
 1756SOL    HW216728   3.422   3.043   5.753 -0.7151  0.3868 -2.8250
 1757SOL     OW16729   0.137   3.547   3.787  0.1780 -0.1471 -0.2401
 1757SOL    HW116730   0.113   3.588   3.871 -1.1788  2.2976 -1.8318
 1757SOL    HW216731   0.082   3.469   3.783 -0.6753  0.4201  0.4808
 1758SOL     OW16732   4.673   0.629  12.199 -0.1303  0.4979  0.3736
 1758SOL    HW116733   4.580   0.623  12.219 -0.2989 -1.5786 -1.1098
 1758SOL    HW216734   4.714   0.596  12.280  0.6095 -2.5208 -1.2355
 1759SOL     OW16735   1.177   4.557   8.911 -0.2869 -0.2793 -0.6697
 1759SOL    HW116736   1.139   4.609   8.840 -5.8724 -3.3547  0.0415
 1759SOL    HW216737   1.148   4.606   8.988 -0.9785  1.8068 -2.2771
 1760SOL     OW16738   3.816   4.499   6.214 -0.0128  0.2886  0.3187
 1760SOL    HW116739   3.850   4.581   6.177  0.6441 -0.9070 -1.7273
 1760SOL    HW216740   3.789   4.534   6.298 -0.1002 -0.6955  0.6983
 1761SOL     OW16741   0.133   2.604   6.394  0.4841  0.0782 -0.4579
 1761SOL    HW116742   0.160   2.568   6.309 -1.1529 -0.3950 -0.7596
 1761SOL    HW216743   0.117   2.696   6.374 -1.9448 -0.0678  0.9049
 1762SOL     OW16744   2.644   3.727   2.547  0.0197  0.7111 -0.8658
 1762SOL    HW116745   2.552   3.748   2.566  0.1004 -1.7365  2.2378
 1762SOL    HW216746   2.646   3.635   2.575 -0.8071  0.9186 -0.1167
 1763SOL     OW16747   0.251   2.045   7.090 -0.0917  0.2933 -0.3897
 1763SOL    HW116748   0.327   1.986   7.085 -1.4036 -1.4631  0.1954
 1763SOL    HW216749   0.228   2.071   7.001 -0.4670  0.7620 -0.1541
 1764SOL     OW16750   3.364   4.074   3.320 -0.0146  0.0395  0.3104
 1764SOL    HW116751   3.287   4.123   3.292 -0.4834 -1.8143 -1.6200
 1764SOL    HW216752   3.388   4.127   3.396 -0.6525  0.6442  0.0923
 1765SOL     OW16753   0.567   4.722  15.344 -0.1222  0.7814  0.3938
 1765SOL    HW116754   0.490   0.055  15.351 -0.2283  0.4263  2.0787
 1765SOL    HW216755   0.588   4.721  15.250  3.1653 -1.8791  1.1743
 1766SOL     OW16756   0.203   3.222  17.421 -0.2157  0.4039 -0.1643
 1766SOL    HW116757   0.230   3.197  17.332 -1.4871 -2.4319  0.2102
 1766SOL    HW216758   0.205   3.316  17.408  1.0758  0.2841 -0.9043
 1767SOL     OW16759   4.138   3.166  12.598  0.6623 -0.3109  0.6122
 1767SOL    HW116760   4.101   3.127  12.677  1.4674 -0.1845  1.0524
 1767SOL    HW216761   4.139   3.258  12.625 -1.3139 -0.1509  0.1381
 1768SOL     OW16762   4.693   2.366   2.532 -0.2255 -0.6377  0.2209
 1768SOL    HW116763   0.015   2.309   2.471  1.0144  1.0804 -0.4263
 1768SOL    HW216764   4.682   2.449   2.486  1.2890 -0.0199  0.9851
 1769SOL     OW16765   2.007   4.240   0.748 -0.4561  0.0403 -0.2611
 1769SOL    HW116766   1.998   4.178   0.820 -1.3823 -1.3594 -1.5708
 1769SOL    HW216767   2.084   4.200   0.709  0.4529  1.4850  0.0675
 1770SOL     OW16768   3.627   3.731   9.606  0.1957 -0.1984  0.2331
 1770SOL    HW116769   3.651   3.655   9.658 -0.7349 -0.6554 -0.0092
 1770SOL    HW216770   3.569   3.700   9.536  1.8025 -0.7148 -0.8857
 1771SOL     OW16771   2.494   1.932   8.334  0.1587  0.2146  0.7761
 1771SOL    HW116772   2.484   2.018   8.373 -1.3682 -0.1528  1.1912
 1771SOL    HW216773   2.452   1.965   8.255  0.6086  0.6421  0.7191
 1772SOL     OW16774   4.268   0.478   1.544 -0.4079  0.0896  0.2292
 1772SOL    HW116775   4.341   0.435   1.589  1.0239  0.2354 -1.9563
 1772SOL    HW216776   4.226   0.407   1.495  1.6643  0.3487 -1.9175
 1773SOL     OW16777   0.364   2.068  14.093  0.4946 -0.1160 -0.0353
 1773SOL    HW116778   0.309   2.010  14.147  0.6095 -1.1121 -0.9820
 1773SOL    HW216779   0.301   2.133  14.063  0.6981  1.5932  3.2365
 1774SOL     OW16780   1.546   1.679   7.491  0.3279  0.3863  0.2655
 1774SOL    HW116781   1.531   1.724   7.574 -1.7877  1.4673 -0.7085
 1774SOL    HW216782   1.598   1.605   7.524 -0.0340  0.1388  0.2832
 1775SOL     OW16783   2.136   4.666  10.364 -0.1543 -0.2567  0.2374
 1775SOL    HW116784   2.135   4.701  10.453  0.2940  0.8779 -0.2113
 1775SOL    HW216785   2.181   4.583  10.380  1.3833  0.7764  1.1697
 1776SOL     OW16786   4.198   3.108   7.789  0.1551 -0.3633 -0.4408
 1776SOL    HW116787   4.132   3.165   7.749  1.2999  0.3839 -1.2523
 1776SOL    HW216788   4.235   3.173   7.848 -1.3230  0.6940 -0.6723
 1777SOL     OW16789   1.865   3.202  10.147  0.0466 -0.2545 -0.0618
 1777SOL    HW116790   1.960   3.189  10.142  0.0806 -0.1335  0.2763
 1777SOL    HW216791   1.823   3.121  10.120  2.2548 -1.1246 -0.8984
 1778SOL     OW16792   3.435   4.175   5.990  0.7419  0.0115 -0.4177
 1778SOL    HW116793   3.459   4.141   5.904 -1.6888 -1.1068 -0.6504
 1778SOL    HW216794   3.504   4.241   5.996  1.1959 -0.2760 -2.5867
 1779SOL     OW16795   0.569   0.012  17.005 -0.2726 -0.0873  0.8504
 1779SOL    HW116796   0.604   0.001  17.093 -0.4668 -4.5860  0.3792
 1779SOL    HW216797   0.564   4.650  16.964  0.0027 -0.4896  1.6651
 1780SOL     OW16798   3.772   1.595   0.560  0.3648 -0.0993 -0.0099
 1780SOL    HW116799   3.730   1.623   0.641  0.0893  0.5850 -0.3850
 1780SOL    HW216800   3.713   1.617   0.488 -0.8347  1.9988  1.6128
 1781SOL     OW16801   1.059   0.181   5.351 -0.5594  0.0107  0.5066
 1781SOL    HW116802   1.141   0.230   5.360 -1.3252  1.4637 -0.3508
 1781SOL    HW216803   1.093   0.106   5.302 -3.1304 -0.0472 -1.2103
 1782SOL     OW16804   1.741   3.738   3.965 -0.6471 -0.2885 -0.5379
 1782SOL    HW116805   1.697   3.664   4.006 -0.2804  0.6133  1.4597
 1782SOL    HW216806   1.787   3.682   3.902  0.2921  0.4669 -0.5068
 1783SOL     OW16807   2.966   0.694   1.711 -0.0625  0.3362 -0.1488
 1783SOL    HW116808   2.921   0.759   1.657 -1.5136 -0.9681 -0.5007
 1783SOL    HW216809   2.903   0.671   1.779  0.8622  0.1094  0.6357
 1784SOL     OW16810   4.524   1.287   5.876  0.1676 -0.4818 -0.1799
 1784SOL    HW116811   4.513   1.224   5.805 -0.6787 -0.0871 -0.4005
 1784SOL    HW216812   4.580   1.237   5.935 -1.2955 -1.7118  0.1504
 1785SOL     OW16813   4.186   4.210   3.443  0.3816 -0.2501  0.4636
 1785SOL    HW116814   4.251   4.278   3.423 -0.0188 -0.3294 -1.1135
 1785SOL    HW216815   4.240   4.132   3.436  0.0530 -0.4479  0.1230
 1786SOL     OW16816   1.285   0.518   6.833 -0.4948 -0.4753 -0.5650
 1786SOL    HW116817   1.296   0.425   6.813 -1.7236 -0.8615  0.6011
 1786SOL    HW216818   1.251   0.549   6.749 -0.0357 -2.3424 -1.4515
 1787SOL     OW16819   2.626   4.691   6.296 -0.2139 -0.3921  0.2175
 1787SOL    HW116820   2.537   4.656   6.286  0.3717 -2.3910  2.0961
 1787SOL    HW216821   2.672   4.609   6.310 -0.9733 -0.9011 -0.2501
 1788SOL     OW16822   4.385   2.085   6.879 -0.2663  0.1155  0.0574
 1788SOL    HW116823   4.367   2.160   6.935  0.2878  0.3901 -0.1286
 1788SOL    HW216824   4.293   2.064   6.862 -1.2672  3.3858  1.5501
 1789SOL     OW16825   1.008   4.119   8.353  0.5652 -0.1003  0.3240
 1789SOL    HW116826   0.986   4.090   8.442  1.2562  0.6704  0.7413
 1789SOL    HW216827   1.009   4.039   8.300  0.6885  0.6883 -0.8672
 1790SOL     OW16828   3.998   0.101   1.501  0.2598 -0.0237 -0.0057
 1790SOL    HW116829   4.013   0.014   1.539  4.4569  0.4723 -0.5031
 1790SOL    HW216830   4.078   0.143   1.532 -0.7091  2.4431 -0.9199
 1791SOL     OW16831   0.725   2.114   2.665 -0.0482 -0.0259 -0.0107
 1791SOL    HW116832   0.676   2.031   2.669 -0.4545  0.2045 -0.1914
 1791SOL    HW216833   0.699   2.152   2.581  0.9955  0.5797 -0.0530
 1792SOL     OW16834   3.917   1.260   8.922  0.1170  0.1677 -0.2499
 1792SOL    HW116835   3.929   1.299   9.008 -0.6113  1.3823 -0.6982
 1792SOL    HW216836   3.835   1.302   8.896  0.3475  0.9299  0.2630
 1793SOL     OW16837   4.503   4.038   8.503  0.2035  0.0930  0.4271
 1793SOL    HW116838   4.458   4.041   8.587  0.3696  0.2437  0.5083
 1793SOL    HW216839   4.474   3.952   8.470 -0.4851  0.9876 -1.3127
 1794SOL     OW16840   2.621   2.823  10.530 -0.2511  0.2513  0.1134
 1794SOL    HW116841   2.588   2.743  10.490 -0.4890 -0.1173  1.0523
 1794SOL    HW216842   2.601   2.803  10.621  1.3317  0.9641  0.6075
 1795SOL     OW16843   3.477   0.045   2.006 -0.0503 -0.2178  0.1790
 1795SOL    HW116844   3.463   4.695   2.064  0.9638 -1.4318 -1.1304
 1795SOL    HW216845   3.394   0.034   1.960 -0.2794 -0.6267  0.6871
 1796SOL     OW16846   2.007   3.791   6.073  0.2560  0.1191 -0.8890
 1796SOL    HW116847   2.053   3.867   6.109 -0.5541 -0.4980  1.4668
 1796SOL    HW216848   2.052   3.718   6.115  0.2220  0.9882  0.6569
 1797SOL     OW16849   3.180   0.470  11.285 -0.0486  0.4049  0.0120
 1797SOL    HW116850   3.258   0.450  11.232 -0.4761 -1.4441  0.0814
 1797SOL    HW216851   3.112   0.494  11.222  1.1633  1.6096 -0.8368
 1798SOL     OW16852   4.426   1.184  11.414  0.1241 -0.1962  0.1945
 1798SOL    HW116853   4.441   1.173  11.508  1.9111 -0.1440 -0.0907
 1798SOL    HW216854   4.505   1.143  11.380  1.1322  2.0814 -0.1883
 1799SOL     OW16855   0.131   0.353  12.419 -0.0909 -0.1942 -0.3194
 1799SOL    HW116856   0.087   0.320  12.341 -2.5588  1.0884  0.5042
 1799SOL    HW216857   0.055   0.366  12.476 -0.5497  1.4746 -1.3119
 1800SOL     OW16858   0.418   3.587   2.468  0.0186  0.4760 -0.4105
 1800SOL    HW116859   0.351   3.655   2.462  1.7736  2.2313 -0.2459
 1800SOL    HW216860   0.447   3.595   2.377 -3.0026  0.2157 -1.3766
 1801SOL     OW16861   1.183   4.423  14.977 -0.3066  0.2017  0.3837
 1801SOL    HW116862   1.155   4.504  15.020  1.2929 -0.6440  2.9917
 1801SOL    HW216863   1.127   4.425  14.900 -1.1349  1.7688  1.0282
 1802SOL     OW16864   1.573   3.914   7.048 -0.0132  0.2990  0.1726
 1802SOL    HW116865   1.566   3.978   6.977 -2.3004  1.3307  1.3224
 1802SOL    HW216866   1.507   3.849   7.025  1.1461 -0.0334 -2.2035
 1803SOL     OW16867   4.656   4.280  11.412  0.5498  0.2757 -0.1079
 1803SOL    HW116868   4.568   4.267  11.446 -0.8351  2.6432 -2.8077
 1803SOL    HW216869   4.706   4.264  11.492  0.4279  1.7009  0.2497
 1804SOL     OW16870   4.246   0.542   2.377 -0.1485  0.2760  0.5078
 1804SOL    HW116871   4.179   0.539   2.446  0.2173 -0.3899  0.8395
 1804SOL    HW216872   4.249   0.447   2.368 -2.1118  0.1197  1.4215
 1805SOL     OW16873   2.716   0.707   3.700 -0.1023 -0.3512  0.1670
 1805SOL    HW116874   2.627   0.671   3.695 -0.9509  1.5565  1.7243
 1805SOL    HW216875   2.746   0.695   3.610 -1.3316  2.6686 -0.6703
 1806SOL     OW16876   3.436   2.679  17.171  0.1570 -0.4871 -0.9169
 1806SOL    HW116877   3.500   2.661  17.239 -0.4852 -0.4140 -0.2901
 1806SOL    HW216878   3.489   2.656  17.095 -1.6009 -2.4328 -1.5491
 1807SOL     OW16879   0.953   1.073   6.152 -0.0974 -0.1799  0.0844
 1807SOL    HW116880   0.997   1.000   6.108 -1.4132 -0.6629 -0.4350
 1807SOL    HW216881   0.880   1.092   6.094 -1.5154  2.0347  2.5903
 1808SOL     OW16882   4.713   4.025   7.820  0.0205 -0.3372  0.1293
 1808SOL    HW116883   4.681   3.961   7.757  2.8548  2.7174 -4.3293
 1808SOL    HW216884   4.630   4.071   7.830 -0.6981 -1.8691  1.2615
 1809SOL     OW16885   1.011   2.136   8.522 -0.4407  0.3712 -0.0550
 1809SOL    HW116886   1.022   2.200   8.593  1.3257 -0.2106  0.1899
 1809SOL    HW216887   0.943   2.080   8.561 -0.4020 -0.1071 -0.6787
 1810SOL     OW16888   2.244   1.318   7.741 -0.0961 -0.5351  0.1541
 1810SOL    HW116889   2.242   1.234   7.695  2.2870  0.4649 -1.7137
 1810SOL    HW216890   2.335   1.345   7.734 -0.7815  1.9983  0.9014
 1811SOL     OW16891   3.108   2.058   2.631  0.3094  0.0188 -0.0615
 1811SOL    HW116892   3.090   2.106   2.550  1.7906  0.6147 -0.0375
 1811SOL    HW216893   3.201   2.066   2.654  0.6773  1.0339 -1.9569
 1812SOL     OW16894   0.021   2.349   4.430 -0.0358 -0.0074 -0.4774
 1812SOL    HW116895   0.071   2.275   4.462 -2.4501 -0.5267  2.1257
 1812SOL    HW216896   4.680   2.301   4.379  0.3873 -2.0894  0.9544
 1813SOL     OW16897   2.325   0.307   2.082  0.2861  0.1392  0.1680
 1813SOL    HW116898   2.388   0.274   2.146  0.7859  2.2677  0.7970
 1813SOL    HW216899   2.367   0.281   2.000  2.4355  2.2774  0.5889
 1814SOL     OW16900   2.414   2.261   7.810 -0.0211 -0.1335 -0.2824
 1814SOL    HW116901   2.460   2.273   7.727 -0.2706 -1.7612 -0.6610
 1814SOL    HW216902   2.414   2.167   7.826  2.2665  0.0041  0.6134
 1815SOL     OW16903   4.204   2.941   2.244 -0.4139  0.1537 -0.6063
 1815SOL    HW116904   4.252   2.879   2.299 -0.5496  0.6346  0.0447
 1815SOL    HW216905   4.260   3.018   2.250  0.5345 -0.6139  0.6758
 1816SOL     OW16906   1.937   2.150   1.024  0.5647  0.2033  0.1240
 1816SOL    HW116907   1.971   2.232   0.989 -0.0374  0.0613 -0.7961
 1816SOL    HW216908   1.922   2.092   0.950  1.3596 -0.0369  0.1585
 1817SOL     OW16909   2.781   1.919   1.381  0.4932 -0.4779  0.1518
 1817SOL    HW116910   2.857   1.972   1.402  1.2635 -1.6391  0.2995
 1817SOL    HW216911   2.807   1.831   1.410 -0.3612 -1.5904 -2.4773
 1818SOL     OW16912   1.908   3.438   4.062 -0.1870  0.1019 -0.4272
 1818SOL    HW116913   1.992   3.485   4.060  0.2347 -0.6652 -0.6027
 1818SOL    HW216914   1.916   3.384   3.983  1.9561 -0.6127  0.2595
 1819SOL     OW16915   1.828   3.722   9.177 -0.1395  0.5064 -0.4019
 1819SOL    HW116916   1.891   3.651   9.161 -1.4943 -0.8190  0.1132
 1819SOL    HW216917   1.884   3.799   9.171 -0.6886  0.9658  0.2817
 1820SOL     OW16918   3.337   3.705   1.068 -0.6716  0.0728 -0.3391
 1820SOL    HW116919   3.255   3.656   1.066 -1.0211  0.6382  0.1078
 1820SOL    HW216920   3.378   3.659   0.995 -1.2144  1.3154 -1.4387
 1821SOL     OW16921   0.441   0.167  16.196  0.0987  0.5971  0.1502
 1821SOL    HW116922   0.401   0.198  16.115  1.1496 -0.4256 -0.7517
 1821SOL    HW216923   0.364   0.134  16.242 -0.0716  1.2356  0.3320
 1822SOL     OW16924   3.691   3.300   3.613 -0.1038 -0.5122 -0.1378
 1822SOL    HW116925   3.653   3.215   3.639 -1.1330 -1.0359 -3.4099
 1822SOL    HW216926   3.781   3.272   3.597  0.5582  1.6445 -0.1151
 1823SOL     OW16927   2.540   1.707   1.148 -0.7798  0.0281  0.1306
 1823SOL    HW116928   2.462   1.656   1.128 -0.3278 -0.1093 -1.2612
 1823SOL    HW216929   2.519   1.729   1.239 -1.4180  0.7840 -0.2076
 1824SOL     OW16930   0.062   2.545  14.525  0.3405  1.2631 -0.1180
 1824SOL    HW116931   4.698   2.552  14.561  0.4679  0.8741  0.2750
 1824SOL    HW216932   0.055   2.576  14.435 -1.4025  0.7168 -0.1614
 1825SOL     OW16933   3.297   2.868   3.987 -0.4334  0.0575 -0.0562
 1825SOL    HW116934   3.230   2.935   3.998  1.1968  1.7254 -0.3258
 1825SOL    HW216935   3.291   2.818   4.068 -0.2990  1.2785  0.7081
 1826SOL     OW16936   3.886   0.309   5.916 -0.2881 -0.3826 -0.0173
 1826SOL    HW116937   3.900   0.303   6.011  2.1154  0.6502 -0.2899
 1826SOL    HW216938   3.942   0.236   5.890  1.0881  1.8025 -3.1697
 1827SOL     OW16939   4.676   2.275   9.143 -0.8124 -0.6455  0.5195
 1827SOL    HW116940   4.605   2.222   9.107 -1.0242 -0.1242  0.1587
 1827SOL    HW216941   4.638   2.361   9.124 -0.8935 -0.7826  0.0642
 1828SOL     OW16942   3.946   1.060   3.411  0.1411 -0.1777 -0.2815
 1828SOL    HW116943   4.026   1.111   3.399  1.4342 -1.9553  0.7789
 1828SOL    HW216944   3.978   0.970   3.406  0.9154 -0.0550  2.3266
 1829SOL     OW16945   0.567   2.666   7.574 -0.4669  0.0795  0.0974
 1829SOL    HW116946   0.550   2.756   7.544 -0.8928 -0.7920 -2.3192
 1829SOL    HW216947   0.650   2.682   7.617 -0.9484  1.0689  0.6547
 1830SOL     OW16948   3.897   3.945   4.483  0.3706 -1.4479 -0.1184
 1830SOL    HW116949   3.958   3.996   4.537  0.3407  0.1443 -1.6005
 1830SOL    HW216950   3.816   3.987   4.512  0.0298 -1.1155 -1.5853
 1831SOL     OW16951   2.961   0.769  16.657 -0.1671 -0.3648 -0.4879
 1831SOL    HW116952   2.989   0.744  16.745 -0.0544 -0.1865 -0.4742
 1831SOL    HW216953   2.944   0.863  16.657  0.1274 -0.3100 -1.1777
 1832SOL     OW16954   4.206   4.123  12.006  0.3951 -0.1773  0.6321
 1832SOL    HW116955   4.176   4.140  11.917  0.7690  1.1045  0.7535
 1832SOL    HW216956   4.164   4.042  12.034 -0.3139  0.2767  0.8807
 1833SOL     OW16957   2.857   0.630   7.908  0.5618  0.0894  0.1101
 1833SOL    HW116958   2.797   0.677   7.850  0.0519  0.2200  0.7429
 1833SOL    HW216959   2.931   0.611   7.850 -0.2328 -3.1858  0.2059
 1834SOL     OW16960   4.327   2.037  14.002  0.7758  0.0892  0.0056
 1834SOL    HW116961   4.353   1.956  13.959  0.6278  1.7636 -3.2470
 1834SOL    HW216962   4.403   2.093  13.984  0.7797  0.7466  2.1707
 1835SOL     OW16963   3.504   3.704  16.280 -0.0522  0.5880  0.7073
 1835SOL    HW116964   3.541   3.686  16.366 -2.3184 -0.2027  1.5033
 1835SOL    HW216965   3.582   3.701  16.224 -0.0244 -0.7893  0.8228
 1836SOL     OW16966   2.322   4.686   5.632  0.1319  0.3598 -0.4714
 1836SOL    HW116967   2.337   0.055   5.621 -1.7483  0.6126 -0.8445
 1836SOL    HW216968   2.227   4.673   5.627  0.0442  0.6363  0.4491
 1837SOL     OW16969   3.589   3.175   4.593 -0.5295 -0.0572  0.2426
 1837SOL    HW116970   3.621   3.131   4.514 -1.7681  0.1304 -0.3772
 1837SOL    HW216971   3.535   3.245   4.557  0.6556 -0.3000 -2.0025
 1838SOL     OW16972   3.517   3.541  17.589 -0.2043  0.6666 -0.6089
 1838SOL    HW116973   3.482   3.630  17.591 -1.0708  0.3523 -1.7600
 1838SOL    HW216974   3.611   3.551  17.574  0.0119 -2.4184 -1.3069
 1839SOL     OW16975   1.323   2.571   7.008  0.1521 -0.0918  0.3050
 1839SOL    HW116976   1.235   2.539   7.028 -0.2581  0.7220 -0.1935
 1839SOL    HW216977   1.347   2.516   6.933  3.1882  2.8517 -0.8603
 1840SOL     OW16978   4.544   3.420   6.013  0.2085  0.0265  0.6655
 1840SOL    HW116979   4.582   3.485   5.954 -2.5453  1.5636  0.5860
 1840SOL    HW216980   4.455   3.455   6.020  1.8325  3.7768  2.0562
 1841SOL     OW16981   1.056   0.180  14.557 -0.4911 -0.0781 -0.0017
 1841SOL    HW116982   1.063   0.124  14.634  1.7037 -1.2920 -1.0871
 1841SOL    HW216983   0.993   0.129  14.507  1.6628 -3.4143  0.6973
 1842SOL     OW16984   3.328   1.031   3.256 -0.4143 -0.0997  0.2251
 1842SOL    HW116985   3.296   1.121   3.248  0.9574  0.4413  0.7477
 1842SOL    HW216986   3.366   1.028   3.169  1.8490  0.6806  1.1860
 1843SOL     OW16987   3.103   4.695  11.935 -0.6161  0.7830  0.2583
 1843SOL    HW116988   3.161   0.037  11.899  2.1041 -0.8083  1.7121
 1843SOL    HW216989   3.085   4.644  11.857 -2.3784 -0.7325  1.6480
 1844SOL     OW16990   4.377   1.285   2.641  0.2431 -0.0781  0.6962
 1844SOL    HW116991   4.335   1.344   2.578 -0.8788 -1.2132  0.3938
 1844SOL    HW216992   4.467   1.319   2.649  1.0407 -2.4180  1.6456
 1845SOL     OW16993   4.696   0.151   0.984  0.1203  0.6216  0.3117
 1845SOL    HW116994   0.001   0.228   0.935 -0.6619  0.7537  0.0448
 1845SOL    HW216995   0.055   0.130   1.025  0.2696 -1.4408 -1.0645
 1846SOL     OW16996   2.356   1.281   6.859 -0.1263  0.2836  0.5261
 1846SOL    HW116997   2.341   1.202   6.911  1.0632  0.1866  0.7112
 1846SOL    HW216998   2.321   1.348   6.917 -0.8613 -1.1273  1.7096
 1847SOL     OW16999   4.084   0.525   5.890 -0.1044  0.5292  0.1434
 1847SOL    HW117000   4.010   0.467   5.905 -2.4369  3.0962 -1.3794
 1847SOL    HW217001   4.152   0.458   5.892 -1.1501 -0.5840 -1.9834
 1848SOL     OW17002   2.180   2.778   8.143 -0.4405  0.5159  0.0177
 1848SOL    HW117003   2.224   2.863   8.149 -0.4275  0.7823 -3.2992
 1848SOL    HW217004   2.108   2.783   8.206 -0.7910 -1.1162 -0.2603
 1849SOL     OW17005   0.563   3.299  13.442 -0.3374  0.3457 -0.5439
 1849SOL    HW117006   0.508   3.350  13.383 -0.6434  0.2996 -0.2965
 1849SOL    HW217007   0.647   3.309  13.398  0.2357  1.0852  0.7274
 1850SOL     OW17008   3.273   1.327  15.339 -0.2542 -0.1799 -0.5730
 1850SOL    HW117009   3.307   1.246  15.377  0.7229 -0.1570 -1.3941
 1850SOL    HW217010   3.263   1.306  15.247 -1.8703 -1.6002 -0.0672
 1851SOL     OW17011   3.308   1.321   4.227 -0.2731  0.6151 -0.1497
 1851SOL    HW117012   3.227   1.286   4.265 -1.0443  0.5930 -1.8013
 1851SOL    HW217013   3.369   1.323   4.300  1.2826 -1.0386 -1.3878
 1852SOL     OW17014   1.356   1.317  12.462  0.1792 -0.2940  0.1905
 1852SOL    HW117015   1.268   1.289  12.487 -0.7147  3.1459  0.9621
 1852SOL    HW217016   1.333   1.404  12.430  1.2900 -1.0047 -2.5291
 1853SOL     OW17017   3.654   3.181  10.153 -0.3480  0.0424  0.0073
 1853SOL    HW117018   3.719   3.245  10.123  2.9630 -2.5040  1.6989
 1853SOL    HW217019   3.634   3.128  10.076 -1.1237  0.1691  0.1310
 1854SOL     OW17020   1.775   4.365   7.027  0.4320 -0.0541 -0.4040
 1854SOL    HW117021   1.776   4.386   7.120  0.5292  0.1265 -0.4464
 1854SOL    HW217022   1.857   4.318   7.014 -0.6823 -2.0747 -0.0670
 1855SOL     OW17023   1.683   3.177   0.214 -0.4032  0.1411 -0.4109
 1855SOL    HW117024   1.779   3.169   0.212 -0.5163 -0.6774 -3.4758
 1855SOL    HW217025   1.647   3.108   0.270 -1.7210  0.9397 -0.2925
 1856SOL     OW17026   1.482   4.506   2.064  0.0527 -0.9962  0.2386
 1856SOL    HW117027   1.424   4.577   2.038 -1.0844 -1.3233  1.8894
 1856SOL    HW217028   1.424   4.441   2.023 -1.8574  1.2299 -0.5612
 1857SOL     OW17029   2.667   0.945   2.351  0.1388  0.0524 -0.2691
 1857SOL    HW117030   2.683   0.901   2.435  1.2735 -0.2871 -0.6685
 1857SOL    HW217031   2.749   0.992   2.338  0.3426 -0.1671  0.2097
 1858SOL     OW17032   0.264   3.824   2.125  0.4527  0.4743 -0.0420
 1858SOL    HW117033   0.341   3.859   2.170 -0.2389  2.3957 -0.3462
 1858SOL    HW217034   0.235   3.895   2.067 -0.4991 -0.6232 -0.9009
 1859SOL     OW17035   3.236   2.096   3.644  0.0733 -0.2283 -0.0816
 1859SOL    HW117036   3.283   2.036   3.701  1.9343 -0.7952 -2.2467
 1859SOL    HW217037   3.198   2.162   3.702  0.8217 -1.1579  1.4682
 1860SOL     OW17038   1.816   1.031   5.179  0.6917  0.2626  0.5903
 1860SOL    HW117039   1.840   1.120   5.204 -2.5506  1.5785 -1.0894
 1860SOL    HW217040   1.881   0.979   5.227 -0.4353 -2.6432 -1.0589
 1861SOL     OW17041   0.429   3.607  14.051  0.1164 -0.1521 -0.3922
 1861SOL    HW117042   0.369   3.536  14.072  0.3775 -0.1059  0.5126
 1861SOL    HW217043   0.490   3.598  14.125 -0.7640 -0.7526  0.2635
 1862SOL     OW17044   4.049   4.497   1.090 -0.2868 -0.0051 -0.3026
 1862SOL    HW117045   3.971   4.482   1.036  1.0273 -1.5660 -1.7422
 1862SOL    HW217046   4.089   4.411   1.076 -0.4443  0.2130 -2.1031
 1863SOL     OW17047   2.956   1.389  15.443  0.4864 -0.2319 -0.3037
 1863SOL    HW117048   3.031   1.350  15.398  0.1169 -0.9394 -0.2961
 1863SOL    HW217049   2.947   1.334  15.521 -0.6333 -1.6173 -1.4183
 1864SOL     OW17050   2.823   0.398  14.867 -0.4160  0.0682  0.3884
 1864SOL    HW117051   2.786   0.436  14.787 -0.4814  0.8685  0.8064
 1864SOL    HW217052   2.741   0.400  14.916  0.3106 -1.8119  1.6458
 1865SOL     OW17053   2.157   1.051   9.954  0.1910  0.0597  0.4424
 1865SOL    HW117054   2.131   0.960   9.965 -0.3633 -0.0096 -1.3712
 1865SOL    HW217055   2.113   1.100  10.024 -0.0099  0.6975 -0.1243
 1866SOL     OW17056   0.595   1.889   6.825  0.6661 -0.1687 -1.1189
 1866SOL    HW117057   0.555   1.929   6.748  0.6516 -0.8287 -1.4528
 1866SOL    HW217058   0.671   1.844   6.788  0.8254 -1.3413  0.6053
 1867SOL     OW17059   1.368   4.632   9.339 -0.2553 -0.4477  0.6849
 1867SOL    HW117060   1.354   4.720   9.374  2.6822 -0.0179  0.7960
 1867SOL    HW217061   1.298   4.578   9.375 -2.3918  2.5786  0.9664
 1868SOL     OW17062   4.708   3.647  16.768  0.2173  0.5222  0.2847
 1868SOL    HW117063   0.066   3.601  16.786  1.8334  2.5774 -1.9458
 1868SOL    HW217064   4.649   3.571  16.768 -0.6344  1.1914 -0.3367
 1869SOL     OW17065   3.181   2.994   3.392 -0.0393 -0.1530 -0.3100
 1869SOL    HW117066   3.218   3.053   3.458  1.2130 -0.7627 -0.4847
 1869SOL    HW217067   3.132   2.937   3.451 -0.3779 -0.5886 -1.0229
 1870SOL     OW17068   2.199   1.656  10.889 -0.2261  0.4690 -0.2127
 1870SOL    HW117069   2.230   1.713  10.959  0.6275  0.4582 -0.5806
 1870SOL    HW217070   2.105   1.663  10.905 -0.7189 -0.0670 -2.9319
 1871SOL     OW17071   2.674   0.595  12.617 -0.0237 -0.0378 -0.3775
 1871SOL    HW117072   2.666   0.519  12.560  1.0804 -1.1996  0.9971
 1871SOL    HW217073   2.622   0.564  12.691  1.1707  0.2035  0.5854
 1872SOL     OW17074   1.560   1.301   6.393  0.1789  0.2979  0.2319
 1872SOL    HW117075   1.537   1.215   6.428  0.2685  0.2149  0.0845
 1872SOL    HW217076   1.620   1.287   6.320 -1.1660  0.4527 -0.9188
 1873SOL     OW17077   2.847   3.971   6.018  0.2457 -0.5434  0.1282
 1873SOL    HW117078   2.899   4.032   5.966  0.3150 -0.8315 -0.1472
 1873SOL    HW217079   2.892   3.976   6.102  0.0794 -3.0840  0.3729
 1874SOL     OW17080   0.539   3.320   8.068 -0.7309 -0.0972 -0.0370
 1874SOL    HW117081   0.632   3.316   8.088 -0.2175  0.5601 -2.2857
 1874SOL    HW217082   0.531   3.411   8.038 -1.4985 -0.1692 -0.0454
 1875SOL     OW17083   1.797   0.010  13.886 -0.6895  0.0001 -0.4632
 1875SOL    HW117084   1.771   0.100  13.864 -2.8739 -0.6911 -0.7048
 1875SOL    HW217085   1.711   4.707  13.918 -0.3201 -0.9940 -0.3222
 1876SOL     OW17086   2.537   1.820  14.842  0.5458 -0.3099  0.5720
 1876SOL    HW117087   2.495   1.743  14.804  1.8929 -1.7216  1.9278
 1876SOL    HW217088   2.511   1.881  14.772 -0.4922  1.8713  2.8498
 1877SOL     OW17089   3.693   3.299  17.544 -0.5157 -0.2629  0.2262
 1877SOL    HW117090   3.721   3.390  17.557  2.5504 -1.3477  1.2601
 1877SOL    HW217091   3.780   3.262  17.559  0.5884  2.1421 -0.1536
 1878SOL     OW17092   3.020   2.620   6.852  0.1299  0.4113 -0.0897
 1878SOL    HW117093   3.077   2.550   6.819  5.2751  2.8196  3.6031
 1878SOL    HW217094   2.943   2.567   6.874 -0.9140  2.3028  0.7556
 1879SOL     OW17095   2.804   3.422   1.216 -0.1462  0.5910  0.6016
 1879SOL    HW117096   2.829   3.514   1.225  1.5583  0.4932 -3.0368
 1879SOL    HW217097   2.883   3.391   1.172 -0.1545 -1.2182  1.8443
 1880SOL     OW17098   2.228   0.332   6.316 -0.1062 -0.2787  0.0875
 1880SOL    HW117099   2.307   0.278   6.322 -0.7114 -0.9698  1.7906
 1880SOL    HW217100   2.277   0.411   6.340  1.5861 -1.5527  0.8712
 1881SOL     OW17101   4.642   4.536   6.764  0.3080 -0.6601 -0.2003
 1881SOL    HW117102   4.642   4.515   6.670  0.5284 -2.2725  0.1762
 1881SOL    HW217103   4.548   4.555   6.764  0.0425 -1.9958  0.3157
 1882SOL     OW17104   1.845   2.742   1.981  0.2597 -0.4091 -0.1607
 1882SOL    HW117105   1.762   2.715   2.023 -0.0919 -0.6664 -1.0247
 1882SOL    HW217106   1.877   2.656   1.954  0.4330 -0.1160 -0.8836
 1883SOL     OW17107   0.015   1.079   4.038 -0.2999  0.0082 -0.1006
 1883SOL    HW117108   0.066   1.063   4.118 -1.0219  0.8952  0.5408
 1883SOL    HW217109   4.675   1.009   4.039 -0.1944 -0.1006 -1.1639
 1884SOL     OW17110   1.468   4.292   7.932  0.7242  0.9483  0.1578
 1884SOL    HW117111   1.379   4.326   7.931  0.3342 -0.0287  1.5591
 1884SOL    HW217112   1.510   4.339   7.860 -0.1367  0.2584 -0.7993
 1885SOL     OW17113   0.993   3.652  11.257 -0.2038  0.0819  0.1155
 1885SOL    HW117114   0.953   3.606  11.331  0.5591 -1.3046 -0.3433
 1885SOL    HW217115   1.079   3.674  11.293  0.7614  0.0893 -2.2068
 1886SOL     OW17116   1.244   1.898   6.571 -0.7507 -0.3870 -0.0879
 1886SOL    HW117117   1.186   1.822   6.566 -1.1243 -0.2966  2.5870
 1886SOL    HW217118   1.297   1.867   6.497 -0.9438 -1.9784  0.4301
 1887SOL     OW17119   2.702   1.549  11.453 -0.0421 -0.6596 -0.1449
 1887SOL    HW117120   2.698   1.457  11.424  1.9173 -0.7970  0.0566
 1887SOL    HW217121   2.613   1.556  11.487  0.3611 -0.8835  0.9461
 1888SOL     OW17122   0.973   2.347   4.406 -0.3135  0.9266  0.6497
 1888SOL    HW117123   1.038   2.371   4.471 -0.0558 -1.3850  1.2326
 1888SOL    HW217124   1.012   2.264   4.380 -1.9542  1.0162 -2.1405
 1889SOL     OW17125   4.508   1.376  14.924  0.4182 -0.0026 -0.2202
 1889SOL    HW117126   4.508   1.468  14.897 -2.0987  0.4303  1.2336
 1889SOL    HW217127   4.580   1.336  14.876 -0.2439  0.1382 -1.3380
 1890SOL     OW17128   3.870   2.919  14.869 -0.7194 -0.1402  0.3647
 1890SOL    HW117129   3.953   2.918  14.822 -0.3553 -0.3450  1.0036
 1890SOL    HW217130   3.872   3.012  14.892  1.4139 -0.2619  0.6594
 1891SOL     OW17131   4.461   1.682   6.462  0.1257  0.5110  0.0619
 1891SOL    HW117132   4.544   1.710   6.501  0.1695 -0.4360  0.6454
 1891SOL    HW217133   4.481   1.679   6.368 -2.5453  1.3905 -0.5464
 1892SOL     OW17134   4.198   2.457   3.222 -0.5001  0.6395  0.0032
 1892SOL    HW117135   4.229   2.469   3.132 -1.8115 -1.1209 -0.6925
 1892SOL    HW217136   4.277   2.479   3.271  0.3638  0.3329 -1.2331
 1893SOL     OW17137   4.209   2.712   2.084 -0.6586  0.3258 -0.1729
 1893SOL    HW117138   4.209   2.778   2.153  0.5705 -0.3496  0.4675
 1893SOL    HW217139   4.234   2.748   1.999  0.1666 -0.5327 -0.2890
 1894SOL     OW17140   3.811   0.570   6.903  0.0643 -0.2766  0.2132
 1894SOL    HW117141   3.787   0.641   6.963  1.0911  0.7466 -0.5702
 1894SOL    HW217142   3.817   0.615   6.819  0.5071  0.7948  0.8028
 1895SOL     OW17143   2.300   0.783   7.651 -0.2836  0.6382  0.5248
 1895SOL    HW117144   2.394   0.800   7.657  0.0269 -1.3172  1.2372
 1895SOL    HW217145   2.280   0.767   7.559  1.1021  1.2338  0.1234
 1896SOL     OW17146   2.384   0.053  14.462  0.3116 -0.1797 -0.3244
 1896SOL    HW117147   2.414   4.689  14.441  2.4595  0.2787  0.8114
 1896SOL    HW217148   2.289   0.051  14.454  0.3051  0.9216 -0.5515
 1897SOL     OW17149   0.602   4.213   5.214 -0.3913  0.5982 -0.5574
 1897SOL    HW117150   0.582   4.260   5.295  0.9162  1.4214 -0.7107
 1897SOL    HW217151   0.522   4.226   5.163  0.0149 -1.1618 -1.6316
 1898SOL     OW17152   1.693   3.404   7.767  0.5903 -0.3036  0.1823
 1898SOL    HW117153   1.685   3.378   7.675  1.5123  0.8403 -0.2347
 1898SOL    HW217154   1.606   3.426   7.799  0.9208  0.5782  0.4900
 1899SOL     OW17155   0.784   1.403   3.829  0.2797  0.2191  0.3682
 1899SOL    HW117156   0.778   1.343   3.755 -0.1282 -1.2650  1.5820
 1899SOL    HW217157   0.750   1.353   3.903 -0.6570  2.3166  1.3591
 1900SOL     OW17158   1.390   4.310  17.442 -0.2206 -0.2131  0.3478
 1900SOL    HW117159   1.341   4.236  17.477  1.5897 -2.0606 -0.9985
 1900SOL    HW217160   1.350   4.388  17.479  2.1924  0.9699  0.4508
 1901SOL     OW17161   4.045   0.242   2.989  0.3781  0.4265  0.2726
 1901SOL    HW117162   4.132   0.278   2.974  0.3427  0.7024  0.7528
 1901SOL    HW217163   4.057   0.157   2.946 -0.3276 -0.6203  2.1155
 1902SOL     OW17164   0.465   1.424   9.947 -0.3454 -0.3890  0.1601
 1902SOL    HW117165   0.519   1.432   9.869 -1.4357 -1.0505 -0.6567
 1902SOL    HW217166   0.483   1.507   9.990 -0.1740 -0.7315  0.7556
 1903SOL     OW17167   0.327   4.038  16.133 -0.5294  0.4705  0.4577
 1903SOL    HW117168   0.281   4.076  16.059  1.2761 -0.8485 -1.3332
 1903SOL    HW217169   0.343   4.117  16.186  1.9368  0.4451 -0.2635
 1904SOL     OW17170   0.604   2.281   4.564 -0.1158 -0.2211  0.1985
 1904SOL    HW117171   0.610   2.240   4.650 -0.1575  0.2052  0.4010
 1904SOL    HW217172   0.586   2.202   4.513  0.4383  0.0391 -0.3964
 1905SOL     OW17173   1.010   1.659  12.456  0.0140 -1.0589  0.3976
 1905SOL    HW117174   0.933   1.637  12.507  0.7162  0.8598  2.2826
 1905SOL    HW217175   0.970   1.708  12.385  0.9503 -0.2264  0.4400
 1906SOL     OW17176   2.903   4.686   4.372  0.5331 -0.0526 -0.2975
 1906SOL    HW117177   2.844   0.032   4.345  1.3634  0.2542 -1.2994
 1906SOL    HW217178   2.942   4.685   4.285  0.8972 -2.0752 -0.1139
 1907SOL     OW17179   1.224   1.536   4.310 -0.2994 -0.8189 -0.3269
 1907SOL    HW117180   1.241   1.598   4.381 -2.9488  0.3020 -0.6609
 1907SOL    HW217181   1.129   1.529   4.317 -0.4100 -0.3239 -1.4162
 1908SOL     OW17182   1.285   2.588   9.194  0.0909 -0.1839 -0.7100
 1908SOL    HW117183   1.362   2.533   9.181  0.2929  0.9009 -4.1118
 1908SOL    HW217184   1.229   2.543   9.257  3.3715  0.5281  2.7021
 1909SOL     OW17185   2.772   2.029   5.548 -0.1544 -0.1167  0.2596
 1909SOL    HW117186   2.859   2.065   5.566 -0.9767  1.0762  1.8996
 1909SOL    HW217187   2.781   2.012   5.454  2.4002 -0.2686  0.5413
 1910SOL     OW17188   0.894   1.603   8.651 -0.2579  1.1124 -0.0157
 1910SOL    HW117189   0.824   1.644   8.700  0.4039  0.9837  1.0298
 1910SOL    HW217190   0.940   1.552   8.719 -0.6214  2.8366  1.4988
 1911SOL     OW17191   3.997   2.690   4.685  0.0808  0.4998 -0.2485
 1911SOL    HW117192   3.990   2.760   4.749 -2.8083  0.2151 -0.2655
 1911SOL    HW217193   4.077   2.642   4.710  0.8709  1.6994 -0.4715
 1912SOL     OW17194   2.342   4.028  14.036 -0.3919 -0.1259  0.0305
 1912SOL    HW117195   2.247   4.033  14.025 -0.1418  0.1909 -2.1755
 1912SOL    HW217196   2.363   4.121  14.023 -2.0808  0.6036  2.5578
 1913SOL     OW17197   1.056   1.145   1.878  0.0993  0.1271  0.5223
 1913SOL    HW117198   1.110   1.087   1.931  1.4398  0.0632 -0.9121
 1913SOL    HW217199   1.065   1.120   1.786  1.2424  2.6952 -0.0364
 1914SOL     OW17200   4.086   2.261   5.620  0.4241  0.6565  0.2999
 1914SOL    HW117201   4.088   2.270   5.524 -1.3903  1.1162  0.3023
 1914SOL    HW217202   4.177   2.232   5.632  0.0005 -0.2909  1.1586
 1915SOL     OW17203   1.961   2.852  13.639  0.4843 -0.0138 -0.2355
 1915SOL    HW117204   1.878   2.810  13.613 -0.1823  0.3345  1.3256
 1915SOL    HW217205   1.932   2.928  13.691 -0.2164 -0.8681  0.6430
 1916SOL     OW17206   3.787   2.550   8.766 -0.0050 -0.4827 -0.1660
 1916SOL    HW117207   3.832   2.492   8.828 -1.4770 -0.4458  0.9332
 1916SOL    HW217208   3.704   2.569   8.808  0.9271 -2.3120  2.4765
 1917SOL     OW17209   3.163   3.935   1.945  0.1768 -0.5866 -0.8228
 1917SOL    HW117210   3.132   3.845   1.935 -1.3234  0.0227 -1.5869
 1917SOL    HW217211   3.258   3.920   1.951 -0.0204 -0.6865  2.1079
 1918SOL     OW17212   0.393   3.446   6.990  0.5065  0.6144  0.5358
 1918SOL    HW117213   0.461   3.514   6.999 -0.2275  1.2913  0.9421
 1918SOL    HW217214   0.341   3.463   7.069 -0.9266  0.6351 -0.4174
 1919SOL     OW17215   3.601   1.086   8.666 -0.2690  0.0955 -0.2549
 1919SOL    HW117216   3.682   1.036   8.674 -0.9764 -1.3744 -2.2138
 1919SOL    HW217217   3.580   1.120   8.752  0.6395  0.9788 -0.3782
 1920SOL     OW17218   1.668   3.585   3.473 -0.0441  0.4322 -0.4067
 1920SOL    HW117219   1.675   3.672   3.513 -3.8095  0.5037  0.0383
 1920SOL    HW217220   1.591   3.548   3.517 -0.4783  0.9126 -0.7663
 1921SOL     OW17221   1.371   2.880   2.262  0.1262 -0.3927 -0.3422
 1921SOL    HW117222   1.395   2.868   2.170 -0.8089  1.0456 -0.7792
 1921SOL    HW217223   1.451   2.857   2.310 -0.2836 -0.2172  0.4270
 1922SOL     OW17224   3.853   1.504   5.175  0.1503  0.3805  0.5143
 1922SOL    HW117225   3.797   1.569   5.132 -0.1294 -0.1885  0.0263
 1922SOL    HW217226   3.875   1.558   5.251 -0.4204 -1.5419  2.0476
 1923SOL     OW17227   4.027   1.200   2.411 -0.6094 -0.0107 -0.2049
 1923SOL    HW117228   3.997   1.267   2.472  2.9421  0.4664  0.9991
 1923SOL    HW217229   4.005   1.114   2.447 -1.2397  0.2859  0.1094
 1924SOL     OW17230   1.802   0.607   6.840 -0.0817 -0.0331  0.0182
 1924SOL    HW117231   1.797   0.525   6.888  1.0603  0.0391  0.2676
 1924SOL    HW217232   1.758   0.674   6.893  1.3336  1.6192 -0.8545
 1925SOL     OW17233   3.777   3.079  16.405 -0.1384  0.3172  0.0601
 1925SOL    HW117234   3.864   3.067  16.444 -0.0273  1.3950  0.1332
 1925SOL    HW217235   3.747   3.167  16.425  0.1449  0.3422  0.3663
 1926SOL     OW17236   4.009   1.748   8.883 -0.1389  0.1423 -0.1604
 1926SOL    HW117237   4.073   1.684   8.912 -1.4841 -1.4070 -0.6089
 1926SOL    HW217238   4.018   1.819   8.948  1.2527 -0.7297  0.5966
 1927SOL     OW17239   2.064   2.443   8.168  0.5524  0.9664 -0.6095
 1927SOL    HW117240   1.991   2.389   8.140  1.3274 -0.2518 -0.2675
 1927SOL    HW217241   2.016   2.514   8.212 -1.7120  0.2786 -2.0027
 1928SOL     OW17242   2.181   1.490   8.900  0.0101 -0.3937 -0.4039
 1928SOL    HW117243   2.255   1.431   8.890 -0.0686 -0.4255 -0.8147
 1928SOL    HW217244   2.110   1.425   8.907 -1.5415  1.2789 -0.4722
 1929SOL     OW17245   3.132   0.303   2.467 -0.4735 -0.4851  0.1489
 1929SOL    HW117246   3.115   0.389   2.426 -0.1338  0.9569  3.0334
 1929SOL    HW217247   3.146   0.252   2.387  0.2806 -0.9010  0.5469
 1930SOL     OW17248   1.595   1.907   4.693 -0.7840 -0.2420  0.3857
 1930SOL    HW117249   1.593   1.912   4.789 -1.0581  0.5040  0.3361
 1930SOL    HW217250   1.674   1.854   4.682 -0.9424  0.0378 -2.0324
 1931SOL     OW17251   2.775   0.241   8.072 -0.1982  0.7426 -0.4313
 1931SOL    HW117252   2.684   0.266   8.088 -0.2191  0.2629  0.2248
 1931SOL    HW217253   2.754   0.194   7.991 -1.4096 -1.0643  0.9237
 1932SOL     OW17254   1.335   4.019  14.938 -0.2444 -0.2659  0.0086
 1932SOL    HW117255   1.420   3.994  14.974 -0.0330 -1.6954 -1.4795
 1932SOL    HW217256   1.331   3.951  14.871  1.2619  0.9490 -1.3046
 1933SOL     OW17257   1.262   0.954   2.027  0.4068  0.6263 -0.0047
 1933SOL    HW117258   1.338   1.008   2.006 -0.9856  2.1903 -0.9916
 1933SOL    HW217259   1.292   0.868   2.000 -1.7480  0.5095 -1.9552
 1934SOL     OW17260   1.902   0.890  17.555  0.1916  0.0452 -0.0284
 1934SOL    HW117261   1.966   0.856  17.618 -1.0825 -0.6700  0.8853
 1934SOL    HW217262   1.884   0.806  17.513  2.8428 -0.1070 -0.8630
 1935SOL     OW17263   4.549   1.118  13.878 -0.0944  0.0711  0.1602
 1935SOL    HW117264   4.506   1.080  13.802  1.7379 -2.1975  0.2604
 1935SOL    HW217265   4.536   1.212  13.868  1.9017  0.4538  1.1020
 1936SOL     OW17266   3.020   4.140  13.598 -0.3300  0.2055 -0.0919
 1936SOL    HW117267   3.104   4.097  13.582  0.1817  0.6417  1.4159
 1936SOL    HW217268   2.989   4.091  13.674 -0.1735 -0.8716 -0.7250
 1937SOL     OW17269   2.737   2.933  14.597  0.3905 -0.0505  0.3412
 1937SOL    HW117270   2.735   2.854  14.650 -0.3970 -0.5011 -0.3637
 1937SOL    HW217271   2.832   2.947  14.604  0.2838  0.5556  0.6242
 1938SOL     OW17272   1.040   3.980   6.352 -0.2805 -0.1815 -0.2419
 1938SOL    HW117273   1.058   4.072   6.330  2.0987 -0.6510 -0.2360
 1938SOL    HW217274   1.103   3.959   6.420 -0.2388 -1.3585 -0.6553
 1939SOL     OW17275   3.837   0.838   6.740 -0.1756 -0.3571 -0.5483
 1939SOL    HW117276   3.808   0.928   6.726 -0.5136 -0.6543 -1.6902
 1939SOL    HW217277   3.865   0.840   6.832 -2.4479  0.7226  0.1078
 1940SOL     OW17278   0.730   4.542   3.727  0.5650 -0.2016 -0.0623
 1940SOL    HW117279   0.699   4.609   3.667  1.7822  0.7696  0.3845
 1940SOL    HW217280   0.694   4.559   3.814 -1.3463 -0.7201 -0.7644
 1941SOL     OW17281   1.523   4.194   9.115 -0.7609  0.0322  0.2976
 1941SOL    HW117282   1.586   4.265   9.101 -1.7247  0.3834 -2.3999
 1941SOL    HW217283   1.446   4.242   9.147  0.1256  1.9720 -0.4499
 1942SOL     OW17284   2.124   3.188  15.272 -0.2984 -0.0604  0.2018
 1942SOL    HW117285   2.033   3.216  15.260  0.2065  1.4169 -0.2279
 1942SOL    HW217286   2.159   3.166  15.186  0.1458 -0.7934  0.5675
 1943SOL     OW17287   4.707   0.433   5.488 -0.0553  0.2880  0.1625
 1943SOL    HW117288   0.032   0.351   5.488 -4.1554 -2.2231 -2.3690
 1943SOL    HW217289   4.723   0.464   5.577  2.2782 -3.0449  0.8878
 1944SOL     OW17290   0.513   3.061  15.328  0.6325  0.3857 -0.2839
 1944SOL    HW117291   0.601   3.038  15.356  0.2179  0.5590  1.1758
 1944SOL    HW217292   0.466   2.983  15.357 -2.9011  2.0422 -1.5106
 1945SOL     OW17293   2.191   2.234   5.441  0.0033  0.7087 -0.4694
 1945SOL    HW117294   2.168   2.197   5.526  3.4091 -4.2889 -1.7505
 1945SOL    HW217295   2.197   2.163   5.378  1.1639  0.8568 -0.5106
 1946SOL     OW17296   1.560   2.861  12.524  0.5304  0.2761  0.2739
 1946SOL    HW117297   1.576   2.771  12.497 -1.7635 -0.0211 -0.0419
 1946SOL    HW217298   1.646   2.891  12.555  1.0209 -1.6641  0.7983
 1947SOL     OW17299   1.096   1.602  15.340  0.1470 -0.2751  0.1152
 1947SOL    HW117300   1.175   1.598  15.286 -0.1421 -0.0068 -0.3303
 1947SOL    HW217301   1.048   1.519  15.333  1.2911 -0.8012 -1.4659
 1948SOL     OW17302   1.072   3.191  15.012 -0.6583  0.4702  0.8598
 1948SOL    HW117303   1.167   3.202  15.003 -0.8085  0.1479 -1.1011
 1948SOL    HW217304   1.053   3.136  14.936  1.9821 -2.4447  2.2971
 1949SOL     OW17305   2.816   1.156  13.066  0.3809  0.2985 -0.0853
 1949SOL    HW117306   2.804   1.125  12.977  1.8810 -0.0755 -0.1513
 1949SOL    HW217307   2.757   1.230  13.052 -1.3100 -1.2550 -1.1046
 1950SOL     OW17308   1.166   4.414   3.412 -0.3400  0.6007  0.2522
 1950SOL    HW117309   1.074   4.433   3.396 -0.2077  0.4195 -0.7270
 1950SOL    HW217310   1.194   4.378   3.328 -0.7641  0.7261  0.0605
 1951SOL     OW17311   4.567   2.180   7.618  0.1016  0.5609 -0.3071
 1951SOL    HW117312   4.533   2.182   7.707  1.0614 -1.3306  0.1137
 1951SOL    HW217313   4.496   2.197   7.556 -2.0994  2.4133  2.7426
 1952SOL     OW17314   0.684   0.583   3.082  0.2040  0.1766 -0.4572
 1952SOL    HW117315   0.621   0.542   3.142  1.5800  1.9770  2.1844
 1952SOL    HW217316   0.736   0.505   3.066 -0.0032  0.1928 -1.2079
 1953SOL     OW17317   3.106   3.679   8.889  0.2650 -0.5496  0.0861
 1953SOL    HW117318   3.125   3.716   8.975 -0.5234  0.1798 -0.0589
 1953SOL    HW217319   3.189   3.702   8.847 -0.2698  2.1329  0.4778
 1954SOL     OW17320   4.232   3.003   8.643 -0.0176  0.0957 -0.1672
 1954SOL    HW117321   4.182   3.066   8.591  0.4001  0.7185  0.1866
 1954SOL    HW217322   4.165   2.956   8.693  0.1177  0.5770  0.4585
 1955SOL     OW17323   0.060   3.393   3.502 -0.0314  0.4605  0.2514
 1955SOL    HW117324   0.154   3.397   3.486 -0.2449  1.7662 -0.7878
 1955SOL    HW217325   0.059   3.442   3.584  1.6095 -0.2083  0.6682
 1956SOL     OW17326   0.274   0.725  17.506 -0.2094 -0.0445  0.7523
 1956SOL    HW117327   0.310   0.794  17.450 -0.6744  0.0435  0.5574
 1956SOL    HW217328   0.249   0.668  17.433  1.1086 -1.7510  1.6423
 1957SOL     OW17329   2.707   0.615  10.902  0.0720  0.8729 -0.4363
 1957SOL    HW117330   2.756   0.653  10.829  1.7369 -0.2101  0.1233
 1957SOL    HW217331   2.738   0.673  10.972 -0.1613  2.2470 -1.4588
 1958SOL     OW17332   0.477   3.892   2.658 -0.3030  0.0341 -0.4835
 1958SOL    HW117333   0.532   3.856   2.729 -0.3265 -1.3872 -1.1742
 1958SOL    HW217334   0.536   3.951   2.612 -1.8478  1.4042 -0.6836
 1959SOL     OW17335   3.375   0.562   2.452  0.2904  0.8040 -0.0475
 1959SOL    HW117336   3.318   0.559   2.529 -0.4340  0.8536 -0.5765
 1959SOL    HW217337   3.429   0.635   2.482  2.2434 -0.3859 -0.6621
 1960SOL     OW17338   0.412   0.858   5.447  0.1744 -0.6166  0.4428
 1960SOL    HW117339   0.339   0.814   5.492  0.9234 -1.8471  0.4466
 1960SOL    HW217340   0.485   0.799   5.463  0.3455 -0.3622  0.5825
 1961SOL     OW17341   2.623   2.320   3.386 -0.2360 -0.2456  0.0705
 1961SOL    HW117342   2.606   2.414   3.378 -0.6643 -0.3707 -0.4536
 1961SOL    HW217343   2.718   2.322   3.396 -0.0985 -1.3494 -1.0580
 1962SOL     OW17344   1.075   3.977   1.589 -0.8935 -0.0990 -0.1569
 1962SOL    HW117345   1.110   4.056   1.631 -2.6948  0.7596 -0.2713
 1962SOL    HW217346   1.028   3.932   1.660  0.1381 -0.3657  0.3631
 1963SOL     OW17347   3.936   3.858  15.972 -0.4508  0.2816  0.5542
 1963SOL    HW117348   3.982   3.774  15.971 -1.5952 -0.3414  0.3559
 1963SOL    HW217349   3.938   3.886  15.880 -1.5181  0.3526  0.5446
 1964SOL     OW17350   2.720   2.558   9.226 -0.3163 -0.4091 -1.2598
 1964SOL    HW117351   2.753   2.492   9.165  1.5050  0.7038 -1.4665
 1964SOL    HW217352   2.667   2.502   9.282  0.7796 -2.3800 -2.1961
 1965SOL     OW17353   4.265   0.019   1.868  0.6305 -0.1899  0.5585
 1965SOL    HW117354   4.196   0.071   1.908 -1.6687 -1.1207 -2.2664
 1965SOL    HW217355   4.296   0.068   1.792 -1.2672 -0.6708 -0.5149
 1966SOL     OW17356   3.692   4.040  10.282 -0.4716  0.1515 -0.0298
 1966SOL    HW117357   3.706   4.077  10.369 -0.0496  1.6829 -0.7345
 1966SOL    HW217358   3.606   4.078  10.269 -0.3831 -0.3305 -2.0988
 1967SOL     OW17359   0.177   0.492   6.240 -0.4013 -0.4398  0.0629
 1967SOL    HW117360   0.246   0.432   6.270  0.6967  1.5889  1.5800
 1967SOL    HW217361   0.179   0.555   6.311  1.8090  0.6473 -0.9603
 1968SOL     OW17362   1.991   3.147   6.532  0.1464 -0.5221 -0.4563
 1968SOL    HW117363   1.907   3.189   6.549  1.3408  1.5297  0.2774
 1968SOL    HW217364   2.007   3.130   6.625 -1.8137  0.7041  0.0942
 1969SOL     OW17365   2.627   0.128   8.694 -0.4967 -0.2918  0.1877
 1969SOL    HW117366   2.539   0.153   8.723 -0.1651 -1.2910  2.0082
 1969SOL    HW217367   2.685   0.178   8.751 -1.2783 -1.4940  2.0032
 1970SOL     OW17368   3.984   4.171   3.017 -0.2742  0.1039  0.3935
 1970SOL    HW117369   3.979   4.123   3.100 -1.6317 -3.0404 -1.5166
 1970SOL    HW217370   3.951   4.111   2.950  1.6288  0.9611 -1.3088
 1971SOL     OW17371   2.590   1.950  11.556 -0.0362  0.2952  0.6026
 1971SOL    HW117372   2.683   1.970  11.547  0.2780 -1.9343 -0.9952
 1971SOL    HW217373   2.582   1.906  11.641 -0.0107  2.0351  1.5170
 1972SOL     OW17374   0.214   2.106   6.829 -0.1446 -0.3527 -0.0836
 1972SOL    HW117375   0.242   2.075   6.743 -1.1659 -1.2316 -0.0924
 1972SOL    HW217376   0.120   2.092   6.822 -0.3611  2.1615 -2.0638
 1973SOL     OW17377   2.485   4.085   7.833 -0.0777 -0.3133  1.0873
 1973SOL    HW117378   2.513   4.131   7.754 -3.3525  1.2090  0.8143
 1973SOL    HW217379   2.390   4.088   7.823  0.4097  0.5674 -3.2636
 1974SOL     OW17380   1.417   1.488   0.666  0.8036 -0.2936  0.0623
 1974SOL    HW117381   1.430   1.473   0.760 -1.2332  1.1557  0.5817
 1974SOL    HW217382   1.510   1.498   0.645  0.7909 -0.0205  0.1328
 1975SOL     OW17383   3.432   0.392   9.650  0.8420  0.7927 -0.6547
 1975SOL    HW117384   3.429   0.487   9.654  1.7439  0.8629 -1.9462
 1975SOL    HW217385   3.440   0.375   9.556 -1.2088 -0.4344 -0.6286
 1976SOL     OW17386   3.967   3.703  11.115 -0.5387  0.2447  0.2964
 1976SOL    HW117387   3.953   3.738  11.027  2.5304  2.3783  0.6861
 1976SOL    HW217388   4.014   3.623  11.091  0.2217  0.1246  2.2225
 1977SOL     OW17389   4.102   3.114   8.408  0.2150 -0.3807  0.5501
 1977SOL    HW117390   4.156   3.138   8.333  0.1987 -2.8692 -0.2443
 1977SOL    HW217391   4.014   3.107   8.371  0.4664 -2.5139  0.3447
 1978SOL     OW17392   3.686   2.816  16.252  0.1671 -0.0154 -0.0474
 1978SOL    HW117393   3.701   2.726  16.224  1.0728  0.0680  0.1443
 1978SOL    HW217394   3.723   2.808  16.340 -1.7005  0.0171  0.7348
 1979SOL     OW17395   1.834   1.200  17.331 -0.2075 -0.0592 -0.2203
 1979SOL    HW117396   1.909   1.255  17.354  1.5804 -1.6936 -2.2147
 1979SOL    HW217397   1.799   1.259  17.265  1.2754  1.1689  0.0787
 1980SOL     OW17398   2.493   1.086   2.524  0.1661  0.0511  0.6579
 1980SOL    HW117399   2.491   1.056   2.614  1.3975 -3.6156 -0.5450
 1980SOL    HW217400   2.421   1.041   2.478 -1.6564  0.1542  3.3961
 1981SOL     OW17401   2.988   2.122  11.585  0.6303 -0.4674 -0.5647
 1981SOL    HW117402   3.074   2.082  11.572 -0.0662 -1.9619 -0.5789
 1981SOL    HW217403   2.934   2.044  11.570  0.1705 -0.0989 -0.8343
 1982SOL     OW17404   3.263   0.111   8.820  0.6229 -0.4648 -0.0522
 1982SOL    HW117405   3.298   0.061   8.893 -2.3588  0.3813  1.9520
 1982SOL    HW217406   3.333   0.103   8.755  0.8380  1.3529 -0.0433
 1983SOL     OW17407   4.307   0.973   3.711 -0.2126  0.5468  0.2406
 1983SOL    HW117408   4.231   1.007   3.758 -1.0519 -2.1771  0.9023
 1983SOL    HW217409   4.270   0.910   3.649 -1.7232  1.5673  0.1118
 1984SOL     OW17410   0.562   4.544   5.605 -0.3927 -0.0673  0.0705
 1984SOL    HW117411   0.504   4.571   5.534  0.9748  0.1878 -0.9528
 1984SOL    HW217412   0.604   4.471   5.560 -0.1103  0.6313 -0.7955
 1985SOL     OW17413   4.228   2.319   1.872 -0.5410  0.1675  0.2658
 1985SOL    HW117414   4.158   2.288   1.814 -0.5276 -1.2320  0.9906
 1985SOL    HW217415   4.301   2.264   1.842 -0.3974  0.2652  0.4426
 1986SOL     OW17416   1.142   0.722   6.208  0.5017 -0.5818 -0.0140
 1986SOL    HW117417   1.092   0.776   6.147  0.9292 -0.7818 -0.5414
 1986SOL    HW217418   1.073   0.695   6.269  1.7954  0.2475  1.8175
 1987SOL     OW17419   2.688   2.270   1.480 -0.5681 -0.5147 -0.0271
 1987SOL    HW117420   2.716   2.221   1.403  0.6861  0.6617 -0.3329
 1987SOL    HW217421   2.708   2.358   1.448 -2.6602  0.5879  1.7181
 1988SOL     OW17422   3.606   0.030   1.707 -0.4936 -1.0741 -0.0979
 1988SOL    HW117423   3.519   0.029   1.747 -0.7706 -2.3281 -0.7091
 1988SOL    HW217424   3.599   4.691   1.635  1.5131  0.9157 -2.0210
 1989SOL     OW17425   4.046   1.125  10.547 -0.2907 -0.1376 -0.5330
 1989SOL    HW117426   4.096   1.054  10.506 -0.1205 -0.6844  0.6211
 1989SOL    HW217427   4.104   1.201  10.550 -0.2838 -0.1267 -0.9340
 1990SOL     OW17428   4.641   0.586  17.549 -0.1693  0.2098 -0.3330
 1990SOL    HW117429   4.564   0.628  17.510 -1.7121 -0.8305  1.5189
 1990SOL    HW217430   4.620   0.585  17.643 -0.6991 -0.0019 -0.4520
 1991SOL     OW17431   4.181   3.366   5.669  0.4313 -0.1434  0.2544
 1991SOL    HW117432   4.224   3.299   5.721 -0.0017 -1.2620 -0.8413
 1991SOL    HW217433   4.118   3.312   5.621 -2.4376  1.9408  1.6198
 1992SOL     OW17434   4.591   4.401  14.679  0.5294  0.0616 -0.6156
 1992SOL    HW117435   4.618   4.370  14.593 -2.1580 -0.1503 -1.3819
 1992SOL    HW217436   4.496   4.414  14.671  0.1908  0.5008  3.7691
 1993SOL     OW17437   4.077   0.187   1.950 -0.8024  0.0287 -0.4143
 1993SOL    HW117438   4.012   0.184   1.880  1.0482 -2.0636 -2.0595
 1993SOL    HW217439   4.052   0.272   1.987  1.2965  0.4612  0.0036
 1994SOL     OW17440   4.188   3.134   5.841 -0.0123  0.2063  0.1148
 1994SOL    HW117441   4.142   3.068   5.891 -1.3162  0.6935 -0.4516
 1994SOL    HW217442   4.269   3.132   5.893 -0.0397  2.8605  0.3012
 1995SOL     OW17443   4.592   2.219   2.734  0.4395 -0.0764  0.2650
 1995SOL    HW117444   4.606   2.136   2.688  1.9135  0.1654  0.2667
 1995SOL    HW217445   4.646   2.265   2.670  1.5373  0.2467  1.4213
 1996SOL     OW17446   1.500   0.939  17.366  0.3024 -0.3714 -0.0376
 1996SOL    HW117447   1.557   0.927  17.290 -0.4345  1.4254 -0.9093
 1996SOL    HW217448   1.521   0.864  17.421  0.5406 -0.6091 -0.4544
 1997SOL     OW17449   1.444   3.417   3.873  0.1345  0.7595  0.3711
 1997SOL    HW117450   1.367   3.465   3.905  1.0104  1.6136  1.1867
 1997SOL    HW217451   1.483   3.382   3.953 -0.4546 -0.5806  0.0667
 1998SOL     OW17452   3.490   4.046   3.601  0.3853 -0.2783 -0.3503
 1998SOL    HW117453   3.517   4.050   3.693 -1.8753 -4.2038  0.5066
 1998SOL    HW217454   3.396   4.031   3.610  0.3413  0.1982 -0.0140
 1999SOL     OW17455   2.735   2.361   0.837  0.4611 -0.2442 -0.3730
 1999SOL    HW117456   2.738   2.319   0.751 -0.6480 -0.9272 -0.0748
 1999SOL    HW217457   2.691   2.290   0.884  2.1883 -0.9138  0.2280
 2000SOL     OW17458   0.462   4.310  10.278  0.3020 -0.1398 -0.0719
 2000SOL    HW117459   0.397   4.260  10.228  1.0717  0.1494 -1.3578
 2000SOL    HW217460   0.432   4.301  10.368  0.8311 -1.4544 -0.0248
 2001SOL     OW17461   0.383   1.008   8.052 -0.0515  0.1627 -0.3915
 2001SOL    HW117462   0.432   0.953   8.113  0.9116  0.9492 -0.4556
 2001SOL    HW217463   0.320   0.942   8.021  0.8618 -1.3772  1.0078
 2002SOL     OW17464   0.786   2.960   4.986  0.1867 -0.3899 -0.3126
 2002SOL    HW117465   0.772   3.025   4.917  2.1617  0.1658 -0.2122
 2002SOL    HW217466   0.723   2.894   4.957  1.5135 -1.8583  0.0846
 2003SOL     OW17467   3.062   4.043   6.753  0.1227 -0.6169  0.2840
 2003SOL    HW117468   3.001   3.978   6.787  0.1832 -0.7305  0.1735
 2003SOL    HW217469   3.135   3.984   6.737  1.1173  0.5576  0.4964
 2004SOL     OW17470   1.924   4.159   0.266  0.2209  0.1065 -0.3795
 2004SOL    HW117471   1.904   4.196   0.352  2.3522 -2.6924  1.2970
 2004SOL    HW217472   1.955   4.238   0.222 -0.0764  1.1812  1.3522
 2005SOL     OW17473   4.224   2.267   3.642 -1.0372  0.2129 -0.0671
 2005SOL    HW117474   4.188   2.178   3.644 -2.0428  0.5419 -4.7554
 2005SOL    HW217475   4.168   2.315   3.704  2.0762  1.5774  1.7009
 2006SOL     OW17476   4.194   0.965  17.240 -0.2038  0.2865 -0.4894
 2006SOL    HW117477   4.231   0.986  17.325  1.2866 -0.4357 -0.9574
 2006SOL    HW217478   4.266   0.987  17.180 -0.6731  0.5106 -0.9704
 2007SOL     OW17479   3.224   4.046  14.827 -0.0068  0.0620  0.2154
 2007SOL    HW117480   3.252   4.060  14.737  2.2116 -0.8169  0.7581
 2007SOL    HW217481   3.165   4.120  14.839 -0.0240 -0.0421  0.7914
 2008SOL     OW17482   4.146   0.009   2.361  0.4953  0.6646  0.0451
 2008SOL    HW117483   4.106   4.712   2.277 -0.8727  1.4012  0.5028
 2008SOL    HW217484   4.139   0.105   2.356 -0.8240  0.6113  0.8689
 2009SOL     OW17485   0.935   0.482   6.824  0.0254  0.5635 -0.5336
 2009SOL    HW117486   0.930   0.398   6.871  2.0142  0.6438 -0.2046
 2009SOL    HW217487   0.912   0.538   6.898 -0.1973  2.4023 -2.0079
 2010SOL     OW17488   4.604   0.191   3.044  0.0222  0.0830 -0.1032
 2010SOL    HW117489   4.518   0.149   3.046  0.2134 -0.1388  3.1339
 2010SOL    HW217490   4.625   0.179   2.951  4.4974 -1.7444  1.1635
 2011SOL     OW17491   4.276   0.965  12.221  0.0181  0.0653 -0.3462
 2011SOL    HW117492   4.257   0.883  12.175 -0.5954 -0.3262  0.6088
 2011SOL    HW217493   4.295   0.941  12.311  1.4596 -0.3997 -0.7634
 2012SOL     OW17494   2.217   3.275   8.346 -0.3838  0.2686 -0.1612
 2012SOL    HW117495   2.231   3.320   8.429 -0.0818 -2.6082  1.3428
 2012SOL    HW217496   2.127   3.300   8.328 -0.5382 -0.8386 -0.9143
 2013SOL     OW17497   0.984   1.662   5.368  0.1477  0.0519 -0.2603
 2013SOL    HW117498   0.989   1.615   5.451  0.1129  0.2120 -0.1687
 2013SOL    HW217499   1.029   1.742   5.394  2.2145 -1.0887 -0.3001
 2014SOL     OW17500   4.387   3.632  17.554 -0.4113  0.6948  0.1269
 2014SOL    HW117501   4.404   3.618  17.461 -2.3941  0.8728 -0.2486
 2014SOL    HW217502   4.478   3.615  17.581  0.1044  0.7702 -1.5459
 2015SOL     OW17503   4.325   4.470   1.871 -0.2835  0.4544  0.9698
 2015SOL    HW117504   4.308   4.564   1.876 -1.6280  0.2540  0.3019
 2015SOL    HW217505   4.240   4.432   1.893 -0.5931  0.9278  0.5914
 2016SOL     OW17506   2.976   2.179   2.839  0.4084  0.4307  0.4595
 2016SOL    HW117507   2.880   2.187   2.832  0.6494  2.0516 -1.0526
 2016SOL    HW217508   2.985   2.103   2.781  0.4734  1.3443 -0.7200
 2017SOL     OW17509   1.464   4.511  14.057  0.0048  0.2832 -0.0876
 2017SOL    HW117510   1.461   4.508  14.152 -1.8044 -1.5783 -0.2108
 2017SOL    HW217511   1.371   4.505  14.035  0.5448  0.1389 -2.3778
 2018SOL     OW17512   0.095   3.378  16.610 -0.7091 -0.7987  0.1674
 2018SOL    HW117513   0.111   3.401  16.702  0.6171 -1.5361  0.1101
 2018SOL    HW217514   0.181   3.350  16.582 -0.1846  0.7282  0.2534
 2019SOL     OW17515   4.152   4.217   0.988 -0.0803  0.1852  0.2504
 2019SOL    HW117516   4.160   4.256   0.901  2.7475  1.8615  1.2778
 2019SOL    HW217517   4.243   4.188   0.998 -0.5841 -1.8798 -1.0578
 2020SOL     OW17518   0.898   0.346  10.662 -0.3391 -0.2549 -1.1541
 2020SOL    HW117519   0.901   0.430  10.708  0.5075 -0.3991 -0.9456
 2020SOL    HW217520   0.979   0.302  10.690 -1.5391 -2.2337 -0.8299
 2021SOL     OW17521   0.834   4.164   9.761 -0.3127 -0.2765  0.0072
 2021SOL    HW117522   0.785   4.132   9.685 -0.0458  0.1520 -0.3505
 2021SOL    HW217523   0.866   4.249   9.730  0.9077 -1.1357 -1.0859
 2022SOL     OW17524   0.371   0.824   8.395 -0.8492  0.1794 -0.4550
 2022SOL    HW117525   0.329   0.748   8.434  0.9236 -0.1684  0.7583
 2022SOL    HW217526   0.301   0.835   8.330  1.8826  0.5199 -3.3381
 2023SOL     OW17527   2.843   4.394   4.126 -0.1476 -0.1007 -0.2662
 2023SOL    HW117528   2.840   4.377   4.220 -1.3233  5.2406  0.6343
 2023SOL    HW217529   2.852   4.301   4.103  1.6979  0.6794 -2.7477
 2024SOL     OW17530   3.709   2.001   0.268  0.2846 -0.2387 -0.2595
 2024SOL    HW117531   3.617   2.002   0.241  0.2492 -0.0288 -0.1400
 2024SOL    HW217532   3.712   2.077   0.327 -0.0498 -0.2095 -0.2774
 2025SOL     OW17533   3.671   3.801   5.098  0.9648 -0.5814  0.1830
 2025SOL    HW117534   3.691   3.712   5.070 -0.8280 -1.4348  1.5864
 2025SOL    HW217535   3.643   3.845   5.017  2.7571  0.4417  0.1210
 2026SOL     OW17536   0.356   4.620   9.542 -0.1958 -0.6945  0.1264
 2026SOL    HW117537   0.367   4.558   9.470 -2.0492 -1.5592  0.5866
 2026SOL    HW217538   0.268   4.595   9.572 -1.3198  1.2112 -1.6107
 2027SOL     OW17539   4.663   1.807   2.902 -0.9626 -0.3790  0.2322
 2027SOL    HW117540   4.689   1.870   2.969 -1.9785 -1.0523  1.2494
 2027SOL    HW217541   0.018   1.754   2.892 -0.1544  0.6977  0.9971
 2028SOL     OW17542   0.494   1.406   5.046  0.4006  0.2441 -0.4768
 2028SOL    HW117543   0.488   1.349   5.122 -2.9315  1.2160 -0.0085
 2028SOL    HW217544   0.542   1.478   5.087  2.1652 -0.7063 -0.8637
 2029SOL     OW17545   3.463   3.710   0.303  0.2143  0.7648  0.3248
 2029SOL    HW117546   3.524   3.756   0.246 -0.0667  0.2439 -0.3912
 2029SOL    HW217547   3.525   3.694   0.374 -0.3688 -1.8366  0.2466
 2030SOL     OW17548   3.089   1.363   9.413  0.0250  0.0006 -0.2645
 2030SOL    HW117549   3.107   1.455   9.395 -0.1701  0.0491 -0.2168
 2030SOL    HW217550   3.081   1.371   9.508  2.8841  0.8088 -0.0921
 2031SOL     OW17551   2.588   0.543   6.858  0.5752  0.8203 -0.2346
 2031SOL    HW117552   2.513   0.601   6.851 -0.7039 -0.5912  1.9290
 2031SOL    HW217553   2.596   0.539   6.953  0.0004  0.5233 -0.1996
 2032SOL     OW17554   3.549   0.902   4.454 -0.4221 -0.6480  0.2881
 2032SOL    HW117555   3.551   0.991   4.489 -1.6409 -0.8350  0.8316
 2032SOL    HW217556   3.510   0.928   4.370  0.8730  1.2632  0.2746
 2033SOL     OW17557   1.685   2.070   4.247  0.7420  0.0104  0.3310
 2033SOL    HW117558   1.600   2.028   4.256  0.2752  1.0070  0.5575
 2033SOL    HW217559   1.721   2.004   4.189 -0.1856  0.4903 -0.7899
 2034SOL     OW17560   0.247   1.007  10.667 -0.7647 -0.0345  0.2546
 2034SOL    HW117561   0.326   1.036  10.622 -0.6274 -0.5939  0.1442
 2034SOL    HW217562   0.177   1.063  10.633 -1.1200 -0.6804 -0.0708
 2035SOL     OW17563   2.745   4.521   7.828  0.0821 -0.1139 -0.1861
 2035SOL    HW117564   2.655   4.544   7.850 -0.1933 -2.0418  0.7016
 2035SOL    HW217565   2.759   4.458   7.899  1.0114 -0.1605 -0.4134
 2036SOL     OW17566   2.630   4.705  10.400 -0.6013  0.1152  0.0985
 2036SOL    HW117567   2.724   4.689  10.406 -0.8988 -0.9419  2.0211
 2036SOL    HW217568   2.610   0.012  10.488 -0.5207  0.8376 -0.1426
 2037SOL     OW17569   0.355   4.603   6.933 -0.4204  0.5888  0.1944
 2037SOL    HW117570   0.359   4.689   6.975 -1.4264  1.0473 -0.6543
 2037SOL    HW217571   0.326   4.551   7.009  2.2298  0.5917  1.2048
 2038SOL     OW17572   1.009   1.442   8.864  0.7912 -0.4104 -0.1571
 2038SOL    HW117573   1.087   1.419   8.914 -0.0233  0.2035  1.3805
 2038SOL    HW217574   0.969   1.356   8.853  0.4622 -0.6836  3.2529
 2039SOL     OW17575   4.383   1.754   2.415 -0.1332  0.5960 -0.2232
 2039SOL    HW117576   4.295   1.731   2.384 -0.2387  2.4720 -1.3340
 2039SOL    HW217577   4.376   1.848   2.399  0.5434  0.6219 -0.3778
 2040SOL     OW17578   2.143   3.488   1.765  0.5516  0.0164 -0.7754
 2040SOL    HW117579   2.135   3.583   1.754  1.4132  0.2224  0.2876
 2040SOL    HW217580   2.054   3.461   1.746  0.7140 -1.1351  0.0520
 2041SOL     OW17581   1.986   4.173   6.813  0.1601 -0.0429  0.4681
 2041SOL    HW117582   1.978   4.081   6.836  0.0655 -0.1063  0.1904
 2041SOL    HW217583   2.025   4.216   6.889 -1.2363 -1.5719  2.0529
 2042SOL     OW17584   3.340   1.364   5.727 -0.8225 -0.1767  0.3059
 2042SOL    HW117585   3.265   1.420   5.743 -0.9659  0.4545 -2.6374
 2042SOL    HW217586   3.311   1.286   5.775 -0.6231  1.7620  3.6140
 2043SOL     OW17587   3.043   0.634  13.503 -0.0354  0.4475  0.3325
 2043SOL    HW117588   2.968   0.669  13.550  0.4805  2.7423 -0.5582
 2043SOL    HW217589   3.108   0.693  13.541 -1.1727  1.7323  0.2644
 2044SOL     OW17590   0.127   4.606  13.798  0.1804 -0.9343  0.0193
 2044SOL    HW117591   0.103   4.670  13.865 -3.0777 -0.5270 -1.5393
 2044SOL    HW217592   0.161   4.660  13.727  0.4046 -0.8959  0.1559
 2045SOL     OW17593   0.704   1.023  11.571  0.7485 -0.2808  0.0664
 2045SOL    HW117594   0.709   1.117  11.589 -2.4023 -0.4536  1.8790
 2045SOL    HW217595   0.617   1.019  11.530  0.4239  0.0205  0.7310
 2046SOL     OW17596   1.269   1.562  12.410 -0.7260 -0.0325  0.8822
 2046SOL    HW117597   1.175   1.576  12.425 -0.8672  0.1473 -0.1671
 2046SOL    HW217598   1.304   1.639  12.454 -1.5189  1.0373 -0.3879
 2047SOL     OW17599   2.272   2.129   1.900 -0.4918 -0.5005 -0.2930
 2047SOL    HW117600   2.356   2.142   1.945 -0.2766 -0.2444 -0.7792
 2047SOL    HW217601   2.277   2.192   1.829 -1.7792 -0.1315 -0.0639
 2048SOL     OW17602   3.055   2.037   1.456 -0.0904 -0.1885 -0.1336
 2048SOL    HW117603   3.141   2.076   1.471 -0.1798  0.3735 -1.1236
 2048SOL    HW217604   3.033   1.994   1.539  0.9367  1.4187  0.9567
 2049SOL     OW17605   4.078   2.964   0.350  0.4140  0.2970 -0.2220
 2049SOL    HW117606   4.163   3.002   0.372 -0.9769  1.5022  3.0413
 2049SOL    HW217607   4.104   2.874   0.332  0.5242  0.5917 -1.5421
 2050SOL     OW17608   1.310   4.475   8.583  0.0429 -0.1691  0.1242
 2050SOL    HW117609   1.244   4.410   8.608 -0.2932 -0.4435 -1.4750
 2050SOL    HW217610   1.260   4.535   8.528  0.6472 -0.0201 -0.2631
 2051SOL     OW17611   4.555   1.610   5.194 -0.1361  0.2010 -0.2599
 2051SOL    HW117612   4.525   1.531   5.148 -1.5094  0.3980  0.2989
 2051SOL    HW217613   4.504   1.676   5.147 -0.3165  1.1357  1.2719
 2052SOL     OW17614   3.794   0.971   9.244 -0.2013  0.4321 -0.2368
 2052SOL    HW117615   3.708   0.929   9.247  0.5969 -1.1406  0.7405
 2052SOL    HW217616   3.783   1.037   9.176  1.2431  1.0417  0.1255
 2053SOL     OW17617   1.085   1.070   5.382 -0.2536  0.3363  0.1075
 2053SOL    HW117618   1.028   1.143   5.406 -2.2844 -0.8618 -1.0028
 2053SOL    HW217619   1.084   1.065   5.286  0.7107 -1.1513  0.1757
 2054SOL     OW17620   3.897   1.747  17.522  0.2798 -0.1690  0.0239
 2054SOL    HW117621   3.819   1.695  17.501 -0.6447  1.6990 -1.1536
 2054SOL    HW217622   3.965   1.683  17.543 -1.3891 -2.1448 -0.6857
 2055SOL     OW17623   3.018   1.939   7.304  0.2181 -0.0497  0.5828
 2055SOL    HW117624   3.033   1.975   7.392 -0.2378  0.8749  0.2828
 2055SOL    HW217625   2.978   2.011   7.255 -3.2738 -1.9498  0.6727
 2056SOL     OW17626   1.371   2.749  16.319  0.2175  0.2913  0.0659
 2056SOL    HW117627   1.373   2.844  16.312  0.9410  0.4008  1.6646
 2056SOL    HW217628   1.449   2.725  16.370 -0.8734  0.8492  2.0129
 2057SOL     OW17629   3.122   0.848  13.672 -0.0987  0.8289  0.3847
 2057SOL    HW117630   3.072   0.861  13.752 -1.4753  0.1570 -0.3654
 2057SOL    HW217631   3.181   0.777  13.696 -3.2229 -2.4121 -1.6400
 2058SOL     OW17632   3.978   2.876   8.946 -0.4144  0.7887  0.9010
 2058SOL    HW117633   3.910   2.937   8.921 -0.3478  0.2147 -0.6706
 2058SOL    HW217634   3.958   2.862   9.039 -3.5633 -3.6514 -0.4435
 2059SOL     OW17635   3.658   0.655   6.475  0.3482 -0.0144 -0.4051
 2059SOL    HW117636   3.751   0.671   6.489  0.2117 -1.7834  2.3973
 2059SOL    HW217637   3.635   0.612   6.557  1.3138 -0.3574 -0.3146
 2060SOL     OW17638   4.619   1.436   8.775 -0.2184  0.2695 -0.0727
 2060SOL    HW117639   4.550   1.493   8.739 -0.5454 -0.4869 -0.6486
 2060SOL    HW217640   4.692   1.470   8.724 -0.2918 -1.0618 -1.0880
 2061SOL     OW17641   3.335   0.432   6.526 -0.2671  0.1152  0.8636
 2061SOL    HW117642   3.300   0.345   6.507 -1.1067  0.7250 -0.4069
 2061SOL    HW217643   3.371   0.465   6.443 -2.7562 -0.5534 -0.5067
 2062SOL     OW17644   1.350   4.095   8.481 -0.0675 -0.8610 -0.1820
 2062SOL    HW117645   1.365   4.136   8.395 -0.3926 -1.1262 -0.3619
 2062SOL    HW217646   1.292   4.155   8.528  0.5132 -0.8867  0.5733
 2063SOL     OW17647   4.047   1.419   1.794 -0.3943 -0.2758  0.0896
 2063SOL    HW117648   3.993   1.498   1.794  0.2220  0.1507  0.9066
 2063SOL    HW217649   4.023   1.379   1.711  1.8241 -0.7425 -0.3338
 2064SOL     OW17650   0.903   3.933   2.978 -0.1245 -0.1368 -0.3255
 2064SOL    HW117651   0.933   3.844   2.959  3.6406  1.3284 -1.1925
 2064SOL    HW217652   0.904   3.970   2.890 -0.6656 -0.8257 -0.6141
 2065SOL     OW17653   1.563   0.720  10.490 -0.1812  0.1811  0.0661
 2065SOL    HW117654   1.472   0.746  10.476  0.0854  0.5631 -0.9664
 2065SOL    HW217655   1.550   0.673  10.572  0.1598 -0.1475 -0.0663
 2066SOL     OW17656   3.472   1.098  14.745  0.0428  0.4308  0.4662
 2066SOL    HW117657   3.471   1.162  14.674  1.4470  3.9448  3.5903
 2066SOL    HW217658   3.415   1.024  14.722 -1.3263  1.8023 -0.5399
 2067SOL     OW17659   3.958   1.199   5.896 -0.0717 -0.0529 -0.4892
 2067SOL    HW117660   3.902   1.266   5.934  1.5203  0.5707  0.7557
 2067SOL    HW217661   3.947   1.226   5.805 -0.4005  0.6027 -0.2538
 2068SOL     OW17662   3.510   4.177   5.444 -0.0413  0.7631  0.0749
 2068SOL    HW117663   3.440   4.212   5.388 -0.5586 -0.5407 -0.0912
 2068SOL    HW217664   3.541   4.104   5.390 -2.6229  0.0090 -0.4110
 2069SOL     OW17665   0.484   1.860  14.976  0.1092 -0.2217 -0.1794
 2069SOL    HW117666   0.578   1.877  14.969  0.5035 -2.1378  0.2604
 2069SOL    HW217667   0.443   1.946  14.982  0.8538  0.0996  0.3147
 2070SOL     OW17668   4.153   4.671   3.547  0.2477  0.6481 -0.1128
 2070SOL    HW117669   4.154   4.638   3.457  0.1221  2.7770 -0.9081
 2070SOL    HW217670   4.062   4.671   3.576  0.8561  0.1189  1.8400
 2071SOL     OW17671   1.975   3.954   9.185 -0.0713  0.2039 -0.0042
 2071SOL    HW117672   2.054   3.993   9.221  0.5101 -1.8326  0.9471
 2071SOL    HW217673   1.978   3.972   9.091 -1.5221 -1.8588 -0.4552
 2072SOL     OW17674   3.608   4.256   9.918  0.3929 -0.3309  0.5185
 2072SOL    HW117675   3.680   4.195   9.899  1.2959 -0.0122  2.8203
 2072SOL    HW217676   3.644   4.330   9.869  1.0299 -1.8088 -1.2345
 2073SOL     OW17677   0.451   2.146  12.841  0.0574 -0.1553 -0.0415
 2073SOL    HW117678   0.419   2.170  12.754 -0.2538 -3.1110 -0.7432
 2073SOL    HW217679   0.546   2.143  12.831  0.2026  1.2224  0.8951
 2074SOL     OW17680   3.846   0.968  15.660  0.0706 -0.0151  0.3274
 2074SOL    HW117681   3.773   1.000  15.607  1.2927 -0.5627 -1.6876
 2074SOL    HW217682   3.804   0.984  15.744 -2.8408  1.2755 -1.3569
 2075SOL     OW17683   3.368   2.715  11.928  0.2842  0.2265 -0.1056
 2075SOL    HW117684   3.451   2.674  11.953  0.9307  1.4774 -0.2141
 2075SOL    HW217685   3.398   2.796  11.888 -0.7371 -0.2435 -1.8243
 2076SOL     OW17686   0.697   3.407   1.421  0.2032 -0.5219 -0.5611
 2076SOL    HW117687   0.664   3.322   1.450 -2.3790  1.2763  1.7567
 2076SOL    HW217688   0.787   3.406   1.455  0.8723  2.8866 -2.2137
 2077SOL     OW17689   3.618   1.670   8.049 -0.0312 -0.2918 -0.1870
 2077SOL    HW117690   3.705   1.630   8.048  0.2689  0.3983 -1.3900
 2077SOL    HW217691   3.632   1.740   7.985  1.0669  1.3852  1.8519
 2078SOL     OW17692   4.440   2.146   1.854  0.2777 -0.2381  0.3211
 2078SOL    HW117693   4.424   2.165   1.761  0.1685 -0.0442  0.3784
 2078SOL    HW217694   4.534   2.129   1.854  0.4757  0.7237 -2.9245
 2079SOL     OW17695   3.892   0.601   0.747 -0.3495  0.0241  0.5654
 2079SOL    HW117696   3.941   0.563   0.674  1.6018  0.7483  1.4792
 2079SOL    HW217697   3.830   0.656   0.700 -0.5561  0.6246  1.5402
 2080SOL     OW17698   1.678   3.385   5.758 -0.4601  0.0124  0.1094
 2080SOL    HW117699   1.694   3.319   5.825  1.1935 -0.2847 -0.5550
 2080SOL    HW217700   1.603   3.433   5.793  1.2377  1.8290  1.2755
 2081SOL     OW17701   3.845   4.242   6.137 -0.3318 -0.4150 -0.3766
 2081SOL    HW117702   3.777   4.234   6.071 -0.2986 -2.0229 -0.2219
 2081SOL    HW217703   3.809   4.316   6.187 -0.5199 -1.1381  0.5610
 2082SOL     OW17704   3.648   3.175   8.133 -0.5696 -0.3942  0.0925
 2082SOL    HW117705   3.668   3.183   8.039  1.0355 -0.2442  0.4475
 2082SOL    HW217706   3.659   3.267   8.156  1.7691 -0.4737 -0.7737
 2083SOL     OW17707   1.313   3.386   4.587 -0.2832  0.6389  0.3403
 2083SOL    HW117708   1.249   3.428   4.529 -1.2675  0.2042  1.1030
 2083SOL    HW217709   1.370   3.353   4.518 -1.4928  1.6976 -1.1661
 2084SOL     OW17710   2.090   3.122   2.473  0.1085 -0.1009  0.4925
 2084SOL    HW117711   2.170   3.131   2.421 -0.3098  2.7403  0.3147
 2084SOL    HW217712   2.023   3.158   2.416  0.4494  0.0493  0.1838
 2085SOL     OW17713   2.806   4.632   8.607 -1.3090 -0.2256  0.1619
 2085SOL    HW117714   2.895   4.638   8.640  0.1522  0.1511 -3.8758
 2085SOL    HW217715   2.768   4.689   8.674 -0.2495  0.9969 -0.2938
 2086SOL     OW17716   1.424   2.406   3.514 -0.4292 -0.2631  0.6533
 2086SOL    HW117717   1.449   2.316   3.536 -0.5575 -1.0405 -2.3715
 2086SOL    HW217718   1.334   2.408   3.549  0.1626  2.2269  2.0560
 2087SOL     OW17719   1.028   0.314   5.879  0.0445 -0.0694 -0.2266
 2087SOL    HW117720   1.011   0.328   5.972 -0.6613  0.2031 -0.3962
 2087SOL    HW217721   1.118   0.344   5.871 -0.7933  2.7957  1.1154
 2088SOL     OW17722   1.505   4.212   0.646 -0.1816  0.3051  0.0112
 2088SOL    HW117723   1.440   4.278   0.624 -0.5764  0.3330  1.2752
 2088SOL    HW217724   1.535   4.197   0.556  1.9152 -0.6393  0.8568
 2089SOL     OW17725   3.880   1.054   2.781 -0.0721 -0.5938 -0.1896
 2089SOL    HW117726   3.895   0.972   2.828 -1.0142 -1.5411 -1.5804
 2089SOL    HW217727   3.912   1.018   2.699 -0.2484 -3.5191  1.0520
 2090SOL     OW17728   2.075   0.048   1.330 -0.1673  0.3321  0.6310
 2090SOL    HW117729   1.999   0.093   1.367  0.0892  1.1377  0.1463
 2090SOL    HW217730   2.058   0.056   1.236 -1.4761  0.6400  0.9000
 2091SOL     OW17731   4.445   4.664  16.420  0.2131 -0.4662  0.4579
 2091SOL    HW117732   4.513   4.637  16.482 -0.8133  1.7088  2.5340
 2091SOL    HW217733   4.391   4.585  16.426  0.6411 -0.9626 -2.6496
 2092SOL     OW17734   2.227   1.256   6.427 -0.4477 -0.2307 -0.6738
 2092SOL    HW117735   2.184   1.286   6.508 -2.6069 -2.2900 -1.0689
 2092SOL    HW217736   2.231   1.162   6.440  0.8573 -0.1231 -0.3521
 2093SOL     OW17737   3.627   4.390   5.567  0.6467  0.3209  0.2005
 2093SOL    HW117738   3.617   4.311   5.514 -1.4666  1.6671 -1.4375
 2093SOL    HW217739   3.677   4.369   5.645  0.0435  1.5141  0.9106
 2094SOL     OW17740   0.239   0.520  14.000  0.3614 -0.1234 -0.2793
 2094SOL    HW117741   0.267   0.580  14.069  1.8936  0.1785 -1.1665
 2094SOL    HW217742   0.271   0.547  13.914 -0.8498 -0.0050 -0.7017
 2095SOL     OW17743   4.064   2.284   3.388  0.2005  0.5633 -0.3377
 2095SOL    HW117744   4.106   2.354   3.338  1.8379 -0.1701  0.0255
 2095SOL    HW217745   4.140   2.263   3.442 -1.1628  0.4080  1.5243
 2096SOL     OW17746   4.632   3.030   2.989 -1.2529 -0.3417 -0.1128
 2096SOL    HW117747   4.554   2.986   2.955 -1.5859  0.2427 -0.1101
 2096SOL    HW217748   4.623   3.017   3.083  1.0837 -1.2254 -0.0149
 2097SOL     OW17749   1.052   2.013  13.652  0.0563 -0.3675 -0.0619
 2097SOL    HW117750   1.050   1.917  13.658  0.2920 -0.4407 -1.1199
 2097SOL    HW217751   1.140   2.041  13.679  0.8330 -3.7040  0.9194
 2098SOL     OW17752   4.161   2.225  16.780  0.1694 -0.4058 -0.1015
 2098SOL    HW117753   4.124   2.261  16.860  0.5831  0.3335 -0.2400
 2098SOL    HW217754   4.125   2.136  16.782 -1.6876  0.3670  0.8878
 2099SOL     OW17755   3.105   0.595  15.445  0.0944  0.9248  0.5605
 2099SOL    HW117756   3.152   0.531  15.392  0.8639  0.7800  1.4177
 2099SOL    HW217757   3.114   0.671  15.388  0.7121 -1.2358 -2.1942
 2100SOL     OW17758   1.613   1.325   9.191 -0.8760  0.3471  0.3643
 2100SOL    HW117759   1.653   1.280   9.117  0.6411  1.0764  0.7483
 2100SOL    HW217760   1.579   1.255   9.246 -2.1480 -0.6334 -1.6777
 2101SOL     OW17761   0.510   4.714   4.315 -0.0843 -0.7110 -0.0645
 2101SOL    HW117762   0.599   0.002   4.348  0.2614 -2.6060 -0.2743
 2101SOL    HW217763   0.475   4.647   4.373  1.4958  0.1199  1.8466
 2102SOL     OW17764   0.999   3.298   1.304 -0.6804 -0.0084  0.6100
 2102SOL    HW117765   1.089   3.330   1.303 -0.7193  0.1156  0.9793
 2102SOL    HW217766   0.989   3.296   1.399 -1.0378 -2.7843  0.5185
 2103SOL     OW17767   4.483   2.517   3.720  0.0695  0.2158  0.1756
 2103SOL    HW117768   4.501   2.444   3.660 -1.4869 -1.9802  2.3572
 2103SOL    HW217769   4.470   2.486   3.809  0.2888  2.7568  1.0866
 2104SOL     OW17770   2.103   0.913  14.017 -0.0142 -0.1215  0.0637
 2104SOL    HW117771   2.138   1.000  14.036  0.4914  0.1338 -2.0101
 2104SOL    HW217772   2.172   0.861  13.976 -1.3886 -0.8304 -1.3103
 2105SOL     OW17773   1.296   0.077   3.905 -0.0284  0.3207 -0.6583
 2105SOL    HW117774   1.244   0.157   3.905 -0.8240 -0.2032  0.1275
 2105SOL    HW217775   1.234   0.024   3.954 -0.0685 -0.5775 -1.6821
 2106SOL     OW17776   1.325   2.849   8.097  0.4293 -0.1218 -0.4131
 2106SOL    HW117777   1.322   2.797   8.177 -0.9556 -0.4591 -0.6785
 2106SOL    HW217778   1.361   2.788   8.033  1.3345  0.3019 -0.3039
 2107SOL     OW17779   1.713   1.391  15.134  0.1487  0.6280 -0.2778
 2107SOL    HW117780   1.690   1.320  15.194 -1.2916  1.5255  0.2236
 2107SOL    HW217781   1.787   1.356  15.084 -2.1859 -1.2603 -2.3726
 2108SOL     OW17782   2.185   4.097   7.785 -0.7063  0.3532  0.0142
 2108SOL    HW117783   2.100   4.066   7.815 -0.7408  2.3338  1.9572
 2108SOL    HW217784   2.166   4.174   7.732  2.7465 -0.2446 -2.0959
 2109SOL     OW17785   3.037   4.168   2.027 -0.6772 -0.2068 -0.5097
 2109SOL    HW117786   3.061   4.095   1.970 -0.5249  1.3868 -2.4554
 2109SOL    HW217787   3.126   4.202   2.038 -0.3721 -0.8980 -0.8494
 2110SOL     OW17788   1.699   0.670   0.915 -0.0909 -0.0292  0.1483
 2110SOL    HW117789   1.736   0.732   0.978 -0.4242 -0.0319  0.3451
 2110SOL    HW217790   1.747   0.592   0.943  0.9107  0.5698  0.1062
 2111SOL     OW17791   4.199   3.581   6.335  0.0871 -0.1529  0.6590
 2111SOL    HW117792   4.142   3.552   6.406  1.7123 -4.0794  0.2954
 2111SOL    HW217793   4.169   3.672   6.338  0.1843 -0.1112  0.3985
 2112SOL     OW17794   2.144   1.357   6.659 -0.4206 -0.3573  0.3797
 2112SOL    HW117795   2.201   1.328   6.731 -0.6543  2.4227  1.7075
 2112SOL    HW217796   2.128   1.446   6.693  1.4944  0.4239 -0.7341
 2113SOL     OW17797   4.282   4.202   8.392  0.2753  0.0585  0.2542
 2113SOL    HW117798   4.257   4.152   8.314  2.8119 -0.6709 -0.0855
 2113SOL    HW217799   4.321   4.132   8.446 -0.4313 -0.0542  0.6150
 2114SOL     OW17800   3.328   1.149  17.055 -0.3345  0.0184 -0.1918
 2114SOL    HW117801   3.290   1.233  17.032  1.3263  0.6741 -0.5427
 2114SOL    HW217802   3.345   1.111  16.969 -1.1007 -2.0532  0.5732
 2115SOL     OW17803   2.316   2.319   1.736 -0.0234 -0.4593 -0.3928
 2115SOL    HW117804   2.331   2.264   1.659 -0.2271 -0.4311 -0.4539
 2115SOL    HW217805   2.401   2.363   1.735 -0.3510  0.2154  1.2459
 2116SOL     OW17806   1.509   3.015   1.441 -0.2118 -0.2275  0.2474
 2116SOL    HW117807   1.599   3.013   1.408 -0.1277  0.2657  0.4420
 2116SOL    HW217808   1.466   3.080   1.386  1.4953  1.7603  1.2531
 2117SOL     OW17809   2.582   0.886  10.623  0.7424 -0.1177  0.2075
 2117SOL    HW117810   2.617   0.940  10.694 -0.6637 -1.1837  1.6916
 2117SOL    HW217811   2.634   0.902  10.544  0.0796 -0.7105 -0.3495
 2118SOL     OW17812   3.409   3.951   2.788 -0.1116  0.3224 -0.0453
 2118SOL    HW117813   3.450   3.948   2.875 -2.7379 -1.1140  1.1508
 2118SOL    HW217814   3.317   3.932   2.805 -0.3404  1.5163  0.0682
 2119SOL     OW17815   0.756   4.019  17.490  0.1673 -0.0302  0.0816
 2119SOL    HW117816   0.818   4.083  17.455 -1.7895  1.8364  0.0614
 2119SOL    HW217817   0.763   4.042  17.582 -0.1730 -0.0168  0.1035
 2120SOL     OW17818   2.896   4.027   0.853  0.3657 -0.0920  0.0179
 2120SOL    HW117819   2.930   4.004   0.939 -2.2342 -2.7317  0.3411
 2120SOL    HW217820   2.960   3.979   0.800  1.9698  1.0138  0.9828
 2121SOL     OW17821   1.734   3.780   5.819  0.0844  0.3449 -0.1049
 2121SOL    HW117822   1.766   3.749   5.734 -1.1109 -0.1189 -0.3846
 2121SOL    HW217823   1.679   3.857   5.803 -1.3610 -1.2461 -2.8540
 2122SOL     OW17824   1.580   1.567   3.018  0.2018  0.4984 -0.1187
 2122SOL    HW117825   1.605   1.589   2.928  1.9223 -0.3633  0.1536
 2122SOL    HW217826   1.567   1.650   3.065  0.9235  0.2398  0.5266
 2123SOL     OW17827   1.169   0.725   0.857 -0.5011  0.2160  0.2695
 2123SOL    HW117828   1.246   0.673   0.836  0.5791  1.5714  0.8388
 2123SOL    HW217829   1.195   0.806   0.813 -1.3256  0.3453  0.0366
 2124SOL     OW17830   2.326   2.264   4.561 -0.5445  0.4528  0.1428
 2124SOL    HW117831   2.247   2.210   4.562 -0.3273  0.1209 -0.5909
 2124SOL    HW217832   2.345   2.267   4.654 -1.4401  0.4757  0.3293
 2125SOL     OW17833   1.474   2.559   4.931 -0.1786  0.0096 -0.1641
 2125SOL    HW117834   1.486   2.581   4.839  4.0469 -0.4670  0.2678
 2125SOL    HW217835   1.472   2.644   4.974 -0.6328  0.5354 -1.2178
 2126SOL     OW17836   0.130   3.625   8.061 -0.5109 -0.0320 -0.4899
 2126SOL    HW117837   0.188   3.690   8.101 -0.9722  0.3802 -0.4864
 2126SOL    HW217838   0.160   3.629   7.970  2.1784  0.7595  0.4106
 2127SOL     OW17839   0.729   3.388   7.555  0.1943  0.6189 -0.3643
 2127SOL    HW117840   0.636   3.369   7.572  0.9473 -0.9283  1.9693
 2127SOL    HW217841   0.753   3.340   7.476 -0.5066 -0.2873 -0.0317
 2128SOL     OW17842   1.027   2.014   7.235 -0.0376 -0.0506 -0.4586
 2128SOL    HW117843   1.048   1.953   7.306 -0.4463 -1.0728 -1.2176
 2128SOL    HW217844   1.018   1.952   7.163 -0.0200 -0.1578 -0.3686
 2129SOL     OW17845   0.486   3.882   7.417 -0.4268 -0.3125 -0.6854
 2129SOL    HW117846   0.479   3.962   7.365  1.6910 -0.9286 -1.9086
 2129SOL    HW217847   0.506   3.820   7.347 -1.4246 -0.7635 -0.5690
 2130SOL     OW17848   4.485   3.532   5.157  0.4879 -0.0011  0.2680
 2130SOL    HW117849   4.407   3.479   5.140 -0.8636  1.8025  0.9170
 2130SOL    HW217850   4.541   3.468   5.202  1.7070  0.4738 -0.5718
 2131SOL     OW17851   1.766   1.980   0.363  0.3705 -0.4612 -0.3032
 2131SOL    HW117852   1.781   1.894   0.324  1.2924 -0.3191 -0.2483
 2131SOL    HW217853   1.672   1.975   0.381  0.5075  2.5027  1.3296
 2132SOL     OW17854   1.167   0.888  13.584 -0.1023  0.5064 -0.1641
 2132SOL    HW117855   1.257   0.920  13.577 -0.0584  0.4472  0.1077
 2132SOL    HW217856   1.155   0.840  13.503 -0.4321 -1.0245  0.7910
 2133SOL     OW17857   0.411   0.805   7.427  0.5492 -0.3442  0.2002
 2133SOL    HW117858   0.450   0.845   7.505  1.3878 -1.1565  0.1939
 2133SOL    HW217859   0.489   0.793   7.374  1.1828 -1.0459  1.3034
 2134SOL     OW17860   4.420   1.295   3.562 -0.6981  0.4947  0.3063
 2134SOL    HW117861   4.471   1.374   3.544  3.2205 -2.1064 -0.0594
 2134SOL    HW217862   4.403   1.302   3.656  1.1304  0.9760  0.6031
 2135SOL     OW17863   1.865   3.479   2.582  0.3831 -0.5136  0.0119
 2135SOL    HW117864   1.792   3.533   2.552 -0.1819 -2.6654 -2.4832
 2135SOL    HW217865   1.881   3.447   2.494 -2.0651 -1.7310  0.0034
 2136SOL     OW17866   4.637   2.324   6.554 -0.9474  0.4336  0.1083
 2136SOL    HW117867   4.603   2.264   6.620 -0.1939  0.8309  0.8564
 2136SOL    HW217868   4.561   2.346   6.499 -0.2626 -2.3091 -1.9365
 2137SOL     OW17869   2.742   2.025   9.086  0.2241 -0.2605  0.3809
 2137SOL    HW117870   2.762   2.054   9.175  1.8783 -1.3571  0.3663
 2137SOL    HW217871   2.650   2.012   9.105 -0.1938 -0.3744 -1.7602
 2138SOL     OW17872   0.781   3.639   8.851 -0.2180  0.8482 -0.4424
 2138SOL    HW117873   0.778   3.732   8.875 -0.3081  1.3837 -2.5749
 2138SOL    HW217874   0.737   3.629   8.767 -0.1439  2.8352 -0.7310
 2139SOL     OW17875   2.362   2.247   4.071 -0.6509  0.1565 -0.4000
 2139SOL    HW117876   2.410   2.172   4.105  0.1901 -0.1639 -2.2801
 2139SOL    HW217877   2.440   2.298   4.048 -0.9131  0.3357 -0.8786
 2140SOL     OW17878   1.129   0.699   8.116 -0.2532  0.0498 -0.1922
 2140SOL    HW117879   1.108   0.788   8.144  1.4844  0.1810  0.6558
 2140SOL    HW217880   1.220   0.704   8.089  0.0132 -0.4920  0.6209
 2141SOL     OW17881   0.918   2.208   5.587  0.2444 -0.0620  0.0910
 2141SOL    HW117882   0.897   2.298   5.612  1.6391 -0.0820  1.2451
 2141SOL    HW217883   0.843   2.190   5.529  0.5590 -0.2028 -0.2761
 2142SOL     OW17884   2.749   4.123   3.560  0.1502  0.0653  0.3523
 2142SOL    HW117885   2.758   4.063   3.486 -0.6684  1.0349 -0.5371
 2142SOL    HW217886   2.655   4.137   3.567  0.1803  0.5085 -0.1153
 2143SOL     OW17887   0.878   4.243   3.258  0.3297  0.2313 -0.2248
 2143SOL    HW117888   0.786   4.244   3.233  0.0637 -1.7978  0.6625
 2143SOL    HW217889   0.909   4.310   3.197 -1.9611  0.6015 -0.9698
 2144SOL     OW17890   1.139   4.260   8.536 -0.1025  0.2458 -0.5384
 2144SOL    HW117891   1.091   4.216   8.467 -0.3166  0.7592 -0.7178
 2144SOL    HW217892   1.072   4.313   8.578 -1.0293  0.3148 -2.1042
 2145SOL     OW17893   4.185   3.726  15.568 -0.1519 -0.0617 -0.0078
 2145SOL    HW117894   4.279   3.742  15.577 -0.3596  1.9395 -1.2734
 2145SOL    HW217895   4.172   3.732  15.473  2.4998 -1.8394 -0.5013
 2146SOL     OW17896   0.459   1.299   3.921 -0.2639 -0.4577 -0.3018
 2146SOL    HW117897   0.490   1.366   3.860  1.4654 -1.7870 -0.8603
 2146SOL    HW217898   0.377   1.264   3.885  1.2385 -1.7603 -2.4088
 2147SOL     OW17899   2.298   2.013   0.220 -0.0842  0.8894 -0.0553
 2147SOL    HW117900   2.342   1.986   0.140  0.5212 -0.9770  0.9246
 2147SOL    HW217901   2.380   2.029   0.267  0.4087 -1.6248 -0.0610
 2148SOL     OW17902   4.580   3.920  16.751 -0.0337  0.1245  0.5299
 2148SOL    HW117903   4.487   3.899  16.760 -0.0521  1.0595  2.5352
 2148SOL    HW217904   4.624   3.836  16.764  1.0516  0.5867 -0.1471
 2149SOL     OW17905   1.071   3.381  11.619 -0.2408 -0.3394 -0.6673
 2149SOL    HW117906   1.159   3.372  11.656 -1.2105 -1.3327  1.3800
 2149SOL    HW217907   1.022   3.411  11.695  2.6456  1.5860  0.4038
 2150SOL     OW17908   1.888   3.927   8.164 -0.3131  0.5521  0.1090
 2150SOL    HW117909   1.891   3.928   8.259  0.5274  0.7929  0.0772
 2150SOL    HW217910   1.948   3.854   8.154 -0.0090  0.9067 -0.6883
 2151SOL     OW17911   2.773   4.143   8.799  0.0583 -0.7867 -0.0776
 2151SOL    HW117912   2.712   4.104   8.737  1.4097  0.9490 -2.5012
 2151SOL    HW217913   2.777   4.231   8.761 -1.7785 -0.5999  0.1613
 2152SOL     OW17914   0.641   1.504   2.546 -0.4622 -0.0823  0.1367
 2152SOL    HW117915   0.720   1.503   2.493  0.5139 -1.1231  1.6265
 2152SOL    HW217916   0.572   1.552   2.499 -0.4815 -0.4005 -0.1613
 2153SOL     OW17917   0.259   3.384   9.683 -1.0905 -0.7720  0.3334
 2153SOL    HW117918   0.287   3.338   9.762 -3.1600 -2.4879  0.0636
 2153SOL    HW217919   0.218   3.455   9.732 -0.1455 -0.6285  0.8943
 2154SOL     OW17920   0.307   1.648   8.213  0.5803 -0.3556  0.0903
 2154SOL    HW117921   0.329   1.571   8.160  0.8069 -0.4189  0.2751
 2154SOL    HW217922   0.215   1.658   8.188  0.4999 -0.2440  0.4296
 2155SOL     OW17923   3.782   2.913  10.606  0.1002  0.4258  0.1227
 2155SOL    HW117924   3.789   2.855  10.682 -1.3112 -0.0171 -0.0715
 2155SOL    HW217925   3.831   2.865  10.539  0.5025  2.1148 -0.7883
 2156SOL     OW17926   2.598   3.535   8.332  0.9889  0.6638  0.1947
 2156SOL    HW117927   2.546   3.578   8.400  0.4143 -0.1753  0.2764
 2156SOL    HW217928   2.538   3.509   8.263  1.1233 -0.4119  0.4912
 2157SOL     OW17929   0.039   0.013   4.635 -0.4973 -0.4899  0.1328
 2157SOL    HW117930   4.707   0.036   4.708 -0.8126 -1.4561  0.1963
 2157SOL    HW217931   0.121   0.025   4.682  0.7800  1.1560 -2.5303
 2158SOL     OW17932   3.044   2.284   5.310 -0.4281  0.1170 -0.8042
 2158SOL    HW117933   3.084   2.297   5.224  1.6339 -3.7624 -0.4385
 2158SOL    HW217934   3.119   2.288   5.369 -0.3509  2.8948 -1.1148
 2159SOL     OW17935   2.697   0.806   8.539  0.6268  0.4379  0.0840
 2159SOL    HW117936   2.740   0.744   8.598  2.9247  1.5374 -0.4036
 2159SOL    HW217937   2.693   0.877   8.604 -3.2136  1.9973 -1.8675
 2160SOL     OW17938   1.585   0.550   3.660 -0.0615  0.4742 -0.1310
 2160SOL    HW117939   1.596   0.541   3.755 -0.4234  0.5616 -0.0816
 2160SOL    HW217940   1.667   0.510   3.631 -1.8400 -4.4888  1.7550
 2161SOL     OW17941   2.367   2.137   0.591  0.2654 -0.1171 -0.1538
 2161SOL    HW117942   2.388   2.139   0.685  0.2707 -2.5893 -0.1103
 2161SOL    HW217943   2.453   2.114   0.557  0.8063 -0.4306  1.3971
 2162SOL     OW17944   0.385   1.477   7.982  0.0471 -0.3948 -0.3386
 2162SOL    HW117945   0.401   1.414   7.912 -0.5124  0.3431 -1.1338
 2162SOL    HW217946   0.460   1.535   7.986 -1.0467  1.0115 -0.1543
 2163SOL     OW17947   0.998   1.101   3.410  0.7477  0.4550  0.2914
 2163SOL    HW117948   0.982   1.091   3.316 -1.6644  1.0378  0.6344
 2163SOL    HW217949   1.088   1.067   3.415  0.3094 -0.3974  2.3119
 2164SOL     OW17950   2.687   3.999   5.023 -0.2747 -0.2294 -0.4932
 2164SOL    HW117951   2.609   3.945   5.011  0.3955 -0.9825 -1.4715
 2164SOL    HW217952   2.756   3.956   4.972 -0.1410  0.1318 -0.6175
 2165SOL     OW17953   0.929   4.360   8.689 -0.2597  0.5218 -0.2492
 2165SOL    HW117954   0.856   4.302   8.710 -0.9991  1.7760  0.6397
 2165SOL    HW217955   0.883   4.418   8.629 -1.7254  0.5707  0.9284
 2166SOL     OW17956   1.683   0.179   7.472 -0.2169  0.0127 -0.7485
 2166SOL    HW117957   1.664   0.171   7.379 -0.6888  3.3826 -0.9456
 2166SOL    HW217958   1.737   0.101   7.484 -1.1556 -0.3932  0.9026
 2167SOL     OW17959   3.682   2.020   3.533  0.3602  0.4508  0.1436
 2167SOL    HW117960   3.718   2.041   3.447 -0.4426  0.6084 -0.1507
 2167SOL    HW217961   3.728   2.080   3.592 -0.5106  1.5622 -0.3174
 2168SOL     OW17962   0.412   1.171   1.800  0.1718  0.2318 -0.4806
 2168SOL    HW117963   0.321   1.156   1.825  0.6471  1.0212  1.7225
 2168SOL    HW217964   0.407   1.247   1.742  2.8724  0.5787 -0.2548
 2169SOL     OW17965   1.204   1.103   7.012 -0.3959  0.1026 -0.5405
 2169SOL    HW117966   1.261   1.066   7.079 -1.2019  0.0862  0.1487
 2169SOL    HW217967   1.248   1.186   6.994 -0.2427 -0.3488 -2.2511
 2170SOL     OW17968   4.048   1.147   0.442  0.0991 -0.0735 -0.2428
 2170SOL    HW117969   4.006   1.078   0.493 -2.3384  1.1165 -0.6387
 2170SOL    HW217970   4.000   1.216   0.488 -0.1093 -0.8075  0.6470
 2171SOL     OW17971   3.540   3.963  14.268  0.6996 -0.4758 -0.0889
 2171SOL    HW117972   3.536   3.973  14.363 -0.4501  0.2106 -0.2060
 2171SOL    HW217973   3.476   4.024  14.232  1.2269 -0.2937 -0.7343
 2172SOL     OW17974   2.732   1.695   6.832 -0.5113 -0.4652  0.0509
 2172SOL    HW117975   2.731   1.600   6.841 -1.6987 -0.2623  1.9237
 2172SOL    HW217976   2.796   1.703   6.761  0.9141 -0.5315  1.3257
 2173SOL     OW17977   2.780   3.061   2.391 -0.0285  0.0487 -0.0483
 2173SOL    HW117978   2.688   3.084   2.382 -0.0551 -1.1642 -2.9312
 2173SOL    HW217979   2.780   3.006   2.470 -0.7104 -0.0869 -0.1405
 2174SOL     OW17980   3.598   3.643   0.556 -0.2762  0.3882 -0.6368
 2174SOL    HW117981   3.591   3.548   0.559 -0.4452  0.3849 -1.1115
 2174SOL    HW217982   3.548   3.679   0.629 -0.0303  2.0481 -1.2772
 2175SOL     OW17983   4.621   3.095  15.071  0.0062 -0.0520  0.1947
 2175SOL    HW117984   4.584   3.164  15.016 -1.4756  0.0310  1.2977
 2175SOL    HW217985   4.576   3.020  15.033 -0.1846 -0.3425  0.9885
 2176SOL     OW17986   2.144   0.495   8.641 -0.0970 -0.2015  0.2723
 2176SOL    HW117987   2.121   0.415   8.594 -0.0576 -0.6440  1.0058
 2176SOL    HW217988   2.127   0.477   8.733 -1.2136  0.3617  0.1764
 2177SOL     OW17989   1.634   2.448   4.035  0.2262  0.1786 -0.2371
 2177SOL    HW117990   1.655   2.529   3.989 -0.1713  0.5541  0.2395
 2177SOL    HW217991   1.551   2.427   3.993  0.4027 -1.7999  0.3848
 2178SOL     OW17992   3.336   1.830   1.066  0.3739  0.0511 -0.1276
 2178SOL    HW117993   3.305   1.863   0.982  0.4400 -2.8932 -1.2956
 2178SOL    HW217994   3.381   1.906   1.102  0.0545 -0.5988  1.6461
 2179SOL     OW17995   2.896   3.994   6.355  0.3539 -0.2833 -0.0953
 2179SOL    HW117996   2.844   3.996   6.436  0.5582  1.7205 -0.0210
 2179SOL    HW217997   2.977   4.029   6.391 -1.3013  3.4372 -0.0150
 2180SOL     OW17998   2.045   2.484   7.421  0.2854  0.0048  0.0221
 2180SOL    HW117999   2.035   2.429   7.498  0.3706  1.8347  1.3323
 2180SOL    HW218000   2.116   2.433   7.382 -1.2611 -0.7472 -1.8124
 2181SOL     OW18001   1.347   2.038   7.867  0.3186 -0.0886 -0.1300
 2181SOL    HW118002   1.375   2.103   7.803 -2.5529  0.6378 -0.6846
 2181SOL    HW218003   1.295   2.089   7.929 -2.7943 -1.9555 -1.1528
 2182SOL     OW18004   4.663   3.508   7.051  0.0583 -0.1226  0.1846
 2182SOL    HW118005   4.639   3.601   7.051 -0.5576 -0.2932  3.3703
 2182SOL    HW218006   0.012   3.498   7.110  0.2854 -0.2679 -0.1220
 2183SOL     OW18007   4.285   4.250   0.485 -0.1226 -0.3038 -0.2342
 2183SOL    HW118008   4.340   4.267   0.408  0.4475 -1.2725 -0.0373
 2183SOL    HW218009   4.295   4.332   0.534  2.1543  0.0146 -1.2016
 2184SOL     OW18010   0.352   4.315  13.050 -0.0548  0.3655  0.1551
 2184SOL    HW118011   0.341   4.230  13.091  2.4065  0.1729  0.4300
 2184SOL    HW218012   0.351   4.294  12.957  0.0446 -0.3672  0.3196
 2185SOL     OW18013   3.440   0.747   3.794  0.8907 -0.5077  0.6781
 2185SOL    HW118014   3.419   0.689   3.721  0.7792  0.1354  0.1966
 2185SOL    HW218015   3.506   0.801   3.750  0.3993 -0.2426  0.2684
 2186SOL     OW18016   3.877   3.592  16.748  0.5923 -0.2076  0.0768
 2186SOL    HW118017   3.946   3.546  16.796  1.3605  1.8644  0.9964
 2186SOL    HW218018   3.798   3.539  16.757 -0.5796  1.3637 -0.9672
 2187SOL     OW18019   4.019   0.168   7.330 -0.4095  0.1949  0.4572
 2187SOL    HW118020   4.101   0.204   7.295 -0.8764  1.3499  0.5262
 2187SOL    HW218021   4.027   0.077   7.304  1.7803  0.8701 -1.3048
 2188SOL     OW18022   0.890   3.464   5.333  0.2605  0.2522 -0.2067
 2188SOL    HW118023   0.897   3.558   5.316  0.7696  0.5758  1.7426
 2188SOL    HW218024   0.982   3.448   5.310  0.4259  0.6778  0.1480
 2189SOL     OW18025   1.229   0.181   9.025 -0.2327 -0.5023 -0.3304
 2189SOL    HW118026   1.165   0.249   9.008 -2.5314 -2.3214  1.0260
 2189SOL    HW218027   1.300   0.190   8.961  0.5631  2.9973  1.0773
 2190SOL     OW18028   3.405   1.195   8.258  0.1206 -0.3962  0.0190
 2190SOL    HW118029   3.460   1.222   8.332  0.7815 -1.3320 -0.1312
 2190SOL    HW218030   3.401   1.102   8.280 -1.1461 -0.6629 -1.3628
 2191SOL     OW18031   4.139   0.895   0.014  0.0381  0.0376 -0.0650
 2191SOL    HW118032   4.224   0.865   0.047 -0.4046 -0.9475  0.1851
 2191SOL    HW218033   4.100   0.810  17.691 -0.6196  0.5078 -0.6950
 2192SOL     OW18034   0.409   3.668   1.838  0.5475 -0.2809  0.5458
 2192SOL    HW118035   0.418   3.760   1.814  0.3146 -0.5746 -0.6602
 2192SOL    HW218036   0.462   3.628   1.769  0.9264  1.4438 -0.1403
 2193SOL     OW18037   0.949   1.554  12.140 -0.0641  0.2509 -0.6269
 2193SOL    HW118038   0.897   1.633  12.156  0.5344  0.8693 -1.7662
 2193SOL    HW218039   1.039   1.586  12.128 -0.1750  1.1702  0.9236
 2194SOL     OW18040   4.207   3.302  12.324  0.2079  0.0907  0.2348
 2194SOL    HW118041   4.201   3.276  12.232  2.2020  0.7409 -0.0778
 2194SOL    HW218042   4.116   3.318  12.351  0.5002  0.1446  1.1909
 2195SOL     OW18043   2.963   2.715  14.090  0.1999 -0.3577 -0.4122
 2195SOL    HW118044   2.889   2.774  14.103 -1.5944 -2.2249 -2.0793
 2195SOL    HW218045   2.977   2.692  14.182  1.3812  0.4776 -0.3887
 2196SOL     OW18046   0.020   4.385   4.030  0.3240  0.5332  0.0119
 2196SOL    HW118047   4.676   4.446   4.005 -1.7986 -2.2202 -0.9139
 2196SOL    HW218048   0.010   4.325   3.956 -2.7027  0.9866  0.0705
 2197SOL     OW18049   3.600   1.660   3.920  1.0962  0.1824 -0.4764
 2197SOL    HW118050   3.604   1.702   3.834  2.6475 -0.0916 -0.5400
 2197SOL    HW218051   3.567   1.738   3.964  0.1606 -0.0427 -0.7990
 2198SOL     OW18052   0.872   2.735   0.620 -0.0549 -0.4647  0.5283
 2198SOL    HW118053   0.933   2.661   0.616 -2.0880 -2.0531 -0.7983
 2198SOL    HW218054   0.927   2.790   0.676  3.0011 -0.9846 -1.9409
 2199SOL     OW18055   1.772   0.532   0.330  0.2499 -0.7422 -0.2213
 2199SOL    HW118056   1.683   0.532   0.295  0.0319  0.2858  0.3514
 2199SOL    HW218057   1.790   0.621   0.359 -4.3195 -0.5736  2.0544
 2200SOL     OW18058   1.628   2.663   2.124  0.4943  0.2440 -0.4460
 2200SOL    HW118059   1.599   2.674   2.215  0.9547 -0.6124 -0.1890
 2200SOL    HW218060   1.580   2.587   2.091 -2.1826  1.9290 -0.4228
 2201SOL     OW18061   4.005   3.944  13.411  0.2019 -0.2432  0.0360
 2201SOL    HW118062   4.014   3.939  13.506  0.7731 -0.0218 -0.0120
 2201SOL    HW218063   3.962   3.860  13.395  1.2988 -0.6165 -0.9644
 2202SOL     OW18064   4.517   2.107   2.434  0.4844 -1.1948 -0.2674
 2202SOL    HW118065   4.519   2.141   2.345  2.2468 -1.2908 -0.2496
 2202SOL    HW218066   4.425   2.083   2.450  0.4498 -0.9411 -0.0646
 2203SOL     OW18067   4.412   1.240  14.195  0.2793 -0.7931 -0.3009
 2203SOL    HW118068   4.415   1.154  14.153  0.8669 -1.6016  1.3984
 2203SOL    HW218069   4.420   1.209  14.285 -1.2715 -1.0637 -0.2424
 2204SOL     OW18070   1.896   4.429   8.063 -0.0231  0.3649  0.3779
 2204SOL    HW118071   1.850   4.413   7.980  0.5704  2.0835 -0.2833
 2204SOL    HW218072   1.834   4.490   8.102  0.5668  0.8486  0.5631
 2205SOL     OW18073   3.547   2.748   7.632 -0.1257 -0.1435 -0.2167
 2205SOL    HW118074   3.553   2.666   7.679  0.2913 -0.5975 -1.0590
 2205SOL    HW218075   3.498   2.802   7.694 -1.6563 -0.4286 -1.1836
 2206SOL     OW18076   0.861   0.109   5.512 -0.0291  0.2222  0.3427
 2206SOL    HW118077   0.897   0.022   5.526  0.5051  0.3736 -0.0834
 2206SOL    HW218078   0.936   0.158   5.479  0.5667 -0.3783  0.8154
 2207SOL     OW18079   4.441   2.478   2.717  0.4738  0.2268  0.3583
 2207SOL    HW118080   4.478   2.390   2.720  0.3159  0.1411 -0.1710
 2207SOL    HW218081   4.418   2.474   2.624 -3.2452 -0.2856  1.3019
 2208SOL     OW18082   3.879   4.693  14.610  0.1294 -0.4383 -0.4086
 2208SOL    HW118083   3.971   4.716  14.625 -0.0559  0.0981 -0.1185
 2208SOL    HW218084   3.877   4.601  14.582 -0.6817 -0.2904 -0.8278
 2209SOL     OW18085   3.082   3.643   4.365  0.1943  0.2577 -0.2577
 2209SOL    HW118086   3.005   3.600   4.329 -0.6331 -0.8229  2.8398
 2209SOL    HW218087   3.071   3.619   4.457  1.5112  0.7230  0.0243
 2210SOL     OW18088   4.316   3.837   3.885  0.3561  0.1171  0.2589
 2210SOL    HW118089   4.376   3.848   3.959 -0.1778 -4.7293  1.4467
 2210SOL    HW218090   4.228   3.854   3.920  0.2896  2.1936 -0.9695
 2211SOL     OW18091   2.819   0.102   6.413 -0.3006  0.4311  0.7631
 2211SOL    HW118092   2.802   0.194   6.391 -0.5120  0.0858 -0.5162
 2211SOL    HW218093   2.739   0.070   6.373  0.6062 -2.7978  1.5834
 2212SOL     OW18094   4.409   0.628   3.956 -0.3841 -0.3999  0.7284
 2212SOL    HW118095   4.419   0.651   3.864 -2.6123 -0.4718  0.4756
 2212SOL    HW218096   4.337   0.688   3.977 -2.8820 -2.8382 -1.0010
 2213SOL     OW18097   1.678   1.625  14.971 -0.4534 -0.4107  0.2504
 2213SOL    HW118098   1.773   1.636  14.974 -0.5639  0.2884  0.9067
 2213SOL    HW218099   1.661   1.545  15.020  0.4841  0.0820  1.3869
 2214SOL     OW18100   4.063   2.796  12.640 -0.0880  0.0104  0.1455
 2214SOL    HW118101   4.085   2.881  12.678  0.9796  0.5168 -1.6407
 2214SOL    HW218102   4.007   2.825  12.568 -0.5869 -0.1797  0.4553
 2215SOL     OW18103   1.370   4.154   0.294 -0.6510  0.5269  0.6332
 2215SOL    HW118104   1.366   4.211   0.217 -1.7265  0.1999  0.4543
 2215SOL    HW218105   1.462   4.155   0.321  0.0685 -0.4050 -1.7493
 2216SOL     OW18106   4.659   4.134   4.720 -0.5622 -0.2185 -1.1665
 2216SOL    HW118107   4.718   4.207   4.738  1.3626 -1.9039 -0.6591
 2216SOL    HW218108   4.670   4.090   4.804  1.1015 -0.3338 -1.4326
 2217SOL     OW18109   2.454   3.832   5.244  0.5303 -0.1027  0.3793
 2217SOL    HW118110   2.395   3.763   5.274 -0.8081  1.4139  1.2065
 2217SOL    HW218111   2.444   3.827   5.148 -0.4116  3.3411  0.2991
 2218SOL     OW18112   4.412   1.178  17.282  0.0206 -0.4122  0.0923
 2218SOL    HW118113   4.506   1.170  17.267 -0.2137 -1.8525 -0.5661
 2218SOL    HW218114   4.386   1.177  17.190  0.2462 -0.1934  0.0262
 2219SOL     OW18115   3.108   0.310   5.251  0.3006  0.2690 -0.2810
 2219SOL    HW118116   3.031   0.342   5.297  0.7541 -0.9509  1.3157
 2219SOL    HW218117   3.130   0.231   5.301  2.0342  2.1171  1.8385
 2220SOL     OW18118   2.818   0.523  15.381  0.1999  0.6283  0.5658
 2220SOL    HW118119   2.890   0.579  15.411  1.6268 -0.2354 -1.2210
 2220SOL    HW218120   2.867   0.448  15.415  0.1175 -0.2421 -1.2536
 2221SOL     OW18121   2.077   2.903   9.594  0.1080  0.0121  0.0709
 2221SOL    HW118122   1.991   2.939   9.572 -0.1185 -1.8613 -2.0910
 2221SOL    HW218123   2.085   2.931   9.685  1.1743 -1.4409  0.4226
 2222SOL     OW18124   0.735   1.918   2.952  0.1670 -0.1212  0.0744
 2222SOL    HW118125   0.802   1.942   2.888 -0.5708  3.1584  0.4907
 2222SOL    HW218126   0.720   2.009   2.980  2.4797 -0.0569  1.1304
 2223SOL     OW18127   1.428   2.391  14.873 -0.3412  0.0361  0.1541
 2223SOL    HW118128   1.512   2.352  14.896 -0.8054 -1.2974 -0.3995
 2223SOL    HW218129   1.404   2.348  14.790 -0.9818  1.3167 -0.3292
 2224SOL     OW18130   0.308   3.371  15.801 -0.3819  0.4419  0.3939
 2224SOL    HW118131   0.273   3.320  15.728 -0.7948 -0.4107  1.1899
 2224SOL    HW218132   0.376   3.430  15.767 -0.6089  0.1244 -0.6211
 2225SOL     OW18133   1.482   3.875  11.453  0.2263  0.4951  0.0190
 2225SOL    HW118134   1.555   3.840  11.505  1.2680  1.3948 -0.8403
 2225SOL    HW218135   1.487   3.824  11.373 -2.9403 -0.0909  0.1974
 2226SOL     OW18136   0.053   0.054   4.373 -0.2235  0.2591 -0.1533
 2226SOL    HW118137   4.722   4.712   4.333 -1.9095  0.6313  1.6260
 2226SOL    HW218138   0.053   0.026   4.464 -0.3271 -1.3549 -0.6552
 2227SOL     OW18139   1.974   1.336   6.891 -0.5176 -0.3040  0.1243
 2227SOL    HW118140   1.978   1.412   6.949  0.5655 -0.4252  0.1973
 2227SOL    HW218141   1.893   1.356   6.844 -0.6597 -0.9911  0.0731
 2228SOL     OW18142   3.747   1.302  14.603 -0.5299 -0.5408 -0.0890
 2228SOL    HW118143   3.777   1.234  14.543  2.1023  2.1324 -1.8558
 2228SOL    HW218144   3.657   1.318  14.576 -1.2681 -0.4469  2.4218
 2229SOL     OW18145   4.336   2.561   4.551  0.0067 -0.0960  0.4923
 2229SOL    HW118146   4.253   2.547   4.505 -0.9644 -1.1292  2.5421
 2229SOL    HW218147   4.350   2.652   4.525 -1.4881  0.0842  0.3128
 2230SOL     OW18148   3.262   4.185   7.771 -0.0520 -0.5817 -0.1648
 2230SOL    HW118149   3.277   4.097   7.736 -1.6152 -1.0851  0.4122
 2230SOL    HW218150   3.205   4.170   7.847 -1.1436  1.3293 -0.6113
 2231SOL     OW18151   0.490   2.344   7.147  0.5520  0.2056 -0.2779
 2231SOL    HW118152   0.435   2.328   7.223 -3.2254  1.2726 -2.7627
 2231SOL    HW218153   0.420   2.334   7.083 -1.1658 -3.1741  2.1541
 2232SOL     OW18154   1.818   1.410   9.660  0.3790 -0.5809  0.0497
 2232SOL    HW118155   1.903   1.367   9.653  0.6063  0.1747 -2.0892
 2232SOL    HW218156   1.834   1.496   9.700 -0.1262  0.1130 -1.2282
 2233SOL     OW18157   0.147   0.107   9.728  0.9026 -0.8974 -0.2625
 2233SOL    HW118158   0.228   0.155   9.744 -0.9857  1.8266  1.1418
 2233SOL    HW218159   0.144   0.044   9.800 -2.7898  0.5676  0.8800
 2234SOL     OW18160   2.108   2.578  15.148  0.3137  0.5607 -0.4968
 2234SOL    HW118161   2.177   2.639  15.176 -1.3015  0.8401  2.8619
 2234SOL    HW218162   2.105   2.586  15.053 -0.7436 -1.9852 -0.6807
 2235SOL     OW18163   2.551   2.393   8.236  0.5548 -0.1717  0.9325
 2235SOL    HW118164   2.522   2.341   8.311 -1.5967  2.2795  1.8150
 2235SOL    HW218165   2.472   2.446   8.230 -0.7394 -2.2967 -0.5772
 2236SOL     OW18166   1.574   1.918   4.965  0.1471 -0.2111 -0.2415
 2236SOL    HW118167   1.528   1.974   5.028 -1.4941 -1.4435 -0.3180
 2236SOL    HW218168   1.662   1.912   5.000 -0.3363 -1.4350  0.7635
 2237SOL     OW18169   4.419   4.391  11.725  0.3144 -0.2281  0.4544
 2237SOL    HW118170   4.504   4.422  11.759  0.3447  0.1640  0.0184
 2237SOL    HW218171   4.383   4.478  11.706 -1.9099 -0.7571  2.2540
 2238SOL     OW18172   4.402   3.430   7.446 -0.2649  0.7103  0.1307
 2238SOL    HW118173   4.448   3.390   7.372  1.8608 -0.5713  2.1615
 2238SOL    HW218174   4.312   3.423   7.414 -0.3942  0.2580  0.5933
 2239SOL     OW18175   3.220   0.536  15.743 -0.0030  0.0854  0.2345
 2239SOL    HW118176   3.307   0.576  15.749  0.2431 -0.4434  0.1655
 2239SOL    HW218177   3.202   0.540  15.649  1.4742  1.8413  0.0269
 2240SOL     OW18178   3.144   0.250   4.996 -0.1785  0.6256 -0.1824
 2240SOL    HW118179   3.111   0.276   5.082  1.3158  0.5400  0.4308
 2240SOL    HW218180   3.059   0.250   4.952 -0.1634 -1.7955 -0.2115
 2241SOL     OW18181   3.243   4.579  10.628  0.0126  0.0095 -0.8614
 2241SOL    HW118182   3.207   4.608  10.544  0.2994  0.1735 -0.9282
 2241SOL    HW218183   3.181   4.618  10.690  2.6387  2.8154  0.0353
 2242SOL     OW18184   1.151   4.334   2.362  0.3821 -0.0337 -0.0879
 2242SOL    HW118185   1.240   4.299   2.364  0.0348 -0.9307 -0.6485
 2242SOL    HW218186   1.114   4.321   2.275 -2.3076 -1.8118  1.3156
 2243SOL     OW18187   4.533   2.621   3.077  0.4218 -0.1152 -0.0094
 2243SOL    HW118188   4.539   2.659   2.989 -0.2909 -1.8846 -0.8324
 2243SOL    HW218189   4.459   2.566   3.053 -1.0391  0.5012  3.1003
 2244SOL     OW18190   1.328   2.109   0.617 -0.4348  0.1515  0.2874
 2244SOL    HW118191   1.248   2.153   0.588 -1.0603 -0.0175  1.7519
 2244SOL    HW218192   1.342   2.171   0.689  0.8376 -0.2576  0.3789
 2245SOL     OW18193   1.397   4.210   5.136  0.6968  0.4121 -0.0534
 2245SOL    HW118194   1.420   4.225   5.228  1.3346 -0.9726  0.0177
 2245SOL    HW218195   1.484   4.196   5.100  0.3728 -2.3543  0.1979
 2246SOL     OW18196   1.983   1.366   5.106 -0.2327 -0.6448  0.1700
 2246SOL    HW118197   1.911   1.416   5.065  0.7384  0.2732 -0.4106
 2246SOL    HW218198   1.929   1.311   5.163 -2.2514  2.0942  0.9512
 2247SOL     OW18199   0.302   0.314   1.565 -0.1264 -0.2625 -0.2302
 2247SOL    HW118200   0.343   0.367   1.634  0.8020 -1.1034 -0.1353
 2247SOL    HW218201   0.343   0.351   1.487  1.8044 -0.4596  0.6816
 2248SOL     OW18202   1.060   2.820   4.710  0.4052  0.0035 -0.6035
 2248SOL    HW118203   1.023   2.746   4.757 -0.3846  1.1626  0.5825
 2248SOL    HW218204   0.995   2.884   4.737 -0.4495 -0.6515 -1.1095
 2249SOL     OW18205   4.086   2.383   8.576 -0.5394 -0.7626  0.0930
 2249SOL    HW118206   4.043   2.411   8.495  1.4959  0.1497 -0.6795
 2249SOL    HW218207   4.177   2.391   8.549 -0.5365 -0.2338  0.2496
 2250SOL     OW18208   0.187   0.882  15.641 -0.4005  0.2567 -0.4500
 2250SOL    HW118209   0.181   0.838  15.555  0.0118  0.3611 -0.5324
 2250SOL    HW218210   0.121   0.835  15.691  0.8567 -1.6715 -0.5894
 2251SOL     OW18211   3.029   0.513   8.505  0.2598 -0.2384 -0.0257
 2251SOL    HW118212   3.073   0.459   8.440 -1.3366 -1.1748 -0.3257
 2251SOL    HW218213   3.109   0.557   8.536  0.7978  0.2112 -2.0836
 2252SOL     OW18214   1.988   1.998   2.723 -0.2389 -0.0535 -0.2619
 2252SOL    HW118215   2.038   2.059   2.777  0.2808 -1.2223  0.5784
 2252SOL    HW218216   1.990   1.923   2.783 -1.2973 -1.1047 -1.5134
 2253SOL     OW18217   1.472   4.224   8.272 -0.0194  0.2775  0.0602
 2253SOL    HW118218   1.527   4.261   8.340 -0.4143  0.1827  0.4355
 2253SOL    HW218219   1.529   4.152   8.246  1.4010  1.5975 -0.4649
 2254SOL     OW18220   0.979   0.555   7.270  0.3128  0.3004  0.8930
 2254SOL    HW118221   1.018   0.478   7.227  1.8807  2.1042 -0.9381
 2254SOL    HW218222   0.947   0.601   7.192  0.1361  2.2318  2.1178
 2255SOL     OW18223   0.544   4.498   5.306 -0.5456 -0.5118 -0.2354
 2255SOL    HW118224   0.534   4.511   5.212  1.2930 -1.5909 -0.5795
 2255SOL    HW218225   0.637   4.515   5.319 -0.5241  0.3231 -1.4871
 2256SOL     OW18226   2.200   0.144  13.620 -0.4575 -0.0598  0.1186
 2256SOL    HW118227   2.181   0.234  13.647  0.0778 -0.5024  1.9818
 2256SOL    HW218228   2.160   0.086  13.684  0.5683 -1.5019 -0.5500
 2257SOL     OW18229   2.601   3.790   3.794  0.0728  0.0075  0.5132
 2257SOL    HW118230   2.612   3.768   3.701 -0.2870  0.7314  0.2920
 2257SOL    HW218231   2.507   3.776   3.806 -0.3192 -0.7687 -3.2885
 2258SOL     OW18232   4.147   0.075   5.401 -0.0224  0.4346 -0.7309
 2258SOL    HW118233   4.169   0.064   5.308  0.2555 -0.6947 -0.5266
 2258SOL    HW218234   4.210   0.022   5.449 -0.8861  0.0142 -0.0570
 2259SOL     OW18235   1.925   1.458   0.072  0.2711  0.0524 -0.7461
 2259SOL    HW118236   2.004   1.418   0.037  1.8976  0.9219  1.9049
 2259SOL    HW218237   1.931   1.545   0.031 -2.0266  1.1776  1.2506
 2260SOL     OW18238   3.012   0.448   3.348 -0.3123  0.5372  0.3405
 2260SOL    HW118239   2.993   0.451   3.254  0.7301 -0.8301  0.0952
 2260SOL    HW218240   3.062   0.367   3.348  0.3468  0.9430  1.4003
 2261SOL     OW18241   4.305   0.376   5.353  0.3297 -0.1783  0.5379
 2261SOL    HW118242   4.244   0.415   5.417 -0.9994 -1.1745 -0.1227
 2261SOL    HW218243   4.264   0.389   5.267  1.3451  2.2780  0.4110
 2262SOL     OW18244   1.076   2.027   7.946  0.0834  0.3083  0.1802
 2262SOL    HW118245   1.026   2.104   7.971 -0.9950  0.0905 -1.3018
 2262SOL    HW218246   1.075   2.027   7.850  1.5606  0.0168  0.1522
 2263SOL     OW18247   3.444   2.302   5.737  0.2377  0.3969 -0.5642
 2263SOL    HW118248   3.470   2.328   5.826  0.4685 -0.7961 -0.2817
 2263SOL    HW218249   3.496   2.223   5.721 -0.1916  0.4085 -1.9470
 2264SOL     OW18250   1.262   3.609  14.839 -0.4198 -0.8359 -0.5166
 2264SOL    HW118251   1.185   3.631  14.892  0.7616 -0.4975  1.0873
 2264SOL    HW218252   1.238   3.536  14.783  1.1361 -2.3985  0.8749
 2265SOL     OW18253   0.907   2.871   8.711  0.1013 -0.1755 -0.0490
 2265SOL    HW118254   0.839   2.905   8.653  1.4742  0.6835 -1.1650
 2265SOL    HW218255   0.948   2.954   8.735  1.5392 -0.2349 -2.3454
 2266SOL     OW18256   2.589   4.089   9.531 -0.5934 -0.0070 -0.5680
 2266SOL    HW118257   2.595   4.133   9.446 -2.5875 -0.3339 -0.8772
 2266SOL    HW218258   2.523   4.026   9.504 -0.8467  0.4126 -0.9288
 2267SOL     OW18259   4.233   1.749   7.373  0.5316 -0.8310 -0.6200
 2267SOL    HW118260   4.177   1.803   7.430  1.9671 -1.8586  1.7821
 2267SOL    HW218261   4.280   1.818   7.327 -0.8798  0.9988  0.6674
 2268SOL     OW18262   3.855   3.656   9.842  0.5064  0.1396 -0.2115
 2268SOL    HW118263   3.778   3.602   9.824  1.4364 -0.9216 -1.0254
 2268SOL    HW218264   3.820   3.711   9.912 -0.5389  0.0883 -0.6989
 2269SOL     OW18265   0.682   4.095   3.812 -0.3020  0.1138  0.6708
 2269SOL    HW118266   0.741   4.040   3.761 -0.1987  1.5724 -0.7694
 2269SOL    HW218267   0.656   4.155   3.742  0.8777  1.3448  1.2878
 2270SOL     OW18268   3.867   1.808  10.087 -0.5847 -0.3503  0.7071
 2270SOL    HW118269   3.838   1.723  10.053  1.4227 -0.6865 -0.1730
 2270SOL    HW218270   3.957   1.793  10.116  0.0401  0.4418 -0.8062
 2271SOL     OW18271   1.589   0.402  16.537  0.5532  0.4348 -0.1108
 2271SOL    HW118272   1.522   0.466  16.559  0.1505 -0.7315  2.0569
 2271SOL    HW218273   1.578   0.389  16.443 -1.1484 -2.0968  0.4317
 2272SOL     OW18274   1.815   3.493  10.052  0.2229  0.3233 -0.2824
 2272SOL    HW118275   1.831   3.401  10.074 -0.2890  0.5450  1.0184
 2272SOL    HW218276   1.806   3.535  10.138 -0.4577 -0.6049  0.1024
 2273SOL     OW18277   1.498   0.684  17.116 -0.1734  0.0515  0.4356
 2273SOL    HW118278   1.563   0.710  17.181  0.2572 -1.1596  0.4830
 2273SOL    HW218279   1.504   0.750  17.046  1.1225  1.4508  1.8604
 2274SOL     OW18280   1.556   0.484   5.971  0.4182  0.3958  1.1778
 2274SOL    HW118281   1.559   0.433   6.053  0.7970 -0.9307  0.3447
 2274SOL    HW218282   1.630   0.441   5.928 -0.1165  1.1352 -0.4512
 2275SOL     OW18283   2.471   1.660   9.242  0.0539 -0.0772  0.3969
 2275SOL    HW118284   2.546   1.676   9.184 -0.8576  0.7814 -0.5322
 2275SOL    HW218285   2.397   1.667   9.181  2.7741  0.4371 -2.8457
 2276SOL     OW18286   3.943   3.663   0.320  0.4451  0.7013  0.0910
 2276SOL    HW118287   3.883   3.724   0.364 -1.7235 -0.9296 -0.6119
 2276SOL    HW218288   3.961   3.609   0.397 -1.5443 -1.2898 -0.8548
 2277SOL     OW18289   2.999   2.737   2.750 -0.2373 -1.5806  0.2097
 2277SOL    HW118290   3.027   2.646   2.751  2.8950 -0.6398  1.2647
 2277SOL    HW218291   2.911   2.726   2.784 -0.2553  0.6235  0.9042
 2278SOL     OW18292   2.322   2.525   8.147 -0.4020 -0.2268  0.3838
 2278SOL    HW118293   2.322   2.614   8.182  0.7073  0.7757 -2.2418
 2278SOL    HW218294   2.228   2.506   8.149 -0.6376  0.8505 -0.9564
 2279SOL     OW18295   4.700   0.040   6.072 -0.1034  0.2050 -0.6748
 2279SOL    HW118296   4.681   0.104   6.003  1.5686  1.2451 -0.1833
 2279SOL    HW218297   0.071   0.034   6.080 -0.1934 -1.8390 -1.2671
 2280SOL     OW18298   0.777   3.347  12.866  0.3415  0.4033 -0.0747
 2280SOL    HW118299   0.694   3.344  12.913 -0.4068  0.5450 -1.3804
 2280SOL    HW218300   0.740   3.338  12.778  0.9014  1.6655 -0.4377
 2281SOL     OW18301   1.499   0.685  17.506  0.4903 -0.5963 -0.2036
 2281SOL    HW118302   1.438   0.622  17.545 -1.4969  0.6891 -1.2575
 2281SOL    HW218303   1.578   0.674  17.559  0.5432 -0.1897 -0.2000
 2282SOL     OW18304   0.438   0.407   5.612  0.2022 -0.5634 -0.8553
 2282SOL    HW118305   0.361   0.371   5.567 -1.6548 -0.1063  1.9730
 2282SOL    HW218306   0.483   0.325   5.631  0.1324 -0.1564  1.0679
 2283SOL     OW18307   0.675   2.667   1.596  0.0258  0.5789  0.0510
 2283SOL    HW118308   0.637   2.580   1.609  2.2238 -0.3624  0.1792
 2283SOL    HW218309   0.732   2.682   1.671  0.0567 -0.6514  0.2837
 2284SOL     OW18310   4.413   1.494   2.916  0.5909  0.1220 -0.0051
 2284SOL    HW118311   4.421   1.400   2.933 -1.2582 -0.4099 -1.9564
 2284SOL    HW218312   4.321   1.502   2.891  1.0369 -0.7383 -1.9294
 2285SOL     OW18313   4.438   1.520   5.672  0.0732 -0.0391  0.4039
 2285SOL    HW118314   4.528   1.489   5.685 -0.3653 -1.7900 -0.7133
 2285SOL    HW218315   4.398   1.447   5.624 -0.8199  0.5142  0.3078
 2286SOL     OW18316   3.454   1.078   3.008 -0.5107  0.7096  0.4156
 2286SOL    HW118317   3.527   1.132   2.980  0.2919  0.2813  1.7104
 2286SOL    HW218318   3.381   1.109   2.954  0.7849 -0.4114 -1.9617
 2287SOL     OW18319   0.177   0.556   4.462  0.0502 -0.0099 -0.0376
 2287SOL    HW118320   0.162   0.613   4.388 -1.4815 -0.9790 -0.4820
 2287SOL    HW218321   0.171   0.477   4.409  2.0457  0.4788 -0.9692
 2288SOL     OW18322   2.434   2.590   2.702  0.3070 -0.4390  0.1626
 2288SOL    HW118323   2.524   2.570   2.676 -0.4931 -0.5312 -2.4995
 2288SOL    HW218324   2.445   2.682   2.678  0.3112 -0.3965  0.3248
 2289SOL     OW18325   4.229   1.742   5.586 -0.5741  0.3324 -0.0426
 2289SOL    HW118326   4.313   1.783   5.564  0.8840 -1.4639  2.0776
 2289SOL    HW218327   4.245   1.713   5.676  1.5480 -0.7666 -0.7744
 2290SOL     OW18328   4.673   3.955   5.748  0.1403 -0.7100  0.1672
 2290SOL    HW118329   4.684   4.039   5.703 -0.3673  0.5196  2.3259
 2290SOL    HW218330   4.618   3.912   5.683 -1.4330 -0.6956  1.4870
 2291SOL     OW18331   0.951   0.069   2.600  0.4764  0.1441 -0.0849
 2291SOL    HW118332   0.889   0.079   2.527  1.4484 -1.8902 -1.1980
 2291SOL    HW218333   0.949   0.160   2.629 -0.2362  0.3066 -0.6399
 2292SOL     OW18334   3.317   0.849  12.638  0.0430  0.0703  0.4956
 2292SOL    HW118335   3.408   0.834  12.660  0.5037 -0.0969 -1.5732
 2292SOL    HW218336   3.264   0.801  12.702 -0.1395 -0.2511  0.1009
 2293SOL     OW18337   0.636   4.174   8.166  0.0563 -0.1334  0.0982
 2293SOL    HW118338   0.690   4.127   8.102  0.3848  1.3854 -0.7465
 2293SOL    HW218339   0.681   4.161   8.249 -0.5480  0.2334  0.4880
 2294SOL     OW18340   2.945   2.112   4.646  0.2663  0.1585 -0.4768
 2294SOL    HW118341   2.862   2.093   4.603  0.1047 -0.1727 -0.0088
 2294SOL    HW218342   2.953   2.028   4.691  0.1127 -0.9578 -2.4997
 2295SOL     OW18343   0.525   1.772   4.904  0.2908  1.0558  0.6337
 2295SOL    HW118344   0.480   1.716   4.967  0.2460 -1.3111 -1.4972
 2295SOL    HW218345   0.468   1.778   4.827  1.8643  0.9220 -0.5481
 2296SOL     OW18346   4.497   4.597  13.266 -0.4080 -0.4073  0.3412
 2296SOL    HW118347   4.416   4.555  13.237 -1.0899  0.5362  0.8555
 2296SOL    HW218348   4.551   4.521  13.286  2.3092  2.0087  2.0680
 2297SOL     OW18349   1.872   3.326   1.008 -0.2476  0.0930 -0.4843
 2297SOL    HW118350   1.816   3.353   0.935 -0.3804 -0.4868 -0.5973
 2297SOL    HW218351   1.835   3.238   1.012 -2.3032  0.8843 -1.8927
 2298SOL     OW18352   2.738   3.513  15.635 -0.0117 -0.0612 -0.3920
 2298SOL    HW118353   2.737   3.603  15.667 -0.5752 -0.7026  1.4157
 2298SOL    HW218354   2.659   3.483  15.680  0.8687  0.8336  1.7712
 2299SOL     OW18355   2.047   1.196  17.095  0.0272  0.2450 -0.1148
 2299SOL    HW118356   2.074   1.283  17.063  0.4723  0.1676  0.0431
 2299SOL    HW218357   2.127   1.156  17.061  0.8449  1.2755  0.5887
 2300SOL     OW18358   2.444   1.915   5.944  0.6271 -0.0637  0.2097
 2300SOL    HW118359   2.416   1.826   5.964 -1.2719  0.4984  0.0139
 2300SOL    HW218360   2.495   1.894   5.865 -0.4179  0.1278 -0.5056
 2301SOL     OW18361   1.125   1.850  12.855 -0.1199  0.5430 -0.3353
 2301SOL    HW118362   1.142   1.819  12.944 -2.0858  0.3684 -0.0177
 2301SOL    HW218363   1.094   1.769  12.816 -2.6979 -0.6451  4.2038
 2302SOL     OW18364   0.419   4.263  12.481 -0.0621  0.4192 -0.1442
 2302SOL    HW118365   0.373   4.186  12.447 -0.8445  0.4983  0.7444
 2302SOL    HW218366   0.373   4.330  12.430  1.4839  1.0640 -0.7038
 2303SOL     OW18367   1.340   4.381   0.076  0.3546  0.2150 -0.2392
 2303SOL    HW118368   1.249   4.377   0.106 -0.1841 -1.2950 -2.0716
 2303SOL    HW218369   1.326   4.424  17.691 -0.8799  1.5098  0.6220
 2304SOL     OW18370   2.952   3.349   6.168  0.6033 -0.7423  0.3674
 2304SOL    HW118371   2.989   3.299   6.095 -1.8992 -1.1723 -0.5944
 2304SOL    HW218372   2.940   3.278   6.231 -0.4147 -2.2124 -1.5199
 2305SOL     OW18373   4.662   2.369   7.073  0.0088  0.3422 -0.6183
 2305SOL    HW118374   4.723   2.400   7.007 -0.1262  0.2928 -0.7687
 2305SOL    HW218375   4.598   2.439   7.084  0.4372  1.0080 -2.3419
 2306SOL     OW18376   1.635   2.425   1.201 -0.1228 -0.3223  0.0119
 2306SOL    HW118377   1.722   2.438   1.165  0.5587  1.5371  2.3594
 2306SOL    HW218378   1.604   2.515   1.197 -0.4575 -0.3867  1.2401
 2307SOL     OW18379   4.400   1.916   4.071 -0.5047 -0.2626 -0.2230
 2307SOL    HW118380   4.433   1.931   4.160 -2.4812 -1.0011  0.6312
 2307SOL    HW218381   4.447   1.982   4.021  0.1257  0.7317  1.6915
 2308SOL     OW18382   4.291   3.516   6.072 -0.1749  0.0562  0.2699
 2308SOL    HW118383   4.216   3.519   6.012  0.1590 -1.2234 -0.2120
 2308SOL    HW218384   4.245   3.549   6.149 -1.7578  0.5705 -0.8922
 2309SOL     OW18385   1.397   0.537  17.308  0.0678  0.0247  0.4468
 2309SOL    HW118386   1.432   0.589  17.380  4.3727  0.1831 -1.7371
 2309SOL    HW218387   1.411   0.595  17.233 -2.6446  0.4040  0.2181
 2310SOL     OW18388   3.721   1.672   6.397  0.3650 -0.7743 -0.4934
 2310SOL    HW118389   3.741   1.673   6.303  0.7391 -1.6696 -0.4221
 2310SOL    HW218390   3.709   1.762   6.426  0.4433 -0.6665 -0.7879
 2311SOL     OW18391   3.235   2.506   8.673 -0.4001  0.5342  0.9372
 2311SOL    HW118392   3.267   2.592   8.702 -0.8812  1.8689 -2.4617
 2311SOL    HW218393   3.303   2.481   8.609 -2.5032 -1.1539 -0.6337
 2312SOL     OW18394   2.366   0.803  11.670  0.1637 -0.2779  0.6011
 2312SOL    HW118395   2.294   0.810  11.732  1.2271  2.4971  1.4707
 2312SOL    HW218396   2.345   0.856  11.593  0.9210 -0.9806 -0.1013
 2313SOL     OW18397   2.970   2.453   4.268 -0.0118  0.5749 -1.2372
 2313SOL    HW118398   3.036   2.421   4.330  0.5707 -0.1100 -2.2121
 2313SOL    HW218399   2.986   2.546   4.280  0.9564  0.4459 -1.5346
 2314SOL     OW18400   0.402   2.433   4.477  0.5882  0.2974  0.1513
 2314SOL    HW118401   0.482   2.388   4.504  1.3607  2.2135  1.0822
 2314SOL    HW218402   0.351   2.359   4.445 -1.7405  2.2788 -0.7546
 2315SOL     OW18403   0.490   1.593  11.796  0.5654 -0.1782 -0.4739
 2315SOL    HW118404   0.497   1.497  11.799  0.2452 -0.2176 -0.9668
 2315SOL    HW218405   0.563   1.632  11.747 -0.5925 -0.1742 -2.2224
 2316SOL     OW18406   4.188   0.547  17.102  0.1415  0.4761  0.4317
 2316SOL    HW118407   4.240   0.496  17.163  1.3562  0.8994 -0.2426
 2316SOL    HW218408   4.111   0.494  17.080 -0.2185  0.0363  2.7417
 2317SOL     OW18409   0.954   2.807  14.187  0.0836  0.0476  0.6004
 2317SOL    HW118410   0.928   2.889  14.144 -0.7968  0.0824  1.2019
 2317SOL    HW218411   0.975   2.757  14.109  2.0449  0.1093  1.0794
 2318SOL     OW18412   2.230   2.942   7.546 -0.4989  0.4882 -0.6372
 2318SOL    HW118413   2.242   2.876   7.614  2.7977  0.2545 -1.4224
 2318SOL    HW218414   2.213   2.893   7.465 -2.5477  0.0226  0.0884
 2319SOL     OW18415   4.064   4.476   1.486 -0.2676  0.3602 -0.2463
 2319SOL    HW118416   4.129   4.412   1.515  1.3232  1.8421 -0.5255
 2319SOL    HW218417   3.989   4.442   1.535  0.0122 -0.2863 -0.2681
 2320SOL     OW18418   0.717   0.049   7.688  0.0342  0.0556  0.0845
 2320SOL    HW118419   0.757   0.041   7.602  3.0277  1.3179  1.3455
 2320SOL    HW218420   0.779   0.104   7.737 -2.4996  3.1836 -0.1627
 2321SOL     OW18421   2.961   3.590   1.669  0.8199  0.3947  0.1478
 2321SOL    HW118422   3.001   3.601   1.755  0.8651  0.4317  0.1222
 2321SOL    HW218423   3.011   3.645   1.608  0.4073  0.3122 -0.2701
 2322SOL     OW18424   1.733   3.323   6.547  0.0997 -0.0226 -0.4192
 2322SOL    HW118425   1.685   3.387   6.495  0.6603 -0.5828 -1.6160
 2322SOL    HW218426   1.745   3.372   6.629  0.1629 -0.8192  0.0437
 2323SOL     OW18427   3.794   2.080   8.780 -0.2569 -0.0419 -0.1243
 2323SOL    HW118428   3.790   2.175   8.791 -0.4389 -0.1867  1.0925
 2323SOL    HW218429   3.886   2.075   8.807 -0.5478 -0.9197  0.7209
 2324SOL     OW18430   1.957   1.001   5.569  0.3294 -0.9949 -0.8190
 2324SOL    HW118431   1.939   0.922   5.620 -2.1227  1.5144  2.2214
 2324SOL    HW218432   2.048   1.030   5.578  0.6200 -1.9209 -0.7936
 2325SOL     OW18433   4.395   1.208   5.438  0.1603 -0.8362  0.2056
 2325SOL    HW118434   4.363   1.272   5.375 -1.3516 -0.9059  0.9068
 2325SOL    HW218435   4.314   1.216   5.489 -0.2703  0.4716 -0.6724
 2326SOL     OW18436   1.930   3.008   1.994 -0.4154  0.3396  0.0414
 2326SOL    HW118437   1.851   2.990   1.942 -0.9249 -2.9128  1.9161
 2326SOL    HW218438   1.965   2.919   1.998 -2.2284 -0.2041  3.1867
 2327SOL     OW18439   3.991   2.277   1.763  0.0762  0.0430 -0.4131
 2327SOL    HW118440   3.906   2.322   1.756  0.3744  1.0170  2.2599
 2327SOL    HW218441   3.961   2.194   1.800  0.3082  0.4350  0.6384
 2328SOL     OW18442   2.904   3.184   2.739  0.5593 -0.0752  0.2008
 2328SOL    HW118443   2.861   3.202   2.822 -1.2117 -1.1968 -0.4482
 2328SOL    HW218444   2.953   3.266   2.737  1.4226 -0.6046 -0.1521
 2329SOL     OW18445   2.094   4.168  15.237 -0.4402 -0.0623 -0.0205
 2329SOL    HW118446   2.134   4.248  15.272  0.4896 -0.7843  0.5726
 2329SOL    HW218447   2.166   4.106  15.246  1.1332  1.4041 -2.5270
 2330SOL     OW18448   3.792   4.140   5.835  0.4970  0.6541 -0.1296
 2330SOL    HW118449   3.700   4.123   5.814  0.4087  0.6693  0.2435
 2330SOL    HW218450   3.804   4.072   5.901  2.5676  2.5939  1.4868
 2331SOL     OW18451   3.562   4.532   1.526 -0.1998  0.2565  0.1036
 2331SOL    HW118452   3.504   4.550   1.452  0.0387 -0.7996 -0.3359
 2331SOL    HW218453   3.536   4.442   1.543 -0.4769  0.5266  1.1096
 2332SOL     OW18454   0.081   1.931   7.276  0.5254 -0.5892  0.0836
 2332SOL    HW118455   0.145   1.972   7.219 -1.9188 -0.0415 -2.2902
 2332SOL    HW218456   0.090   1.982   7.356  0.6063 -0.9666  0.3170
 2333SOL     OW18457   0.728   4.192   4.082 -0.4184  0.5584  0.2626
 2333SOL    HW118458   0.823   4.190   4.067 -0.6266 -2.0857 -0.6626
 2333SOL    HW218459   0.690   4.157   4.002 -1.3026  0.2757  0.8051
 2334SOL     OW18460   0.783   4.157  10.549  0.4894  0.7861  0.2051
 2334SOL    HW118461   0.847   4.116  10.607  0.7093  0.5837 -0.1783
 2334SOL    HW218462   0.705   4.155  10.603  0.3303  0.6512 -0.0327
 2335SOL     OW18463   1.633   0.200   8.173  0.7853 -0.0757 -0.2336
 2335SOL    HW118464   1.605   0.155   8.252  0.5435  1.6043  0.6285
 2335SOL    HW218465   1.706   0.253   8.206  0.4573  0.4974 -0.4396
 2336SOL     OW18466   0.694   0.605   4.751  0.1727 -0.4934 -0.2112
 2336SOL    HW118467   0.627   0.551   4.793 -1.3223  0.0942 -1.8346
 2336SOL    HW218468   0.662   0.688   4.785  1.7237 -0.7584  1.9613
 2337SOL     OW18469   1.468   1.064   1.526  0.5556 -0.1454 -0.1968
 2337SOL    HW118470   1.462   0.971   1.503 -3.1302  0.5919 -2.3263
 2337SOL    HW218471   1.401   1.065   1.594  0.5804  0.7133 -0.1851
 2338SOL     OW18472   0.023   4.228   2.677  0.3997  0.3556 -0.1812
 2338SOL    HW118473   0.055   4.172   2.606 -0.9101 -1.4304  0.6318
 2338SOL    HW218474   4.715   4.155   2.729 -0.0342  0.2477 -0.5993
 2339SOL     OW18475   2.746   2.076   4.438 -0.2577  0.3217 -0.6020
 2339SOL    HW118476   2.789   2.016   4.377  0.9299  0.3453  0.2112
 2339SOL    HW218477   2.762   2.164   4.404 -1.3118  1.7058  2.4741
 2340SOL     OW18478   4.533   4.161  15.765  0.1399  0.7579  0.9638
 2340SOL    HW118479   4.537   4.113  15.682  1.7164 -0.6951  1.9014
 2340SOL    HW218480   4.524   4.093  15.832  1.6972 -0.9212 -0.5400
 2341SOL     OW18481   0.396   3.856   3.087 -0.2468  0.1102 -0.1145
 2341SOL    HW118482   0.455   3.802   3.035  0.1330 -0.1545  0.5927
 2341SOL    HW218483   0.424   3.947   3.072  0.9523 -0.5945 -2.0839
 2342SOL     OW18484   3.514   4.236   1.548  0.0776 -0.8737 -0.4888
 2342SOL    HW118485   3.421   4.259   1.551  0.5156  0.6363  1.9075
 2342SOL    HW218486   3.524   4.146   1.516  3.3427 -0.3100 -1.0158
 2343SOL     OW18487   3.910   4.106   3.446  0.0539 -0.0672  0.0703
 2343SOL    HW118488   3.987   4.161   3.445  0.4743 -0.6372  0.5970
 2343SOL    HW218489   3.946   4.029   3.402  0.3488  0.1568 -0.0796
 2344SOL     OW18490   4.067   0.220   4.826  0.3131  0.1977 -0.1602
 2344SOL    HW118491   3.998   0.198   4.763 -0.0985 -0.5672  0.5444
 2344SOL    HW218492   4.049   0.161   4.900 -1.0541  1.4887  0.5390
 2345SOL     OW18493   2.668   2.210   8.058 -0.6659  1.2552 -0.2673
 2345SOL    HW118494   2.603   2.152   8.098  0.5498 -0.2316 -0.3983
 2345SOL    HW218495   2.653   2.291   8.106 -2.3761  0.6292  0.2442
 2346SOL     OW18496   1.744   0.366   6.964  0.1997  0.5123  0.4477
 2346SOL    HW118497   1.797   0.286   6.958  0.4623  0.9412 -2.9257
 2346SOL    HW218498   1.697   0.348   7.046 -1.1272 -1.5801 -0.7666
 2347SOL     OW18499   0.111   2.590  14.826 -0.5941  0.8322  0.0136
 2347SOL    HW118500   0.186   2.570  14.771 -0.0625  2.7758  0.0178
 2347SOL    HW218501   0.039   2.581  14.764 -1.2739  0.1179  0.9004
 2348SOL     OW18502   2.677   2.748   2.064 -0.0690  0.1041 -0.1115
 2348SOL    HW118503   2.613   2.677   2.057  1.1904 -1.0737  0.3766
 2348SOL    HW218504   2.703   2.765   1.973  0.8273  0.3577  0.1976
 2349SOL     OW18505   3.668   3.146  15.254  0.3441 -0.2181 -0.2421
 2349SOL    HW118506   3.748   3.196  15.237 -0.1552  0.4421 -0.6652
 2349SOL    HW218507   3.679   3.065  15.205  0.5077 -0.0577 -0.4739
 2350SOL     OW18508   2.179   0.779   9.284  0.3254  0.4983  0.0151
 2350SOL    HW118509   2.196   0.862   9.328  0.0264  0.2009  0.6897
 2350SOL    HW218510   2.225   0.779   9.199  3.0416 -0.9051  1.4808
 2351SOL     OW18511   0.413   1.159   5.935  0.3404 -0.4650  0.1297
 2351SOL    HW118512   0.388   1.251   5.929  0.4050 -0.5044 -0.8565
 2351SOL    HW218513   0.364   1.110   5.868  0.1325  1.1116 -0.8746
 2352SOL     OW18514   3.854   1.162   6.686  0.2756 -0.6552 -0.0685
 2352SOL    HW118515   3.856   1.236   6.625  0.9948 -0.0072  0.7371
 2352SOL    HW218516   3.948   1.157   6.705  0.4655 -0.2481 -0.8994
 2353SOL     OW18517   4.187   2.572   4.830  0.0893  0.1438 -0.4297
 2353SOL    HW118518   4.277   2.560   4.801  0.6138 -0.1066  1.3402
 2353SOL    HW218519   4.198   2.621   4.911 -0.6578  0.0217 -0.2585
 2354SOL     OW18520   0.408   0.834   6.613 -0.0017  0.4426 -0.1298
 2354SOL    HW118521   0.315   0.852   6.600  0.0862  1.6766  0.9787
 2354SOL    HW218522   0.398   0.747   6.654  2.5026  0.7709  1.1374
 2355SOL     OW18523   2.594   2.897   9.510  0.4485 -0.1187  0.7656
 2355SOL    HW118524   2.546   2.853   9.440 -0.6011  1.3963  0.5235
 2355SOL    HW218525   2.595   2.838   9.585  0.8423 -0.5867  0.3906
 2356SOL     OW18526   0.253   4.385   8.146  0.0863 -0.0529 -0.5171
 2356SOL    HW118527   0.292   4.297   8.145  0.1177 -0.0101 -2.0742
 2356SOL    HW218528   0.162   4.356   8.151 -0.1459  0.5928 -1.1725
 2357SOL     OW18529   0.730   3.340   7.284  0.0060  0.6188 -0.8650
 2357SOL    HW118530   0.651   3.292   7.307  1.2422  0.6091  3.4659
 2357SOL    HW218531   0.779   3.283   7.224  0.8273  0.5253 -0.1135
 2358SOL     OW18532   4.104   1.820  11.420  0.0597  0.0323 -0.8078
 2358SOL    HW118533   4.105   1.788  11.511 -1.7915 -2.5103 -1.6933
 2358SOL    HW218534   4.192   1.789  11.396  0.5682 -0.3394  1.4791
 2359SOL     OW18535   1.492   3.558  11.510  0.4826  0.5336  0.0318
 2359SOL    HW118536   1.588   3.560  11.509  0.5197 -0.7732  1.1327
 2359SOL    HW218537   1.485   3.479  11.457  1.6311  0.5291 -0.1247
 2360SOL     OW18538   2.178   3.133   7.939 -0.3517 -0.0863 -0.4700
 2360SOL    HW118539   2.197   3.153   7.847 -1.8514  1.4008 -0.4624
 2360SOL    HW218540   2.120   3.061   7.914  1.1211 -1.5239  0.2079
 2361SOL     OW18541   4.483   4.267   9.240  0.1294 -0.2167  0.0353
 2361SOL    HW118542   4.504   4.186   9.195  2.0426  0.1941  0.1834
 2361SOL    HW218543   4.437   4.307   9.166  1.7606  1.8493  0.1405
 2362SOL     OW18544   1.174   3.342   7.684 -0.1662 -0.0798 -0.0469
 2362SOL    HW118545   1.138   3.276   7.742 -0.1465  1.0625  1.2529
 2362SOL    HW218546   1.128   3.420   7.717 -0.4207  0.5629 -1.9173
 2363SOL     OW18547   1.677   2.346   4.321 -0.4877  0.1304  0.5873
 2363SOL    HW118548   1.664   2.265   4.270  2.2775 -0.4154  0.7855
 2363SOL    HW218549   1.663   2.415   4.257 -0.2723 -1.3974 -1.1271
 2364SOL     OW18550   0.718   1.455   5.224 -0.2200 -0.2749 -0.1031
 2364SOL    HW118551   0.712   1.440   5.318 -2.6040 -1.7534 -0.5157
 2364SOL    HW218552   0.769   1.535   5.208  0.4890 -0.7016  0.0251
 2365SOL     OW18553   0.735   2.627   2.941 -0.1485  0.0470 -0.0046
 2365SOL    HW118554   0.688   2.700   2.900 -0.7955 -1.2358 -1.5416
 2365SOL    HW218555   0.732   2.656   3.032 -0.4473 -0.6005  0.1888
 2366SOL     OW18556   2.739   0.071   6.048  0.1911 -0.4226  0.4065
 2366SOL    HW118557   2.788   0.013   6.106 -1.0378 -1.6327  0.2169
 2366SOL    HW218558   2.799   0.072   5.973  1.3272 -0.0839  1.3212
 2367SOL     OW18559   1.942   3.290   9.084 -0.0696 -0.2829 -0.2300
 2367SOL    HW118560   1.896   3.304   9.001 -1.8016  0.9469  0.9315
 2367SOL    HW218561   1.870   3.236   9.116  0.1024 -0.4596 -0.1393
 2368SOL     OW18562   0.391   2.895   6.281  0.5553  0.0060 -0.1442
 2368SOL    HW118563   0.366   2.981   6.316 -0.1918 -0.6611  0.9659
 2368SOL    HW218564   0.481   2.916   6.259  0.4665 -0.0046 -0.5257
 2369SOL     OW18565   4.524   3.949   8.197 -0.3098  0.3354  0.1125
 2369SOL    HW118566   4.611   3.934   8.159 -0.2174  0.2852  0.3446
 2369SOL    HW218567   4.557   3.967   8.285  0.5264  1.5805 -0.4651
 2370SOL     OW18568   1.515   2.196   4.958  0.4739  0.1293 -0.2457
 2370SOL    HW118569   1.490   2.264   5.020  1.2003  0.9314 -0.8440
 2370SOL    HW218570   1.609   2.196   4.970  0.8566  1.8651 -3.2545
 2371SOL     OW18571   0.104   0.532   4.214  0.0264  0.0479 -0.6050
 2371SOL    HW118572   0.025   0.487   4.185 -0.1667 -0.2656  0.4443
 2371SOL    HW218573   0.151   0.542   4.131  0.8570 -0.6170 -0.2164
 2372SOL     OW18574   3.509   1.366  11.900  0.1697  0.0864 -0.9166
 2372SOL    HW118575   3.601   1.355  11.876 -0.0176  0.7668 -1.9442
 2372SOL    HW218576   3.521   1.377  11.994 -0.7095  3.6065 -1.1977
 2373SOL     OW18577   3.911   2.748  11.069 -0.4830 -0.2412 -0.6314
 2373SOL    HW118578   3.880   2.658  11.059 -2.1390  0.3223 -0.6226
 2373SOL    HW218579   3.974   2.742  11.141  0.7794  1.3275 -1.6001
 2374SOL     OW18580   4.165   2.351  16.539 -0.5327  0.3163  0.2830
 2374SOL    HW118581   4.159   2.313  16.627  2.7826 -0.1188  0.3201
 2374SOL    HW218582   4.210   2.284  16.489 -2.1417 -0.6444  0.1185
 2375SOL     OW18583   2.889   2.278   7.919 -0.2239 -0.5066 -0.0848
 2375SOL    HW118584   2.810   2.253   7.969 -0.2622  0.2989  0.2551
 2375SOL    HW218585   2.939   2.324   7.986  2.2487 -1.5768 -1.2305
 2376SOL     OW18586   3.297   2.235  10.945 -0.0681 -0.4593 -0.2776
 2376SOL    HW118587   3.259   2.295  10.882 -1.1434  0.6329  1.4026
 2376SOL    HW218588   3.351   2.291  11.001  0.2470  0.1812 -1.2344
 2377SOL     OW18589   4.471   2.108  10.788  0.0660 -0.6660 -0.0780
 2377SOL    HW118590   4.551   2.151  10.758 -0.8580  0.2617 -1.1797
 2377SOL    HW218591   4.502   2.030  10.834 -0.1260 -0.6446  0.0881
 2378SOL     OW18592   2.142   1.012  11.231 -0.5222 -0.4066 -0.0161
 2378SOL    HW118593   2.114   0.943  11.172  0.7236  0.2023 -1.3212
 2378SOL    HW218594   2.171   1.065  11.157  0.8737 -0.7778  0.2621
 2379SOL     OW18595   2.267   1.300   0.237 -0.1922  0.1343  0.2455
 2379SOL    HW118596   2.286   1.207   0.224 -1.4100 -0.2468  1.2031
 2379SOL    HW218597   2.313   1.330   0.315 -1.6473  3.5798 -0.2092
 2380SOL     OW18598   2.940   3.780   8.649  1.0899  0.2641 -0.2150
 2380SOL    HW118599   2.999   3.748   8.717  0.4885  1.6946  0.9845
 2380SOL    HW218600   2.933   3.712   8.581 -0.4479  1.0792 -0.8836
 2381SOL     OW18601   0.620   2.348  13.678  0.2300 -0.3099  0.3940
 2381SOL    HW118602   0.580   2.268  13.711 -0.6002 -0.7094 -1.6060
 2381SOL    HW218603   0.656   2.394  13.754 -0.6855  3.1024 -1.2147
 2382SOL     OW18604   2.568   0.429  15.004  0.1769  0.5118  0.2461
 2382SOL    HW118605   2.569   0.388  15.091 -2.2677 -1.3619 -0.6180
 2382SOL    HW218606   2.553   0.521  15.027 -0.5693 -0.1034  2.2588
 2383SOL     OW18607   4.610   3.606  13.676  0.4980 -0.6120 -0.3194
 2383SOL    HW118608   4.644   3.614  13.765  1.3903  4.0401 -1.0626
 2383SOL    HW218609   4.655   3.526  13.650 -0.6100 -0.9512 -1.1640
 2384SOL     OW18610   3.972   3.102  15.086 -0.8820 -0.2600  0.5669
 2384SOL    HW118611   4.055   3.066  15.054 -0.8749 -0.4186  0.7594
 2384SOL    HW218612   3.982   3.068  15.175  2.4077  2.0047  1.0687
 2385SOL     OW18613   0.967   0.663   3.629  0.2518  0.1576 -0.5582
 2385SOL    HW118614   0.983   0.735   3.690 -0.3945 -0.1308 -0.0553
 2385SOL    HW218615   0.920   0.704   3.556  2.2742  1.6504 -1.0372
 2386SOL     OW18616   3.256   4.149   1.568  0.2720  0.2209  0.2791
 2386SOL    HW118617   3.187   4.085   1.551  0.6513  0.0282 -0.4921
 2386SOL    HW218618   3.214   4.226   1.530 -0.9098 -0.2371  0.6464
 2387SOL     OW18619   2.660   4.277   7.631  0.3177 -0.0822  0.1463
 2387SOL    HW118620   2.718   4.204   7.612 -1.5001 -1.0827 -1.5698
 2387SOL    HW218621   2.713   4.334   7.687  1.0230 -0.2535 -0.3597
 2388SOL     OW18622   4.441   4.353   2.395  0.3181 -0.4309 -0.0280
 2388SOL    HW118623   4.490   4.278   2.362 -0.2044 -1.6178  1.8546
 2388SOL    HW218624   4.365   4.300   2.418 -0.3118  0.8431  0.8898
 2389SOL     OW18625   3.148   1.736   6.349 -0.2991  0.7973 -0.6102
 2389SOL    HW118626   3.170   1.777   6.432 -1.0690  1.3675 -0.6975
 2389SOL    HW218627   3.239   1.709   6.333 -0.5537 -1.8070  2.4075
 2390SOL     OW18628   4.405   3.104  10.538  0.4849 -0.3859 -0.3644
 2390SOL    HW118629   4.420   3.025  10.485 -1.2704 -0.3628 -0.8975
 2390SOL    HW218630   4.320   3.135  10.506  0.1261 -1.6142 -0.6127
 2391SOL     OW18631   4.406   0.173   8.821  0.0002 -0.0189 -0.0247
 2391SOL    HW118632   4.434   0.227   8.895 -1.1243 -0.9087  1.0481
 2391SOL    HW218633   4.329   0.133   8.862  0.4510 -0.4629  0.3909
 2392SOL     OW18634   1.435   2.133   6.281 -0.1939  0.0090  0.1222
 2392SOL    HW118635   1.503   2.197   6.257  0.9923 -1.3865 -0.2080
 2392SOL    HW218636   1.466   2.055   6.237  1.1806 -0.1827  1.4438
 2393SOL     OW18637   4.346   4.394  14.923 -0.3048 -0.2749 -0.2222
 2393SOL    HW118638   4.384   4.407  15.009 -2.7685  0.8506  0.7069
 2393SOL    HW218639   4.254   4.373  14.940 -0.3074  0.1044  0.2298
 2394SOL     OW18640   4.086   2.773   5.403 -0.3571 -0.1025 -0.5338
 2394SOL    HW118641   4.127   2.845   5.451 -1.3797  0.0150  0.1557
 2394SOL    HW218642   4.045   2.822   5.332  0.1002  0.0405 -0.7043
 2395SOL     OW18643   4.650   1.138   9.912  0.4100  0.7630  0.1057
 2395SOL    HW118644   4.705   1.201   9.865 -2.7613  4.1670  1.0044
 2395SOL    HW218645   4.559   1.154   9.887 -0.9714 -3.1440  2.6120
 2396SOL     OW18646   4.545   0.595  16.369 -0.2006 -0.3642 -0.0702
 2396SOL    HW118647   4.525   0.546  16.289  1.1670  1.4374 -1.5048
 2396SOL    HW218648   4.494   0.675  16.356  0.8799  0.1695 -0.9943
 2397SOL     OW18649   1.800   1.683   9.710  0.0761 -0.0513  0.5494
 2397SOL    HW118650   1.728   1.734   9.748  1.2105  1.1825  1.0496
 2397SOL    HW218651   1.873   1.697   9.770  0.0972  0.3146  0.4397
 2398SOL     OW18652   0.650   2.936   8.576  0.6176  0.0559 -0.0904
 2398SOL    HW118653   0.647   2.867   8.642 -1.1916  1.6870  1.5213
 2398SOL    HW218654   0.561   2.933   8.541  0.4868 -0.3571  0.2754
 2399SOL     OW18655   4.133   3.830   6.400  0.0919 -0.8649 -0.1445
 2399SOL    HW118656   4.123   3.845   6.494 -2.6030 -2.4764 -0.1718
 2399SOL    HW218657   4.208   3.885   6.379 -1.0321  0.4858 -0.6502
 2400SOL     OW18658   1.027   3.739  11.007  0.0924 -0.1850 -0.0873
 2400SOL    HW118659   1.009   3.724  11.099  2.2462  0.7537  0.4972
 2400SOL    HW218660   1.023   3.652  10.967  0.0091  0.8173 -2.2749
 2401SOL     OW18661   3.607   4.067   0.758  0.6565  0.2142  0.5685
 2401SOL    HW118662   3.690   4.020   0.762  0.5842  0.1382  1.1297
 2401SOL    HW218663   3.544   4.002   0.789 -0.4065  0.7883 -0.3852
 2402SOL     OW18664   2.015   2.962   6.326  0.3847 -0.2919 -0.0934
 2402SOL    HW118665   2.110   2.969   6.314  0.4162  0.1966  0.4337
 2402SOL    HW218666   2.010   3.028   6.395 -0.9441 -0.8714  0.3599
 2403SOL     OW18667   4.035   1.131   1.947 -0.3381 -0.4738  0.2385
 2403SOL    HW118668   4.025   1.041   1.978  0.4099 -0.0903  1.5685
 2403SOL    HW218669   3.944   1.147   1.921  0.3842 -1.2878 -2.7749
 2404SOL     OW18670   0.905   2.867   6.174 -0.6295 -0.4291  0.2758
 2404SOL    HW118671   0.941   2.823   6.251 -0.8098 -1.2262 -0.0863
 2404SOL    HW218672   0.943   2.953   6.192 -1.5040 -0.2541  1.2917
 2405SOL     OW18673   2.524   0.270   2.280 -0.0169  0.1565 -0.1937
 2405SOL    HW118674   2.557   0.351   2.242 -1.7121  2.0999  2.4806
 2405SOL    HW218675   2.583   0.205   2.241  1.3338  1.5021 -0.3844
 2406SOL     OW18676   1.064   3.046  15.280 -0.3546  0.3971  0.4923
 2406SOL    HW118677   1.081   3.123  15.335  0.1356  1.5341 -1.2384
 2406SOL    HW218678   1.059   3.088  15.193 -0.3381  1.0430  0.8019
 2407SOL     OW18679   0.513   4.623   2.342 -0.0825  0.3174 -0.0779
 2407SOL    HW118680   0.592   4.592   2.297  0.6935 -0.6297  1.9533
 2407SOL    HW218681   0.495   4.560   2.411  0.3121 -0.8440 -1.0362
 2408SOL     OW18682   3.718   4.718   6.953  0.6846  0.8489  0.4830
 2408SOL    HW118683   3.677   0.033   7.030  1.1426  0.9076  0.6977
 2408SOL    HW218684   3.659   0.003   6.879 -0.7499  0.2550  1.5649
 2409SOL     OW18685   0.015   0.238   7.512 -0.3607  0.2962  0.4186
 2409SOL    HW118686   0.022   0.234   7.607  0.1906  3.0157  0.4970
 2409SOL    HW218687   0.028   0.150   7.476  0.5860  0.0127  1.4634
 2410SOL     OW18688   0.825   1.531   2.283  0.5005  0.2348  0.2441
 2410SOL    HW118689   0.858   1.534   2.373  2.2312 -1.9176 -0.3055
 2410SOL    HW218690   0.910   1.518   2.240  0.1806 -1.5956  0.1972
 2411SOL     OW18691   2.150   2.716   4.317 -0.3208 -0.0008  0.3943
 2411SOL    HW118692   2.245   2.720   4.303 -0.4670 -2.0290 -1.1240
 2411SOL    HW218693   2.131   2.630   4.279  0.2680 -0.5507  1.3548
 2412SOL     OW18694   0.450   4.030   2.136  0.2103  0.0847 -0.3243
 2412SOL    HW118695   0.447   4.081   2.217 -0.6198 -0.8554  0.2506
 2412SOL    HW218696   0.384   4.067   2.077 -0.4568 -0.0554  0.3207
 2413SOL     OW18697   1.033   2.812  14.614 -0.3582 -0.0971 -0.0446
 2413SOL    HW118698   1.068   2.786  14.529 -1.0144  2.0402 -0.9692
 2413SOL    HW218699   1.089   2.756  14.668  0.0537 -0.2015 -0.5838
 2414SOL     OW18700   0.117   0.403   7.309  0.0235 -0.5878  0.2991
 2414SOL    HW118701   0.060   0.357   7.370  1.9978 -0.8098  1.9755
 2414SOL    HW218702   0.179   0.451   7.365 -0.0862  0.0774 -0.1456
 2415SOL     OW18703   2.211   1.459   6.240 -0.0677  0.0388 -0.3548
 2415SOL    HW118704   2.261   1.526   6.286 -0.7959 -0.2733  0.8977
 2415SOL    HW218705   2.222   1.383   6.297 -0.8207  0.1948 -0.0065
 2416SOL     OW18706   1.234   3.618   1.369  0.1630  0.4358 -0.7299
 2416SOL    HW118707   1.165   3.628   1.304 -0.1533 -1.9134 -0.7767
 2416SOL    HW218708   1.224   3.523   1.373 -0.9403  0.5228 -1.4269
 2417SOL     OW18709   4.326   0.958   2.165 -0.0759  0.3684 -0.1227
 2417SOL    HW118710   4.319   0.991   2.255  0.0190 -0.3907  0.1603
 2417SOL    HW218711   4.418   0.971   2.141  0.4025  1.0110  1.9901
 2418SOL     OW18712   2.406   3.683   8.481 -0.1492  0.3158 -0.2823
 2418SOL    HW118713   2.448   3.734   8.550 -2.2864  1.7784 -0.0521
 2418SOL    HW218714   2.321   3.721   8.458  0.9621  2.2925 -0.9927
 2419SOL     OW18715   4.121   2.966  13.679 -0.4115  0.0155 -0.3946
 2419SOL    HW118716   4.072   2.885  13.664 -0.4636  0.0525 -0.4230
 2419SOL    HW218717   4.210   2.932  13.679 -0.7062 -0.7769  0.7908
 2420SOL     OW18718   0.734   3.908   7.033 -0.3258  0.0610 -0.8994
 2420SOL    HW118719   0.775   3.985   7.073  0.1935 -1.1879  0.9526
 2420SOL    HW218720   0.813   3.883   6.986  0.2650 -0.4108  0.3555
 2421SOL     OW18721   0.147   0.817   3.094  0.6343  0.3257  0.3275
 2421SOL    HW118722   0.164   0.888   3.032  0.1374 -0.4232 -0.6765
 2421SOL    HW218723   0.152   0.866   3.175  1.3418  1.4631 -0.4082
 2422SOL     OW18724   2.186   4.676   0.894 -0.1638  0.3838  0.2408
 2422SOL    HW118725   2.258   4.632   0.939 -0.6886 -1.7362 -0.9753
 2422SOL    HW218726   2.157   4.719   0.974  3.0046  1.6565  0.7108
 2423SOL     OW18727   2.021   0.086   3.191  0.4836 -0.0890 -0.0896
 2423SOL    HW118728   2.016   4.720   3.162  2.6436  0.0634 -0.8850
 2423SOL    HW218729   2.000   0.134   3.111  2.9703  0.4609 -0.4148
 2424SOL     OW18730   2.480   3.935   2.321  0.1232  0.6150  0.1303
 2424SOL    HW118731   2.571   3.956   2.299  0.5018 -1.4519 -0.2624
 2424SOL    HW218732   2.467   3.859   2.264 -3.3079  0.4516  1.0776
 2425SOL     OW18733   1.782   3.778   7.557 -0.3732  0.0128  0.1759
 2425SOL    HW118734   1.739   3.805   7.476  2.0007  1.6401 -0.5539
 2425SOL    HW218735   1.744   3.847   7.611 -3.0767 -1.5011  0.1945
 2426SOL     OW18736   2.839   4.349   8.015 -0.2120 -0.5217  0.7838
 2426SOL    HW118737   2.879   4.394   8.089  1.3176  0.5835 -0.7214
 2426SOL    HW218738   2.787   4.279   8.056  0.0537 -1.3986 -0.3901
 2427SOL     OW18739   3.465   4.243   8.893  0.1683 -0.1751 -0.8777
 2427SOL    HW118740   3.389   4.256   8.951  3.0956 -0.5399  3.0301
 2427SOL    HW218741   3.449   4.309   8.825 -2.9710 -2.5197 -2.3748
 2428SOL     OW18742   2.554   3.029  17.339  0.0924  0.0282  0.4895
 2428SOL    HW118743   2.566   3.037  17.434 -0.9451 -0.5997  0.6694
 2428SOL    HW218744   2.510   3.114  17.333  0.7184  0.2628 -0.7422
 2429SOL     OW18745   1.164   1.569  12.987  0.3008  0.0049  0.0455
 2429SOL    HW118746   1.158   1.627  13.063 -0.4597 -2.3182  1.7444
 2429SOL    HW218747   1.245   1.602  12.948  0.5706 -0.2849  0.3539
 2430SOL     OW18748   2.499   2.146   2.062  0.3461  0.1409  0.1244
 2430SOL    HW118749   2.525   2.236   2.080 -0.3421  0.3154  0.2414
 2430SOL    HW218750   2.589   2.113   2.067  0.3253  0.5580  3.3025
 2431SOL     OW18751   2.016   4.539   7.270  0.1516  0.1301 -0.0604
 2431SOL    HW118752   2.076   4.466   7.259 -0.8993 -0.5618 -1.2576
 2431SOL    HW218753   2.033   4.596   7.195 -0.1174  0.8512  0.4228
 2432SOL     OW18754   1.685   1.845  10.779  0.4594 -0.4650  0.1708
 2432SOL    HW118755   1.599   1.820  10.744 -0.5333  2.0722  0.8610
 2432SOL    HW218756   1.664   1.870  10.869  2.4180 -2.0592  1.0664
 2433SOL     OW18757   0.949   1.497  10.238  0.3286  0.3618 -0.2494
 2433SOL    HW118758   1.041   1.489  10.214  0.4210  3.2063 -0.8964
 2433SOL    HW218759   0.946   1.572  10.297 -0.1645  0.7145 -0.7158
 2434SOL     OW18760   1.510   1.047   6.448  0.2862  0.6665 -0.0353
 2434SOL    HW118761   1.482   0.965   6.490  1.9610  0.8127  1.3196
 2434SOL    HW218762   1.566   1.013   6.378  0.7980 -0.6488  1.0081
 2435SOL     OW18763   0.847   0.601   7.995 -0.1676 -0.2497  0.1198
 2435SOL    HW118764   0.853   0.587   8.089  0.8557  0.7066  0.1922
 2435SOL    HW218765   0.812   0.515   7.971  0.6718 -1.6662  3.9279
 2436SOL     OW18766   0.683   3.336   6.577 -0.4649  0.0619 -0.9844
 2436SOL    HW118767   0.675   3.252   6.533  2.6748 -0.9644  0.4057
 2436SOL    HW218768   0.593   3.369   6.583 -0.0190  0.9139  0.9069
 2437SOL     OW18769   3.200   3.332  14.495  0.3323 -0.0950  0.0011
 2437SOL    HW118770   3.267   3.393  14.464 -1.3100  0.8743 -1.6728
 2437SOL    HW218771   3.144   3.404  14.524  1.9001  1.2356 -0.2799
 2438SOL     OW18772   4.380   4.639   2.743 -0.1876  0.2576  0.2454
 2438SOL    HW118773   4.408   4.627   2.652  0.9809 -3.8896  1.1276
 2438SOL    HW218774   4.310   4.573   2.738  0.9202 -1.0311  1.8627
 2439SOL     OW18775   2.343   2.764  15.619  0.0844  0.1268 -0.0069
 2439SOL    HW118776   2.395   2.732  15.545 -0.1644  0.0724 -0.1566
 2439SOL    HW218777   2.307   2.679  15.643 -0.3322 -0.0447 -1.2431
 2440SOL     OW18778   1.586   3.093  13.153  0.1231 -0.3991 -0.0159
 2440SOL    HW118779   1.624   3.069  13.238 -0.1842 -1.6645 -0.2410
 2440SOL    HW218780   1.588   3.188  13.168  0.2028 -0.1776 -1.4900
 2441SOL     OW18781   2.158   3.928   6.265  0.4578  0.1082 -0.9313
 2441SOL    HW118782   2.247   3.934   6.230  1.2872  0.8689  1.2668
 2441SOL    HW218783   2.143   3.984   6.341  1.2548  3.1994 -3.0558
 2442SOL     OW18784   2.479   2.010   9.176 -0.0261 -0.3451 -0.0521
 2442SOL    HW118785   2.411   1.964   9.224 -0.1217 -1.4491 -1.2433
 2442SOL    HW218786   2.447   2.100   9.183 -0.9687 -0.6797 -0.0112
 2443SOL     OW18787   0.406   3.999   4.170 -0.0766 -0.3734 -0.0995
 2443SOL    HW118788   0.483   4.018   4.224 -0.6723  1.5489  0.0759
 2443SOL    HW218789   0.443   3.951   4.096  1.3137  0.0472  0.3166
 2444SOL     OW18790   1.100   2.837   8.417  0.4872  0.6461 -0.4047
 2444SOL    HW118791   1.105   2.923   8.375 -2.0249  0.3417 -1.3362
 2444SOL    HW218792   1.137   2.783   8.347  2.9349  2.6741 -0.6666
 2445SOL     OW18793   3.727   4.222   9.668 -0.6409 -0.3197 -0.2297
 2445SOL    HW118794   3.692   4.135   9.684 -2.3375  0.9307  3.0471
 2445SOL    HW218795   3.728   4.218   9.573  1.2463  2.3697 -0.3279
 2446SOL     OW18796   4.615   4.631  16.629  0.4604  0.2345 -0.3247
 2446SOL    HW118797   4.604   4.686  16.707 -1.6032 -2.0605  1.0304
 2446SOL    HW218798   4.670   4.559  16.660  0.2713 -0.2629 -1.1299
 2447SOL     OW18799   2.228   0.473  11.893  0.3041 -0.0235 -0.2714
 2447SOL    HW118800   2.276   0.455  11.973  1.4610  2.3090 -0.4408
 2447SOL    HW218801   2.280   0.429  11.826 -1.3159 -1.1831 -0.7781
 2448SOL     OW18802   4.665   3.053   3.250  0.1411  0.0230 -0.2843
 2448SOL    HW118803   4.632   3.138   3.280 -0.1022 -0.4374  0.7598
 2448SOL    HW218804   4.708   3.012   3.325 -1.4238 -1.7125 -0.3377
 2449SOL     OW18805   2.848   4.562   0.709  0.3684  0.1171  0.1871
 2449SOL    HW118806   2.789   4.521   0.772 -0.8615 -0.7660 -1.5463
 2449SOL    HW218807   2.846   4.500   0.637 -1.3095 -0.0844  0.4227
 2450SOL     OW18808   3.763   3.833   7.415 -0.2751  0.2505 -0.2077
 2450SOL    HW118809   3.710   3.891   7.469 -0.8195 -0.6789  0.2519
 2450SOL    HW218810   3.709   3.761   7.380  1.1239 -0.3429 -1.1233
 2451SOL     OW18811   3.790   4.121   2.011  0.3411 -0.2251 -0.4708
 2451SOL    HW118812   3.785   4.175   1.932 -0.8459  0.8715  0.3557
 2451SOL    HW218813   3.823   4.183   2.077 -0.2605 -2.5749  2.0379
 2452SOL     OW18814   2.180   0.601  10.917 -0.1753  0.2662  0.0777
 2452SOL    HW118815   2.188   0.551  10.836  0.0299  0.0729  0.2165
 2452SOL    HW218816   2.272   0.597  10.945  0.4473  0.1136 -1.9625
 2453SOL     OW18817   2.009   0.381  12.427  0.1097 -0.2175  0.1537
 2453SOL    HW118818   2.082   0.440  12.407 -0.7064  0.3979 -1.0423
 2453SOL    HW218819   1.943   0.433  12.382  0.1967  0.2687  0.5963
 2454SOL     OW18820   2.496   1.133   6.548  0.2762  0.2885  0.0004
 2454SOL    HW118821   2.426   1.161   6.488  0.5865 -1.3420 -1.1142
 2454SOL    HW218822   2.531   1.055   6.504  0.0845  0.7642 -1.0130
 2455SOL     OW18823   2.937   0.078  14.235 -0.3796 -0.4389  0.4703
 2455SOL    HW118824   2.865   0.137  14.256 -1.5823 -2.2135  1.2936
 2455SOL    HW218825   2.893   0.021  14.173  0.7882 -2.1608  1.2237
 2456SOL     OW18826   1.310   4.621  15.303  0.4032 -0.1195 -0.1150
 2456SOL    HW118827   1.342   4.689  15.245 -1.5488  1.6490  0.8838
 2456SOL    HW218828   1.232   4.611  15.249 -0.0435 -0.8816  0.6592
 2457SOL     OW18829   2.977   1.093  10.583 -0.0580  0.2154  0.5960
 2457SOL    HW118830   3.004   1.030  10.650 -1.8564 -0.5148  0.6293
 2457SOL    HW218831   3.054   1.150  10.582  0.3028 -0.2754  0.5650
 2458SOL     OW18832   0.588   2.494   3.880 -0.3463  0.3599  0.1888
 2458SOL    HW118833   0.599   2.408   3.840 -2.0084  0.0947  0.3195
 2458SOL    HW218834   0.498   2.520   3.861 -0.5707 -0.0895  0.6536
 2459SOL     OW18835   4.694   4.119   0.865  0.2921 -0.7574 -0.2184
 2459SOL    HW118836   4.632   4.047   0.861  2.3269 -2.4948 -0.2590
 2459SOL    HW218837   4.664   4.170   0.941  2.6967 -0.5607  0.5953
 2460SOL     OW18838   0.038   1.551   0.832 -0.1989 -0.1964  0.1336
 2460SOL    HW118839   0.052   1.500   0.752 -0.4679 -0.5699  0.3278
 2460SOL    HW218840   4.678   1.515   0.859  0.0052 -0.3675  0.5363
 2461SOL     OW18841   2.186   3.916   4.523  0.0041  0.2848  0.1449
 2461SOL    HW118842   2.187   3.944   4.431  0.5217 -2.5526 -0.7157
 2461SOL    HW218843   2.218   3.984   4.582  1.6123 -0.7025  0.3868
 2462SOL     OW18844   3.608   3.312   7.261  0.1407  0.4418 -0.5178
 2462SOL    HW118845   3.558   3.331   7.181 -0.3869 -0.5166 -0.4143
 2462SOL    HW218846   3.571   3.228   7.287  0.1082  0.8099  0.6222
 2463SOL     OW18847   2.142   1.046   0.054  0.6411 -0.1710  0.3199
 2463SOL    HW118848   2.067   1.008   0.101  0.5431  0.9967  1.1056
 2463SOL    HW218849   2.096   1.118   0.012  0.6263 -0.7044 -0.5710
 2464SOL     OW18850   0.148   1.727  10.639  0.1052 -0.1135  0.0406
 2464SOL    HW118851   0.158   1.810  10.593  0.6075 -0.3681 -0.3219
 2464SOL    HW218852   0.170   1.755  10.728 -0.9535 -1.8152  0.8373
 2465SOL     OW18853   0.522   2.748   5.172 -0.3036 -0.3387 -0.2568
 2465SOL    HW118854   0.441   2.697   5.166 -1.7661  2.1424 -1.1757
 2465SOL    HW218855   0.518   2.793   5.088 -3.5954 -1.4067 -0.6499
 2466SOL     OW18856   2.032   4.569   3.491 -0.5715  0.3267 -0.2971
 2466SOL    HW118857   2.111   4.622   3.500  1.3964 -2.5610 -0.4319
 2466SOL    HW218858   2.057   4.488   3.446 -3.3569  0.3062 -1.7772
 2467SOL     OW18859   2.270   1.123   2.784  0.1317 -0.2419  0.1047
 2467SOL    HW118860   2.254   1.040   2.830 -0.4260  0.7737  1.7327
 2467SOL    HW218861   2.205   1.124   2.714  1.2271 -2.3633 -0.9579
 2468SOL     OW18862   1.692   3.696  16.362  0.0857 -0.3308  0.2043
 2468SOL    HW118863   1.686   3.765  16.296 -1.0845 -0.0954  0.5566
 2468SOL    HW218864   1.786   3.679  16.370  0.2452  0.7411  0.5804
 2469SOL     OW18865   0.225   4.417   2.281  0.4517  0.0919  0.1303
 2469SOL    HW118866   0.263   4.468   2.210 -1.6593  1.7900  0.2129
 2469SOL    HW218867   0.222   4.331   2.241  0.6873  0.9141 -1.6420
 2470SOL     OW18868   2.509   3.249  15.077  0.4651 -0.6204 -0.4152
 2470SOL    HW118869   2.422   3.213  15.092  0.9971 -2.5529 -1.9799
 2470SOL    HW218870   2.501   3.311  15.004 -2.3426 -1.0790 -0.4748
 2471SOL     OW18871   3.609   2.286   4.501  0.0248 -0.1295  0.2412
 2471SOL    HW118872   3.586   2.371   4.464 -0.4174 -1.2228 -2.0575
 2471SOL    HW218873   3.700   2.301   4.529  0.2343  0.5250 -0.7829
 2472SOL     OW18874   0.272   0.102  13.676  0.0667  0.2940 -0.3351
 2472SOL    HW118875   0.362   0.075  13.693  0.1218 -0.0337 -1.1664
 2472SOL    HW218876   0.258   0.152  13.757 -1.7122 -0.9820  0.1479
 2473SOL     OW18877   4.021   2.580   1.921  0.1018  0.2330 -0.1923
 2473SOL    HW118878   4.089   2.622   1.974 -1.4722  1.3521  0.9350
 2473SOL    HW218879   4.063   2.513   1.867  0.0353  0.9180 -1.0846
 2474SOL     OW18880   2.023   0.771   1.852  0.1726 -0.3931 -0.3070
 2474SOL    HW118881   2.061   0.841   1.798 -0.0188  0.7655  1.0669
 2474SOL    HW218882   2.033   0.803   1.941  1.6851 -0.1420 -0.5614
 2475SOL     OW18883   3.110   0.685   8.788 -0.0352  0.0372  0.2089
 2475SOL    HW118884   3.151   0.600   8.771  1.6220  0.5314  1.7236
 2475SOL    HW218885   3.033   0.676   8.732  0.3664  0.3000 -0.3812
 2476SOL     OW18886   3.296   0.617  14.372  0.4854 -0.5306  0.0062
 2476SOL    HW118887   3.372   0.584  14.324 -2.3631 -1.0097 -4.2168
 2476SOL    HW218888   3.242   0.538  14.375 -2.1908  1.3727  1.6557
 2477SOL     OW18889   0.411   3.075   5.091 -0.4169  0.5259  0.1875
 2477SOL    HW118890   0.431   3.142   5.026 -1.0310 -1.6666 -2.2691
 2477SOL    HW218891   0.408   2.993   5.042  0.6777  0.8503 -0.4253
 2478SOL     OW18892   2.934   2.011  16.057  0.0712  0.1736  0.2033
 2478SOL    HW118893   2.981   1.978  15.981 -1.0501 -3.2502  0.9815
 2478SOL    HW218894   2.857   1.955  16.046 -0.4122  0.5564  1.6041
 2479SOL     OW18895   0.982   2.942   2.097  0.4765  0.3363 -0.1939
 2479SOL    HW118896   1.036   2.864   2.086  2.4698  1.4143  1.8623
 2479SOL    HW218897   1.031   3.008   2.147 -1.4793 -0.4162  2.7132
 2480SOL     OW18898   1.247   0.576  11.042  0.0573  0.1337  0.3675
 2480SOL    HW118899   1.339   0.585  11.017 -0.2228 -3.1115 -1.8327
 2480SOL    HW218900   1.218   0.657  10.999 -0.4089 -0.4439 -0.4058
 2481SOL     OW18901   2.387   2.921   0.329 -0.3023 -0.1389 -0.6071
 2481SOL    HW118902   2.422   2.927   0.418 -1.0627 -1.5202 -0.2176
 2481SOL    HW218903   2.452   2.969   0.278 -0.6731  0.8629 -0.1336
 2482SOL     OW18904   1.160   4.282   7.003  0.7854  0.2671  0.3212
 2482SOL    HW118905   1.196   4.319   6.922 -0.7720  2.3597  0.5630
 2482SOL    HW218906   1.199   4.195   7.002  0.1173 -0.0185 -0.9068
 2483SOL     OW18907   3.003   0.466  13.955 -0.4197  0.2971  0.5759
 2483SOL    HW118908   3.053   0.410  14.015  0.3995 -2.3844 -2.6317
 2483SOL    HW218909   2.947   0.508  14.021 -0.2804  0.8645  0.3254
 2484SOL     OW18910   3.529   2.344   5.984 -0.2767 -0.2096 -0.4508
 2484SOL    HW118911   3.563   2.431   6.004 -1.8179  0.5286 -1.0472
 2484SOL    HW218912   3.591   2.288   6.031 -1.0100 -1.7157 -1.2527
 2485SOL     OW18913   0.687   0.056  16.714 -0.0680  0.2787 -0.5379
 2485SOL    HW118914   0.687   0.095  16.802  2.4500  1.0965 -0.9031
 2485SOL    HW218915   0.638   4.699  16.720  0.0277  0.0502 -2.8559
 2486SOL     OW18916   2.245   0.772  17.561  0.5902  0.1886  0.1440
 2486SOL    HW118917   2.194   0.778  17.642  2.0076 -2.1721  1.1940
 2486SOL    HW218918   2.318   0.723  17.598  2.0886  2.6740  0.5107
 2487SOL     OW18919   1.442   2.653   5.350  0.8164 -0.0613  0.8944
 2487SOL    HW118920   1.358   2.699   5.340  1.5642  1.0633 -0.2498
 2487SOL    HW218921   1.488   2.729   5.385  0.2878 -0.5435  2.6543
 2488SOL     OW18922   2.769   2.666   2.852  0.5015  0.2614 -0.2117
 2488SOL    HW118923   2.806   2.615   2.924  1.6768 -0.6116 -1.4538
 2488SOL    HW218924   2.716   2.602   2.805  0.1658  0.8100 -0.5842
 2489SOL     OW18925   2.548   3.575   5.863 -0.0368  0.2649  0.0931
 2489SOL    HW118926   2.452   3.577   5.859 -0.1277 -0.1134  2.1590
 2489SOL    HW218927   2.571   3.668   5.862 -0.2705  0.3334  1.0387
 2490SOL     OW18928   2.322   2.433  11.809  0.0312 -0.1594 -0.3776
 2490SOL    HW118929   2.354   2.355  11.855  0.3994  0.5723  0.6227
 2490SOL    HW218930   2.263   2.399  11.742 -0.4642  1.3956 -0.7120
 2491SOL     OW18931   1.768   4.485   2.383 -0.4055 -0.4998  0.1718
 2491SOL    HW118932   1.745   4.440   2.301  0.6441  0.2395 -0.5253
 2491SOL    HW218933   1.701   4.554   2.382  2.7184  2.5375  2.1788
 2492SOL     OW18934   3.854   1.875   4.171  0.0266 -0.6226  0.4642
 2492SOL    HW118935   3.923   1.938   4.151  0.3679 -1.4161 -0.8464
 2492SOL    HW218936   3.854   1.884   4.266  2.4876 -0.3221  0.4158
 2493SOL     OW18937   3.232   1.760   2.408  0.0444 -0.3893  0.0423
 2493SOL    HW118938   3.221   1.719   2.322  2.9287 -0.9297 -0.0668
 2493SOL    HW218939   3.257   1.848   2.379  0.0827 -0.4632 -0.1520
 2494SOL     OW18940   1.645   1.010   4.450 -0.5907 -0.0508  0.3890
 2494SOL    HW118941   1.725   1.035   4.404  1.6437 -1.2562  3.6534
 2494SOL    HW218942   1.601   0.957   4.383 -0.6751 -1.3235  1.4410
 2495SOL     OW18943   2.203   0.238  12.194 -0.1626 -0.0383  0.5531
 2495SOL    HW118944   2.190   0.167  12.132 -0.4005  0.4913  0.0059
 2495SOL    HW218945   2.133   0.299  12.172 -1.6944 -1.4641  1.5186
 2496SOL     OW18946   4.059   4.342  14.751 -0.0499  0.3386 -0.3618
 2496SOL    HW118947   4.074   4.427  14.709  1.3925  0.5082  0.4858
 2496SOL    HW218948   4.008   4.372  14.827  1.8541  1.3961  0.4853
 2497SOL     OW18949   2.257   3.138   7.285  0.4384  0.3972  0.0309
 2497SOL    HW118950   2.255   3.099   7.372 -3.1891  0.2410 -0.1330
 2497SOL    HW218951   2.240   3.063   7.228  1.0101 -0.4587  0.9763
 2498SOL     OW18952   1.007   1.162   2.451 -0.4870 -0.5359 -0.4292
 2498SOL    HW118953   1.065   1.231   2.484  0.6046 -1.8757  0.4755
 2498SOL    HW218954   1.006   1.179   2.357  0.4829  0.2495 -0.2910
 2499SOL     OW18955   3.824   2.950   0.474 -0.1605  0.2845 -0.3427
 2499SOL    HW118956   3.908   2.989   0.449  0.3442  0.0561  0.9993
 2499SOL    HW218957   3.766   3.024   0.459  0.3061  0.9064  0.9460
 2500SOL     OW18958   2.173   2.359   9.766  0.5753 -0.4430 -0.2145
 2500SOL    HW118959   2.177   2.434   9.706  1.6157  0.5796  1.1417
 2500SOL    HW218960   2.187   2.287   9.705  0.3536 -1.2072  0.6451
 2501SOL     OW18961   3.938   3.683  13.803  0.1338 -0.3850 -0.0319
 2501SOL    HW118962   4.014   3.626  13.796 -0.0353 -0.3981 -1.6974
 2501SOL    HW218963   3.909   3.666  13.893  0.0732  1.9710  0.3833
 2502SOL     OW18964   3.868   0.273   8.378  0.3588 -0.3526  1.0685
 2502SOL    HW118965   3.954   0.252   8.413  1.6223  0.9707 -1.3214
 2502SOL    HW218966   3.854   0.364   8.403  0.8711  0.1039 -0.3671
 2503SOL     OW18967   2.586   2.256  11.783 -0.4930 -0.6432  0.4337
 2503SOL    HW118968   2.566   2.257  11.689  2.6661  3.4924 -0.1736
 2503SOL    HW218969   2.608   2.349  11.792 -0.8681 -0.5174  0.0641
 2504SOL     OW18970   2.915   1.450   5.115 -0.4283 -0.1982 -0.2605
 2504SOL    HW118971   2.835   1.452   5.167  0.0418  0.3705  0.4295
 2504SOL    HW218972   2.967   1.514   5.163 -1.3002  0.6792 -0.4961
 2505SOL     OW18973   2.872   1.218   7.605  0.0532  0.0160 -0.0024
 2505SOL    HW118974   2.836   1.217   7.694 -0.5499  0.6691 -0.2340
 2505SOL    HW218975   2.962   1.242   7.623  0.4328 -0.3803 -1.3721
 2506SOL     OW18976   1.227   3.888   2.955  0.8224  0.2140  0.6537
 2506SOL    HW118977   1.202   3.945   3.028 -0.0078 -2.4695  2.4545
 2506SOL    HW218978   1.236   3.804   2.999 -1.2328 -0.1942  0.3112
 2507SOL     OW18979   0.806   0.951  15.048 -0.1235 -0.1209 -0.1951
 2507SOL    HW118980   0.728   0.955  15.104  1.3403 -0.9346  1.9168
 2507SOL    HW218981   0.820   0.857  15.035  1.6519 -0.2393  2.3795
 2508SOL     OW18982   0.122   3.691  12.330 -0.2802  0.2341 -0.5285
 2508SOL    HW118983   0.183   3.742  12.277 -0.5184 -1.1936 -2.1821
 2508SOL    HW218984   0.115   3.749  12.406 -1.3911 -0.7112  0.1043
 2509SOL     OW18985   2.110   1.987   3.351  0.3393  0.5220  0.5403
 2509SOL    HW118986   2.153   2.024   3.428  1.3941 -1.3615  0.8602
 2509SOL    HW218987   2.176   1.995   3.282 -0.5287 -0.4701 -0.4199
 2510SOL     OW18988   2.907   3.791   3.469 -0.3118 -0.0004 -0.1686
 2510SOL    HW118989   2.916   3.700   3.442  0.4738  0.3879 -1.1925
 2510SOL    HW218990   2.962   3.845   3.412 -2.6922  1.2658 -1.2978
 2511SOL     OW18991   1.664   1.520   9.390 -0.6208  0.3946 -0.0706
 2511SOL    HW118992   1.644   1.453   9.325 -0.7811  0.2135  0.1681
 2511SOL    HW218993   1.644   1.475   9.472  0.8534  2.2011  1.2976
 2512SOL     OW18994   2.629   3.062  12.699 -0.1149  0.1277  0.6329
 2512SOL    HW118995   2.712   3.102  12.672 -0.0227 -0.0724  0.6211
 2512SOL    HW218996   2.589   3.047  12.614 -3.7180  0.4918  2.2481
 2513SOL     OW18997   1.499   3.253   1.600  0.0231 -0.6946 -0.2615
 2513SOL    HW118998   1.413   3.291   1.620  0.1523  0.4189 -1.8559
 2513SOL    HW218999   1.487   3.225   1.509 -2.3949  2.1035 -0.7885
 2514SOL     OW19000   3.414   4.136   1.797  0.1489 -0.3822 -0.4689
 2514SOL    HW119001   3.481   4.179   1.744 -0.5485  0.1911 -0.8909
 2514SOL    HW219002   3.339   4.131   1.738  0.6459  1.6159 -1.2796
 2515SOL     OW19003   0.311   1.634   3.531 -0.7165 -0.4038 -0.0400
 2515SOL    HW119004   0.279   1.681   3.608 -0.5086 -0.0619 -0.1631
 2515SOL    HW219005   0.231   1.622   3.479 -0.8192  1.0879 -0.2259
 2516SOL     OW19006   1.241   2.698   3.948  0.2271  0.3823 -0.5912
 2516SOL    HW119007   1.281   2.781   3.973  1.2576 -0.6167  1.0840
 2516SOL    HW219008   1.229   2.647   4.028 -0.4869  3.2493  1.1177
 2517SOL     OW19009   4.212   3.571   4.025  0.0135 -0.0769 -0.3586
 2517SOL    HW119010   4.186   3.496   4.079  1.6439 -0.1941  0.2845
 2517SOL    HW219011   4.193   3.646   4.082 -0.4229  0.1854 -0.8450
 2518SOL     OW19012   3.191   3.626   3.478  0.3103 -0.1771 -0.5384
 2518SOL    HW119013   3.240   3.544   3.478  1.4376  0.4860 -0.5233
 2518SOL    HW219014   3.243   3.689   3.427  1.1380 -0.6271 -0.2568
 2519SOL     OW19015   2.037   4.265   4.046  0.1844  0.0467 -0.9189
 2519SOL    HW119016   2.108   4.201   4.040 -0.7637 -1.2843  1.9536
 2519SOL    HW219017   2.054   4.304   4.131 -0.6295 -1.4892 -0.0576
 2520SOL     OW19018   3.853   4.309  14.933 -0.0201 -0.1154  0.4146
 2520SOL    HW119019   3.831   4.222  14.968  0.1730 -0.4019 -0.1711
 2520SOL    HW219020   3.912   4.338  15.001  1.2923  0.7389 -1.1017
 2521SOL     OW19021   1.362   0.107  11.885  0.0144  0.5710  0.1204
 2521SOL    HW119022   1.318   0.172  11.831  1.6913 -0.0132 -1.9818
 2521SOL    HW219023   1.371   0.039  11.818 -0.9658 -0.0904  0.6453
 2522SOL     OW19024   1.819   1.435   3.160 -0.5906 -0.1982 -0.1436
 2522SOL    HW119025   1.736   1.439   3.113 -0.4852  2.4579 -0.1455
 2522SOL    HW219026   1.798   1.401   3.247  1.8305 -1.6041 -0.1154
 2523SOL     OW19027   1.508   1.582   4.619 -0.0500 -0.5647 -0.5766
 2523SOL    HW119028   1.508   1.626   4.703  0.1864  0.3974 -1.0842
 2523SOL    HW219029   1.553   1.498   4.629 -2.9525 -1.8037  1.8636
 2524SOL     OW19030   0.795   3.239   2.654 -0.0982 -0.4739 -0.1616
 2524SOL    HW119031   0.739   3.238   2.733  1.1266  0.3736  0.7179
 2524SOL    HW219032   0.792   3.144   2.645  1.1965 -0.4365 -0.9163
 2525SOL     OW19033   3.428   1.381   3.675 -0.2964 -0.1358 -0.7229
 2525SOL    HW119034   3.415   1.338   3.590  0.5646 -0.7244 -0.5451
 2525SOL    HW219035   3.516   1.416   3.662  0.3172 -1.7344 -0.8376
 2526SOL     OW19036   1.840   0.115   6.990 -0.6457  0.7017  0.0325
 2526SOL    HW119037   1.914   0.123   6.930 -1.5032  1.0470 -0.9607
 2526SOL    HW219038   1.783   0.045   6.959 -1.1516  0.2362  2.0177
 2527SOL     OW19039   0.143   0.360   1.258 -0.5470 -0.1857  0.1500
 2527SOL    HW119040   0.148   0.295   1.188 -0.4396 -1.4717  1.3697
 2527SOL    HW219041   0.069   0.325   1.308 -1.5609  1.2039 -0.3552
 2528SOL     OW19042   3.205   2.939   5.985  0.2567 -0.4442 -0.0146
 2528SOL    HW119043   3.257   2.885   6.044 -0.8503 -1.4060  0.0788
 2528SOL    HW219044   3.131   2.969   6.038  0.4723 -0.8638  0.5147
 2529SOL     OW19045   2.208   3.859   1.122 -0.3203  0.3411 -0.4682
 2529SOL    HW119046   2.276   3.794   1.141  1.2402  1.4503 -2.3056
 2529SOL    HW219047   2.251   3.944   1.128  0.7703 -0.1593 -1.2538
 2530SOL     OW19048   4.635   0.794   8.426  0.1070 -0.3355 -0.0432
 2530SOL    HW119049   4.718   0.796   8.474  0.1089 -1.3544 -0.0007
 2530SOL    HW219050   4.634   0.700   8.407  0.8269 -0.7460  1.9648
 2531SOL     OW19051   4.526   0.432   5.756  0.3448  0.4868 -0.2079
 2531SOL    HW119052   4.595   0.493   5.784  1.2556 -0.7799  0.3225
 2531SOL    HW219053   4.485   0.493   5.695  0.7164  1.5581  0.6087
 2532SOL     OW19054   1.776   2.243   2.113  0.5298 -0.1440  0.4050
 2532SOL    HW119055   1.695   2.208   2.076 -0.6799  2.2400  0.8211
 2532SOL    HW219056   1.814   2.284   2.035  2.0670 -0.1244  1.1573
 2533SOL     OW19057   1.517   0.514   5.204 -0.1033  0.3578 -0.4032
 2533SOL    HW119058   1.524   0.587   5.265 -0.9566 -0.0071  0.1265
 2533SOL    HW219059   1.528   0.554   5.117 -1.9953 -1.2345 -1.3991
 2534SOL     OW19060   4.718   4.142   3.032  0.4757  0.3583 -0.1034
 2534SOL    HW119061   4.688   4.052   3.016  0.0070  0.5724 -0.4310
 2534SOL    HW219062   4.627   4.172   3.044  0.9186  1.9571 -0.6685
 2535SOL     OW19063   2.785   4.055   7.581  0.5552  0.0516 -0.5505
 2535SOL    HW119064   2.695   4.028   7.561  0.0138  1.5608 -0.1724
 2535SOL    HW219065   2.828   3.999   7.517  0.8464 -1.3642  0.8773
 2536SOL     OW19066   2.587   3.659   4.116  0.3721 -0.0549  0.1785
 2536SOL    HW119067   2.650   3.670   4.045  1.5480 -3.5533  0.6701
 2536SOL    HW219068   2.643   3.627   4.187  3.2334 -2.3928 -3.1019
 2537SOL     OW19069   3.344   3.074   8.358 -0.1746 -0.5451 -0.2499
 2537SOL    HW119070   3.264   3.123   8.377 -0.5831 -1.1414 -0.4335
 2537SOL    HW219071   3.316   3.041   8.273  0.8445  0.0675 -0.8266
 2538SOL     OW19072   2.872   3.397   6.668 -0.7275 -0.1901  0.1800
 2538SOL    HW119073   2.781   3.377   6.646 -0.6368  0.2722 -0.6091
 2538SOL    HW219074   2.873   3.484   6.628  2.3005 -1.6194 -2.8205
 2539SOL     OW19075   2.699   0.251  15.702  0.0186  0.5487 -0.2071
 2539SOL    HW119076   2.777   0.288  15.660 -0.7342  0.6312 -1.5308
 2539SOL    HW219077   2.633   0.312  15.671  0.0288  0.5367 -0.2527
 2540SOL     OW19078   1.633   3.577   6.471 -1.1861  0.0329  0.0504
 2540SOL    HW119079   1.551   3.559   6.426 -1.4399 -0.5823  0.7613
 2540SOL    HW219080   1.604   3.645   6.532  0.3119 -0.9370  1.8181
 2541SOL     OW19081   2.764   2.549   6.350  0.1651  0.1045 -0.0893
 2541SOL    HW119082   2.742   2.477   6.291 -1.6795 -0.9044  1.8170
 2541SOL    HW219083   2.693   2.613   6.340  1.1856  1.1229 -0.7417
 2542SOL     OW19084   1.538   4.353  11.084 -0.2435  0.2128 -0.4174
 2542SOL    HW119085   1.535   4.265  11.047  1.1111 -0.5255  1.2369
 2542SOL    HW219086   1.631   4.361  11.101 -0.6303  1.0191  1.2765
 2543SOL     OW19087   1.759   4.476   5.388  0.4471 -0.3691 -0.0680
 2543SOL    HW119088   1.819   4.438   5.452 -0.0883  1.5231  1.5645
 2543SOL    HW219089   1.819   4.465   5.314 -0.2850  1.0102 -0.8754
 2544SOL     OW19090   3.514   1.719   1.370 -0.1002 -0.2893 -0.2331
 2544SOL    HW119091   3.428   1.742   1.336 -0.7245  0.8048  2.1399
 2544SOL    HW219092   3.504   1.627   1.394 -2.0604  0.0502  0.2670
 2545SOL     OW19093   0.078   3.079   8.321  0.0429 -0.3873 -0.0674
 2545SOL    HW119094   0.010   3.139   8.353  1.5145  1.2071  0.0544
 2545SOL    HW219095   0.072   3.022   8.397 -2.1825 -0.8546 -0.5767
 2546SOL     OW19096   2.293   0.783   2.071  0.2869 -0.0801 -0.1862
 2546SOL    HW119097   2.315   0.804   1.980  1.5761 -2.2828 -0.3790
 2546SOL    HW219098   2.339   0.853   2.118  2.6126 -0.2721 -2.1744
 2547SOL     OW19099   3.933   1.977   0.562  0.4932 -0.4023  0.4545
 2547SOL    HW119100   3.863   1.970   0.496 -0.4460  0.2624  1.3778
 2547SOL    HW219101   3.967   1.888   0.566 -1.4671 -1.2121 -0.8362
 2548SOL     OW19102   4.122   1.341   3.660  0.4816 -0.4642 -0.4754
 2548SOL    HW119103   4.062   1.386   3.719  0.6365 -1.1275  0.1913
 2548SOL    HW219104   4.169   1.419   3.630  1.1573 -0.2332  1.1349
 2549SOL     OW19105   2.442   0.169   8.907  1.0287  0.1451 -0.0956
 2549SOL    HW119106   2.490   0.233   8.960  2.2442  0.1464 -1.1995
 2549SOL    HW219107   2.352   0.202   8.904  0.7337 -0.5200  1.9877
 2550SOL     OW19108   2.602   3.685  15.418 -0.1315  0.1834 -0.4513
 2550SOL    HW119109   2.638   3.610  15.465 -0.3262  0.2201 -0.2425
 2550SOL    HW219110   2.530   3.635  15.380 -0.7363  1.7544 -1.3569
 2551SOL     OW19111   1.937   0.462   4.680 -0.7790  0.0734  0.1786
 2551SOL    HW119112   2.006   0.398   4.669  0.3287  0.7748  3.2922
 2551SOL    HW219113   1.962   0.526   4.613  1.5248 -1.0691 -0.0350
 2552SOL     OW19114   2.234   4.004   7.396  0.3884 -0.2138  0.1860
 2552SOL    HW119115   2.148   4.047   7.394  1.6042  2.1538 -0.8936
 2552SOL    HW219116   2.228   3.958   7.480 -0.0716  0.9404  0.7863
 2553SOL     OW19117   0.927   0.557   8.264 -0.6203  0.1357  0.0251
 2553SOL    HW119118   1.015   0.579   8.234  0.2190  0.6225  2.8304
 2553SOL    HW219119   0.936   0.549   8.359 -0.4355 -2.0013 -0.1771
 2554SOL     OW19120   3.957   3.535   1.620 -0.5306 -0.2234  0.2071
 2554SOL    HW119121   3.989   3.617   1.658  1.6299 -0.4827 -1.0658
 2554SOL    HW219122   4.009   3.475   1.673  1.5050  0.2625 -1.2204
 2555SOL     OW19123   1.756   4.477   8.846 -0.8650  0.0196  0.4023
 2555SOL    HW119124   1.660   4.470   8.842 -0.8461  0.3919 -0.5452
 2555SOL    HW219125   1.765   4.446   8.936 -0.5990 -0.2365  0.2874
 2556SOL     OW19126   2.026   2.469  14.264 -0.4600  0.0546 -0.2361
 2556SOL    HW119127   2.065   2.462  14.351 -0.4290 -1.3741 -0.3684
 2556SOL    HW219128   1.972   2.390  14.273 -1.2811  0.7747  1.2024
 2557SOL     OW19129   4.350   0.340   7.684  0.3361 -0.8976  0.1352
 2557SOL    HW119130   4.370   0.266   7.742 -1.0195 -1.3874 -0.0140
 2557SOL    HW219131   4.261   0.359   7.713 -0.3242 -1.1083 -1.7779
 2558SOL     OW19132   3.135   4.434  10.211  0.2280 -0.0814  0.1210
 2558SOL    HW119133   3.201   4.366  10.223  1.3869  1.1312  0.5000
 2558SOL    HW219134   3.124   4.434  10.116  1.2068 -0.9862  0.0174
 2559SOL     OW19135   3.780   0.686   8.045  0.6866  0.6710 -0.4330
 2559SOL    HW119136   3.797   0.690   7.951 -1.9971 -3.5281 -1.0834
 2559SOL    HW219137   3.762   0.593   8.055  0.1253  0.6352 -1.7793
 2560SOL     OW19138   0.220   0.946   1.413 -0.5468  0.0721  0.1878
 2560SOL    HW119139   0.162   0.956   1.489 -1.2397  1.5459 -0.5416
 2560SOL    HW219140   0.284   0.881   1.443 -1.1945  0.0797  1.5991
 2561SOL     OW19141   4.054   2.363   6.735 -0.4550 -0.0302 -0.2515
 2561SOL    HW119142   3.987   2.303   6.701 -1.4178  2.3164 -2.5088
 2561SOL    HW219143   4.130   2.325   6.692  1.0580  0.7484  1.7454
 2562SOL     OW19144   1.317   4.091   1.693  0.4442 -0.3034  0.3497
 2562SOL    HW119145   1.317   4.064   1.784  2.4748 -0.6314  0.2632
 2562SOL    HW219146   1.406   4.121   1.673  0.7745 -0.6326  1.3534
 2563SOL     OW19147   3.356   1.681   7.729 -0.1635  0.9256  0.2232
 2563SOL    HW119148   3.318   1.646   7.649 -0.0925 -0.1102  0.6554
 2563SOL    HW219149   3.280   1.713   7.778 -1.1876  0.1793 -0.8838
 2564SOL     OW19150   1.973   4.116   2.953  0.2601  0.3237 -0.5742
 2564SOL    HW119151   1.951   4.175   2.880  1.2842 -2.1134 -2.8696
 2564SOL    HW219152   2.045   4.070   2.911 -0.2859 -1.4144  0.4194
 2565SOL     OW19153   1.246   1.482   6.214 -0.3478 -0.3296  0.4773
 2565SOL    HW119154   1.267   1.532   6.135 -1.4521  2.2214  1.7864
 2565SOL    HW219155   1.158   1.455   6.188 -0.3735  2.2570 -2.1270
 2566SOL     OW19156   3.882   2.203   0.105  0.3159  0.3126  0.2210
 2566SOL    HW119157   3.928   2.207   0.188  0.2063  1.3962  0.2283
 2566SOL    HW219158   3.883   2.111   0.080 -0.2930  0.6117 -0.9492
 2567SOL     OW19159   1.590   2.779   2.407 -0.6932  0.1277  0.5645
 2567SOL    HW119160   1.672   2.827   2.418 -1.1362  1.0976 -0.3659
 2567SOL    HW219161   1.603   2.702   2.462 -0.6686 -0.4458 -0.2378
 2568SOL     OW19162   2.621   0.753  13.950  0.0799  0.3902  0.0059
 2568SOL    HW119163   2.678   0.829  13.944  2.6400 -1.4636  0.9270
 2568SOL    HW219164   2.632   0.708  13.866 -1.2943  1.2401 -0.6311
 2569SOL     OW19165   2.685   2.180   8.587  0.2912  0.0501 -0.5386
 2569SOL    HW119166   2.695   2.200   8.680  0.3833  0.7107 -0.6933
 2569SOL    HW219167   2.753   2.114   8.576 -0.4439 -0.9356  0.8951
 2570SOL     OW19168   4.009   1.453   5.490 -0.0247  0.0634 -0.0009
 2570SOL    HW119169   3.971   1.368   5.471  0.7321  0.2842 -2.5125
 2570SOL    HW219170   4.020   1.449   5.585  0.5908 -0.6515 -0.0977
 2571SOL     OW19171   3.715   4.563   3.040 -0.2888 -0.0291 -0.3960
 2571SOL    HW119172   3.724   4.491   3.103 -0.7773  0.9411  0.7735
 2571SOL    HW219173   3.785   4.625   3.062  0.2590 -0.6010 -0.5284
 2572SOL     OW19174   3.186   4.143   8.544  0.0849  0.3852  0.1047
 2572SOL    HW119175   3.192   4.077   8.475 -1.1683  0.2903  0.0886
 2572SOL    HW219176   3.117   4.198   8.507  0.4858  0.9891  0.2512
 2573SOL     OW19177   3.970   2.919   2.664  0.2666  0.1793 -0.1396
 2573SOL    HW119178   3.938   3.004   2.695 -1.0737  0.1547 -1.4507
 2573SOL    HW219179   3.884   2.876   2.670  0.8418 -0.9846 -0.3841
 2574SOL     OW19180   1.967   4.320   3.340 -0.1496  0.2141  0.5500
 2574SOL    HW119181   1.922   4.259   3.281  2.7043 -0.9566 -0.4353
 2574SOL    HW219182   2.045   4.267   3.359 -0.3807  0.4431  2.0916
 2575SOL     OW19183   0.682   0.191   4.443 -0.2793  0.1727 -0.0727
 2575SOL    HW119184   0.613   0.220   4.503 -0.7158 -0.7311 -0.1432
 2575SOL    HW219185   0.675   0.259   4.375  0.1945 -0.1215 -0.4168
 2576SOL     OW19186   3.357   0.195   4.021 -0.1113  0.4708 -0.4821
 2576SOL    HW119187   3.385   0.280   3.987  1.2991  0.7509  1.3935
 2576SOL    HW219188   3.267   0.189   3.988 -0.6946 -2.1166  1.5839
 2577SOL     OW19189   3.490   4.154  11.329  0.2253  0.3566  0.3265
 2577SOL    HW119190   3.450   4.093  11.267 -2.9287  1.3902  1.3478
 2577SOL    HW219191   3.559   4.096  11.363 -0.6735 -1.1452 -0.4434
 2578SOL     OW19192   1.881   3.683   4.696 -0.7003  0.0708  0.2201
 2578SOL    HW119193   1.857   3.625   4.624 -0.4300 -1.9928  1.8224
 2578SOL    HW219194   1.977   3.684   4.690 -0.7259 -1.0427 -0.3401
 2579SOL     OW19195   4.245   0.613  13.839  0.2169  0.1996 -0.0522
 2579SOL    HW119196   4.211   0.524  13.837 -1.8068  1.0526 -3.2712
 2579SOL    HW219197   4.186   0.658  13.779 -0.3130 -0.9900 -0.4162
 2580SOL     OW19198   2.416   1.996   1.193  0.0104 -0.1661 -0.3384
 2580SOL    HW119199   2.322   2.010   1.182 -0.0517 -0.5633 -0.3133
 2580SOL    HW219200   2.413   1.915   1.244  0.9961 -0.3111 -0.5124
 2581SOL     OW19201   4.580   0.920  11.899  0.7987 -0.0775 -0.2423
 2581SOL    HW119202   4.630   0.838  11.896 -1.3185 -1.3769  0.0741
 2581SOL    HW219203   4.581   0.959  11.811 -3.1771  1.7602  0.5228
 2582SOL     OW19204   2.987   0.403   6.567 -0.3342 -0.3388 -0.0070
 2582SOL    HW119205   3.010   0.314   6.541  1.7452  0.2956 -0.3095
 2582SOL    HW219206   2.966   0.375   6.657 -1.4715  3.4686  0.9363
 2583SOL     OW19207   2.518   1.692   5.506  0.1303 -0.1020 -0.8426
 2583SOL    HW119208   2.470   1.646   5.574  2.0419 -3.1849 -1.5900
 2583SOL    HW219209   2.444   1.721   5.452 -0.4128 -0.0890 -0.0857
 2584SOL     OW19210   0.169   3.622   9.777  0.2281  0.4012 -0.4727
 2584SOL    HW119211   0.170   3.680   9.853  0.6463  0.0950 -0.2429
 2584SOL    HW219212   0.078   3.630   9.751  0.1999 -0.7198 -0.7351
 2585SOL     OW19213   4.012   3.398   1.370  0.4195  0.1680 -0.2932
 2585SOL    HW119214   4.002   3.462   1.299  2.0638 -0.0377 -0.7021
 2585SOL    HW219215   3.963   3.444   1.438  0.4298  1.5824 -1.2355
 2586SOL     OW19216   4.139   2.012   4.519  0.2877 -0.0119 -0.2005
 2586SOL    HW119217   4.126   2.107   4.510  0.4818  0.0614  0.2955
 2586SOL    HW219218   4.057   1.975   4.486 -0.3312  2.8051 -1.8166
 2587SOL     OW19219   0.289   4.259   5.468  0.6724  0.0496  0.3990
 2587SOL    HW119220   0.207   4.215   5.489  0.8732 -2.0581 -3.3296
 2587SOL    HW219221   0.342   4.191   5.426  0.1473  0.8706 -1.5828
 2588SOL     OW19222   3.467   0.089   8.625 -0.8153 -0.4403 -0.1172
 2588SOL    HW119223   3.449   0.101   8.532 -1.3081  0.5311  0.1009
 2588SOL    HW219224   3.502   0.177   8.642  2.3283 -1.1948 -2.7446
 2589SOL     OW19225   2.260   4.559   7.727  0.2751  0.3173  0.0628
 2589SOL    HW119226   2.294   4.595   7.645  0.3867  1.2901  0.5365
 2589SOL    HW219227   2.185   4.613   7.752 -0.2510 -0.7700  0.8186
 2590SOL     OW19228   2.094   1.815   3.746  0.5713  0.3835 -0.0335
 2590SOL    HW119229   2.040   1.887   3.714 -0.3428  0.6375  2.0737
 2590SOL    HW219230   2.172   1.857   3.783  2.1926 -1.4573 -1.3789
 2591SOL     OW19231   4.147   3.655   5.190  0.3999  0.5528  0.1579
 2591SOL    HW119232   4.079   3.718   5.166 -0.8759 -0.4352  1.1358
 2591SOL    HW219233   4.170   3.689   5.276 -0.4610 -1.3970  1.1733
 2592SOL     OW19234   3.906   3.121  17.590 -0.0108  0.0198 -0.1949
 2592SOL    HW119235   3.915   3.073  17.508 -1.1526 -1.8891  0.8158
 2592SOL    HW219236   3.897   3.048  17.650 -1.0201 -0.1057 -0.4951
 2593SOL     OW19237   0.052   2.860   1.995  0.2842  0.5123  0.1910
 2593SOL    HW119238   0.117   2.911   2.043  1.5760 -2.6220  1.7941
 2593SOL    HW219239   0.042   2.900   1.908 -2.1248  1.1946  0.7875
 2594SOL     OW19240   3.590   3.228  11.016  0.5865 -0.0046  0.3295
 2594SOL    HW119241   3.681   3.201  11.026  1.3397  1.5763 -2.1853
 2594SOL    HW219242   3.556   3.211  11.103 -1.6689 -2.5776 -1.0403
 2595SOL     OW19243   3.384   4.517   5.651  0.5610  0.1037  0.1915
 2595SOL    HW119244   3.326   4.463   5.596  0.5387 -0.5937  0.9084
 2595SOL    HW219245   3.469   4.502   5.609  0.2497 -0.1969 -0.3410
 2596SOL     OW19246   4.261   1.296   4.508 -0.3448  0.2478  0.2668
 2596SOL    HW119247   4.292   1.335   4.426 -3.2999  2.6199  0.2543
 2596SOL    HW219248   4.292   1.207   4.490  0.1240  0.3559  0.5569
 2597SOL     OW19249   0.937   3.472   7.106 -0.3055 -0.0110  0.7485
 2597SOL    HW119250   0.956   3.440   7.194  0.9847  0.3549  0.6063
 2597SOL    HW219251   0.843   3.484   7.115 -0.2552 -0.6419  2.1253
 2598SOL     OW19252   0.737   0.901   3.152 -0.7277  0.0625  0.0350
 2598SOL    HW119253   0.719   0.894   3.058 -0.7231  0.1922  0.0244
 2598SOL    HW219254   0.830   0.921   3.155 -0.6580 -0.3762  0.9328
 2599SOL     OW19255   4.242   0.512  16.429  0.0843  0.4891  0.0033
 2599SOL    HW119256   4.317   0.454  16.416  1.7028  2.7149 -0.6222
 2599SOL    HW219257   4.180   0.472  16.368 -2.0487 -1.0913  3.2359
 2600SOL     OW19258   0.021   2.415   1.893 -0.1336 -0.4836 -0.4533
 2600SOL    HW119259   4.670   2.356   1.896  0.5067 -1.3896 -2.2203
 2600SOL    HW219260   0.074   2.373   1.826 -0.9922  0.0392 -1.4540
 2601SOL     OW19261   3.217   1.615  15.024 -0.3209 -0.2129 -0.3990
 2601SOL    HW119262   3.247   1.550  14.960  0.0292 -0.7020  0.2585
 2601SOL    HW219263   3.301   1.635  15.063 -0.5814  0.2867 -0.1041
 2602SOL     OW19264   4.428   3.055   6.518 -0.3222  0.0851 -0.5069
 2602SOL    HW119265   4.408   3.142   6.482 -1.2128  0.9357  2.0456
 2602SOL    HW219266   4.473   3.011   6.445  2.3920  4.0450 -1.2610
 2603SOL     OW19267   0.458   4.041   8.657 -0.1561  0.3240  0.3863
 2603SOL    HW119268   0.378   4.071   8.699 -0.1598 -1.3267  1.5740
 2603SOL    HW219269   0.430   4.050   8.566  0.6517 -2.0302 -0.1149
 2604SOL     OW19270   4.387   4.126   7.429  0.1959  0.2006  0.4366
 2604SOL    HW119271   4.294   4.149   7.428  0.3905  1.0109  0.8520
 2604SOL    HW219272   4.379   4.033   7.411  0.0952  0.3438 -0.2721
 2605SOL     OW19273   2.134   4.175   8.434 -0.8591 -0.2680  0.7002
 2605SOL    HW119274   2.119   4.215   8.349  0.8708  0.0909  0.5816
 2605SOL    HW219275   2.217   4.220   8.448 -0.0572 -1.3089 -0.7134
 2606SOL     OW19276   2.519   4.587  13.744  0.5644  0.3903  0.4664
 2606SOL    HW119277   2.537   4.542  13.661 -2.1931  1.0582 -0.4973
 2606SOL    HW219278   2.529   4.517  13.808 -2.1712  1.6395  2.2480
 2607SOL     OW19279   2.739   1.849  15.978  0.0388 -0.7534 -0.0770
 2607SOL    HW119280   2.782   1.839  15.893 -0.6030 -2.1637 -0.2318
 2607SOL    HW219281   2.698   1.763  15.987  0.2284 -0.7667  0.7279
 2608SOL     OW19282   3.035   3.226  16.644 -0.0325 -0.3934 -0.6337
 2608SOL    HW119283   3.071   3.295  16.588  1.5624 -1.0549 -0.4256
 2608SOL    HW219284   2.940   3.234  16.635 -0.3350 -1.1383  1.8209
 2609SOL     OW19285   1.347   0.105   8.397 -0.4625 -0.0526 -0.2419
 2609SOL    HW119286   1.439   0.083   8.413 -0.4865 -0.0359 -0.0832
 2609SOL    HW219287   1.296   0.050   8.456  2.0441 -0.9932  1.0420
 2610SOL     OW19288   0.623   1.575  15.194  0.1932 -0.0811  0.2920
 2610SOL    HW119289   0.706   1.617  15.172 -0.0504  0.3483  0.1933
 2610SOL    HW219290   0.559   1.638  15.160  1.0565 -0.5686 -2.2768
 2611SOL     OW19291   1.996   2.887   8.404 -0.6891  0.2007 -0.1826
 2611SOL    HW119292   1.940   2.897   8.481 -0.2370  2.5819 -0.1750
 2611SOL    HW219293   2.015   2.978   8.382 -0.6415  0.1875 -0.1985
 2612SOL     OW19294   3.211   4.523   3.263  0.1175 -0.5260 -0.8916
 2612SOL    HW119295   3.214   4.582   3.187 -0.2153 -1.1884 -1.4180
 2612SOL    HW219296   3.299   4.488   3.251  0.2321 -0.7777  0.6922
 2613SOL     OW19297   4.177   2.673   6.127  0.0708 -0.1454 -0.0328
 2613SOL    HW119298   4.206   2.591   6.086 -1.3433 -1.1552  0.9618
 2613SOL    HW219299   4.170   2.725   6.047 -3.7887  1.3720  1.2908
 2614SOL     OW19300   1.584   0.296  11.928  0.0354 -0.3001  0.0283
 2614SOL    HW119301   1.515   0.234  11.953  0.7471 -0.9511  0.3539
 2614SOL    HW219302   1.547   0.351  11.859  0.4925 -0.6408 -0.4904
 2615SOL     OW19303   4.550   1.841  11.402  0.4335 -0.7110  0.1829
 2615SOL    HW119304   4.490   1.768  11.412  0.4430 -0.4809  1.8520
 2615SOL    HW219305   4.488   1.914  11.399 -0.3005 -1.3025  1.0536
 2616SOL     OW19306   0.339   4.056  10.804  0.0244  0.3688  0.1726
 2616SOL    HW119307   0.267   4.014  10.757  1.1756  1.8539 -2.9374
 2616SOL    HW219308   0.353   3.991  10.873 -1.1037 -0.3800 -0.3056
 2617SOL     OW19309   2.233   1.996   4.541  0.1442  0.6244 -0.7540
 2617SOL    HW119310   2.322   1.963   4.531  0.0082  0.0771 -0.1769
 2617SOL    HW219311   2.201   1.956   4.460 -1.3503  0.7733 -0.2413
 2618SOL     OW19312   1.989   1.993   9.377 -0.9775  0.2532  0.4862
 2618SOL    HW119313   1.897   1.992   9.350 -1.1943  2.8062  1.1772
 2618SOL    HW219314   1.989   1.924   9.443  2.1918  0.7186  0.9464
 2619SOL     OW19315   1.180   2.783   2.556  0.2143 -0.2074  0.0471
 2619SOL    HW119316   1.237   2.857   2.576  0.4201 -0.2551 -0.3686
 2619SOL    HW219317   1.143   2.799   2.469  1.9807 -0.4093 -0.7256
 2620SOL     OW19318   4.239   4.384  14.288  0.2630 -0.1308 -0.6854
 2620SOL    HW119319   4.193   4.356  14.367 -2.3372 -1.3895 -2.5979
 2620SOL    HW219320   4.326   4.368  14.322 -0.2234  4.0661  2.6139
 2621SOL     OW19321   1.064   2.749   9.238  0.0577 -0.3821 -0.7099
 2621SOL    HW119322   1.014   2.752   9.156 -0.1293 -1.7120 -0.6466
 2621SOL    HW219323   1.143   2.696   9.223 -0.7536 -1.7471 -0.1875
 2622SOL     OW19324   4.353   4.160   5.677  0.3572 -0.0557 -0.0636
 2622SOL    HW119325   4.278   4.217   5.695  0.2169 -0.1342 -0.4084
 2622SOL    HW219326   4.337   4.075   5.719  1.7927 -0.7205 -0.8680
 2623SOL     OW19327   2.858   2.424   4.020 -0.1490 -0.5209 -0.0568
 2623SOL    HW119328   2.922   2.477   3.971 -4.9549  3.3099 -2.1629
 2623SOL    HW219329   2.900   2.424   4.106  0.2986  0.9767 -0.2767
 2624SOL     OW19330   1.951   2.961  13.270  0.4218  0.2695 -0.2169
 2624SOL    HW119331   1.984   2.992  13.186  1.8101 -2.9000 -0.8702
 2624SOL    HW219332   1.907   3.035  13.311  0.4906 -0.9222  2.0243
 2625SOL     OW19333   2.927   0.533   2.118  0.0665 -0.3442 -0.0294
 2625SOL    HW119334   2.962   0.508   2.204 -0.2251  0.5582  0.3415
 2625SOL    HW219335   2.836   0.507   2.129  0.2191 -0.6528  0.5502
 2626SOL     OW19336   3.628   1.193  14.241  0.3443 -0.2643 -0.2833
 2626SOL    HW119337   3.532   1.196  14.243  0.3368  0.9254 -2.7157
 2626SOL    HW219338   3.639   1.119  14.301  0.4041  0.7130  0.9195
 2627SOL     OW19339   3.169   2.055   9.817  0.1313 -0.7113  0.0541
 2627SOL    HW119340   3.212   2.112   9.881 -0.3065 -1.8656  1.3940
 2627SOL    HW219341   3.170   1.978   9.874 -1.2916 -1.1767 -0.5768
 2628SOL     OW19342   4.617   0.794   5.625  0.0371 -0.4047 -0.4890
 2628SOL    HW119343   4.652   0.722   5.678  0.1218 -1.4945 -2.0203
 2628SOL    HW219344   4.523   0.793   5.642 -0.4396 -0.0641 -3.1019
 2629SOL     OW19345   0.254   3.381   4.597 -0.2662  0.1442  0.1364
 2629SOL    HW119346   0.310   3.459   4.596 -1.2077  0.8178 -0.9350
 2629SOL    HW219347   0.320   3.327   4.640  0.1786  1.2858  0.8817
 2630SOL     OW19348   2.488   0.278   4.227  0.3170  0.3683 -0.2246
 2630SOL    HW119349   2.492   0.229   4.309  0.4455 -1.0999 -1.1084
 2630SOL    HW219350   2.568   0.330   4.229 -0.5033  1.5591  2.0336
 2631SOL     OW19351   1.646   0.097   9.499  0.4062 -0.3379  0.0089
 2631SOL    HW119352   1.658   0.003   9.486  1.0408  0.0593 -2.4363
 2631SOL    HW219353   1.560   0.116   9.462  0.1726  0.1292  0.7908
 2632SOL     OW19354   3.519   1.783   6.836 -0.5864 -0.4929  0.0222
 2632SOL    HW119355   3.504   1.797   6.742 -0.3286 -1.2306 -0.1295
 2632SOL    HW219356   3.606   1.820   6.848 -0.3743 -0.1388 -2.5395
 2633SOL     OW19357   0.090   4.373   1.156  0.4754  0.1017 -0.1741
 2633SOL    HW119358   0.122   4.363   1.246  1.9254  1.5380 -0.5277
 2633SOL    HW219359   0.139   4.452   1.132  0.7249  0.3871  1.2328
 2634SOL     OW19360   1.210   2.444  11.028 -0.0513  0.1256  0.1459
 2634SOL    HW119361   1.276   2.395  10.979 -0.9996  1.0304 -2.0644
 2634SOL    HW219362   1.206   2.405  11.115  2.8543 -1.0616 -0.2749
 2635SOL     OW19363   2.789   2.448   5.328  0.0287 -0.5960 -0.2393
 2635SOL    HW119364   2.745   2.365   5.308  0.4797 -0.8951  0.0080
 2635SOL    HW219365   2.879   2.421   5.345  0.0982  0.8630  1.6947
 2636SOL     OW19366   3.006   3.497   7.599  0.1635  0.2808 -0.4720
 2636SOL    HW119367   3.087   3.477   7.647  0.4028  1.7035 -0.2709
 2636SOL    HW219368   3.009   3.592   7.605  2.9991  0.0848  1.1641
 2637SOL     OW19369   3.616   0.052   8.975 -0.2523 -0.2549  0.1227
 2637SOL    HW119370   3.686   0.097   9.023 -0.4216  1.6109 -1.3952
 2637SOL    HW219371   3.553   0.035   9.046  1.8202  0.2675  2.0804
 2638SOL     OW19372   3.941   4.009  17.204  0.0074  0.1237  0.4955
 2638SOL    HW119373   3.970   4.069  17.135 -1.3491  1.9643  1.5202
 2638SOL    HW219374   3.867   4.062  17.234 -0.9108 -0.7359 -0.2583
 2639SOL     OW19375   0.260   3.663   6.235 -0.2939  0.3137 -0.4322
 2639SOL    HW119376   0.178   3.614   6.243  1.3238 -2.4499 -0.8709
 2639SOL    HW219377   0.228   3.747   6.268 -0.3414  0.3937 -0.6817
 2640SOL     OW19378   2.522   1.023   3.486 -0.0418 -0.3960 -0.3067
 2640SOL    HW119379   2.489   1.110   3.461 -1.0367 -1.2098 -1.8029
 2640SOL    HW219380   2.436   0.985   3.501  0.0814  0.0539  1.6027
 2641SOL     OW19381   2.522   4.100  15.823  0.1328  0.3402 -0.3530
 2641SOL    HW119382   2.446   4.149  15.853  0.9613  0.4405  1.5615
 2641SOL    HW219383   2.597   4.143  15.865  2.8555 -2.4357 -2.4491
 2642SOL     OW19384   3.118   0.043   6.202  0.0242  0.2067 -0.3384
 2642SOL    HW119385   3.039   0.031   6.149 -0.8497  1.2153  0.7137
 2642SOL    HW219386   3.149   4.677   6.205 -0.6079 -0.0834 -2.3470
 2643SOL     OW19387   2.386   3.797   1.785 -0.1838 -0.1486 -0.5475
 2643SOL    HW119388   2.411   3.705   1.774  1.3580  0.1297  0.5813
 2643SOL    HW219389   2.291   3.792   1.772 -0.2338  1.5343 -0.8681
 2644SOL     OW19390   1.173   0.964   6.434 -0.2567  0.7274 -0.6327
 2644SOL    HW119391   1.153   0.882   6.389  0.4248 -0.2600  0.8676
 2644SOL    HW219392   1.178   1.024   6.360  2.0429 -0.8191 -1.7249
 2645SOL     OW19393   3.455   2.480   1.129 -0.3911  0.0402 -0.1746
 2645SOL    HW119394   3.451   2.393   1.088  1.3778  0.4415 -1.2303
 2645SOL    HW219395   3.467   2.532   1.049 -0.5176 -0.4144 -0.4875
 2646SOL     OW19396   0.902   4.514   0.576 -0.3574  0.2757  0.4691
 2646SOL    HW119397   0.962   4.441   0.590  0.4212  0.2092 -3.3394
 2646SOL    HW219398   0.897   4.540   0.668 -2.2102  1.8091 -0.0737
 2647SOL     OW19399   0.736   3.661   3.599  0.3070 -0.1448 -0.5433
 2647SOL    HW119400   0.710   3.739   3.549 -1.3357 -0.4976 -0.2618
 2647SOL    HW219401   0.828   3.681   3.613  0.0825  0.7007 -0.2280
 2648SOL     OW19402   4.211   1.389   6.670 -0.7324  0.2701  0.2855
 2648SOL    HW119403   4.190   1.393   6.764  2.5646 -0.4629  1.0379
 2648SOL    HW219404   4.143   1.442   6.629 -0.5558  1.6528  1.7664
 2649SOL     OW19405   1.917   4.180   9.463 -0.1449 -0.5991  0.4461
 2649SOL    HW119406   1.868   4.172   9.545 -1.0125 -0.5173 -0.0632
 2649SOL    HW219407   1.850   4.133   9.414 -1.0368  0.9011  0.2211
 2650SOL     OW19408   4.240   0.850   7.308 -0.0354  0.1380 -0.5611
 2650SOL    HW119409   4.316   0.801   7.339  0.3167  1.3350  0.4673
 2650SOL    HW219410   4.225   0.901   7.388  0.2800 -1.8874  0.7971
 2651SOL     OW19411   3.498   2.032   1.770 -0.2524 -0.0265  0.0321
 2651SOL    HW119412   3.434   2.086   1.722  2.7189  1.9388 -1.7159
 2651SOL    HW219413   3.455   1.947   1.763 -0.5198 -0.0257  1.7569
 2652SOL     OW19414   3.709   2.205   2.396  0.0642 -0.2129 -0.0872
 2652SOL    HW119415   3.778   2.215   2.330 -0.7821 -2.1219 -1.2864
 2652SOL    HW219416   3.702   2.298   2.417  1.2745 -1.3613  5.3764
 2653SOL     OW19417   0.848   3.950   9.990 -0.4631 -0.2026 -0.3984
 2653SOL    HW119418   0.873   3.903   9.910 -2.2512 -1.1140 -0.4105
 2653SOL    HW219419   0.901   3.908  10.059  0.8277  1.8118 -0.1747
 2654SOL     OW19420   3.876   2.604   4.288 -0.1171  0.5034  0.3361
 2654SOL    HW119421   3.796   2.639   4.248  2.3412  0.1300 -4.9821
 2654SOL    HW219422   3.915   2.562   4.211  0.8222  0.2323  0.9771
 2655SOL     OW19423   1.117   1.631  15.635  0.2673 -0.4536  0.3665
 2655SOL    HW119424   1.091   1.625  15.543  0.3769  2.8186  0.1401
 2655SOL    HW219425   1.136   1.723  15.652 -2.6388 -0.3617  3.1470
 2656SOL     OW19426   0.698   4.490   8.248  0.2005  0.0684 -0.4226
 2656SOL    HW119427   0.785   4.467   8.280  0.3006  0.9836 -0.0242
 2656SOL    HW219428   0.634   4.424   8.273  1.3175 -1.5194 -1.7648
 2657SOL     OW19429   0.980   4.191   3.989 -0.1168 -0.3962  0.3738
 2657SOL    HW119430   1.019   4.180   4.076  0.4407 -1.9574 -0.0685
 2657SOL    HW219431   1.041   4.239   3.933  1.5080 -0.5768  2.0041
 2658SOL     OW19432   1.073   3.829   3.462 -0.4280 -0.5133  0.1262
 2658SOL    HW119433   1.031   3.792   3.384  0.8433 -2.0130  0.1486
 2658SOL    HW219434   1.060   3.923   3.452 -0.7107 -0.2540  2.7894
 2659SOL     OW19435   0.322   2.092   5.472 -0.2507  0.0294 -0.1553
 2659SOL    HW119436   0.247   2.032   5.472 -0.4043  0.2251  0.2559
 2659SOL    HW219437   0.388   2.037   5.515 -0.2012 -0.3856 -0.7618
 2660SOL     OW19438   2.416   1.363  17.578  0.3790  0.3275  0.7262
 2660SOL    HW119439   2.384   1.304  17.510  1.5443  0.0963  0.3679
 2660SOL    HW219440   2.472   1.300  17.624  2.2167  0.9020 -0.7187
 2661SOL     OW19441   3.325   1.211   2.002 -0.1073 -0.1640  0.3291
 2661SOL    HW119442   3.352   1.240   1.915  0.1603  2.1233  1.1859
 2661SOL    HW219443   3.401   1.154   2.016 -0.2453 -1.0040 -2.3338
 2662SOL     OW19444   0.479   4.554  10.147  0.3008 -0.0369 -0.2018
 2662SOL    HW119445   0.558   4.591  10.188 -1.2275  0.4552  2.2779
 2662SOL    HW219446   0.465   4.477  10.202  0.5564 -0.0208 -0.1103
 2663SOL     OW19447   2.296   4.254  15.850  0.4053  0.0871 -0.6131
 2663SOL    HW119448   2.267   4.299  15.929 -1.4131 -0.1112 -1.1757
 2663SOL    HW219449   2.214   4.226  15.810  1.2968 -0.9410 -1.7149
 2664SOL     OW19450   0.033   2.161  10.744  0.2192  0.5082  0.1910
 2664SOL    HW119451   4.723   2.246  10.773 -2.2022 -0.2220 -0.5696
 2664SOL    HW219452   0.119   2.163  10.785  0.2342  0.8349  0.1419
 2665SOL     OW19453   0.367   1.078  16.521  0.0122 -0.2116  0.3003
 2665SOL    HW119454   0.409   1.071  16.435 -0.9155 -2.9177  0.0503
 2665SOL    HW219455   0.430   1.045  16.585 -0.5182 -0.6128  0.6210
 2666SOL     OW19456   0.405   2.423   6.874 -0.1305 -0.5478 -0.1088
 2666SOL    HW119457   0.465   2.356   6.842  0.0148 -1.5007  2.1519
 2666SOL    HW219458   0.468   2.493   6.893 -0.2007 -0.4735 -0.1511
 2667SOL     OW19459   3.451   3.539   6.028 -0.5103 -0.3847  0.3410
 2667SOL    HW119460   3.469   3.469   5.966  1.6493  1.3447 -1.0017
 2667SOL    HW219461   3.362   3.560   6.002 -0.4214  1.1091  1.1964
 2668SOL     OW19462   1.777   2.584  11.757 -0.1498  0.1181  0.7660
 2668SOL    HW119463   1.865   2.598  11.723  0.1699 -1.7605  0.8617
 2668SOL    HW219464   1.785   2.631  11.841  2.1014  0.5120  0.3384
 2669SOL     OW19465   4.012   0.494   0.536 -0.1945 -0.0022  0.3587
 2669SOL    HW119466   4.091   0.455   0.574  0.2992  0.1637 -0.4892
 2669SOL    HW219467   3.992   0.416   0.483  0.8270  0.7271 -1.1035
 2670SOL     OW19468   3.225   1.293   2.406  0.4624  0.3575 -0.3182
 2670SOL    HW119469   3.187   1.345   2.476 -0.7971  0.7392 -1.2800
 2670SOL    HW219470   3.156   1.295   2.339 -0.4044 -4.2987  0.4835
 2671SOL     OW19471   2.320   3.050   9.057  0.0804  0.7858 -0.2398
 2671SOL    HW119472   2.323   3.076   9.149  0.3737  3.0367 -0.8830
 2671SOL    HW219473   2.410   3.018   9.047 -0.6912 -0.2968 -3.6606
 2672SOL     OW19474   2.837   3.059  17.358  0.0708  0.2119  0.5864
 2672SOL    HW119475   2.876   2.992  17.303 -1.4558  0.1181 -0.3963
 2672SOL    HW219476   2.744   3.037  17.347  0.2036 -0.2772  0.4590
 2673SOL     OW19477   3.690   3.340   2.123 -0.1001  0.1834 -0.2670
 2673SOL    HW119478   3.725   3.389   2.198 -3.2499 -0.7257  1.7681
 2673SOL    HW219479   3.727   3.380   2.044  1.8155 -1.8538 -0.3925
 2674SOL     OW19480   3.997   1.663   4.847 -0.1836 -0.5084  0.0812
 2674SOL    HW119481   4.065   1.605   4.879  1.9120  1.3208 -1.0745
 2674SOL    HW219482   4.038   1.747   4.867 -1.6707  0.1726  0.3380
 2675SOL     OW19483   0.098   1.828   4.373 -0.0907 -0.2477  0.1164
 2675SOL    HW119484   0.165   1.760   4.366 -2.0098 -2.1516 -0.0049
 2675SOL    HW219485   0.094   1.849   4.466 -0.6326 -1.4440  0.3619
 2676SOL     OW19486   4.354   3.696  12.345  0.1500 -0.0843  0.1269
 2676SOL    HW119487   4.302   3.680  12.266 -0.2904  1.0307  0.1797
 2676SOL    HW219488   4.300   3.649  12.408 -0.1948  0.5102  0.2735
 2677SOL     OW19489   0.087   3.427  14.671  0.9076 -0.3042  0.3818
 2677SOL    HW119490   0.061   3.351  14.618  1.1223  1.2207 -1.9139
 2677SOL    HW219491   0.126   3.481  14.602 -3.1704  1.1267 -0.7839
 2678SOL     OW19492   3.139   0.768  12.833  0.7228 -0.0609  0.2015
 2678SOL    HW119493   3.083   0.705  12.787  0.9648 -0.0407 -0.1189
 2678SOL    HW219494   3.078   0.833  12.867 -0.2891 -1.1881  0.5446
 2679SOL     OW19495   0.390   2.358   5.556  0.1201 -0.3098  0.0219
 2679SOL    HW119496   0.377   2.269   5.522  2.4808  0.2648 -2.3349
 2679SOL    HW219497   0.346   2.398   5.482  2.1135 -1.0481 -1.5628
 2680SOL     OW19498   0.209   2.797  13.997 -0.2633 -0.2699  0.1790
 2680SOL    HW119499   0.277   2.864  13.995 -0.0572 -0.5156 -0.9669
 2680SOL    HW219500   0.135   2.839  14.040  0.3028 -1.1333  1.9849
 2681SOL     OW19501   3.999   4.362   4.183  0.6709  0.8150 -0.0798
 2681SOL    HW119502   4.095   4.367   4.181  0.8327 -1.4273  1.9593
 2681SOL    HW219503   3.987   4.292   4.247 -1.6500  1.0259 -0.2873
 2682SOL     OW19504   1.854   0.034   9.319 -0.3288 -0.2106  0.1078
 2682SOL    HW119505   1.814   0.101   9.375 -0.2057  0.0374 -0.1008
 2682SOL    HW219506   1.782   4.724   9.267  0.8099 -0.6804 -1.1389
 2683SOL     OW19507   1.868   1.399  11.772  0.3913  0.2103 -0.5428
 2683SOL    HW119508   1.922   1.322  11.754  0.9490  0.3602  0.5167
 2683SOL    HW219509   1.881   1.447  11.690 -1.5915 -0.8728 -1.5141
 2684SOL     OW19510   2.283   2.738   4.006 -0.5775 -0.1809 -0.1429
 2684SOL    HW119511   2.309   2.731   4.098  0.7012 -0.4267 -0.5256
 2684SOL    HW219512   2.209   2.677   4.003 -0.3392 -0.4466 -0.7087
 2685SOL     OW19513   2.960   1.234   6.145  0.2413  0.2327 -0.3019
 2685SOL    HW119514   3.053   1.238   6.166  0.1455  0.8622  0.0302
 2685SOL    HW219515   2.942   1.141   6.159  0.8784 -0.2854 -2.9836
 2686SOL     OW19516   2.343   4.074  12.660 -0.7603  0.0809 -0.0392
 2686SOL    HW119517   2.285   4.118  12.597  1.7874  0.7946 -1.9126
 2686SOL    HW219518   2.429   4.080  12.618 -1.4390 -2.8891 -1.8748
 2687SOL     OW19519   4.299   3.757   7.606 -0.5575  0.2960 -0.8453
 2687SOL    HW119520   4.249   3.678   7.584 -0.4288  0.0156 -0.1497
 2687SOL    HW219521   4.305   3.802   7.522 -0.4424  1.3652 -0.2619
 2688SOL     OW19522   3.604   1.723   8.635  0.1475  0.0254  0.3998
 2688SOL    HW119523   3.626   1.660   8.566  2.0229  1.3609 -0.2253
 2688SOL    HW219524   3.630   1.677   8.714 -0.4196 -0.5176  0.2747
 2689SOL     OW19525   1.483   0.659   8.404  0.6199 -0.0443  0.1716
 2689SOL    HW119526   1.454   0.690   8.318  0.0259  1.2749  0.8647
 2689SOL    HW219527   1.571   0.696   8.410  0.0057  1.4706 -0.3704
 2690SOL     OW19528   1.317   4.668   2.901 -0.0124 -0.4302  0.0190
 2690SOL    HW119529   1.268   4.623   2.970  0.1945 -0.4747  0.1368
 2690SOL    HW219530   1.346   4.591   2.853 -1.7629 -0.3755 -1.1201
 2691SOL     OW19531   4.341   4.141   9.508  0.4545 -0.4284 -0.1167
 2691SOL    HW119532   4.417   4.087   9.483  1.0840 -0.5413  2.0797
 2691SOL    HW219533   4.267   4.081   9.514  0.0973 -0.3036 -3.0122
 2692SOL     OW19534   1.305   2.857   1.443  0.3945  0.0712  0.1946
 2692SOL    HW119535   1.249   2.898   1.510  0.8285 -0.6178  0.9785
 2692SOL    HW219536   1.383   2.912   1.454  0.1164  0.8133 -1.6196
 2693SOL     OW19537   3.003   4.718   9.676  0.0928 -0.5071  0.5182
 2693SOL    HW119538   2.967   4.688   9.592  0.6814 -0.3452  0.2126
 2693SOL    HW219539   2.952   0.073   9.690 -1.8967 -1.3280 -1.9402
 2694SOL     OW19540   3.812   3.064   3.040  0.4769  0.4876 -0.4993
 2694SOL    HW119541   3.736   3.106   3.079  0.1229 -1.7301  1.1526
 2694SOL    HW219542   3.788   2.977   3.070  0.7022  0.5919 -0.0264
 2695SOL     OW19543   0.788   1.388   7.657 -0.9517  0.1900 -0.4377
 2695SOL    HW119544   0.778   1.391   7.562  1.1762 -0.7242 -0.7084
 2695SOL    HW219545   0.861   1.326   7.655 -0.9923  0.1437 -0.4940
 2696SOL     OW19546   3.455   1.468  16.607 -0.4648 -0.0389 -0.0328
 2696SOL    HW119547   3.536   1.497  16.650 -0.0433 -1.4461  0.1264
 2696SOL    HW219548   3.393   1.502  16.672  0.8785  2.2143  0.0820
 2697SOL     OW19549   2.165   0.081   2.129  0.9979  0.2871  0.5186
 2697SOL    HW119550   2.254   0.051   2.149  0.1295 -3.1605 -0.9892
 2697SOL    HW219551   2.190   0.170   2.102 -1.2715  0.6890 -0.2976
 2698SOL     OW19552   3.563   4.627   2.819  0.4495 -0.1328 -0.6752
 2698SOL    HW119553   3.604   4.580   2.892 -0.0431 -0.4263 -0.5812
 2698SOL    HW219554   3.613   4.708   2.817 -0.8246  0.6693 -0.2493
 2699SOL     OW19555   2.125   2.077  15.583  0.1979 -0.2104  0.5363
 2699SOL    HW119556   2.184   2.035  15.520  1.2975  2.4488 -0.2251
 2699SOL    HW219557   2.103   2.007  15.644  2.0212 -1.9946 -0.8431
 2700SOL     OW19558   0.350   2.676   2.131  0.0931  0.2210 -0.6076
 2700SOL    HW119559   0.299   2.757   2.133  0.0188  0.1174  1.2257
 2700SOL    HW219560   0.286   2.612   2.101  0.4388  0.1340 -1.1678
 2701SOL     OW19561   0.023   3.552   6.323 -0.2495  0.2298 -0.1058
 2701SOL    HW119562   4.654   3.534   6.311  0.1476 -0.6559 -1.8586
 2701SOL    HW219563   0.019   3.598   6.407  0.3151  0.3791 -0.1614
 2702SOL     OW19564   4.202   1.435   6.944  0.2905 -0.0123  0.0472
 2702SOL    HW119565   4.250   1.353   6.959 -1.2998 -1.0550 -0.5831
 2702SOL    HW219566   4.198   1.476   7.030  1.9478 -0.5285  0.3709
 2703SOL     OW19567   2.879   3.418  15.410  0.5600 -0.1069 -0.0299
 2703SOL    HW119568   2.951   3.480  15.420  0.7707 -0.3799  0.1377
 2703SOL    HW219569   2.833   3.443  15.490 -1.6603  0.9675 -1.6513
 2704SOL     OW19570   0.272   0.086  10.031 -0.0774 -0.5741 -0.6785
 2704SOL    HW119571   0.288   0.181  10.033  1.7533 -0.8912 -0.4290
 2704SOL    HW219572   0.183   0.081  10.064 -0.1250 -0.3336 -0.7702
 2705SOL     OW19573   1.808   2.953   5.620 -0.3335 -0.1898 -0.3294
 2705SOL    HW119574   1.775   3.008   5.549  0.5666 -0.0052 -0.6105
 2705SOL    HW219575   1.841   2.874   5.577  0.8709 -0.2254  0.6502
 2706SOL     OW19576   4.674   3.391   2.541 -0.1578 -0.0242  0.4073
 2706SOL    HW119577   4.724   3.309   2.538  0.6965  0.5326 -0.5044
 2706SOL    HW219578   0.016   3.460   2.539 -1.4565  1.3304  3.5899
 2707SOL     OW19579   2.821   4.588   9.971  0.7268  0.1068 -0.3671
 2707SOL    HW119580   2.900   4.633  10.000 -0.2114  0.6623  1.2926
 2707SOL    HW219581   2.752   4.624  10.027  0.8632 -3.1483  1.8853
 2708SOL     OW19582   1.397   3.816   8.423  0.4918  0.2871 -0.0877
 2708SOL    HW119583   1.375   3.906   8.446  1.5082  1.5027 -3.9393
 2708SOL    HW219584   1.444   3.796   8.504 -0.7299  0.0152  0.5544
 2709SOL     OW19585   3.722   3.113   4.057 -0.0347 -0.3038  0.0832
 2709SOL    HW119586   3.808   3.148   4.079 -0.1488  1.7326 -2.6688
 2709SOL    HW219587   3.665   3.179   4.098  0.1489 -0.6984  0.9734
 2710SOL     OW19588   2.614   3.012  12.446 -0.1733  0.4604  0.3553
 2710SOL    HW119589   2.664   3.093  12.454 -2.1294  1.3802  3.2111
 2710SOL    HW219590   2.686   2.948  12.438 -0.0344  1.0630 -3.2029
 2711SOL     OW19591   2.468   4.329   8.152 -0.3002 -0.2186 -0.2246
 2711SOL    HW119592   2.470   4.417   8.189 -3.8162 -0.8367  1.4911
 2711SOL    HW219593   2.418   4.338   8.071 -0.1499  1.1539 -0.1565
 2712SOL     OW19594   2.064   3.605   5.071 -0.1035  0.2472 -0.2776
 2712SOL    HW119595   2.108   3.592   4.986  0.4248  1.3348 -0.1821
 2712SOL    HW219596   2.008   3.528   5.074 -0.1937  0.2237 -2.1617
 2713SOL     OW19597   2.876   2.790   7.672  0.1210 -0.4700 -0.8716
 2713SOL    HW119598   2.959   2.827   7.702 -0.3742 -1.8695  2.2582
 2713SOL    HW219599   2.852   2.838   7.594 -0.0997 -1.8814 -1.6725
 2714SOL     OW19600   3.506   4.532   9.816  0.2581  0.5721  0.1216
 2714SOL    HW119601   3.601   4.521   9.818  0.2661  0.1207 -2.3100
 2714SOL    HW219602   3.502   4.569   9.728  1.2537  0.6147  0.0938
 2715SOL     OW19603   4.158   1.630   5.357  0.4550  0.2303 -0.1343
 2715SOL    HW119604   4.108   1.553   5.384 -0.9924  0.0816 -3.1826
 2715SOL    HW219605   4.192   1.653   5.443  1.0195  0.7454 -0.4919
 2716SOL     OW19606   0.545   0.435   0.979  0.7951  0.0413 -0.2214
 2716SOL    HW119607   0.636   0.414   0.960  1.0000  0.3614  0.4254
 2716SOL    HW219608   0.551   0.464   1.070  1.0066  0.0644 -0.2442
 2717SOL     OW19609   2.647   3.966   8.365 -0.5135 -0.2363  0.3717
 2717SOL    HW119610   2.615   3.995   8.450 -1.7522  1.4395 -0.6688
 2717SOL    HW219611   2.566   3.946   8.318  0.3738  1.6908 -2.0272
 2718SOL     OW19612   3.766   3.518   7.934 -0.6118  0.2803  0.2601
 2718SOL    HW119613   3.781   3.431   7.897 -1.9530 -0.4488  1.4365
 2718SOL    HW219614   3.713   3.500   8.012 -0.6066 -0.4358  0.1005
 2719SOL     OW19615   4.437   0.191   8.549 -0.1187  0.0682 -0.1393
 2719SOL    HW119616   4.411   0.200   8.641 -1.1453  0.0364 -0.4258
 2719SOL    HW219617   4.532   0.192   8.553 -0.0999 -2.2751  0.0859
 2720SOL     OW19618   2.942   0.959   3.076 -0.2680 -0.1872  0.3568
 2720SOL    HW119619   2.866   0.965   3.018 -0.4857  2.7903  0.9239
 2720SOL    HW219620   2.949   1.047   3.113 -2.8949  0.0882  0.2226
 2721SOL     OW19621   3.004   1.116   2.695 -0.2678  0.1493 -0.1596
 2721SOL    HW119622   2.943   1.108   2.768  0.2297  3.2364  0.5622
 2721SOL    HW219623   2.957   1.168   2.630 -0.7833 -0.2661 -0.1124
 2722SOL     OW19624   2.065   4.268   7.051 -0.2193  0.2516 -0.0347
 2722SOL    HW119625   2.113   4.188   7.071 -2.3972 -0.9559  0.3045
 2722SOL    HW219626   2.115   4.332   7.102 -0.3500  0.4099 -0.1037
 2723SOL     OW19627   2.154   4.250   5.779  0.5220 -0.4889  0.3736
 2723SOL    HW119628   2.198   4.280   5.858 -0.0071 -1.5320  1.0711
 2723SOL    HW219629   2.081   4.200   5.816 -1.0171  1.7346  0.3030
 2724SOL     OW19630   3.624   4.653   4.612 -0.2964  0.0931 -0.3607
 2724SOL    HW119631   3.530   4.646   4.627 -0.0659  1.8071  1.8307
 2724SOL    HW219632   3.633   4.651   4.517 -0.0966 -1.6998 -0.3202
 2725SOL     OW19633   2.174   3.607   5.569  0.2629  0.7013  0.5285
 2725SOL    HW119634   2.213   3.660   5.639  1.4308  0.1208  0.3121
 2725SOL    HW219635   2.236   3.617   5.497  1.4914 -0.4927  1.4263
 2726SOL     OW19636   1.529   0.465   7.259 -0.0187 -0.0650 -0.2727
 2726SOL    HW119637   1.505   0.546   7.215 -0.9236 -1.6327 -2.6292
 2726SOL    HW219638   1.532   0.409   7.181  0.1273  2.4615 -2.0650
 2727SOL     OW19639   3.335   2.721   9.354  0.3354 -0.1307 -0.1732
 2727SOL    HW119640   3.360   2.673   9.275 -0.0336  0.4658 -0.6530
 2727SOL    HW219641   3.408   2.708   9.413  1.2126  1.2605 -0.9528
 2728SOL     OW19642   0.785   1.912   3.800 -0.0938  0.1700  0.3949
 2728SOL    HW119643   0.768   1.965   3.877  0.1090 -0.1342  0.6500
 2728SOL    HW219644   0.752   1.824   3.821  0.0569  0.1432  0.5212
 2729SOL     OW19645   0.047   3.114  10.297 -0.5852  0.1364  0.0810
 2729SOL    HW119646   4.717   3.036  10.304 -1.0147  0.6648  2.7381
 2729SOL    HW219647   0.100   3.094  10.221  2.1321 -0.8890  2.2571
 2730SOL     OW19648   2.294   3.999  12.947  0.1195 -0.1341  0.5606
 2730SOL    HW119649   2.334   4.024  12.863  1.3570  1.1772  1.5557
 2730SOL    HW219650   2.242   4.075  12.973 -0.7647 -1.1281  1.6785
 2731SOL     OW19651   2.738   0.484   9.225 -0.2713 -0.9578 -0.2859
 2731SOL    HW119652   2.643   0.498   9.229  0.1343  1.3986  1.0180
 2731SOL    HW219653   2.782   0.533   9.155  1.1858 -1.2574  0.4366
 2732SOL     OW19654   1.885   3.961   0.101 -0.4612 -0.2228  0.1050
 2732SOL    HW119655   1.822   3.932   0.167 -0.0065 -0.8084  0.2828
 2732SOL    HW219656   1.902   4.047   0.141 -1.1838  0.4802 -1.1089
 2733SOL     OW19657   3.504   0.114   4.819 -0.2619  0.1121 -0.1119
 2733SOL    HW119658   3.441   0.103   4.748  0.4205 -1.9194 -0.4208
 2733SOL    HW219659   3.586   0.080   4.782  1.2146  2.6943  0.7648
 2734SOL     OW19660   2.896   3.693   1.105 -0.6612 -0.2220  0.5607
 2734SOL    HW119661   2.846   3.714   1.025  2.0849  1.9454 -0.6012
 2734SOL    HW219662   2.962   3.633   1.069  0.4750  1.4406 -0.1427
 2735SOL     OW19663   0.817   3.967   5.631  0.3126 -0.0395  0.0514
 2735SOL    HW119664   0.896   3.918   5.607 -1.5559 -2.6249 -0.8105
 2735SOL    HW219665   0.753   3.896   5.635 -1.5157  1.5162 -1.6748
 2736SOL     OW19666   2.230   2.934  13.617  0.0240 -0.1029 -0.3101
 2736SOL    HW119667   2.144   2.898  13.636  0.2053 -0.2195  0.2924
 2736SOL    HW219668   2.290   2.875  13.664  0.1471  1.1538  1.0933
 2737SOL     OW19669   1.133   0.332   8.432  0.4003  0.7525 -0.0050
 2737SOL    HW119670   1.208   0.273   8.422  1.1220  1.7128 -0.3241
 2737SOL    HW219671   1.162   0.416   8.395  3.8988 -0.0838  0.7909
 2738SOL     OW19672   2.002   4.200   7.401  0.1241 -0.1786 -0.0198
 2738SOL    HW119673   2.041   4.231   7.483 -0.5542  1.8165 -0.4602
 2738SOL    HW219674   1.926   4.257   7.398 -0.0319 -0.5469 -2.6277
 2739SOL     OW19675   1.137   4.599   8.434 -0.4948  0.0860 -0.5340
 2739SOL    HW119676   1.103   4.564   8.351  2.6272 -2.1526 -0.8308
 2739SOL    HW219677   1.058   4.638   8.473 -1.9028 -0.8751 -2.4166
 2740SOL     OW19678   1.230   2.190   5.790 -0.1779  0.0618 -0.2772
 2740SOL    HW119679   1.210   2.257   5.856  1.6899  0.3027  0.0185
 2740SOL    HW219680   1.263   2.117   5.843 -1.4621 -0.3214  0.0114
 2741SOL     OW19681   0.596   2.183   1.558 -0.4511  0.8974 -0.6429
 2741SOL    HW119682   0.659   2.204   1.489 -0.2330  1.5996 -0.2282
 2741SOL    HW219683   0.527   2.141   1.507  0.2465 -2.0293  0.8082
 2742SOL     OW19684   1.123   1.585   6.916 -0.2545 -0.1414  0.2650
 2742SOL    HW119685   1.176   1.594   6.836 -1.7963  0.1821 -0.7251
 2742SOL    HW219686   1.035   1.585   6.878  0.6207  0.3421 -1.7729
 2743SOL     OW19687   3.534   2.945   4.300  0.2541 -0.4273  0.5086
 2743SOL    HW119688   3.504   3.018   4.246 -0.9865  0.5077  2.4245
 2743SOL    HW219689   3.614   2.991   4.326  2.2711 -4.5452  1.4829
 2744SOL     OW19690   3.498   0.225   5.530 -0.3006 -0.8406  0.3490
 2744SOL    HW119691   3.452   0.309   5.527 -1.3930 -1.4406  0.6180
 2744SOL    HW219692   3.560   0.229   5.457 -1.5862  0.0236 -0.6891
 2745SOL     OW19693   3.040   4.358   1.669 -0.0231 -0.0550 -0.0598
 2745SOL    HW119694   2.968   4.354   1.606 -0.0972 -1.7916  0.1356
 2745SOL    HW219695   3.017   4.275   1.710 -1.4661  1.0406  1.3548
 2746SOL     OW19696   1.854   0.280   8.818 -0.7177 -0.1549  0.0160
 2746SOL    HW119697   1.819   0.358   8.774  2.3091  1.6462  0.7991
 2746SOL    HW219698   1.781   0.249   8.872  0.7474 -0.6334  1.6905
 2747SOL     OW19699   2.024   4.722   5.351 -0.4930 -0.5122  0.0305
 2747SOL    HW119700   2.099   4.666   5.370  0.3075  0.4200 -0.4035
 2747SOL    HW219701   2.030   0.016   5.257  1.9404 -2.8386 -0.2802
 2748SOL     OW19702   2.333   0.038   3.052  0.1508  0.7223  0.0610
 2748SOL    HW119703   2.282   4.685   3.074  0.6013  1.0704  2.3328
 2748SOL    HW219704   2.276   0.077   2.985  2.0121 -0.7005 -2.3415
 2749SOL     OW19705   0.561   2.069   1.821 -0.0912  0.2878 -0.6328
 2749SOL    HW119706   0.573   2.086   1.728  0.7654  0.0683 -0.5625
 2749SOL    HW219707   0.650   2.090   1.847 -0.8935  2.6602  0.2645
 2750SOL     OW19708   2.426   4.012   6.062 -0.7389  0.2058  0.2897
 2750SOL    HW119709   2.451   4.053   6.145 -1.1638 -1.5370  1.2656
 2750SOL    HW219710   2.483   4.061   6.002  0.1334  1.5350  2.2223
 2751SOL     OW19711   3.034   3.868  12.393  0.1641 -0.6796  0.2948
 2751SOL    HW119712   3.023   3.775  12.417  0.0092 -0.4156  1.2644
 2751SOL    HW219713   3.043   3.863  12.298 -2.2463  1.9528 -0.0666
 2752SOL     OW19714   2.722   1.229   2.182  0.2747  0.1435  0.3250
 2752SOL    HW119715   2.708   1.320   2.157  2.0907  0.2967 -0.1338
 2752SOL    HW219716   2.631   1.213   2.206  0.2908 -0.1830  0.1677
 2753SOL     OW19717   1.901   0.615  17.422 -0.2762  0.0091 -0.3621
 2753SOL    HW119718   1.992   0.587  17.418  0.2792  1.4803  1.6278
 2753SOL    HW219719   1.861   0.588  17.505  1.0386 -2.3310 -0.4983
 2754SOL     OW19720   3.826   3.960   3.715 -0.1191  0.3349  0.2007
 2754SOL    HW119721   3.811   3.875   3.674  0.4030  0.7862 -0.9247
 2754SOL    HW219722   3.834   4.023   3.643  1.6975  0.5548  0.5992
 2755SOL     OW19723   1.704   2.307  17.258  0.0760  0.2057 -0.4876
 2755SOL    HW119724   1.685   2.328  17.166 -2.5205 -1.7535 -0.3990
 2755SOL    HW219725   1.763   2.378  17.282 -1.3350  1.4699 -0.6908
 2756SOL     OW19726   2.617   0.327   6.125  0.3903 -0.3953 -0.2253
 2756SOL    HW119727   2.621   0.247   6.073  2.4173  0.2482 -1.0505
 2756SOL    HW219728   2.568   0.389   6.072  2.3934  0.9367 -0.5267
 2757SOL     OW19729   4.079   1.968   9.033  0.0292 -0.6873 -0.2445
 2757SOL    HW119730   3.992   1.997   9.060 -0.1429 -1.3258 -0.1287
 2757SOL    HW219731   4.124   2.050   9.010 -3.0052  0.7699 -1.0630
 2758SOL     OW19732   1.901   2.007   7.147 -0.4023 -0.1828  0.0192
 2758SOL    HW119733   1.894   2.102   7.132 -0.3045 -0.0491  0.8017
 2758SOL    HW219734   1.876   2.017   7.239 -0.2906  0.9707 -0.0761
 2759SOL     OW19735   1.715   4.508   4.509 -0.0881 -0.8249  0.0217
 2759SOL    HW119736   1.759   4.493   4.593 -0.3279  2.8205  0.8062
 2759SOL    HW219737   1.708   4.603   4.519 -0.1932 -0.4162 -3.8928
 2760SOL     OW19738   0.849   4.413   0.050  0.5119  0.6382 -0.1567
 2760SOL    HW119739   0.782   4.481   0.060 -1.0601 -0.8817 -0.2563
 2760SOL    HW219740   0.919   4.452  17.698  0.1468  1.1690 -0.2524
 2761SOL     OW19741   2.470   4.535   7.941  0.2791  0.7002 -0.2206
 2761SOL    HW119742   2.458   4.630   7.949 -0.6578  0.5546  0.0909
 2761SOL    HW219743   2.412   4.522   7.866  2.0747  0.1567 -1.5053
 2762SOL     OW19744   3.482   1.596   1.688  0.3614  0.1675 -0.2122
 2762SOL    HW119745   3.398   1.615   1.728  1.5094  4.3161  0.2406
 2762SOL    HW219746   3.540   1.669   1.707  0.1443  0.3495 -0.2561
 2763SOL     OW19747   1.717   2.765   8.127  0.1263 -0.4806  0.0252
 2763SOL    HW119748   1.661   2.842   8.134 -3.6977 -3.1987 -1.0767
 2763SOL    HW219749   1.715   2.741   8.035  1.5515  2.8002 -0.8593
 2764SOL     OW19750   2.672   1.174   3.197 -0.9697  0.2667  1.0599
 2764SOL    HW119751   2.624   1.128   3.128  1.2486 -2.0244  1.0618
 2764SOL    HW219752   2.625   1.257   3.187 -0.6350  0.3841  0.4489
 2765SOL     OW19753   0.559   4.187   2.418  0.1590  0.4783  0.8518
 2765SOL    HW119754   0.527   4.255   2.478  0.9329  2.2170 -0.6930
 2765SOL    HW219755   0.642   4.159   2.455  1.0538  1.0399 -0.7183
 2766SOL     OW19756   0.795   0.327   7.985 -0.6686  0.7398 -0.1895
 2766SOL    HW119757   0.885   0.333   8.018 -0.8551  0.8452  0.3090
 2766SOL    HW219758   0.774   0.235   8.002  1.3563 -0.2218 -3.0232
 2767SOL     OW19759   1.885   2.649   4.742  0.2273  0.0160  0.3841
 2767SOL    HW119760   1.802   2.613   4.710  0.7369 -1.2214  0.4644
 2767SOL    HW219761   1.864   2.651   4.835 -2.9166 -1.0975 -0.2854
 2768SOL     OW19762   4.424   1.332   7.279  0.6395 -0.0997 -0.0126
 2768SOL    HW119763   4.417   1.363   7.370 -1.0637  0.6648 -0.4120
 2768SOL    HW219764   4.503   1.376   7.245  0.8296  0.3217  0.9440
 2769SOL     OW19765   0.252   4.317   1.378 -0.1342 -0.3392 -0.7226
 2769SOL    HW119766   0.202   4.267   1.442 -1.3116  0.3914 -1.0698
 2769SOL    HW219767   0.322   4.254   1.361 -0.9562 -1.1785 -0.9706
 2770SOL     OW19768   3.884   3.456   6.453  0.4312 -0.6340  0.0650
 2770SOL    HW119769   3.876   3.523   6.385  1.0809  0.2922  0.8961
 2770SOL    HW219770   3.923   3.506   6.525  0.7328 -0.1178 -0.4523
 2771SOL     OW19771   3.997   3.002   4.318  0.0656  0.3338  0.5274
 2771SOL    HW119772   4.054   3.030   4.246 -1.0111  0.0986 -0.4071
 2771SOL    HW219773   4.059   3.002   4.391 -2.5618  0.1921  2.7676
 2772SOL     OW19774   0.198   2.866  17.383  0.1864  0.2650 -0.2342
 2772SOL    HW119775   0.266   2.929  17.405  1.0533 -0.8947  0.4251
 2772SOL    HW219776   0.213   2.803  17.454  0.7116  0.8584  0.1814
 2773SOL     OW19777   2.775   3.318   3.255 -0.3383  0.0603 -0.0359
 2773SOL    HW119778   2.854   3.321   3.200  0.1743 -0.2356  0.6915
 2773SOL    HW219779   2.797   3.389   3.315 -1.4390  0.3953 -0.0282
 2774SOL     OW19780   3.393   3.366   4.574 -0.0984  0.1847  0.4241
 2774SOL    HW119781   3.418   3.453   4.603  1.2721  0.2230 -0.8396
 2774SOL    HW219782   3.355   3.384   4.487  2.2405  2.0201 -0.2202
 2775SOL     OW19783   2.530   2.287   7.584  0.1232 -0.3347 -0.4591
 2775SOL    HW119784   2.533   2.371   7.539  0.0232 -0.7653 -1.2738
 2775SOL    HW219785   2.620   2.261   7.564 -0.0763  0.2111 -2.0391
 2776SOL     OW19786   2.421   2.509   1.516  0.6220 -0.3508 -0.1594
 2776SOL    HW119787   2.435   2.598   1.549 -0.7929  0.0189 -0.5342
 2776SOL    HW219788   2.463   2.450   1.579 -0.1917  0.2180  0.9204
 2777SOL     OW19789   1.026   0.812  13.067  0.2177 -0.3311  0.1871
 2777SOL    HW119790   0.934   0.786  13.075 -0.2419  1.9899  2.4541
 2777SOL    HW219791   1.027   0.896  13.022  0.2883 -0.3913  0.0764
 2778SOL     OW19792   1.145   0.273  17.540  0.0639  0.4667  0.0959
 2778SOL    HW119793   1.117   0.363  17.555 -3.7879 -0.7477  0.2237
 2778SOL    HW219794   1.158   0.238  17.628  0.3549  0.4815  0.0612
 2779SOL     OW19795   4.052   2.577  10.220  0.1421  0.0100  0.4045
 2779SOL    HW119796   4.029   2.587  10.128 -0.8996 -0.5825  0.5982
 2779SOL    HW219797   4.120   2.642  10.237 -1.1475  1.5672 -0.4298
 2780SOL     OW19798   3.292   2.270   5.428  0.8239 -0.3099  0.6343
 2780SOL    HW119799   3.343   2.262   5.347  0.2206 -0.8058  0.3037
 2780SOL    HW219800   3.343   2.337   5.474  0.5317 -1.0361  2.0081
 2781SOL     OW19801   3.795   0.299   7.822 -0.2980 -0.2668 -0.5695
 2781SOL    HW119802   3.714   0.271   7.780 -0.7214  2.2470 -1.3907
 2781SOL    HW219803   3.860   0.285   7.752  0.2477 -0.5936 -0.0049
 2782SOL     OW19804   0.585   2.385   5.272  0.1857  0.3294  0.4559
 2782SOL    HW119805   0.559   2.297   5.245  2.4833  0.0264 -0.7879
 2782SOL    HW219806   0.606   2.424   5.187 -1.2394  0.6089  0.2323
 2783SOL     OW19807   1.268   0.986   4.245  0.1666 -0.2316 -0.1293
 2783SOL    HW119808   1.190   1.040   4.259  0.0988  0.1834 -2.1228
 2783SOL    HW219809   1.312   1.039   4.180  0.1242  0.6168  0.5289
 2784SOL     OW19810   4.481   0.777   7.679 -0.1386  0.6852  0.2174
 2784SOL    HW119811   4.479   0.778   7.583 -0.7090 -1.8694  0.1943
 2784SOL    HW219812   4.491   0.684   7.701  1.3908  0.3632 -1.8412
 2785SOL     OW19813   2.620   3.387   6.556  0.3635 -0.2189  0.0662
 2785SOL    HW119814   2.624   3.471   6.511  0.2242  0.6045  1.5864
 2785SOL    HW219815   2.573   3.342   6.485  0.6139 -0.6056  0.1486
 2786SOL     OW19816   2.242   3.555   7.309  0.5820 -0.2865 -0.3916
 2786SOL    HW119817   2.249   3.595   7.396  2.6190  2.1042 -1.6405
 2786SOL    HW219818   2.275   3.624   7.251  0.6703  0.7031  0.8451
 2787SOL     OW19819   0.253   1.968  10.399  0.1234  0.6830 -0.4000
 2787SOL    HW119820   0.341   1.964  10.436 -0.0682  2.7862  0.3198
 2787SOL    HW219821   0.194   1.983  10.472  0.5760 -3.1360  0.7346
 2788SOL     OW19822   4.341   4.514   0.562  0.5045  0.8675 -0.9739
 2788SOL    HW119823   4.360   4.560   0.480 -0.0065  0.7164 -1.1739
 2788SOL    HW219824   4.294   4.585   0.606  1.0246  0.3739  0.3729
 2789SOL     OW19825   0.386   4.237   0.273 -0.5250 -0.3502 -0.4747
 2789SOL    HW119826   0.450   4.190   0.219  1.0939  0.6385  0.6141
 2789SOL    HW219827   0.312   4.217   0.215  0.3218  3.5711 -2.8764
 2790SOL     OW19828   4.607   4.524   6.486  0.5209  0.5155  0.0106
 2790SOL    HW119829   4.577   4.614   6.479 -0.3355  0.4596  2.8691
 2790SOL    HW219830   4.639   4.515   6.396 -0.7568 -1.4432 -0.2675
 2791SOL     OW19831   0.079   0.539   3.712  0.1308 -0.4073  0.1651
 2791SOL    HW119832   0.037   0.454   3.723 -3.7779  1.4622 -0.2520
 2791SOL    HW219833   0.008   0.578   3.661 -1.0959 -1.9681  0.6894
 2792SOL     OW19834   0.691   3.404   5.177  0.3991  0.0391 -0.3398
 2792SOL    HW119835   0.763   3.425   5.237 -0.7845  1.0478  0.7199
 2792SOL    HW219836   0.739   3.343   5.121  0.4292 -1.4212  1.2405
 2793SOL     OW19837   1.182   3.301  15.369  0.9368 -0.1572  0.5096
 2793SOL    HW119838   1.240   3.300  15.445  1.8050 -0.0153 -0.1462
 2793SOL    HW219839   1.234   3.356  15.310 -2.4043  0.8374 -1.5040
 2794SOL     OW19840   3.471   2.070   7.838  0.3842  0.4578  0.3816
 2794SOL    HW119841   3.472   2.084   7.743  0.1654  1.2732  0.5039
 2794SOL    HW219842   3.382   2.085   7.869  0.1905  0.3946 -0.1376
 2795SOL     OW19843   0.902   3.422  11.843  0.3128 -0.4194  0.0826
 2795SOL    HW119844   0.895   3.327  11.852  1.8766 -0.6838 -1.5578
 2795SOL    HW219845   0.906   3.456  11.933  0.1122  0.7865 -0.3655
 2796SOL     OW19846   3.262   4.715  10.890 -0.0999 -0.7467 -0.3396
 2796SOL    HW119847   3.169   4.714  10.866 -0.9940  0.4596  3.1681
 2796SOL    HW219848   3.250   0.013  10.982  0.5088 -0.0177 -0.4344
 2797SOL     OW19849   1.206   3.820  16.786  0.9396  0.4940 -0.0983
 2797SOL    HW119850   1.300   3.813  16.804  0.8720  2.2055  0.8960
 2797SOL    HW219851   1.193   3.830  16.691  2.6989  2.2590 -0.1668
 2798SOL     OW19852   3.912   0.020   3.125  0.6609  0.0743 -0.3187
 2798SOL    HW119853   3.972   0.079   3.080  0.7943  0.5564  0.4996
 2798SOL    HW219854   3.861   0.074   3.185 -0.7049 -2.6862  0.9948
 2799SOL     OW19855   1.378   0.397   8.055 -0.0173  0.5533  0.2450
 2799SOL    HW119856   1.464   0.356   8.047  0.7763  2.6780 -1.9350
 2799SOL    HW219857   1.338   0.358   7.977 -0.1455 -2.4671  1.8186
 2800SOL     OW19858   2.866   4.387   9.042 -0.0450 -0.2085  0.0748
 2800SOL    HW119859   2.893   4.297   9.060 -0.1488 -0.0516  1.0412
 2800SOL    HW219860   2.943   4.427   9.082 -0.6024 -0.2115  1.1686
 2801SOL     OW19861   3.064   2.565   1.797 -0.1800  0.1313  0.8868
 2801SOL    HW119862   3.031   2.622   1.728 -0.9983  0.1801  1.3262
 2801SOL    HW219863   3.156   2.587   1.781  0.5830 -2.4884  1.7898
 2802SOL     OW19864   1.290   0.631   4.523 -0.2559  0.0969 -0.0335
 2802SOL    HW119865   1.312   0.722   4.543 -0.0529 -0.0064  0.2105
 2802SOL    HW219866   1.216   0.649   4.464 -0.9431 -0.2538  0.7274
 2803SOL     OW19867   2.483   4.630   2.564 -0.6372 -0.2562 -0.5421
 2803SOL    HW119868   2.414   4.599   2.622  0.4836 -2.6116 -0.5016
 2803SOL    HW219869   2.455   4.719   2.540  0.3544 -0.4531 -2.5015
 2804SOL     OW19870   2.338   1.670  15.963  0.4134  0.7860 -0.2393
 2804SOL    HW119871   2.390   1.750  15.962 -0.7573  1.5532  0.9449
 2804SOL    HW219872   2.283   1.681  15.885  0.7822  0.0651 -0.6013
 2805SOL     OW19873   0.932   0.023   3.656 -0.2061 -0.2795  0.0778
 2805SOL    HW119874   0.855   4.710   3.613  0.4786 -0.7068 -0.7739
 2805SOL    HW219875   0.896   0.055   3.738 -3.6855 -0.1430 -1.5245
 2806SOL     OW19876   3.442   0.576   8.834  0.1054 -0.1853  0.4413
 2806SOL    HW119877   3.438   0.671   8.844 -0.9520 -0.0763 -1.0839
 2806SOL    HW219878   3.481   0.567   8.747 -2.5319 -1.6116 -0.5831
 2807SOL     OW19879   2.001   1.672   9.895  0.3125 -0.3504  0.3539
 2807SOL    HW119880   2.021   1.743   9.956  1.3780  0.7799 -1.3084
 2807SOL    HW219881   2.059   1.603   9.925  2.2593  0.4361 -1.5737
 2808SOL     OW19882   3.565   1.448   3.168  1.0267 -0.8086  0.2840
 2808SOL    HW119883   3.529   1.395   3.098  0.3510 -1.0752  0.8351
 2808SOL    HW219884   3.659   1.453   3.151  0.7070 -0.8278 -1.4282
 2809SOL     OW19885   1.301   2.457   2.712 -0.3555 -0.0242 -0.2176
 2809SOL    HW119886   1.297   2.396   2.785  1.4310  0.4358  0.2421
 2809SOL    HW219887   1.392   2.487   2.716 -0.3198 -0.1688  0.0146
 2810SOL     OW19888   2.468   1.263   5.557 -0.5057  0.5455  0.2682
 2810SOL    HW119889   2.507   1.191   5.506  1.9089  1.1907  1.1790
 2810SOL    HW219890   2.377   1.236   5.555 -0.0880 -0.8964  0.5560
 2811SOL     OW19891   3.147   4.508   0.076  0.0360  0.1990  0.1717
 2811SOL    HW119892   3.221   4.455   0.107 -0.7827 -0.6005  0.7462
 2811SOL    HW219893   3.105   4.527   0.160 -0.8446 -0.5706 -0.1104
 2812SOL     OW19894   2.841   0.219   3.380  0.0547  0.0588 -0.0303
 2812SOL    HW119895   2.771   0.280   3.404  0.4937  0.5794 -0.0698
 2812SOL    HW219896   2.838   0.238   3.286  0.3109 -0.6947 -0.1819
 2813SOL     OW19897   0.163   0.198   6.301  0.1164  0.0491 -0.6054
 2813SOL    HW119898   0.119   0.113   6.303 -1.8034  1.0333 -0.9848
 2813SOL    HW219899   0.253   0.178   6.329  0.9067  0.7645 -2.6343
 2814SOL     OW19900   3.392   2.501  16.076 -0.1693  0.4843  0.1086
 2814SOL    HW119901   3.301   2.474  16.059  0.3043 -0.5572 -0.7714
 2814SOL    HW219902   3.402   2.457  16.160  0.5585 -0.4952 -0.4934
 2815SOL     OW19903   4.136   1.679   5.895  0.3820 -0.1799 -0.0583
 2815SOL    HW119904   4.148   1.665   5.989  0.5228  1.3333  0.1389
 2815SOL    HW219905   4.182   1.762   5.887 -0.1288  0.1220  0.1636
 2816SOL     OW19906   0.775   3.636   7.397 -0.0289 -0.3644 -0.3456
 2816SOL    HW119907   0.754   3.543   7.384  1.6433 -0.6159 -1.2658
 2816SOL    HW219908   0.694   3.684   7.381 -1.0339 -1.7565  0.4765
 2817SOL     OW19909   2.957   4.255   7.479 -0.3890  0.4870  0.1843
 2817SOL    HW119910   3.028   4.303   7.521  0.2380 -0.4242  0.1759
 2817SOL    HW219911   2.939   4.186   7.543  1.3659 -0.8420 -0.7388
 2818SOL     OW19912   3.166   1.894   6.584 -0.2531 -0.0460  0.2738
 2818SOL    HW119913   3.112   1.953   6.532  0.3165 -0.7264 -1.0799
 2818SOL    HW219914   3.180   1.951   6.660 -3.0930  1.2079 -0.1440
 2819SOL     OW19915   2.343   0.534  13.303 -0.5332  0.6900  0.4667
 2819SOL    HW119916   2.372   0.449  13.334 -1.4717  0.3858  0.5088
 2819SOL    HW219917   2.424   0.585  13.302 -0.1485  0.0751  0.4768
 2820SOL     OW19918   2.911   2.253   7.637  0.1701  0.5947  0.3363
 2820SOL    HW119919   2.883   2.337   7.601  0.2764  0.1622 -0.7650
 2820SOL    HW219920   2.916   2.271   7.731  1.3580  1.2685  0.1447
 2821SOL     OW19921   1.779   3.683   1.260 -0.5333 -0.4183 -0.2491
 2821SOL    HW119922   1.838   3.632   1.205  1.4619  0.9609  0.5794
 2821SOL    HW219923   1.834   3.749   1.303 -2.7782  0.7669  0.8083
 2822SOL     OW19924   3.025   3.220   8.674  0.1379 -0.0876 -0.1094
 2822SOL    HW119925   3.110   3.185   8.701 -0.7364 -1.0135  1.4543
 2822SOL    HW219926   3.036   3.314   8.689 -1.0500  0.1527 -0.7306
 2823SOL     OW19927   1.714   2.446   4.598  0.2806  0.7282 -0.3594
 2823SOL    HW119928   1.676   2.425   4.512  0.6635  0.2165 -0.4057
 2823SOL    HW219929   1.642   2.489   4.644 -0.7137 -0.6192 -0.6237
 2824SOL     OW19930   4.584   1.139   6.161  0.2291  0.2195 -0.0620
 2824SOL    HW119931   4.570   1.067   6.100  1.3998  0.4930 -0.6675
 2824SOL    HW219932   4.501   1.139   6.209  1.1594  2.3767  1.5733
 2825SOL     OW19933   3.589   1.713   7.209  0.8249 -0.1172 -0.0280
 2825SOL    HW119934   3.671   1.666   7.196  0.9378  0.3266 -0.8897
 2825SOL    HW219935   3.538   1.653   7.265  0.5701  0.5785  0.4815
 2826SOL     OW19936   2.991   3.984  13.796  0.4917  0.3780  0.1912
 2826SOL    HW119937   2.998   3.891  13.772  0.5608 -0.1513  2.2417
 2826SOL    HW219938   2.951   3.969  13.883  0.3302  0.4874  0.1354
 2827SOL     OW19939   1.581   1.820   6.232  0.3136 -0.1247 -0.3408
 2827SOL    HW119940   1.624   1.737   6.248  0.2989  0.5664  3.2823
 2827SOL    HW219941   1.651   1.862   6.182  1.5778 -1.4124  0.3877
 2828SOL     OW19942   0.739   1.500  15.455  0.2401 -0.4073  0.3537
 2828SOL    HW119943   0.688   1.514  15.375  0.6208  0.5915  0.2939
 2828SOL    HW219944   0.820   1.476  15.408  1.0528  0.9692  1.0751
 2829SOL     OW19945   3.795   1.202   1.868  0.4369 -0.2907  0.1537
 2829SOL    HW119946   3.766   1.248   1.789 -2.3423  0.7497  1.7680
 2829SOL    HW219947   3.710   1.164   1.891 -0.4772  1.8673  0.3463
 2830SOL     OW19948   2.903   4.037  17.579 -0.0792 -0.1539 -0.1267
 2830SOL    HW119949   2.852   3.956  17.572 -1.7680  0.7152  2.3895
 2830SOL    HW219950   2.845   4.096  17.531  0.6372 -0.0695 -0.8892
 2831SOL     OW19951   4.083   1.100   3.811 -0.4838  0.3351  0.1194
 2831SOL    HW119952   4.090   1.154   3.890  2.1330 -1.2128  0.9617
 2831SOL    HW219953   4.097   1.163   3.741  0.0148 -0.4930 -0.5272
 2832SOL     OW19954   4.359   4.599   2.472  0.4725  0.0435  0.1799
 2832SOL    HW119955   4.365   4.515   2.426  0.4646  0.0568  0.1545
 2832SOL    HW219956   4.289   4.644   2.424  0.8416  0.0904 -0.3119
 2833SOL     OW19957   0.573   4.336   0.714  0.2322  0.1021  0.1445
 2833SOL    HW119958   0.669   4.341   0.721 -0.0113  2.0242  1.9694
 2833SOL    HW219959   0.563   4.323   0.620  0.1225  2.8561 -0.2399
 2834SOL     OW19960   2.678   1.089   4.151 -0.1213  0.7418  0.3284
 2834SOL    HW119961   2.684   1.148   4.076 -0.0561 -1.6056 -1.4999
 2834SOL    HW219962   2.586   1.062   4.143  0.1399 -0.5543  1.7431
 2835SOL     OW19963   1.019   3.970   7.569 -0.2924  0.1577  0.1734
 2835SOL    HW119964   1.055   3.891   7.529  1.2588  0.8596  0.1792
 2835SOL    HW219965   0.927   3.954   7.552 -0.4081  0.5728  0.4041
 2836SOL     OW19966   2.501   0.387   5.131 -0.8049 -0.1333  0.3745
 2836SOL    HW119967   2.548   0.324   5.187 -0.1585 -0.9358 -1.0639
 2836SOL    HW219968   2.419   0.389   5.180 -0.1199  3.4487  1.3640
 2837SOL     OW19969   3.455   1.035   4.234  0.3010 -0.0067 -0.1739
 2837SOL    HW119970   3.455   0.976   4.158 -2.6264  1.0543 -1.0135
 2837SOL    HW219971   3.514   1.103   4.203  0.3924 -0.4729 -1.0332
 2838SOL     OW19972   2.341   4.127   2.435  0.0171 -0.2833  0.8870
 2838SOL    HW119973   2.394   4.202   2.411 -3.6887  2.1233  0.1994
 2838SOL    HW219974   2.385   4.050   2.398  2.0520  1.0086  0.6568
 2839SOL     OW19975   2.530   1.407   3.138 -0.9579 -0.1550 -0.1401
 2839SOL    HW119976   2.489   1.365   3.063 -3.6336  1.6660  0.3185
 2839SOL    HW219977   2.508   1.500   3.126  2.5218  0.7148  0.1495
 2840SOL     OW19978   0.569   3.267   1.702 -0.1319 -0.4596 -0.6040
 2840SOL    HW119979   0.541   3.228   1.619 -1.4607  1.3388 -0.9812
 2840SOL    HW219980   0.544   3.197   1.763  0.9539 -1.4719 -1.3140
 2841SOL     OW19981   2.615   0.048   2.132  0.2595 -0.3232 -0.8636
 2841SOL    HW119982   2.681   0.033   2.064  0.3722 -2.2121 -0.3270
 2841SOL    HW219983   2.546   4.707   2.120 -0.1512  0.1157 -0.9037
 2842SOL     OW19984   3.798   2.503   5.883 -0.5898 -0.6408  0.1407
 2842SOL    HW119985   3.806   2.599   5.885  1.6778 -0.8276 -0.9948
 2842SOL    HW219986   3.783   2.495   5.789  1.1380  1.5795 -0.3354
 2843SOL     OW19987   3.879   3.755  10.529  0.2962 -0.5263  0.0192
 2843SOL    HW119988   3.834   3.750  10.444  1.3561  2.4809 -0.6974
 2843SOL    HW219989   3.852   3.837  10.570 -0.3692  0.1449 -1.7598
 2844SOL     OW19990   1.501   3.007   7.083 -0.0815  0.2855 -0.1199
 2844SOL    HW119991   1.555   2.943   7.129  2.2362  1.0466 -1.8313
 2844SOL    HW219992   1.564   3.059   7.033  0.6546  0.9004  1.4653
 2845SOL     OW19993   1.152   3.980  11.001 -0.2102 -0.5236  0.0745
 2845SOL    HW119994   1.109   3.895  11.015  1.6005 -1.4542 -0.0595
 2845SOL    HW219995   1.228   3.978  11.058 -0.5175  0.4221  0.5190
 2846SOL     OW19996   1.792   3.729   9.933  0.2453 -0.0158  0.4086
 2846SOL    HW119997   1.826   3.647   9.969  1.5852  0.5698  0.4888
 2846SOL    HW219998   1.788   3.695   9.843  1.9349  1.4194 -0.2148
 2847SOL     OW19999   3.693   1.183   2.573 -0.8216 -0.3265 -0.4962
 2847SOL    HW120000   3.692   1.090   2.549 -0.5667 -0.3857 -0.2767
 2847SOL    HW220001   3.741   1.177   2.655 -0.1624  0.7520 -0.7983
 2848SOL     OW20002   2.503   0.416  15.277  0.7551  0.2360  0.4678
 2848SOL    HW120003   2.512   0.509  15.301  3.6133  0.0038  0.3005
 2848SOL    HW220004   2.413   0.403  15.306  0.4675  2.6913  0.7472
 2849SOL     OW20005   3.932   4.544   4.720  0.0759 -0.2020 -0.0641
 2849SOL    HW120006   3.887   4.462   4.738  0.9058 -0.3449  1.3184
 2849SOL    HW220007   3.966   4.539   4.631 -2.3122  0.5037 -1.0123
 2850SOL     OW20008   2.499   0.132  13.689  0.3124 -0.3532 -0.0739
 2850SOL    HW120009   2.415   0.157  13.727 -0.6123 -0.9991 -1.7169
 2850SOL    HW220010   2.508   0.040  13.716  0.2629 -0.2044  0.4554
 2851SOL     OW20011   2.023   0.010   2.351  0.4908 -0.3757  0.1190
 2851SOL    HW120012   2.083   0.027   2.278 -0.8997 -0.6117 -1.0859
 2851SOL    HW220013   1.938   0.037   2.316  0.3136 -1.8921 -0.6283
 2852SOL     OW20014   0.738   0.869  11.812  0.2031  0.7759 -0.0172
 2852SOL    HW120015   0.730   0.780  11.777  3.3460  0.0112  1.2681
 2852SOL    HW220016   0.714   0.925  11.737 -1.1460 -1.4406 -1.2450
 2853SOL     OW20017   1.183   4.377   7.938 -0.5728 -0.1256  0.4418
 2853SOL    HW120018   1.179   4.453   7.880 -0.4819 -1.6377 -1.5237
 2853SOL    HW220019   1.091   4.350   7.939 -0.8295  0.7321  0.2975
 2854SOL     OW20020   3.872   0.202   0.568  0.7078 -0.4675  0.1080
 2854SOL    HW120021   3.846   0.111   0.576 -1.6514  0.1035 -1.1020
 2854SOL    HW220022   3.806   0.237   0.508  1.1652  3.0363  1.5943
 2855SOL     OW20023   2.386   1.062  15.099  0.5654 -0.0955 -0.7035
 2855SOL    HW120024   2.402   0.983  15.150 -0.4027  0.5523  0.6072
 2855SOL    HW220025   2.295   1.074  15.124  0.9068 -1.7138  1.2937
 2856SOL     OW20026   3.068   2.323   8.554  0.2279 -0.1546  0.2985
 2856SOL    HW120027   2.995   2.333   8.615  1.1830  3.2166  0.8624
 2856SOL    HW220028   3.139   2.374   8.593  0.1436 -0.0136  0.2651
 2857SOL     OW20029   2.189   4.156   4.668 -0.0084  0.1692 -0.3549
 2857SOL    HW120030   2.182   4.137   4.762 -0.4564 -0.4510 -0.5148
 2857SOL    HW220031   2.170   4.250   4.668 -2.3577 -0.3029  1.7898
 2858SOL     OW20032   2.780   2.904   1.857 -0.0671 -0.4802  0.0177
 2858SOL    HW120033   2.796   2.975   1.919  0.9451 -0.1975 -0.5739
 2858SOL    HW220034   2.777   2.947   1.772 -1.8274 -0.3838  0.1123
 2859SOL     OW20035   1.265   4.378   3.116 -0.2483 -0.4207 -0.0977
 2859SOL    HW120036   1.256   4.474   3.120 -0.9189 -0.4246 -1.5120
 2859SOL    HW220037   1.326   4.367   3.043  0.4529  1.0757  0.2562
 2860SOL     OW20038   3.978   3.113   1.986  0.5754 -0.3699  0.5837
 2860SOL    HW120039   4.060   3.065   1.973  0.5724  0.3809 -2.3291
 2860SOL    HW220040   3.956   3.080   2.073 -1.6491  0.2297  0.2425
 2861SOL     OW20041   1.674   3.962  15.688 -0.3807 -0.7339  0.2729
 2861SOL    HW120042   1.693   4.033  15.749  0.3200 -0.9584  0.3222
 2861SOL    HW220043   1.764   3.948  15.657 -0.0592  1.3308  0.3119
 2862SOL     OW20044   4.516   3.320  14.218  0.1915 -0.0485  0.0199
 2862SOL    HW120045   4.495   3.359  14.134  1.0339  1.6683  0.5884
 2862SOL    HW220046   4.432   3.309  14.262  0.6081  1.2345  1.1768
 2863SOL     OW20047   3.772   0.126   0.053  0.3680  0.6741 -0.4470
 2863SOL    HW120048   3.794   0.071   0.128 -0.5108  0.8535 -0.0535
 2863SOL    HW220049   3.676   0.127   0.056  0.3677  2.3404 -0.8974
 2864SOL     OW20050   0.587   4.492   6.855 -0.5423  0.2537 -0.3520
 2864SOL    HW120051   0.599   4.563   6.791  0.2952 -1.5494 -2.2074
 2864SOL    HW220052   0.508   4.519   6.902  0.3880 -1.3161  2.1240
 2865SOL     OW20053   3.025   0.663   6.475  0.1293  0.1073  0.0378
 2865SOL    HW120054   2.939   0.706   6.478  0.7198  1.3962 -1.6992
 2865SOL    HW220055   3.008   0.575   6.508 -1.5461  0.0577 -0.9749
 2866SOL     OW20056   1.861   3.546   1.634 -0.3021 -0.1165 -0.2952
 2866SOL    HW120057   1.769   3.562   1.613  0.3294  3.1872 -0.4236
 2866SOL    HW220058   1.902   3.631   1.618 -2.6227  0.6449 -2.0911
 2867SOL     OW20059   4.122   2.861  17.166 -0.7291  0.4544 -0.6099
 2867SOL    HW120060   4.102   2.830  17.255 -0.7221 -0.1933 -0.8327
 2867SOL    HW220061   4.213   2.889  17.171 -1.1798  1.5032  1.8574
 2868SOL     OW20062   3.681   1.810   1.794  0.1324 -0.1586  0.2124
 2868SOL    HW120063   3.691   1.819   1.888  2.0038 -1.8710  0.1856
 2868SOL    HW220064   3.659   1.903   1.790 -3.2463 -0.9321  0.5562
 2869SOL     OW20065   1.098   0.339   3.903 -0.1761  0.0032 -0.3567
 2869SOL    HW120066   1.152   0.416   3.884  0.2745 -0.6759 -1.9090
 2869SOL    HW220067   1.022   0.386   3.937  0.6545  0.0902  1.3325
 2870SOL     OW20068   1.715   2.366   5.852 -0.4394 -0.1633 -0.2878
 2870SOL    HW120069   1.763   2.442   5.820 -0.8130  0.1458 -0.1141
 2870SOL    HW220070   1.635   2.401   5.891 -0.3517 -0.3685  0.0731
 2871SOL     OW20071   2.874   1.005   2.061 -0.0990  0.0533 -0.3966
 2871SOL    HW120072   2.812   0.998   1.988  0.2603 -1.1818 -0.5868
 2871SOL    HW220073   2.850   1.089   2.100  0.0958  0.5002 -1.2435
 2872SOL     OW20074   3.196   0.035   7.463  0.1729 -0.0666  0.1149
 2872SOL    HW120075   3.167   4.715   7.383  1.2107 -1.0477  0.2979
 2872SOL    HW220076   3.115   0.084   7.477  0.3537 -0.1301  1.3416
 2873SOL     OW20077   4.574   1.504   8.410 -0.0688  0.6200 -0.9775
 2873SOL    HW120078   4.518   1.535   8.482  0.9581  1.5735 -0.5956
 2873SOL    HW220079   4.544   1.414   8.399 -0.9051  0.6307  1.1424
 2874SOL     OW20080   3.756   4.346  15.745  0.8114 -0.0596  0.4487
 2874SOL    HW120081   3.832   4.349  15.803  1.2553 -1.0223 -0.0898
 2874SOL    HW220082   3.756   4.261  15.702 -2.3739  0.2936 -0.2842
 2875SOL     OW20083   1.329   4.393   2.605 -0.6478 -0.1965  0.0697
 2875SOL    HW120084   1.373   4.471   2.572  0.8107 -1.8349 -1.8059
 2875SOL    HW220085   1.236   4.414   2.593 -0.4040  0.4329 -0.7065
 2876SOL     OW20086   0.663   0.032   3.551 -0.3033  0.0908  0.3146
 2876SOL    HW120087   0.662   0.128   3.554 -0.0142  0.1105 -0.1612
 2876SOL    HW220088   0.617   0.015   3.469 -0.6749  1.7088  0.1902
 2877SOL     OW20089   2.645   1.949   4.903  0.2836 -0.6896  0.1530
 2877SOL    HW120090   2.569   1.901   4.872 -0.2060 -0.0257  0.3348
 2877SOL    HW220091   2.670   1.906   4.985 -0.2378 -0.6039  0.3566
 2878SOL     OW20092   4.713   1.469  14.303 -0.0167 -0.2602 -0.0271
 2878SOL    HW120093   4.647   1.480  14.234  1.6457 -1.9061 -1.8806
 2878SOL    HW220094   4.655   1.432  14.370 -2.0575  1.8304 -0.6465
 2879SOL     OW20095   4.147   0.719   0.749 -0.1645 -0.1477 -0.2337
 2879SOL    HW120096   4.170   0.741   0.839  1.0739 -1.9800 -0.0908
 2879SOL    HW220097   4.082   0.652   0.770  1.2635 -1.3583  0.3776
 2880SOL     OW20098   0.921   0.186   4.038 -0.3077  0.8067 -0.1902
 2880SOL    HW120099   0.964   0.101   4.046 -0.2725  0.8531  0.1521
 2880SOL    HW220100   0.997   0.243   4.022  0.5984 -0.4318 -0.2844
 2881SOL     OW20101   1.227   1.916  10.908  0.1178 -0.0253  0.4325
 2881SOL    HW120102   1.181   1.870  10.838  1.7816 -1.5734  0.3457
 2881SOL    HW220103   1.294   1.852  10.936  0.6408 -0.1010 -0.9814
 2882SOL     OW20104   2.728   4.023   2.543  0.1411 -0.0145  0.2351
 2882SOL    HW120105   2.704   3.930   2.551 -1.7486  0.4380 -0.2980
 2882SOL    HW220106   2.822   4.033   2.555  0.4042  0.4708 -2.2125
 2883SOL     OW20107   1.557   4.542   7.479 -0.6135  0.0940 -0.0915
 2883SOL    HW120108   1.501   4.617   7.456 -0.7412  0.1073  0.2645
 2883SOL    HW220109   1.571   4.512   7.389 -1.5629 -1.8370  0.4120
 2884SOL     OW20110   4.012   3.663   7.278 -0.1605 -0.0840  0.4740
 2884SOL    HW120111   3.947   3.727   7.308 -0.0782 -0.4832  1.4900
 2884SOL    HW220112   4.002   3.655   7.183  0.8529 -1.3882  0.4739
 2885SOL     OW20113   3.197   3.805   6.750  0.2453 -0.2299  0.4871
 2885SOL    HW120114   3.188   3.735   6.685 -0.6755  0.1457  0.2069
 2885SOL    HW220115   3.190   3.765   6.837 -1.0435 -0.2284  0.3819
 2886SOL     OW20116   4.430   0.043  17.147 -0.4033  0.0123  0.1009
 2886SOL    HW120117   4.388   4.682  17.161  1.1397 -1.1500 -2.4397
 2886SOL    HW220118   4.355   0.100  17.133 -1.1539 -1.6700 -2.6300
 2887SOL     OW20119   3.171   0.748   3.505  0.5843  0.4619 -0.3796
 2887SOL    HW120120   3.261   0.769   3.480  0.6376  0.0084 -0.5558
 2887SOL    HW220121   3.127   0.831   3.485 -1.1906 -0.0404  1.4681
 2888SOL     OW20122   2.122   3.945   4.949 -0.0825 -0.3186 -0.4883
 2888SOL    HW120123   2.146   3.859   4.984  1.5014 -0.3118 -1.5447
 2888SOL    HW220124   2.204   3.995   4.957  0.6204 -1.3813 -1.0157
 2889SOL     OW20125   1.149   2.849   7.171  0.1918  0.8589  0.2074
 2889SOL    HW120126   1.081   2.833   7.237  0.2948  0.1135  0.1350
 2889SOL    HW220127   1.160   2.758   7.141 -1.1319  0.1292  1.9363
 2890SOL     OW20128   2.046   3.075   5.551 -0.2437  0.3683 -0.4700
 2890SOL    HW120129   1.960   3.051   5.584  0.3691 -1.1448  0.0360
 2890SOL    HW220130   2.031   3.169   5.560  0.3394  0.3800  0.3883
 2891SOL     OW20131   1.311   0.320   5.276 -0.2440 -0.6369 -0.1660
 2891SOL    HW120132   1.284   0.283   5.192  1.3758  0.4416 -1.1599
 2891SOL    HW220133   1.374   0.389   5.257 -1.9538  0.6887 -0.9624
 2892SOL     OW20134   2.250   2.080   7.287  0.8500 -0.3717 -0.0715
 2892SOL    HW120135   2.266   2.080   7.193  0.3751  1.9806 -0.1454
 2892SOL    HW220136   2.246   1.987   7.307 -0.4533 -0.5101 -0.9967
 2893SOL     OW20137   4.055   0.211   8.651 -0.3230  0.7573  0.1769
 2893SOL    HW120138   4.110   0.274   8.697  1.2755 -0.0848 -0.5969
 2893SOL    HW220139   3.967   0.236   8.681 -0.4955 -0.5596  0.8133
 2894SOL     OW20140   4.600   4.594   3.937  0.4079 -0.1655 -0.0827
 2894SOL    HW120141   4.648   4.666   3.895  1.0633 -0.0740  0.8245
 2894SOL    HW220142   4.536   4.583   3.866  1.0953  2.0818 -1.0584
 2895SOL     OW20143   0.102   2.090   6.191  0.2559  0.4029  0.4039
 2895SOL    HW120144   0.040   2.158   6.164 -0.0254  0.4239  1.0917
 2895SOL    HW220145   0.182   2.142   6.203 -0.2504  1.5893 -1.3676
 2896SOL     OW20146   1.812   0.415  14.271 -0.1337  0.3962  0.4775
 2896SOL    HW120147   1.810   0.330  14.227 -0.9003  0.5774  0.1697
 2896SOL    HW220148   1.904   0.440  14.274  0.5322 -1.7998 -1.4720
 2897SOL     OW20149   3.603   2.070   4.284 -0.5363 -0.5363  0.4201
 2897SOL    HW120150   3.601   2.166   4.276  0.5355 -0.7559 -2.3584
 2897SOL    HW220151   3.524   2.053   4.336  0.6229 -0.3356  2.2488
 2898SOL     OW20152   0.951   2.273   3.796 -0.2224  0.3934 -0.3693
 2898SOL    HW120153   0.913   2.231   3.719  1.0105 -1.5126  0.0731
 2898SOL    HW220154   0.925   2.363   3.774 -0.1246  0.5707  0.2450
 2899SOL     OW20155   1.686   0.037   1.876 -0.0625 -0.0639 -0.1654
 2899SOL    HW120156   1.775   0.065   1.895  0.5439 -0.7177 -2.0612
 2899SOL    HW220157   1.640   0.081   1.947  3.4830  2.3844  0.5719
 2900SOL     OW20158   3.303   4.257   2.088  0.8627 -0.1892  0.1734
 2900SOL    HW120159   3.389   4.234   2.053  0.2043  1.8497 -2.8696
 2900SOL    HW220160   3.296   4.214   2.173 -1.2933  0.7326  0.4533
 2901SOL     OW20161   4.378   0.425  11.301  0.3848 -0.3878  0.0304
 2901SOL    HW120162   4.334   0.407  11.384  0.6242 -1.6114 -0.1092
 2901SOL    HW220163   4.352   0.516  11.286 -3.4476 -1.3987  0.6551
 2902SOL     OW20164   2.218   0.581   3.515  0.8640  0.3610 -0.4625
 2902SOL    HW120165   2.129   0.604   3.542  0.1679 -2.5650 -0.2516
 2902SOL    HW220166   2.213   0.562   3.422 -1.0274 -0.6715 -0.1506
 2903SOL     OW20167   2.249   0.888   6.673 -0.2564  0.4058  0.1044
 2903SOL    HW120168   2.327   0.901   6.728  0.2848  1.7385 -0.9751
 2903SOL    HW220169   2.175   0.898   6.733 -0.5225  0.7852 -0.2890
 2904SOL     OW20170   3.364   3.112   9.201 -0.1110  0.2832 -0.4660
 2904SOL    HW120171   3.324   3.066   9.275  1.3519  0.4810  0.4505
 2904SOL    HW220172   3.307   3.190   9.206 -3.2405 -2.1010  1.1580
 2905SOL     OW20173   3.588   3.091   2.164 -0.2438  1.1818 -0.3198
 2905SOL    HW120174   3.512   3.116   2.216  0.0124 -0.8800  1.0545
 2905SOL    HW220175   3.629   3.176   2.147  1.4818  0.9347  2.4928
 2906SOL     OW20176   2.353   1.931   3.885 -0.1472  0.2151  0.0598
 2906SOL    HW120177   2.282   1.985   3.920 -0.9638 -0.1789 -0.9911
 2906SOL    HW220178   2.405   2.001   3.846  0.9712 -1.5710 -1.6386
 2907SOL     OW20179   0.675   3.905   7.771 -0.2238  0.0822  0.7996
 2907SOL    HW120180   0.711   3.932   7.687  3.2690 -1.6443  1.7293
 2907SOL    HW220181   0.676   3.810   7.761  0.1908  0.3195 -1.3799
 2908SOL     OW20182   4.149   1.713   2.051  0.4330  0.3586  0.2918
 2908SOL    HW120183   4.186   1.778   1.992 -0.4012 -0.7116 -1.3984
 2908SOL    HW220184   4.071   1.698   1.998  0.8433 -2.6258  0.5668
 2909SOL     OW20185   0.927   3.331  14.070  0.1740  0.3858  0.4781
 2909SOL    HW120186   1.012   3.358  14.105 -0.1433  2.2067 -0.1704
 2909SOL    HW220187   0.909   3.398  14.005 -1.2026  0.3815  0.8598
 2910SOL     OW20188   1.012   0.702  11.930  0.1038  0.7429  0.3957
 2910SOL    HW120189   1.032   0.754  11.852  0.2561 -1.1577 -0.8349
 2910SOL    HW220190   0.991   0.620  11.886  1.0074  1.1298 -0.7887
 2911SOL     OW20191   3.221   1.112   5.246 -0.7937 -0.7159 -0.5720
 2911SOL    HW120192   3.265   1.028   5.231  2.5135  1.1365 -1.3936
 2911SOL    HW220193   3.217   1.141   5.155  0.1342 -1.2170 -0.7819
 2912SOL     OW20194   3.797   4.116   9.404  0.3351 -0.7925  0.4292
 2912SOL    HW120195   3.838   4.032   9.423  2.7302  0.4491  0.7783
 2912SOL    HW220196   3.866   4.143   9.343 -0.0113  2.6090  1.5666
 2913SOL     OW20197   3.624   1.522  17.631  0.4136 -0.0235  0.7925
 2913SOL    HW120198   3.697   1.461  17.620  0.6791  0.0013  2.3470
 2913SOL    HW220199   3.606   1.514   0.025  1.0007 -0.3622  0.8767
 2914SOL     OW20200   1.978   1.835  11.110  0.3777  0.5388  0.2313
 2914SOL    HW120201   1.913   1.765  11.106  1.0598  0.0669 -2.7273
 2914SOL    HW220202   1.944   1.886  11.036  2.0136  1.0551 -0.1477
 2915SOL     OW20203   3.174   4.696   5.641 -0.4810 -0.5455 -0.4225
 2915SOL    HW120204   3.245   4.635   5.623  1.0262  0.7450  1.1897
 2915SOL    HW220205   3.218   0.003   5.720 -0.6916  1.8342 -1.2804
 2916SOL     OW20206   3.403   0.264  14.260 -0.4104  0.1081  0.2119
 2916SOL    HW120207   3.486   0.310  14.272 -0.3201 -0.4695  1.7551
 2916SOL    HW220208   3.430   0.173  14.242 -2.3699 -0.3209 -0.5095
 2917SOL     OW20209   1.852   4.105   7.670 -0.0425  0.4872 -0.6485
 2917SOL    HW120210   1.775   4.067   7.713  1.7199 -2.2046  0.1812
 2917SOL    HW220211   1.895   4.033   7.623 -1.0611 -0.3840 -0.2416
 2918SOL     OW20212   2.010   0.597   9.058 -0.3420  0.1929 -0.3595
 2918SOL    HW120213   2.091   0.648   9.050 -1.3167  2.2481  2.7918
 2918SOL    HW220214   2.020   0.532   8.989  2.0634 -1.7529  1.8247
 2919SOL     OW20215   2.146   1.252   1.240  0.0665 -0.2164  0.0650
 2919SOL    HW120216   2.057   1.236   1.272  0.0695 -1.9002 -0.7498
 2919SOL    HW220217   2.137   1.341   1.206  0.5884  0.4429  1.6614
 2920SOL     OW20218   0.267   4.174   2.980 -0.6996  0.6767 -0.2280
 2920SOL    HW120219   0.184   4.127   2.978 -0.3049  0.0119 -1.2154
 2920SOL    HW220220   0.248   4.235   3.051  2.9067 -0.3977  1.6663
 2921SOL     OW20221   2.113   0.571   5.063  0.1119 -0.4574  0.1991
 2921SOL    HW120222   2.162   0.504   5.016 -0.0389 -1.3563  1.3126
 2921SOL    HW220223   2.154   0.650   5.028 -0.1040 -0.8572 -0.9474
 2922SOL     OW20224   3.170   2.075   9.177 -0.1639 -0.2445  0.1317
 2922SOL    HW120225   3.096   2.026   9.214 -3.3487  3.6988 -0.9950
 2922SOL    HW220226   3.250   2.038   9.214 -1.3403 -0.8118  2.1213
 2923SOL     OW20227   1.820   1.339   1.042  0.5065  0.0027  0.0472
 2923SOL    HW120228   1.833   1.312   1.133  1.2186 -1.6365 -0.5283
 2923SOL    HW220229   1.850   1.262   0.993  0.6350  0.7896 -1.1103
 2924SOL     OW20230   2.256   4.047   7.055 -0.0322 -0.2245  0.1676
 2924SOL    HW120231   2.249   3.962   7.100 -1.1024  1.0218  2.3792
 2924SOL    HW220232   2.322   4.087   7.112 -0.4907  1.4213 -0.4721
 2925SOL     OW20233   4.424   4.506  11.984 -0.3653  0.1086  0.1048
 2925SOL    HW120234   4.388   4.565  11.918  0.1143  0.2226 -0.0534
 2925SOL    HW220235   4.373   4.429  11.958  0.4899 -0.1274 -0.8949
 2926SOL     OW20236   0.960   0.172   9.506 -0.0807  0.0625  0.1484
 2926SOL    HW120237   0.914   0.192   9.425 -0.1278  1.3272  0.4858
 2926SOL    HW220238   0.885   0.157   9.564 -1.2068  1.7378 -0.8985
 2927SOL     OW20239   0.389   2.067   2.926  0.1737  0.3301  0.0124
 2927SOL    HW120240   0.347   2.026   2.851  0.5143  0.3021 -0.1589
 2927SOL    HW220241   0.414   1.991   2.979 -0.6950 -0.0222 -0.0787
 2928SOL     OW20242   0.745   1.728   2.130  0.1700  0.1958  0.3296
 2928SOL    HW120243   0.723   1.669   2.058 -1.2589 -1.7553  2.3425
 2928SOL    HW220244   0.746   1.665   2.202  1.1410 -0.0750  0.0769
 2929SOL     OW20245   2.824   2.557   7.328  0.2270 -0.6810  0.3510
 2929SOL    HW120246   2.819   2.561   7.424  2.6195 -0.5663  0.4734
 2929SOL    HW220247   2.873   2.637   7.306  0.6470 -1.6013 -2.0358
 2930SOL     OW20248   4.289   0.507   3.153 -0.0140  0.1274 -0.2525
 2930SOL    HW120249   4.322   0.592   3.126  1.6977  0.5963  3.3169
 2930SOL    HW220250   4.286   0.463   3.068  0.1359 -1.6066  0.6321
 2931SOL     OW20251   4.653   2.082   3.552  0.3674 -0.3755 -0.1212
 2931SOL    HW120252   4.699   2.102   3.634 -0.7754 -0.4548  0.5450
 2931SOL    HW220253   4.689   2.148   3.494  0.8846 -1.9406 -1.5864
 2932SOL     OW20254   4.603   2.597   5.329  0.4036  0.3539  0.0614
 2932SOL    HW120255   4.535   2.563   5.387 -1.8644 -0.3900 -3.0674
 2932SOL    HW220256   4.670   2.595   5.397 -0.3806  0.8550  0.8460
 2933SOL     OW20257   0.550   1.426   1.948 -0.3108 -0.4259 -0.4414
 2933SOL    HW120258   0.614   1.368   1.989 -3.2646 -2.3576  1.4900
 2933SOL    HW220259   0.566   1.418   1.854 -2.8986 -1.7728 -0.7744
 2934SOL     OW20260   0.822   4.229   0.701  0.1293 -0.0620  0.0140
 2934SOL    HW120261   0.893   4.267   0.751  1.2303 -1.3295 -0.5881
 2934SOL    HW220262   0.843   4.136   0.714  2.2208  0.6907  1.8477
 2935SOL     OW20263   1.527   2.172   1.192 -0.3377  0.1167 -0.3329
 2935SOL    HW120264   1.577   2.253   1.191  2.7461 -1.7900  0.2098
 2935SOL    HW220265   1.598   2.112   1.214 -1.6811 -1.6193 -0.6503
 2936SOL     OW20266   4.544   3.666   4.325 -0.2376  0.3194  0.1448
 2936SOL    HW120267   4.463   3.615   4.320 -0.0688  0.0749 -0.1427
 2936SOL    HW220268   4.603   3.592   4.340  0.3764  1.1213  1.6247
 2937SOL     OW20269   3.116   3.934   5.198 -0.2021  0.5679 -0.0481
 2937SOL    HW120270   3.102   3.995   5.126 -0.5180  2.6643  1.7756
 2937SOL    HW220271   3.048   3.868   5.191 -0.1429  0.3906  1.0685
 2938SOL     OW20272   3.044   4.148   5.854 -0.0992  0.0836 -0.2897
 2938SOL    HW120273   3.096   4.213   5.807 -1.2145  1.3552  0.2341
 2938SOL    HW220274   3.012   4.210   5.919  0.4853  1.1258 -1.0082
 2939SOL     OW20275   3.461   3.610   1.908 -0.2446 -0.0104 -0.5412
 2939SOL    HW120276   3.549   3.615   1.871 -0.1529  0.7722 -0.2253
 2939SOL    HW220277   3.450   3.703   1.929 -1.2675  0.4425 -3.0689
 2940SOL     OW20278   2.837   2.493   0.631  0.3349  0.2052 -1.2429
 2940SOL    HW120279   2.777   2.496   0.706  3.3867  2.7691  1.0776
 2940SOL    HW220280   2.822   2.403   0.600 -2.1981  0.8588 -1.9206
 2941SOL     OW20281   4.493   4.257   5.182 -0.2475  0.4699  0.3457
 2941SOL    HW120282   4.471   4.173   5.142  1.4513  0.1366  0.1086
 2941SOL    HW220283   4.573   4.284   5.136 -0.9090 -1.8989 -2.2330
 2942SOL     OW20284   4.236   3.686   9.804 -0.1748 -0.0026 -0.1140
 2942SOL    HW120285   4.266   3.777   9.804 -1.7447  0.5049 -0.6113
 2942SOL    HW220286   4.225   3.660   9.713  1.1868  2.0372 -0.8662
 2943SOL     OW20287   2.935   1.616  14.970 -0.1915 -0.3051 -0.2234
 2943SOL    HW120288   3.017   1.600  15.016 -0.4049  2.1962  1.0450
 2943SOL    HW220289   2.971   1.608  14.881  0.7385  1.7684 -0.0431
 2944SOL     OW20290   3.292   3.264   6.645  0.0813  0.0720  0.1187
 2944SOL    HW120291   3.355   3.247   6.575 -0.8422 -2.3887 -0.1229
 2944SOL    HW220292   3.216   3.212   6.616  0.1596 -0.4328  0.8183
 2945SOL     OW20293   1.237   3.325   1.585  0.5894  0.0984  0.1139
 2945SOL    HW120294   1.218   3.418   1.588  1.8877  0.3846 -0.5792
 2945SOL    HW220295   1.237   3.315   1.490  0.3477  1.8169 -0.0609
 2946SOL     OW20296   4.704   2.625   5.826  0.0297  0.3895  0.1438
 2946SOL    HW120297   0.074   2.636   5.824 -0.0807  1.5036  1.2762
 2946SOL    HW220298   4.666   2.713   5.830 -0.1702  0.3228 -0.2548
 2947SOL     OW20299   2.629   4.190   2.758  0.1771 -0.7195 -0.2999
 2947SOL    HW120300   2.587   4.246   2.692 -0.4382  0.2144  0.8799
 2947SOL    HW220301   2.676   4.143   2.689 -1.8209 -1.9703 -0.7870
 2948SOL     OW20302   4.233   0.978   3.207  0.4056 -0.4595 -0.2685
 2948SOL    HW120303   4.215   1.045   3.273 -0.3667 -2.1311  1.2092
 2948SOL    HW220304   4.235   1.038   3.133 -0.5700  1.0260  0.9134
 2949SOL     OW20305   1.278   1.723   4.503 -0.0641 -0.6843 -0.6568
 2949SOL    HW120306   1.287   1.799   4.561 -0.6846 -1.0666 -0.0676
 2949SOL    HW220307   1.359   1.678   4.527 -0.5680  0.1593  2.6387
 2950SOL     OW20308   3.971   0.285   4.003 -0.4129 -0.3605 -0.0615
 2950SOL    HW120309   3.945   0.359   3.948  0.0730  0.8173  1.3119
 2950SOL    HW220310   4.051   0.331   4.027 -0.4199 -0.3493 -0.0597
 2951SOL     OW20311   4.564   1.649  14.869  0.0103  0.1473  0.4336
 2951SOL    HW120312   4.550   1.711  14.940 -3.3911 -1.6398  1.3253
 2951SOL    HW220313   4.599   1.710  14.804 -0.8490  1.2149  0.9814
 2952SOL     OW20314   1.607   3.580   6.089 -0.2343  0.2956 -0.4153
 2952SOL    HW120315   1.589   3.600   6.181  0.7217  0.3777 -0.2394
 2952SOL    HW220316   1.629   3.666   6.053  0.4134 -0.1187 -1.0220
 2953SOL     OW20317   3.890   0.387   3.659 -0.2624 -0.5199  0.9587
 2953SOL    HW120318   3.900   0.479   3.682 -0.2680 -0.5352  1.0257
 2953SOL    HW220319   3.801   0.369   3.690 -0.9078  0.9916 -0.0566
 2954SOL     OW20320   0.708   1.228   0.233 -0.7157 -0.5235 -0.2215
 2954SOL    HW120321   0.778   1.278   0.191  0.8253 -2.9537 -0.5402
 2954SOL    HW220322   0.635   1.286   0.252 -1.4675 -3.2752  5.1050
 2955SOL     OW20323   3.133   0.881   1.241  0.1974  0.4271  0.3814
 2955SOL    HW120324   3.150   0.921   1.156  3.3319 -0.7531  0.4637
 2955SOL    HW220325   3.096   0.953   1.293  1.8900  0.4427  1.5805
 2956SOL     OW20326   0.057   0.655   8.946  0.6904 -0.1621 -0.5963
 2956SOL    HW120327   0.075   0.742   8.983 -2.1419  0.0318  0.3541
 2956SOL    HW220328   0.144   0.645   8.909  1.8438  1.7212  1.5350
 2957SOL     OW20329   0.234   0.979   5.806 -0.0358  0.3003  0.5643
 2957SOL    HW120330   0.174   1.016   5.742  1.3698  1.7772  0.0916
 2957SOL    HW220331   0.235   0.893   5.765  2.9939  0.2366  0.7854
 2958SOL     OW20332   3.034   4.244   9.583  0.2787 -0.0797  0.4973
 2958SOL    HW120333   3.036   4.162   9.632 -1.8901  0.8399  2.1466
 2958SOL    HW220334   3.078   4.222   9.500 -0.4069 -1.7761  0.5744
 2959SOL     OW20335   1.189   2.653   8.902  0.1659 -0.0094 -0.1133
 2959SOL    HW120336   1.098   2.670   8.924  0.6259  1.1671  0.8494
 2959SOL    HW220337   1.226   2.651   8.990 -0.1299  1.6672  0.0560
 2960SOL     OW20338   2.004   1.071   7.627 -0.3500 -0.4360  0.5198
 2960SOL    HW120339   2.094   1.051   7.650 -0.1179 -2.1362 -1.8257
 2960SOL    HW220340   2.001   1.035   7.538 -0.3364 -1.0705  0.7788
 2961SOL     OW20341   4.230   0.798   5.010  0.0533  0.1475  0.4013
 2961SOL    HW120342   4.251   0.864   5.077  1.1192 -0.7876  0.9802
 2961SOL    HW220343   4.270   0.723   5.055 -1.5376 -1.3994 -0.8071
 2962SOL     OW20344   2.007   4.408  10.097  0.4236 -0.0592  0.3650
 2962SOL    HW120345   2.013   4.316  10.073  0.2875  0.1411 -0.4333
 2962SOL    HW220346   2.098   4.436  10.098  1.0190 -1.9202 -2.0213
 2963SOL     OW20347   3.304   1.599  16.771 -0.5768 -0.1196  0.2190
 2963SOL    HW120348   3.229   1.658  16.770  0.6891  1.4642 -2.1435
 2963SOL    HW220349   3.333   1.623  16.859  1.0533  0.7961 -0.5493
 2964SOL     OW20350   1.015   2.987   3.430  0.6188 -0.1845 -0.2000
 2964SOL    HW120351   0.979   2.957   3.347 -1.1475  1.3785 -0.0045
 2964SOL    HW220352   1.046   2.899   3.453 -1.2729 -0.3804  1.6983
 2965SOL     OW20353   4.392   3.060   4.615 -0.0150 -0.3146  0.0180
 2965SOL    HW120354   4.310   3.087   4.573  1.5125  1.0250 -2.1181
 2965SOL    HW220355   4.459   3.097   4.557 -0.2857 -0.4543 -0.3861
 2966SOL     OW20356   0.644   0.076   5.006 -0.4944 -0.7433 -0.0262
 2966SOL    HW120357   0.609   4.711   5.007  0.4600 -1.1783 -3.0044
 2966SOL    HW220358   0.679   0.077   5.095 -0.5177 -0.4033 -0.0216
 2967SOL     OW20359   2.586   0.167  14.622 -0.4602  0.5600 -0.2947
 2967SOL    HW120360   2.506   0.123  14.592  1.3106 -2.3879 -0.6842
 2967SOL    HW220361   2.583   0.139  14.713 -2.6487  2.8180  0.3302
 2968SOL     OW20362   3.452   1.677  15.764  0.1508  0.0959 -0.5709
 2968SOL    HW120363   3.415   1.739  15.700  0.8238  0.7898 -0.2870
 2968SOL    HW220364   3.546   1.670  15.747  0.5229 -1.0899  2.0647
 2969SOL     OW20365   3.077   4.499   9.169  0.3981 -0.2949  0.0674
 2969SOL    HW120366   3.149   4.458   9.121 -1.0737  0.0572 -2.4221
 2969SOL    HW220367   3.121   4.555   9.233 -1.3845 -0.5422  1.5041
 2970SOL     OW20368   1.988   0.294   5.824  0.0488 -0.3089  0.2445
 2970SOL    HW120369   2.014   0.202   5.820 -0.6253 -0.5629  2.0219
 2970SOL    HW220370   2.013   0.319   5.913  0.7738  0.0282 -0.0527
 2971SOL     OW20371   0.561   2.224  10.751 -0.9622  0.1432 -0.2137
 2971SOL    HW120372   0.470   2.193  10.743 -1.3821  1.2320  0.3162
 2971SOL    HW220373   0.535   2.278  10.826  1.4519 -2.8965  2.7845
 2972SOL     OW20374   4.354   3.836  13.729 -0.0258 -0.9960  0.3775
 2972SOL    HW120375   4.388   3.749  13.712 -1.7486 -1.4348 -0.8671
 2972SOL    HW220376   4.432   3.886  13.702 -0.1000 -1.4644 -0.7221
 2973SOL     OW20377   4.284   3.606   8.273 -0.1293 -0.0386 -0.0643
 2973SOL    HW120378   4.367   3.615   8.226 -0.5094  1.7874 -0.3842
 2973SOL    HW220379   4.227   3.662   8.219 -1.1131 -1.4617 -0.4922
 2974SOL     OW20380   0.860   2.152  13.829  0.1000 -0.0115  0.2837
 2974SOL    HW120381   0.876   2.122  13.919 -0.4612  0.9859  0.7312
 2974SOL    HW220382   0.923   2.100  13.780  2.0375  0.8794  1.8119
 2975SOL     OW20383   2.433   4.146   3.992 -0.1600  0.0699  0.0726
 2975SOL    HW120384   2.426   4.221   4.052  0.8172 -0.8721  1.3703
 2975SOL    HW220385   2.526   4.126   3.981  0.2393  2.7568 -1.3789
 2976SOL     OW20386   3.340   1.303   3.426 -0.3864 -0.2393 -0.2520
 2976SOL    HW120387   3.324   1.368   3.358  0.0970 -2.6210 -2.6344
 2976SOL    HW220388   3.256   1.306   3.472 -0.4068  1.4340 -0.3767
 2977SOL     OW20389   4.377   1.646   3.997 -0.1020 -0.0237  0.5962
 2977SOL    HW120390   4.317   1.613   4.063  0.5211  1.3679  1.8774
 2977SOL    HW220391   4.392   1.736   4.026  1.6831  0.3009 -1.3279
 2978SOL     OW20392   3.370   0.262   2.164 -0.5708  0.3365  0.1424
 2978SOL    HW120393   3.283   0.268   2.205 -0.4195 -2.4409  0.9166
 2978SOL    HW220394   3.346   0.284   2.075 -1.3076 -1.2626 -0.0649
 2979SOL     OW20395   4.469   2.204   8.357  0.5256 -0.0760 -0.4214
 2979SOL    HW120396   4.536   2.239   8.298  2.3250 -1.7363  0.6332
 2979SOL    HW220397   4.498   2.113   8.360 -2.2928 -0.9933 -0.8362
 2980SOL     OW20398   0.094   0.918   1.653 -0.2697  0.4845 -0.3688
 2980SOL    HW120399   0.012   0.921   1.703  0.0750  2.5209  0.0718
 2980SOL    HW220400   0.161   0.865   1.698  1.0987  0.8274 -2.0301
 2981SOL     OW20401   3.592   1.628   2.177 -0.7200  0.0366  0.0812
 2981SOL    HW120402   3.518   1.567   2.183 -0.6785  0.3340  3.4709
 2981SOL    HW220403   3.672   1.575   2.178 -1.4163 -1.1208 -3.1159
 2982SOL     OW20404   0.219   3.260  13.124  0.1576  0.3544  0.2947
 2982SOL    HW120405   0.167   3.230  13.049 -0.2019  0.0274  0.6761
 2982SOL    HW220406   0.164   3.238  13.199  0.7328 -0.5416  0.4603
 2983SOL     OW20407   2.043   1.578   5.865 -1.0218  0.4522  0.2993
 2983SOL    HW120408   2.012   1.568   5.775  1.0832  2.1479 -0.6202
 2983SOL    HW220409   2.134   1.547   5.864 -1.2164 -0.1087  0.2341
 2984SOL     OW20410   3.488   3.413  16.983  0.3872 -0.3281 -0.1751
 2984SOL    HW120411   3.438   3.338  17.018 -0.8911  1.0272  0.9257
 2984SOL    HW220412   3.430   3.487  17.003  0.1229 -0.6086  0.1220
 2985SOL     OW20413   2.507   2.164   4.348 -0.1817 -0.2787 -0.8128
 2985SOL    HW120414   2.462   2.182   4.430 -0.6822  0.5453 -1.2656
 2985SOL    HW220415   2.583   2.221   4.354  0.4852 -1.2986  0.3930
 2986SOL     OW20416   1.867   1.276   8.836  0.7382  0.3452  0.2156
 2986SOL    HW120417   1.787   1.253   8.882  0.2545 -1.5969 -1.6080
 2986SOL    HW220418   1.842   1.362   8.802  3.1588  0.6806 -0.7256
 2987SOL     OW20419   2.232   0.135   8.529  0.1125  0.4248  0.3746
 2987SOL    HW120420   2.307   0.106   8.478 -1.5433  0.1712 -1.9109
 2987SOL    HW220421   2.200   0.047   8.549  0.9521 -0.0114 -0.2277
 2988SOL     OW20422   2.116   1.707   9.411  0.1540  0.4470 -0.6059
 2988SOL    HW120423   2.107   1.628   9.358  1.0471  1.1744 -1.8668
 2988SOL    HW220424   2.029   1.725   9.446 -0.0666  0.8625 -1.3603
 2989SOL     OW20425   3.338   2.738  11.332 -0.1356  0.5036  0.7753
 2989SOL    HW120426   3.280   2.670  11.368 -0.6974  1.2732  1.3197
 2989SOL    HW220427   3.363   2.786  11.411  3.0639 -1.4695  0.9490
 2990SOL     OW20428   3.611   3.247   2.636 -1.1062 -0.5485  0.4455
 2990SOL    HW120429   3.689   3.202   2.669  1.0816  2.2422 -0.9747
 2990SOL    HW220430   3.540   3.225   2.697 -1.4748  2.4645  1.1084
 2991SOL     OW20431   0.986   2.134   6.081  0.2499  0.0408 -0.2897
 2991SOL    HW120432   1.032   2.060   6.121  0.8167  0.1347 -0.7763
 2991SOL    HW220433   1.054   2.201   6.085 -1.6027  1.9207 -0.3033
 2992SOL     OW20434   3.511   0.504   4.485 -0.0698  0.4132  0.3409
 2992SOL    HW120435   3.432   0.529   4.533 -0.5242  0.8012 -0.6197
 2992SOL    HW220436   3.474   0.485   4.399  1.6732  0.7665 -0.4913
 2993SOL     OW20437   1.339   1.890   7.172 -0.6918  0.0359 -0.2969
 2993SOL    HW120438   1.339   1.919   7.080 -0.1022 -0.5081 -0.4672
 2993SOL    HW220439   1.430   1.909   7.191 -0.9302  2.7309 -1.8406
 2994SOL     OW20440   3.744   1.671   3.483  0.3985 -0.3086 -0.5515
 2994SOL    HW120441   3.833   1.697   3.507  0.0006 -0.0102  0.5669
 2994SOL    HW220442   3.726   1.729   3.409  3.9929  0.0439 -1.1548
 2995SOL     OW20443   2.611   2.989   1.539 -0.3007  0.3039  0.6231
 2995SOL    HW120444   2.611   3.022   1.449 -2.2155 -0.1624  0.4558
 2995SOL    HW220445   2.548   3.052   1.575 -0.9725  0.8617 -1.5135
 2996SOL     OW20446   4.101   1.598   6.179  0.0671  0.1100 -0.6842
 2996SOL    HW120447   4.110   1.639   6.265  2.4350 -0.0715 -0.8652
 2996SOL    HW220448   4.157   1.522   6.190 -0.3274  0.2756  2.3814
 2997SOL     OW20449   2.470   2.206   8.425  0.3161 -0.2205  0.1125
 2997SOL    HW120450   2.542   2.176   8.480  0.3058  0.1666  0.3389
 2997SOL    HW220451   2.415   2.260   8.482 -0.7498 -2.4246  1.1665
 2998SOL     OW20452   1.599   2.314   8.746 -0.2290  0.1836  0.2289
 2998SOL    HW120453   1.521   2.355   8.782 -0.4686  0.3359 -0.4722
 2998SOL    HW220454   1.596   2.350   8.658  1.6295 -3.1247 -1.1939
 2999SOL     OW20455   2.749   3.417   1.894  0.6017  0.1301  0.0009
 2999SOL    HW120456   2.707   3.442   1.977  2.2391 -0.5282  1.0323
 2999SOL    HW220457   2.841   3.425   1.919  1.6257 -3.3355 -2.6969
 3000SOL     OW20458   0.318   0.709   7.049  0.1778  0.3797 -0.0000
 3000SOL    HW120459   0.301   0.688   6.957 -3.0169  1.1718  0.4134
 3000SOL    HW220460   0.238   0.672   7.086  0.8925 -1.2581 -0.0878
 3001SOL     OW20461   0.599   3.623   6.986 -0.6791 -0.1336 -0.2292
 3001SOL    HW120462   0.636   3.561   6.923 -0.2308 -0.3902  0.2781
 3001SOL    HW220463   0.615   3.708   6.945 -2.1847 -0.1323 -0.8104
 3002SOL     OW20464   3.635   3.165  11.281 -0.3224  0.3733  0.0745
 3002SOL    HW120465   3.609   3.177  11.372 -0.7066 -0.2271  0.0427
 3002SOL    HW220466   3.627   3.070  11.274  0.4278  0.2562  0.7734
 3003SOL     OW20467   1.542   2.717   1.743 -0.3542 -0.0069  0.2130
 3003SOL    HW120468   1.448   2.725   1.762 -0.1947  0.8539  0.6284
 3003SOL    HW220469   1.550   2.626   1.772  1.4488  0.4761  1.2262
 3004SOL     OW20470   0.741   2.328   4.155 -0.1198 -0.0999  0.2793
 3004SOL    HW120471   0.726   2.418   4.127 -1.6571 -0.2259  0.7092
 3004SOL    HW220472   0.726   2.337   4.249 -0.9436  0.2206  0.1147
 3005SOL     OW20473   2.276   4.001  10.777 -0.3359 -0.1739  0.4127
 3005SOL    HW120474   2.337   3.960  10.715 -0.6223  2.7499 -1.8219
 3005SOL    HW220475   2.269   4.089  10.741  0.7054 -0.6058 -0.8680
 3006SOL     OW20476   2.268   1.529  14.880 -0.0400 -0.5053 -0.1222
 3006SOL    HW120477   2.262   1.500  14.971  1.5949 -0.4719 -0.0057
 3006SOL    HW220478   2.324   1.456  14.855  2.6612  2.3290 -2.3747
 3007SOL     OW20479   4.164   3.242   9.483  0.1132 -0.3449 -0.2111
 3007SOL    HW120480   4.130   3.153   9.485  1.7217 -1.0182 -2.6732
 3007SOL    HW220481   4.169   3.245   9.387 -0.7345 -1.0086 -0.2695
 3008SOL     OW20482   2.473   4.462  13.353  0.2028 -0.0298  0.9152
 3008SOL    HW120483   2.542   4.525  13.370  0.8569  0.0202 -1.9713
 3008SOL    HW220484   2.395   4.518  13.359 -0.1101 -0.5103  1.3129
 3009SOL     OW20485   0.501   4.369   2.009  0.3861 -0.1129  0.1204
 3009SOL    HW120486   0.451   4.432   2.061  0.5350  0.8153 -0.8509
 3009SOL    HW220487   0.470   4.382   1.919  0.5473 -0.8081 -0.0365
 3010SOL     OW20488   2.879   2.722   9.406 -0.1768 -0.5229  0.1044
 3010SOL    HW120489   2.811   2.682   9.352  1.0864 -0.5261 -1.4824
 3010SOL    HW220490   2.831   2.754   9.483  1.0767 -0.0082  0.6766
 3011SOL     OW20491   1.173   1.613   5.938 -0.2218 -0.0274 -0.2615
 3011SOL    HW120492   1.266   1.592   5.927 -0.1031  0.7936 -0.8327
 3011SOL    HW220493   1.137   1.541   5.887 -0.3371 -1.2534  1.5310
 3012SOL     OW20494   1.746   4.603   5.103  0.4038 -0.5750 -0.3380
 3012SOL    HW120495   1.751   4.635   5.012 -1.9731  2.8639  0.7161
 3012SOL    HW220496   1.837   4.578   5.118  0.0250 -1.4703  0.4323
 3013SOL     OW20497   2.868   2.398  12.355  0.3927 -0.0857  0.1492
 3013SOL    HW120498   2.802   2.458  12.321  1.3794 -0.3877 -2.3620
 3013SOL    HW220499   2.919   2.462  12.404  2.0893 -1.1763 -0.1935
 3014SOL     OW20500   2.266   2.775  15.278  0.4031  0.0536 -0.4012
 3014SOL    HW120501   2.335   2.711  15.297 -0.1543  0.2135  2.1539
 3014SOL    HW220502   2.269   2.837  15.351  2.2995 -1.2496  0.6370
 3015SOL     OW20503   3.710   3.663   1.804 -0.0313 -0.4000  0.2168
 3015SOL    HW120504   3.770   3.732   1.832  0.0623 -0.7517  0.8854
 3015SOL    HW220505   3.693   3.677   1.711 -2.8661 -2.2013  0.4403
 3016SOL     OW20506   1.308   2.026   4.872  0.4671 -0.2202  0.2735
 3016SOL    HW120507   1.336   1.949   4.921 -2.3420 -0.3234  1.6962
 3016SOL    HW220508   1.378   2.081   4.906 -0.1763  1.6483 -1.4466
 3017SOL     OW20509   0.458   2.257  11.220 -0.0977  0.1056 -0.1807
 3017SOL    HW120510   0.459   2.352  11.233 -1.1162  0.1264 -0.2480
 3017SOL    HW220511   0.476   2.229  11.309 -1.5376  2.8065  0.9546
 3018SOL     OW20512   3.109   2.993   2.099 -0.4572 -0.1611  0.1550
 3018SOL    HW120513   3.195   2.960   2.122 -0.1364 -0.3819 -1.3707
 3018SOL    HW220514   3.059   2.912   2.090  0.1760 -0.5845  0.4860
 3019SOL     OW20515   0.651   3.650   7.674 -0.0828 -0.2044 -0.3093
 3019SOL    HW120516   0.618   3.561   7.685 -0.9253 -0.1055 -1.9802
 3019SOL    HW220517   0.718   3.632   7.608  0.1935  0.6429 -0.2559
 3020SOL     OW20518   0.836   1.708  15.087 -0.0674  0.4415  0.7172
 3020SOL    HW120519   0.885   1.661  15.020  0.6832 -0.0870  1.6319
 3020SOL    HW220520   0.795   1.775  15.032  0.8899  1.0876  0.7775
 3021SOL     OW20521   1.164   3.798   9.329  0.2525  0.0708 -0.4089
 3021SOL    HW120522   1.231   3.817   9.263  0.7101  1.9167  0.5822
 3021SOL    HW220523   1.217   3.765   9.401 -0.1993 -1.5701 -0.8308
 3022SOL     OW20524   0.673   3.008  12.502 -1.0521 -0.2379 -0.2002
 3022SOL    HW120525   0.588   3.022  12.545 -0.6612 -0.0668  0.5132
 3022SOL    HW220526   0.702   3.099  12.494  1.7670 -0.8366  3.7678
 3023SOL     OW20527   1.455   1.914   4.242  0.1851  0.3978  0.0443
 3023SOL    HW120528   1.361   1.923   4.259 -0.0475  1.6517 -1.9004
 3023SOL    HW220529   1.459   1.821   4.220  1.8032  0.1888  1.1760
 3024SOL     OW20530   3.138   3.619  10.845 -0.0631 -0.1361 -0.4781
 3024SOL    HW120531   3.216   3.616  10.789 -0.7465 -0.3760 -1.4135
 3024SOL    HW220532   3.078   3.558  10.802 -1.4344 -0.1457  1.4411
 3025SOL     OW20533   2.423   2.866  14.777  0.2304  0.7445 -0.1185
 3025SOL    HW120534   2.418   2.895  14.686  2.1253 -0.4248 -0.5873
 3025SOL    HW220535   2.348   2.915  14.812  0.9359  2.2791 -0.7487
 3026SOL     OW20536   3.705   2.056   2.916  0.6372  0.0352 -0.9139
 3026SOL    HW120537   3.721   2.131   2.860 -2.8189 -0.3965 -2.4509
 3026SOL    HW220538   3.627   2.078   2.967 -0.2878 -0.7253 -1.9964
 3027SOL     OW20539   2.045   3.031  16.562  0.0448 -0.5412  0.0525
 3027SOL    HW120540   2.112   3.068  16.504  0.4183 -1.3644 -0.0398
 3027SOL    HW220541   1.999   3.110  16.591 -2.2178 -0.7033 -3.0790
 3028SOL     OW20542   0.688   3.284  17.527 -0.1017 -0.4397  0.2735
 3028SOL    HW120543   0.755   3.229  17.567 -0.2154 -0.9619 -0.2673
 3028SOL    HW220544   0.626   3.290  17.600  0.7896  0.8567  0.9379
 3029SOL     OW20545   0.397   4.720   7.529 -0.2201  0.0747  0.3544
 3029SOL    HW120546   0.438   4.686   7.609  1.1908  2.4416  0.6356
 3029SOL    HW220547   0.395   0.091   7.541  0.4527  0.0352  0.7928
 3030SOL     OW20548   1.504   0.574   3.167  0.3209 -0.4464 -0.2317
 3030SOL    HW120549   1.585   0.523   3.179  0.3745 -0.4900 -0.7459
 3030SOL    HW220550   1.527   0.649   3.222 -0.9698 -0.8972  0.9016
 3031SOL     OW20551   2.681   0.482   9.927 -1.4053  0.2810 -0.3009
 3031SOL    HW120552   2.635   0.463   9.846 -1.2831 -1.0916 -0.0441
 3031SOL    HW220553   2.696   0.393   9.960  1.7914 -0.0944 -2.7814
 3032SOL     OW20554   1.070   4.361   0.770  0.2650 -0.2164 -0.6721
 3032SOL    HW120555   1.131   4.364   0.844  0.5063  1.9563 -0.9546
 3032SOL    HW220556   1.125   4.353   0.692  1.1338 -2.1553  0.1397
 3033SOL     OW20557   0.307   1.638   5.663  0.1484 -0.2750  0.0551
 3033SOL    HW120558   0.246   1.686   5.719  0.4809 -1.5244  1.4973
 3033SOL    HW220559   0.293   1.547   5.688 -0.4546 -0.3969 -0.7652
 3034SOL     OW20560   2.591   1.056   4.844 -0.1398  0.0164  0.2085
 3034SOL    HW120561   2.588   0.987   4.778 -1.3933  0.1549  0.1129
 3034SOL    HW220562   2.586   1.129   4.782  0.3584 -1.0278 -1.0557
 3035SOL     OW20563   2.935   1.533  12.080  0.6366  0.1337 -0.0919
 3035SOL    HW120564   2.868   1.553  12.015 -1.0659  1.3499  2.0243
 3035SOL    HW220565   2.969   1.620  12.103  1.8916 -0.1034 -1.0716
 3036SOL     OW20566   0.046   3.760  12.029  0.3264 -0.3306  0.2716
 3036SOL    HW120567   0.011   3.687  12.080  0.4779  0.4138  1.4479
 3036SOL    HW220568   0.088   3.720  11.953  1.1685 -0.0724  0.6005
 3037SOL     OW20569   3.954   1.970   2.938  0.1682  0.0524 -0.1306
 3037SOL    HW120570   3.865   1.977   2.902 -0.3148  0.2624  1.0986
 3037SOL    HW220571   3.962   2.062   2.965 -0.3204  0.3286 -0.9152
 3038SOL     OW20572   3.156   1.884  12.563 -0.3516  0.4701  0.0997
 3038SOL    HW120573   3.232   1.933  12.531 -0.5655  1.2799  0.8293
 3038SOL    HW220574   3.092   1.914  12.499  0.5699  2.0063 -0.1241
 3039SOL     OW20575   3.904   1.344   2.939 -0.2084  0.1071  0.2859
 3039SOL    HW120576   3.882   1.423   2.890  0.4167 -0.1069 -0.3507
 3039SOL    HW220577   3.996   1.334   2.914 -0.7506 -2.3247 -0.7711
 3040SOL     OW20578   0.254   1.703  11.702 -0.9366 -0.3028 -0.0493
 3040SOL    HW120579   0.250   1.794  11.731 -0.0051  0.6785 -2.9380
 3040SOL    HW220580   0.330   1.665  11.745 -1.0864 -2.4891 -1.7260
 3041SOL     OW20581   4.254   0.248   3.270 -0.1159  0.0183  0.3147
 3041SOL    HW120582   4.231   0.313   3.203  1.3824  1.0823  0.8281
 3041SOL    HW220583   4.282   0.299   3.346  0.7494 -1.2586  0.8449
 3042SOL     OW20584   4.215   0.405  14.524 -0.0650 -0.3234 -0.0475
 3042SOL    HW120585   4.236   0.380  14.614  0.3437  1.3467  0.3189
 3042SOL    HW220586   4.220   0.322  14.476 -0.2461 -0.6410  0.4850
 3043SOL     OW20587   1.612   0.708   5.619 -0.1357  0.2499  0.2457
 3043SOL    HW120588   1.578   0.728   5.706 -2.1865  0.3535 -0.5722
 3043SOL    HW220589   1.534   0.663   5.586  0.5708 -1.1309  0.4850
 3044SOL     OW20590   1.238   0.239  10.368  0.2109  0.0541  0.4829
 3044SOL    HW120591   1.152   0.197  10.376 -0.8003  2.0624  0.1708
 3044SOL    HW220592   1.300   0.167  10.365 -0.4357 -0.4504 -0.5888
 3045SOL     OW20593   4.637   0.418  10.555  0.3414  0.8566  0.0769
 3045SOL    HW120594   4.592   0.451  10.632  2.0157  0.0299  1.4186
 3045SOL    HW220595   4.677   0.487  10.502  0.5536  0.3735 -0.3947
 3046SOL     OW20596   2.096   0.372   7.659 -0.1466  0.1397 -0.0424
 3046SOL    HW120597   2.009   0.403   7.684 -0.3394 -0.0950 -0.4231
 3046SOL    HW220598   2.122   0.323   7.737 -1.0010  3.3421  2.2636
 3047SOL     OW20599   0.000   4.422  16.809 -0.3993  0.1090  0.7233
 3047SOL    HW120600   4.659   4.463  16.865 -2.0955 -2.4768  0.6562
 3047SOL    HW220601   4.701   4.329  16.818  0.3535 -0.3091 -1.4652
 3048SOL     OW20602   1.209   4.259  15.455 -0.6313 -0.0933 -0.5637
 3048SOL    HW120603   1.168   4.314  15.388 -0.9837 -0.0348 -0.2971
 3048SOL    HW220604   1.163   4.274  15.538  1.0328 -0.8149  0.4999
 3049SOL     OW20605   0.650   2.217   0.543  0.0504 -0.1230 -0.3386
 3049SOL    HW120606   0.559   2.238   0.564  0.5578 -0.4808  2.1608
 3049SOL    HW220607   0.675   2.306   0.518 -1.4988  0.4079  0.0027
 3050SOL     OW20608   0.310   2.758   6.653  0.2881 -0.1938 -0.1551
 3050SOL    HW120609   0.248   2.686   6.642  0.6832 -0.6687  0.7164
 3050SOL    HW220610   0.385   2.705   6.679 -0.1785 -0.3162  0.9481
 3051SOL     OW20611   0.177   0.333   8.016  0.3545 -0.0743  0.0058
 3051SOL    HW120612   0.197   0.356   7.925  0.9209  0.6123  0.3024
 3051SOL    HW220613   0.113   0.264   7.999 -0.3034  0.4279  0.4606
 3052SOL     OW20614   3.835   0.485   1.003 -0.3998  0.3957 -0.0134
 3052SOL    HW120615   3.863   0.398   0.975  0.1698  0.4904  0.2600
 3052SOL    HW220616   3.850   0.530   0.919 -1.4286  0.5967 -0.0867
 3053SOL     OW20617   1.934   2.231   3.281 -0.1638 -0.1095  0.0040
 3053SOL    HW120618   1.921   2.223   3.186  0.1105  3.0108 -0.3070
 3053SOL    HW220619   1.985   2.153   3.303 -1.5994 -0.7270  1.0951
 3054SOL     OW20620   2.910   4.594   8.371  0.3484  0.1083 -0.3063
 3054SOL    HW120621   2.931   4.688   8.376 -0.4236  0.3189 -1.2082
 3054SOL    HW220622   2.872   4.584   8.458  0.3012 -0.5862 -0.4108
 3055SOL     OW20623   3.991   4.086   4.258 -0.5415  0.1067 -0.6280
 3055SOL    HW120624   3.907   4.111   4.219 -1.3925 -2.0049 -0.1455
 3055SOL    HW220625   3.962   4.037   4.335  1.7347  0.0807  0.2093
 3056SOL     OW20626   2.158   2.548   2.406 -0.1642  0.1493  0.1660
 3056SOL    HW120627   2.081   2.595   2.437 -0.7386 -0.1842 -0.7562
 3056SOL    HW220628   2.211   2.612   2.359  0.5587 -2.6351 -2.8585
 3057SOL     OW20629   2.411   3.419   8.185  0.4895 -0.1934 -0.2806
 3057SOL    HW120630   2.352   3.369   8.241 -0.6355  0.1774 -1.1304
 3057SOL    HW220631   2.467   3.344   8.165  0.7782 -0.2076  0.6236
 3058SOL     OW20632   0.515   2.636   6.348  0.4075 -0.0116  0.5273
 3058SOL    HW120633   0.456   2.706   6.376 -0.4831  0.0111 -1.4073
 3058SOL    HW220634   0.554   2.674   6.269 -1.9953 -0.1580 -0.7181
 3059SOL     OW20635   2.181   4.169   9.460  0.1378  0.3280  0.1013
 3059SOL    HW120636   2.193   4.241   9.397 -1.3631  0.2941 -0.2444
 3059SOL    HW220637   2.085   4.177   9.463 -0.1047 -2.4496 -0.2319
 3060SOL     OW20638   4.389   1.148   7.879  0.4985 -0.4399 -0.2809
 3060SOL    HW120639   4.373   1.054   7.889 -3.0117  0.1244 -0.6506
 3060SOL    HW220640   4.457   1.167   7.944 -1.3003  3.0536  0.5583
 3061SOL     OW20641   0.922   1.922  12.667 -0.1951  0.2338 -0.3342
 3061SOL    HW120642   1.008   1.904  12.707 -0.3506 -2.2297 -1.0617
 3061SOL    HW220643   0.892   1.840  12.628  1.8095 -1.2194  1.1499
 3062SOL     OW20644   0.226   4.215   0.053  0.4005  0.4981  0.3131
 3062SOL    HW120645   0.230   4.141  17.692  0.4593 -0.9130  2.0441
 3062SOL    HW220646   0.254   4.279  17.687  2.2308  1.0134  1.6170
 3063SOL     OW20647   4.532   4.714  13.754  0.3462  0.4570 -0.0118
 3063SOL    HW120648   4.625   0.011  13.758 -0.2419  3.0540 -0.6843
 3063SOL    HW220649   4.505   4.714  13.846  2.1819  3.0386  0.5147
 3064SOL     OW20650   2.677   0.183   1.662 -0.1982  0.3364  0.3890
 3064SOL    HW120651   2.748   0.161   1.602 -1.0036  0.7386 -0.7067
 3064SOL    HW220652   2.686   0.274   1.691  1.1614  0.7483 -1.3469
 3065SOL     OW20653   2.112   2.385   3.621  0.0850 -0.4235  0.2791
 3065SOL    HW120654   2.063   2.461   3.589  2.2298  1.1429  0.7810
 3065SOL    HW220655   2.198   2.419   3.644  0.6736  1.1011 -4.0958
 3066SOL     OW20656   2.174   3.761   2.444  0.0930 -0.1288 -0.0009
 3066SOL    HW120657   2.211   3.769   2.356  3.1606 -1.0250  1.1833
 3066SOL    HW220658   2.166   3.666   2.453 -1.7235 -0.3567 -4.3319
 3067SOL     OW20659   2.445   2.492   5.149 -0.1384  0.2735  0.3189
 3067SOL    HW120660   2.448   2.486   5.054 -2.1769  1.8576  0.1497
 3067SOL    HW220661   2.512   2.558   5.167 -0.2404  0.6061 -0.5285
 3068SOL     OW20662   1.226   1.711   8.757  0.0660 -0.0475  0.3000
 3068SOL    HW120663   1.260   1.625   8.731  2.0019 -0.0404  2.8527
 3068SOL    HW220664   1.173   1.731   8.680  0.0847  0.3097  0.3770
 3069SOL     OW20665   3.076   2.011   5.180  0.1465  0.5219  0.1706
 3069SOL    HW120666   3.029   2.082   5.225 -3.0578 -1.6097  0.2141
 3069SOL    HW220667   3.083   1.947   5.251  2.7695 -1.9203 -2.2897
 3070SOL     OW20668   3.214   0.595   9.111 -0.2501  0.1491  0.5367
 3070SOL    HW120669   3.205   0.579   9.205  0.9511 -1.0372  0.4510
 3070SOL    HW220670   3.170   0.680   9.111  3.7842  2.2273 -0.8811
 3071SOL     OW20671   3.810   4.430   0.378  0.5096  0.2513 -0.3951
 3071SOL    HW120672   3.725   4.458   0.344 -0.5064 -2.2480  0.0501
 3071SOL    HW220673   3.783   4.347   0.417  0.9191 -0.4477 -1.5984
 3072SOL     OW20674   4.403   2.885   3.454  0.1285 -0.4781 -0.2878
 3072SOL    HW120675   4.426   2.976   3.474 -0.2150 -0.3377 -0.5176
 3072SOL    HW220676   4.454   2.844   3.524  1.1638  1.8371  0.3131
 3073SOL     OW20677   2.181   0.708   2.497 -0.0826 -0.1768 -0.3005
 3073SOL    HW120678   2.211   0.728   2.586 -0.1919 -1.9088  0.1452
 3073SOL    HW220679   2.092   0.677   2.513 -0.3206  1.4180  1.4074
 3074SOL     OW20680   3.572   2.940  10.874 -0.7322  0.7692  0.6421
 3074SOL    HW120681   3.661   2.970  10.857  0.3498 -1.5197  2.2214
 3074SOL    HW220682   3.511   3.000  10.831 -2.1815 -0.3180  1.1586
 3075SOL     OW20683   1.454   4.712   4.653 -0.0102  0.1902 -0.3171
 3075SOL    HW120684   1.439   4.695   4.560 -2.6123 -0.5226  0.2465
 3075SOL    HW220685   1.369   4.709   4.695 -1.0954 -0.3083 -2.5428
 3076SOL     OW20686   1.564   2.414  17.476  0.2108  0.0104 -0.0738
 3076SOL    HW120687   1.639   2.430  17.534 -2.4686  0.0093  3.4193
 3076SOL    HW220688   1.605   2.358  17.411 -0.8490 -1.6288  0.6782
 3077SOL     OW20689   3.043   3.600  12.500  0.7858 -0.5391  0.7585
 3077SOL    HW120690   3.014   3.642  12.581 -1.9843 -0.1525 -0.4392
 3077SOL    HW220691   3.068   3.511  12.525 -1.5943 -1.5442 -0.4292
 3078SOL     OW20692   2.885   3.678   5.909  0.7239  0.3346  0.0759
 3078SOL    HW120693   2.957   3.615   5.916  0.2322 -0.2034  0.3212
 3078SOL    HW220694   2.931   3.762   5.907 -1.6535  1.6464  0.3630
 3079SOL     OW20695   2.137   1.313   3.502  0.6073  0.2377  0.5346
 3079SOL    HW120696   2.160   1.340   3.591 -2.7357  0.2553  1.3658
 3079SOL    HW220697   2.086   1.387   3.468 -2.2615 -2.0905 -0.1858
 3080SOL     OW20698   2.811   1.756  15.710  0.1375  0.3880  0.4812
 3080SOL    HW120699   2.829   1.765  15.616  0.6288 -0.9988  0.4476
 3080SOL    HW220700   2.864   1.680  15.734 -1.3065  0.0599  2.5857
 3081SOL     OW20701   3.185   0.048   2.912  0.2913  0.1177  0.1824
 3081SOL    HW120702   3.206   4.690   2.868 -3.3632 -0.6064 -0.2480
 3081SOL    HW220703   3.213   0.106   2.842  3.9290 -1.5267  0.3037
 3082SOL     OW20704   3.457   3.186  17.667  0.3451 -0.2175 -0.0877
 3082SOL    HW120705   3.519   3.181  17.594 -0.4014 -0.5223 -0.6906
 3082SOL    HW220706   3.508   3.249   0.019 -1.4748 -0.7784  2.3974
 3083SOL     OW20707   0.390   1.463   6.208 -0.7341  0.0432 -0.2000
 3083SOL    HW120708   0.330   1.538   6.215  1.2645  1.5602  0.4553
 3083SOL    HW220709   0.447   1.468   6.284  1.8669  0.1270 -2.1534
 3084SOL     OW20710   1.270   2.149   2.186  0.2131 -0.3297 -0.4503
 3084SOL    HW120711   1.223   2.086   2.131 -0.9044  1.7285 -1.8684
 3084SOL    HW220712   1.265   2.118   2.276  2.0044 -1.0040 -0.5826
 3085SOL     OW20713   2.640   0.481   2.103  0.0365 -0.7487  0.6195
 3085SOL    HW120714   2.664   0.571   2.125 -1.2096  0.0658 -1.3874
 3085SOL    HW220715   2.581   0.505   2.032  0.5871 -1.3287 -0.0306
 3086SOL     OW20716   2.917   2.666  16.670  0.0896 -0.0873  0.0065
 3086SOL    HW120717   2.835   2.620  16.687 -1.1631  0.9432 -3.1924
 3086SOL    HW220718   2.984   2.617  16.717 -0.0787 -1.4278 -1.1478
 3087SOL     OW20719   1.512   2.952  13.629  0.0231 -0.5659  0.8657
 3087SOL    HW120720   1.520   2.984  13.719 -1.4992  3.3518 -0.3565
 3087SOL    HW220721   1.418   2.952  13.612  0.1744 -0.7332 -0.0215
 3088SOL     OW20722   2.650   3.948  15.326 -0.7202 -0.0903 -0.0599
 3088SOL    HW120723   2.649   3.852  15.321 -1.4553 -0.1220  0.7382
 3088SOL    HW220724   2.673   3.955  15.418 -1.0127  1.0520 -0.0775
 3089SOL     OW20725   1.061   2.537   2.298  0.5522 -0.2051 -0.2557
 3089SOL    HW120726   1.028   2.516   2.385  1.4464  2.2324  0.6359
 3089SOL    HW220727   1.154   2.545   2.319  0.7258  0.1689 -1.1580
 3090SOL     OW20728   0.634   4.645   3.985 -0.5142 -0.6274 -0.0186
 3090SOL    HW120729   0.546   4.621   4.015 -0.6035  0.7940  0.8749
 3090SOL    HW220730   0.630   0.016   3.986  0.0500 -0.5987 -1.9083
 3091SOL     OW20731   3.716   0.488   4.027 -0.2679 -0.0417  0.9847
 3091SOL    HW120732   3.692   0.521   4.113 -0.9739 -0.7083  1.0437
 3091SOL    HW220733   3.745   0.566   3.981  1.5661 -1.1298  0.3072
 3092SOL     OW20734   0.704   1.304   6.903 -0.4849  0.0914 -0.2144
 3092SOL    HW120735   0.626   1.353   6.928  0.5818  2.7107 -2.0597
 3092SOL    HW220736   0.711   1.238   6.973  0.5589 -1.7377 -2.0196
 3093SOL     OW20737   0.743   4.258   1.023 -0.0515  0.2187  0.3396
 3093SOL    HW120738   0.715   4.271   0.933 -1.2390 -0.2944  0.6361
 3093SOL    HW220739   0.670   4.289   1.077  1.0142  0.5617  1.6066
 3094SOL     OW20740   3.826   2.310   3.097 -0.0211  0.1890  0.7979
 3094SOL    HW120741   3.789   2.318   3.009  0.4768  0.9327  0.6592
 3094SOL    HW220742   3.771   2.379   3.137  1.9652  1.0218  2.0975
 3095SOL     OW20743   1.641   1.969   1.933 -0.6397 -0.2113 -0.6127
 3095SOL    HW120744   1.698   2.016   1.873 -1.8987 -0.3003 -1.9067
 3095SOL    HW220745   1.592   2.041   1.973 -0.5561 -1.0138  0.9466
 3096SOL     OW20746   2.240   3.252  15.729 -0.7803  0.5941  0.0083
 3096SOL    HW120747   2.238   3.156  15.736  1.1624  0.6690  1.7108
 3096SOL    HW220748   2.326   3.267  15.690 -2.3187 -0.2973 -3.6997
 3097SOL     OW20749   2.863   2.738   6.103 -0.1253 -0.4631  0.0030
 3097SOL    HW120750   2.934   2.780   6.152 -0.6047  1.0998 -0.6366
 3097SOL    HW220751   2.800   2.809   6.096  0.0149 -0.5142 -2.0090
 3098SOL     OW20752   3.954   0.469   3.387  0.0797 -0.0801 -0.2226
 3098SOL    HW120753   4.046   0.442   3.386  0.4476  1.1712 -0.6532
 3098SOL    HW220754   3.923   0.449   3.475 -0.7464  1.4236 -0.1804
 3099SOL     OW20755   0.170   1.827   0.189 -0.5704  0.5796 -0.2801
 3099SOL    HW120756   0.164   1.921   0.206  1.8789  0.5949  0.4717
 3099SOL    HW220757   0.083   1.817   0.150 -0.3787  1.3335 -0.8829
 3100SOL     OW20758   2.294   3.558   9.217 -0.0176 -0.4956 -0.2081
 3100SOL    HW120759   2.323   3.473   9.250  0.7570 -0.4571 -0.7746
 3100SOL    HW220760   2.333   3.615   9.283 -0.0353 -0.9377  0.1847
 3101SOL     OW20761   2.028   2.639   8.847 -0.2446 -0.4429  0.3695
 3101SOL    HW120762   1.977   2.641   8.766 -0.2017  0.1552  0.3567
 3101SOL    HW220763   1.958   2.640   8.912  0.3175 -0.5744  0.9745
 3102SOL     OW20764   2.518   1.516   8.598  0.1042  0.3706  0.4290
 3102SOL    HW120765   2.501   1.562   8.680  0.5797  1.6193 -0.1854
 3102SOL    HW220766   2.464   1.572   8.542 -0.4823  0.1906  0.8180
 3103SOL     OW20767   1.275   0.056  16.792  0.5159 -0.2259  0.2867
 3103SOL    HW120768   1.182   0.037  16.793  0.5261 -0.3704 -1.3872
 3103SOL    HW220769   1.273   0.151  16.806 -2.4652 -0.3821  0.8605
 3104SOL     OW20770   3.459   1.419   0.918 -0.0093 -0.1059 -0.4403
 3104SOL    HW120771   3.370   1.444   0.891 -0.0145  2.1161  1.6630
 3104SOL    HW220772   3.480   1.355   0.850 -1.2448 -2.6227  1.5699
 3105SOL     OW20773   0.136   2.060  13.563 -0.8946 -0.0880  0.1638
 3105SOL    HW120774   0.212   2.014  13.528 -0.2534  0.9943  0.1440
 3105SOL    HW220775   0.151   2.151  13.540  1.0260  0.2075  2.5068
 3106SOL     OW20776   0.593   3.874   8.331  0.5461  0.2203 -0.0078
 3106SOL    HW120777   0.592   3.970   8.338 -2.1176  0.1011  1.3437
 3106SOL    HW220778   0.674   3.866   8.381  1.2558  0.6272 -1.0966
 3107SOL     OW20779   1.707   2.937   3.456  0.0857  0.1039 -0.5195
 3107SOL    HW120780   1.702   3.017   3.508 -1.6422 -1.5456  1.8239
 3107SOL    HW220781   1.745   2.964   3.372 -0.1106 -1.2117 -1.0242
 3108SOL     OW20782   2.694   3.600   1.680 -0.0572 -0.6350 -0.3195
 3108SOL    HW120783   2.687   3.546   1.759  3.5247 -0.0997  0.3344
 3108SOL    HW220784   2.789   3.602   1.673 -0.0285  0.4303  0.3505
 3109SOL     OW20785   3.919   0.192   6.999 -0.0116  0.1876  0.1160
 3109SOL    HW120786   3.900   0.123   7.063  2.3125  0.8765  1.5579
 3109SOL    HW220787   3.886   0.157   6.916  1.9192 -1.6594  0.1164
 3110SOL     OW20788   1.891   2.690   3.303 -0.4951 -0.1313  0.1385
 3110SOL    HW120789   1.941   2.768   3.280  0.9410 -1.1826 -0.2686
 3110SOL    HW220790   1.810   2.702   3.252 -0.9538 -0.2724  0.8298
 3111SOL     OW20791   4.368   2.892  10.347 -0.2174 -0.0496  0.4885
 3111SOL    HW120792   4.289   2.868  10.394  0.6179 -0.7818  1.5211
 3111SOL    HW220793   4.346   2.849  10.264 -2.5129 -1.5983  1.9064
 3112SOL     OW20794   0.582   1.805  15.465  0.7951  0.0228 -0.5939
 3112SOL    HW120795   0.589   1.875  15.400 -0.5177  0.9498  0.2606
 3112SOL    HW220796   0.628   1.731  15.425 -1.1404 -0.5802 -1.7074
 3113SOL     OW20797   4.363   2.916   7.276 -0.3907 -0.2668  0.3703
 3113SOL    HW120798   4.306   2.854   7.230  1.9317 -1.6581 -0.6461
 3113SOL    HW220799   4.451   2.879   7.267  0.4162  1.2495  2.1974
 3114SOL     OW20800   1.090   0.718  14.053  0.1144 -0.0928  0.9326
 3114SOL    HW120801   1.076   0.649  14.117 -0.0456 -2.0240 -1.1833
 3114SOL    HW220802   1.085   0.664  13.974  1.7816  1.1495 -0.0133
 3115SOL     OW20803   3.393   4.159   6.263  0.1211 -0.2093  0.6017
 3115SOL    HW120804   3.394   4.182   6.170 -2.1286  0.2552  0.6733
 3115SOL    HW220805   3.394   4.065   6.250  2.8025 -0.4756  2.6756
 3116SOL     OW20806   3.935   3.027  11.383  0.3697 -0.2133 -0.0856
 3116SOL    HW120807   4.005   2.966  11.406  1.7692  0.9738 -1.1938
 3116SOL    HW220808   3.867   2.972  11.422  0.3358 -3.3140 -4.4724
 3117SOL     OW20809   4.717   4.198   5.622 -0.4028  0.0890  0.2480
 3117SOL    HW120810   4.649   4.167   5.562 -2.7958  0.9901  2.4864
 3117SOL    HW220811   4.672   4.267   5.671 -1.1664 -0.4820  0.3486
 3118SOL     OW20812   2.325   0.392   1.769  0.3199  0.1921 -0.6277
 3118SOL    HW120813   2.372   0.446   1.833  1.6856  0.0139 -1.4882
 3118SOL    HW220814   2.262   0.448   1.724  0.9675  1.4690  0.0740
 3119SOL     OW20815   2.881   1.935   1.658  0.5849 -0.0405  0.5816
 3119SOL    HW120816   2.821   1.935   1.733  0.0715 -2.5085  0.1767
 3119SOL    HW220817   2.874   1.846   1.622  0.2735 -0.2386  1.1315
 3120SOL     OW20818   1.356   3.243  14.892 -0.4368 -0.1161 -0.0155
 3120SOL    HW120819   1.381   3.293  14.970  0.6652 -1.2539  0.3651
 3120SOL    HW220820   1.320   3.315  14.841  1.4106  1.5630  1.0213
 3121SOL     OW20821   2.234   4.396   7.208 -0.4211  0.0519 -0.1651
 3121SOL    HW120822   2.273   4.482   7.192  0.9733 -0.4576  0.4688
 3121SOL    HW220823   2.307   4.339   7.233 -1.0425 -0.3843  0.6645
 3122SOL     OW20824   3.755   3.511   8.735 -0.6971 -0.2752  0.2222
 3122SOL    HW120825   3.824   3.556   8.688 -2.1647  1.3683 -0.3354
 3122SOL    HW220826   3.809   3.494   8.812 -1.4015 -2.1657  0.2987
 3123SOL     OW20827   3.009   1.026   9.565  0.0119 -0.4505  0.6057
 3123SOL    HW120828   2.951   1.020   9.490  0.0495  2.6596  0.3479
 3123SOL    HW220829   2.974   1.098   9.617  0.4252 -0.9434  1.5710
 3124SOL     OW20830   0.001   4.250   1.630 -0.7481  0.2021 -0.4039
 3124SOL    HW120831   4.715   4.321   1.693 -0.1275  0.6061 -0.7591
 3124SOL    HW220832   4.704   4.283   1.543 -1.0658 -0.2436 -0.4932
 3125SOL     OW20833   1.685   0.429  12.778 -0.1361  0.0210 -0.0400
 3125SOL    HW120834   1.602   0.438  12.731  0.8495  0.7947 -1.6135
 3125SOL    HW220835   1.659   0.476  12.857 -0.8249 -0.5436  0.0822
 3126SOL     OW20836   3.202   0.809  15.316 -0.1223 -0.1981 -0.4619
 3126SOL    HW120837   3.270   0.832  15.252  1.4017 -1.6885  0.6364
 3126SOL    HW220838   3.146   0.886  15.329 -0.6076 -0.9310  1.8346
 3127SOL     OW20839   1.291   0.327   3.534  0.6194 -0.4595  0.0772
 3127SOL    HW120840   1.334   0.303   3.452 -2.0746 -1.9437 -0.8666
 3127SOL    HW220841   1.209   0.279   3.536  0.1366  0.3581 -0.2810
 3128SOL     OW20842   2.066   2.158  14.024  0.2924 -0.3404 -0.0687
 3128SOL    HW120843   1.970   2.156  14.030  0.2461 -1.3863 -1.3483
 3128SOL    HW220844   2.079   2.253  14.026  0.7219 -0.4079  0.2978
 3129SOL     OW20845   1.870   0.633   5.678 -0.2949 -0.3465  0.3765
 3129SOL    HW120846   1.793   0.674   5.639  0.5093  0.3746 -0.4801
 3129SOL    HW220847   1.831   0.601   5.759 -1.7915 -0.8095 -0.5256
 3130SOL     OW20848   2.955   1.038  14.350 -0.1343 -0.2243 -0.2126
 3130SOL    HW120849   2.888   1.027  14.283 -2.3785 -2.2668  2.3514
 3130SOL    HW220850   2.932   0.975  14.419 -0.2890 -0.8312 -0.8174
 3131SOL     OW20851   2.654   0.647  13.706  0.0038  0.3405 -0.3129
 3131SOL    HW120852   2.749   0.648  13.713 -0.0045  0.7634 -0.2061
 3131SOL    HW220853   2.642   0.692  13.622  0.0145  1.2432  0.1606
 3132SOL     OW20854   2.408   2.133   6.818 -0.1055 -0.4092  0.3559
 3132SOL    HW120855   2.452   2.126   6.903  0.4618  1.3057  0.2072
 3132SOL    HW220856   2.411   2.229   6.819  2.9973 -0.5583  4.1002
 3133SOL     OW20857   2.397   4.110   5.356 -0.3426  0.0775  0.0388
 3133SOL    HW120858   2.485   4.142   5.335 -0.5974  0.0971 -1.0215
 3133SOL    HW220859   2.402   4.015   5.352 -1.6205 -0.0032  0.3262
 3134SOL     OW20860   2.401   2.556   9.175 -0.5814 -0.0909 -0.1054
 3134SOL    HW120861   2.361   2.593   9.253 -0.8825 -1.2828  0.3184
 3134SOL    HW220862   2.398   2.465   9.207 -2.3732 -0.1998 -0.6077
 3135SOL     OW20863   4.643   0.592  16.638 -0.5934  0.3816  0.1734
 3135SOL    HW120864   0.014   0.588  16.634 -0.4971  0.8489  2.1423
 3135SOL    HW220865   4.626   0.599  16.544 -0.3600 -0.7730  0.0351
 3136SOL     OW20866   0.550   3.797   8.692 -0.3093 -0.1997  0.4307
 3136SOL    HW120867   0.523   3.888   8.702  0.8870 -0.0058  1.9653
 3136SOL    HW220868   0.616   3.823   8.628 -1.9596  1.8453 -0.4339
 3137SOL     OW20869   0.249   4.427  12.285  0.7125  0.0132  0.9979
 3137SOL    HW120870   0.297   4.509  12.275 -0.7125  0.7777  0.5277
 3137SOL    HW220871   0.252   4.384  12.200  1.6158 -1.8703  1.9831
 3138SOL     OW20872   3.243   4.602   8.071  0.0643 -0.0983  0.1885
 3138SOL    HW120873   3.171   4.557   8.114  1.0309 -0.4092  1.4744
 3138SOL    HW220874   3.313   4.541   8.092 -0.4180 -0.8955 -0.4931
 3139SOL     OW20875   1.034   0.847   2.893 -0.5788  0.1124  0.1840
 3139SOL    HW120876   1.119   0.879   2.862 -0.2311 -1.6077 -0.6116
 3139SOL    HW220877   0.980   0.898   2.833  2.3696  1.6812 -1.1368
 3140SOL     OW20878   2.999   2.296   1.833  0.5895 -0.2810 -0.8379
 3140SOL    HW120879   2.908   2.275   1.813 -0.3664  1.7938  1.3692
 3140SOL    HW220880   2.999   2.390   1.816  0.9767 -0.4389 -1.6880
 3141SOL     OW20881   1.159   3.292   3.850 -0.8337 -0.2335 -0.1298
 3141SOL    HW120882   1.101   3.352   3.803 -1.3513 -0.1746  0.5910
 3141SOL    HW220883   1.098   3.243   3.904 -1.3642  0.1356 -0.3995
 3142SOL     OW20884   2.145   2.013   8.449 -0.9673 -0.4493  0.5212
 3142SOL    HW120885   2.203   1.992   8.523  0.0140  1.4146  0.2704
 3142SOL    HW220886   2.158   2.106   8.433 -2.7978 -0.2413  0.2215
 3143SOL     OW20887   3.175   2.142   8.107  0.0908  0.2331 -0.0092
 3143SOL    HW120888   3.192   2.171   8.197  0.5320  0.4907 -0.1792
 3143SOL    HW220889   3.112   2.071   8.119 -0.5524  0.3279 -2.8338
 3144SOL     OW20890   0.138   1.664   7.302 -0.2756  0.3232 -0.1604
 3144SOL    HW120891   0.131   1.757   7.277 -0.7534 -0.5473 -3.1847
 3144SOL    HW220892   0.071   1.658   7.370  1.2707  0.0241  1.3516
 3145SOL     OW20893   1.898   1.717   0.030  0.2842 -0.0205 -0.1050
 3145SOL    HW120894   1.909   1.790  17.668  2.2987  1.0158  1.5172
 3145SOL    HW220895   1.953   1.746   0.103 -1.5132 -0.5011  1.4305
 3146SOL     OW20896   0.968   4.291   9.997 -0.1054 -0.2011  0.2277
 3146SOL    HW120897   1.027   4.294  10.072  0.0458 -0.1116  0.1034
 3146SOL    HW220898   0.938   4.381   9.984  0.1757 -0.0291  0.7524
 3147SOL     OW20899   4.412   0.652   6.617 -0.3046  0.0790  0.2827
 3147SOL    HW120900   4.408   0.647   6.521  1.6643 -2.6586  0.3106
 3147SOL    HW220901   4.503   0.622   6.628 -0.8161 -1.1763  1.0568
 3148SOL     OW20902   2.114   3.761   1.709  0.5346 -0.0579 -0.2213
 3148SOL    HW120903   2.118   3.756   1.613 -1.7565  3.0185 -0.4908
 3148SOL    HW220904   2.030   3.805   1.724  1.1712  1.2034 -0.3267
 3149SOL     OW20905   3.863   3.996  16.723 -0.6597 -0.2881  0.3523
 3149SOL    HW120906   3.801   4.033  16.661  2.0332  0.6400 -1.7950
 3149SOL    HW220907   3.918   3.961  16.653 -0.4210 -0.6345  0.7078
 3150SOL     OW20908   1.192   4.135   4.248 -0.3303 -0.2638 -0.2707
 3150SOL    HW120909   1.281   4.156   4.221  0.0653 -0.9283  0.5204
 3150SOL    HW220910   1.192   4.073   4.321 -3.1669  1.0986  0.9116
 3151SOL     OW20911   0.164   0.495   8.227 -0.3946 -0.3824  0.0060
 3151SOL    HW120912   0.150   0.432   8.156 -0.5270 -0.6578  0.2714
 3151SOL    HW220913   0.252   0.475   8.259  0.2971 -0.3118 -1.8192
 3152SOL     OW20914   0.044   3.295   4.051 -0.9595 -0.2352 -0.0669
 3152SOL    HW120915   0.043   3.261   3.961 -2.7214  0.1444 -0.1918
 3152SOL    HW220916   0.011   3.382   4.031  1.2462  1.3477  3.2225
 3153SOL     OW20917   4.565   1.948   8.404  0.6681 -0.1617  0.0914
 3153SOL    HW120918   4.493   1.902   8.449 -0.6651  3.1759  1.3445
 3153SOL    HW220919   4.597   1.866   8.365  0.5876 -0.7060  1.1634
 3154SOL     OW20920   3.029   0.338  15.012  0.8426 -0.1833  0.3006
 3154SOL    HW120921   3.079   0.420  15.017 -0.0238  0.5332 -2.9894
 3154SOL    HW220922   2.956   0.367  14.958  0.6647 -2.8563 -0.8576
 3155SOL     OW20923   3.732   2.185  12.525 -0.9954 -0.2441  0.0700
 3155SOL    HW120924   3.766   2.249  12.587  2.6317 -1.8708 -0.2533
 3155SOL    HW220925   3.790   2.198  12.451 -0.1548 -0.3960  0.7081
 3156SOL     OW20926   0.845   1.462  15.766 -0.4949  0.4202 -0.1265
 3156SOL    HW120927   0.860   1.482  15.674  1.3495 -0.1676  0.0369
 3156SOL    HW220928   0.749   1.463  15.774 -0.4985  0.5841 -0.1913
 3157SOL     OW20929   2.963   0.243   9.096 -0.6794 -0.5672  0.7764
 3157SOL    HW120930   2.990   0.333   9.077  2.1566 -1.4519  0.7069
 3157SOL    HW220931   3.005   0.219   9.178  2.5586  2.1109 -0.1015
 3158SOL     OW20932   1.825   2.638   5.432 -0.0860  0.1586 -0.2687
 3158SOL    HW120933   1.873   2.555   5.421  0.7650  0.2430  2.8144
 3158SOL    HW220934   1.903   2.691   5.451 -1.3543  1.2538  1.7831
 3159SOL     OW20935   1.508   1.119   5.319 -0.1224 -0.4762 -0.0574
 3159SOL    HW120936   1.563   1.160   5.253  0.1036  2.1419  1.7713
 3159SOL    HW220937   1.579   1.090   5.375 -1.5951 -1.6505  1.2051
 3160SOL     OW20938   0.272   4.349   2.734  0.1430  0.4964  0.2983
 3160SOL    HW120939   0.266   4.268   2.784 -1.4193 -1.6989 -3.4091
 3160SOL    HW220940   0.192   4.346   2.682  0.8261  0.8436 -0.7790
 3161SOL     OW20941   0.286   0.704   5.703 -0.6030  0.7896 -0.7019
 3161SOL    HW120942   0.318   0.715   5.792  1.0942 -1.7474 -0.9652
 3161SOL    HW220943   0.307   0.613   5.679 -0.8880  0.4979  0.1742
 3162SOL     OW20944   0.843   3.578  13.340  0.2457 -0.1993  0.3860
 3162SOL    HW120945   0.818   3.492  13.306 -2.0054 -0.3487  2.4244
 3162SOL    HW220946   0.801   3.641  13.280  0.1781  0.8027  1.4869
 3163SOL     OW20947   2.924   0.669  12.723 -0.2714  0.6439  0.3468
 3163SOL    HW120948   2.955   0.734  12.659  0.9715  0.4250  0.7184
 3163SOL    HW220949   2.848   0.628  12.682 -0.1331  0.7533 -0.0213
 3164SOL     OW20950   0.626   0.478   7.536  0.0847  0.3610  0.0713
 3164SOL    HW120951   0.650   0.510   7.623  1.9266 -0.4303 -0.1465
 3164SOL    HW220952   0.645   0.555   7.482 -0.8648  0.7572  0.3040
 3165SOL     OW20953   1.160   4.155  11.934  0.0631 -0.1664  0.3966
 3165SOL    HW120954   1.143   4.167  12.028  0.7410 -1.9660  0.7466
 3165SOL    HW220955   1.113   4.073  11.920  0.0871  0.0545 -0.9601
 3166SOL     OW20956   3.625   1.255   8.468  0.2806 -0.2006 -0.3736
 3166SOL    HW120957   3.615   1.181   8.527 -1.3691 -0.8104 -1.3881
 3166SOL    HW220958   3.698   1.231   8.411  0.4418 -2.4718  0.7974
 3167SOL     OW20959   1.922   4.663   3.981  0.2955 -0.2562 -0.2414
 3167SOL    HW120960   2.016   4.681   3.983  0.1992  0.3121 -0.9334
 3167SOL    HW220961   1.916   4.592   3.918  2.4698 -0.3027 -0.3817
 3168SOL     OW20962   1.136   0.314   9.644 -0.3225  0.0378  0.7325
 3168SOL    HW120963   1.082   0.245   9.606  0.0683  1.2538 -2.0221
 3168SOL    HW220964   1.219   0.277   9.674  0.0796 -0.0941 -0.5437
 3169SOL     OW20965   3.789   2.893   6.163 -0.7338 -0.0247  0.6429
 3169SOL    HW120966   3.786   2.803   6.194 -1.3774 -1.0000 -2.2439
 3169SOL    HW220967   3.770   2.938   6.245 -1.2102  0.6286  0.1759
 3170SOL     OW20968   1.065   2.135   4.793  0.4854 -0.0854  0.4283
 3170SOL    HW120969   1.084   2.227   4.809  0.5745 -0.1222  0.5369
 3170SOL    HW220970   1.141   2.089   4.828  0.6093 -0.5627 -0.4450
 3171SOL     OW20971   3.275   0.607   5.983  0.3493  0.2007 -0.2888
 3171SOL    HW120972   3.211   0.591   6.052 -0.8028  1.4144 -1.0790
 3171SOL    HW220973   3.260   0.543   5.914  1.1770  2.7596 -2.8785
 3172SOL     OW20974   2.979   2.896  15.323 -0.2506 -0.6441  0.2931
 3172SOL    HW120975   3.009   2.839  15.394 -0.5984  0.0335  0.9926
 3172SOL    HW220976   3.035   2.970  15.349  0.4097 -1.7976  2.1885
 3173SOL     OW20977   1.816   0.497  13.255  0.4705  0.0569  0.0686
 3173SOL    HW120978   1.816   0.408  13.291 -0.8182 -0.3204 -0.8406
 3173SOL    HW220979   1.903   0.532  13.270  0.3767 -0.3718  1.6418
 3174SOL     OW20980   4.044   3.972   8.391 -0.1287  0.3595 -0.0927
 3174SOL    HW120981   4.006   4.058   8.407  1.2190  0.9710 -0.0991
 3174SOL    HW220982   4.097   3.980   8.311  0.1016  2.3112  0.2616
 3175SOL     OW20983   1.171   3.656  17.366 -0.0089 -0.1149 -0.4790
 3175SOL    HW120984   1.179   3.654  17.270 -2.9358  0.1502 -0.7092
 3175SOL    HW220985   1.079   3.679  17.376  0.5492  1.0808  1.7126
 3176SOL     OW20986   1.237   1.595   5.499  0.2043  0.1901  0.0717
 3176SOL    HW120987   1.260   1.671   5.445 -0.5528 -0.4064 -1.1065
 3176SOL    HW220988   1.286   1.526   5.453 -1.8777  0.9160 -3.1733
 3177SOL     OW20989   1.439   0.802  10.209  0.0475  0.6842  0.1851
 3177SOL    HW120990   1.389   0.749  10.271 -0.4455  0.6879 -0.2135
 3177SOL    HW220991   1.461   0.870  10.273 -0.1585  0.5996  0.3452
 3178SOL     OW20992   1.470   1.176   4.556  0.0921  0.3353 -0.9419
 3178SOL    HW120993   1.515   1.098   4.522 -0.2020 -0.5345  0.6994
 3178SOL    HW220994   1.430   1.199   4.472  0.7876  1.2937 -1.0053
 3179SOL     OW20995   2.473   4.320   7.469  0.0677 -0.2584  0.5026
 3179SOL    HW120996   2.480   4.414   7.484 -1.9830  0.4178 -2.7847
 3179SOL    HW220997   2.537   4.289   7.533  0.4230  1.1713  0.8184
 3180SOL     OW20998   1.963   4.229   8.945  0.1878  0.7898  0.0600
 3180SOL    HW120999   1.881   4.240   8.993  0.4724 -1.4271  1.0420
 3180SOL    HW221000   2.012   4.252   9.024 -0.8152  2.3085  0.2455
 3181SOL     OW21001   4.477   4.157   4.095  0.4832 -0.6539  0.2371
 3181SOL    HW121002   4.563   4.184   4.128 -1.0007  0.7912  2.8436
 3181SOL    HW221003   4.487   4.174   4.001  0.4083 -1.7902  0.0222
 3182SOL     OW21004   4.568   2.491   9.047 -0.3941  0.2321 -0.5180
 3182SOL    HW121005   4.540   2.484   8.956 -3.0027  0.8934  0.2512
 3182SOL    HW221006   4.488   2.526   9.086  0.2521 -0.3961  1.3790
 3183SOL     OW21007   1.054   4.571   5.484 -0.5477  0.3848  0.7633
 3183SOL    HW121008   1.144   4.602   5.492 -0.4735 -0.6515  3.8940
 3183SOL    HW221009   1.062   4.504   5.552  2.0984 -0.5565 -0.4714
 3184SOL     OW21010   0.411   0.135   2.672 -0.4214  0.0139  0.6987
 3184SOL    HW121011   0.476   0.065   2.678  1.6457  1.8630 -0.1106
 3184SOL    HW221012   0.446   0.183   2.597  2.8368 -2.3524  0.7302
 3185SOL     OW21013   3.755   2.563   1.844  0.5702  0.0965  0.8530
 3185SOL    HW121014   3.842   2.549   1.881  0.8676 -0.7019 -0.1479
 3185SOL    HW221015   3.738   2.479   1.802  0.9394  0.6575 -0.4193
 3186SOL     OW21016   2.279   0.829   4.710 -0.3744  0.2574  0.5288
 3186SOL    HW121017   2.351   0.866   4.659 -3.5919 -0.1434 -4.1944
 3186SOL    HW221018   2.208   0.890   4.690 -0.9682 -0.9073 -0.8625
 3187SOL     OW21019   0.220   2.965   3.174 -0.4876  0.7049  0.8746
 3187SOL    HW121020   0.244   3.057   3.189 -0.6852  0.7768  0.7357
 3187SOL    HW221021   0.133   2.980   3.139 -0.0485 -0.1906 -0.5686
 3188SOL     OW21022   4.080   3.064   2.962  0.0268 -0.1190  0.0599
 3188SOL    HW121023   4.106   2.972   2.968 -0.1964 -0.2506 -1.1514
 3188SOL    HW221024   3.991   3.059   2.998 -0.1460  2.8597  0.0554
 3189SOL     OW21025   4.312   4.633   4.101  0.2071 -0.9284  0.0266
 3189SOL    HW121026   4.234   4.679   4.070  0.3257 -0.6823  0.0945
 3189SOL    HW221027   4.375   4.688   4.053 -0.0430 -0.3748  0.3382
 3190SOL     OW21028   4.545   1.552   3.438 -0.2399 -0.1869  0.1392
 3190SOL    HW121029   4.641   1.544   3.434 -0.2758  0.0208 -1.1077
 3190SOL    HW221030   4.539   1.647   3.434  0.7384 -0.1708 -1.2831
 3191SOL     OW21031   0.629   0.215   7.454  0.2671  0.5738  0.3597
 3191SOL    HW121032   0.627   0.310   7.456 -2.3783  0.5614 -1.5410
 3191SOL    HW221033   0.547   0.185   7.494  0.1149  0.7247  0.1641
 3192SOL     OW21034   3.111   0.375   3.027  0.3728 -0.2134  0.2277
 3192SOL    HW121035   3.047   0.370   2.956  1.6771 -1.8168 -0.8301
 3192SOL    HW221036   3.106   0.470   3.037  2.2482 -0.2674  1.6844
 3193SOL     OW21037   0.868   2.508  15.168 -0.1636  0.2403 -0.1458
 3193SOL    HW121038   0.862   2.599  15.138  2.1281 -0.0756 -1.6128
 3193SOL    HW221039   0.951   2.502  15.216  1.1522 -1.2946 -2.6177
 3194SOL     OW21040   4.631   2.292   6.114 -0.1572 -0.4570 -0.5361
 3194SOL    HW121041   4.541   2.263   6.099  0.4315 -2.7138  0.3842
 3194SOL    HW221042   4.645   2.334   6.029 -0.0168  2.0342  0.7124
 3195SOL     OW21043   1.057   3.277  13.193 -0.2289  0.3464 -0.0829
 3195SOL    HW121044   1.069   3.365  13.157  1.0134  0.5687  0.8654
 3195SOL    HW221045   1.147   3.246  13.206 -1.0175 -1.3693  1.3653
 3196SOL     OW21046   3.973   1.217   1.536  0.0303  0.1008  0.1221
 3196SOL    HW121047   4.001   1.126   1.527 -0.4498  0.1232 -1.6444
 3196SOL    HW221048   3.878   1.208   1.551 -0.1975  0.9966 -0.7780
 3197SOL     OW21049   2.525   1.636   3.416 -0.1290 -0.5896  0.0362
 3197SOL    HW121050   2.576   1.572   3.367 -2.3172  0.3267 -3.4823
 3197SOL    HW221051   2.555   1.612   3.503  3.1490  0.2802 -0.8525
 3198SOL     OW21052   2.627   3.807   3.510 -0.0325  0.5651 -0.0020
 3198SOL    HW121053   2.633   3.888   3.459  1.2602 -0.3050 -1.2309
 3198SOL    HW221054   2.712   3.765   3.499 -0.1376  0.4290 -0.2955
 3199SOL     OW21055   0.588   4.274   3.222 -0.1785 -0.0774  0.3247
 3199SOL    HW121056   0.575   4.355   3.172 -1.5188 -1.2026 -1.1660
 3199SOL    HW221057   0.567   4.214   3.150 -0.0136  1.6026 -1.1401
 3200SOL     OW21058   4.326   3.152   3.065 -0.4683 -0.1682  0.3448
 3200SOL    HW121059   4.385   3.109   3.003 -1.2214  1.2808 -1.3639
 3200SOL    HW221060   4.240   3.119   3.038 -0.4462 -0.4239  0.5826
 3201SOL     OW21061   0.448   4.558  13.166 -0.3203  0.8288  0.3128
 3201SOL    HW121062   0.534   4.534  13.199 -0.8346 -2.0027 -0.4199
 3201SOL    HW221063   0.421   4.481  13.117  1.7750 -0.3812  1.0666
 3202SOL     OW21064   3.030   2.439   6.010 -0.1759 -0.0841 -0.9650
 3202SOL    HW121065   2.989   2.359   6.042 -0.9032  0.6406 -0.0747
 3202SOL    HW221066   3.121   2.413   5.997  0.3974  0.7946  1.2418
 3203SOL     OW21067   1.580   2.153   5.656  0.1365 -0.1055 -0.7929
 3203SOL    HW121068   1.507   2.198   5.613  0.3162  0.1260 -0.8599
 3203SOL    HW221069   1.591   2.218   5.725 -0.9146 -0.2021 -0.5311
 3204SOL     OW21070   2.505   1.845   7.869 -0.5432 -0.5168 -0.1604
 3204SOL    HW121071   2.533   1.759   7.840  0.9796 -0.2378  0.4849
 3204SOL    HW221072   2.589   1.889   7.882 -1.2645  0.7500  0.2489
 3205SOL     OW21073   1.316   1.268   5.993  0.1477 -0.1010 -0.0085
 3205SOL    HW121074   1.357   1.354   5.984 -3.0982  1.3281 -0.8548
 3205SOL    HW221075   1.233   1.292   6.032 -0.1534 -1.8864  0.4530
 3206SOL     OW21076   3.377   3.318   5.221 -0.3237 -0.3013 -0.2100
 3206SOL    HW121077   3.327   3.253   5.269  1.2516 -1.0951  0.3450
 3206SOL    HW221078   3.311   3.383   5.196  1.7534  0.3939 -3.9453
 3207SOL     OW21079   4.219   0.980   7.543 -0.0055 -0.3313 -0.5194
 3207SOL    HW121080   4.297   1.020   7.582 -0.1015 -2.4747  1.8954
 3207SOL    HW221081   4.175   0.953   7.624  0.4536 -0.0360 -0.1666
 3208SOL     OW21082   0.058   0.213  13.232  0.5592 -1.0349  0.4472
 3208SOL    HW121083   0.093   0.291  13.188 -2.9688 -0.7175 -1.7840
 3208SOL    HW221084   0.119   0.208  13.306 -0.9609 -1.0871  1.6736
 3209SOL     OW21085   0.724   3.990   2.185 -0.3142 -0.0011 -0.0734
 3209SOL    HW121086   0.636   4.025   2.170 -0.3862 -0.5714 -1.0037
 3209SOL    HW221087   0.730   3.938   2.105 -1.0875  0.9723 -0.7620
 3210SOL     OW21088   1.174   2.056   5.564  0.7043 -0.6926 -0.0723
 3210SOL    HW121089   1.186   2.086   5.654 -2.5665 -4.8091  1.7255
 3210SOL    HW221090   1.083   2.079   5.546  0.6705  0.3760  1.5242
 3211SOL     OW21091   0.110   0.821   8.629 -0.0559  0.5390  0.4363
 3211SOL    HW121092   0.078   0.859   8.711 -2.3628 -2.1404  0.7797
 3211SOL    HW221093   0.198   0.857   8.635 -0.3777  1.3032  0.6183
 3212SOL     OW21094   4.590   1.308   1.926 -0.3695 -0.1238 -1.1473
 3212SOL    HW121095   4.506   1.303   1.880  0.2716  1.2405 -2.4883
 3212SOL    HW221096   4.609   1.215   1.938 -2.7681 -0.6900 -1.7469
 3213SOL     OW21097   4.096   3.422   3.113  0.7692 -0.3657 -0.3557
 3213SOL    HW121098   4.100   3.424   3.208  2.7624 -0.8016 -0.4251
 3213SOL    HW221099   4.188   3.416   3.086  0.3151 -1.3539 -1.6877
 3214SOL     OW21100   2.718   3.254   8.927 -0.3415  0.1973  0.7399
 3214SOL    HW121101   2.677   3.320   8.871 -1.8430 -1.4022 -0.0287
 3214SOL    HW221102   2.703   3.294   9.013  0.6309  0.7260  0.6547
 3215SOL     OW21103   1.343   3.587   9.020 -0.4567  0.1640  0.3336
 3215SOL    HW121104   1.274   3.646   8.988  0.4571 -0.4401 -2.7845
 3215SOL    HW221105   1.390   3.645   9.080  0.3101 -1.6122  1.4275
 3216SOL     OW21106   1.419   0.990   8.974  0.1180  0.4047  0.3080
 3216SOL    HW121107   1.497   0.935   8.967 -0.3847 -0.1150 -1.3890
 3216SOL    HW221108   1.391   0.948   9.055  1.0460  0.9764  0.9178
 3217SOL     OW21109   0.327   3.860  17.368 -0.5391  0.0883  0.0850
 3217SOL    HW121110   0.338   3.918  17.293 -1.8859 -1.1185 -1.0597
 3217SOL    HW221111   0.257   3.799  17.342  0.4241 -0.7712 -0.5004
 3218SOL     OW21112   2.565   0.664   8.340  0.3729  0.2035  0.7826
 3218SOL    HW121113   2.476   0.689   8.317  0.9022  1.1426 -0.2171
 3218SOL    HW221114   2.577   0.699   8.428 -0.1975 -1.7044  1.6160
 3219SOL     OW21115   0.958   4.460   7.084 -0.0677 -0.1514  0.1495
 3219SOL    HW121116   0.902   4.405   7.029 -0.5804 -1.6760  2.2092
 3219SOL    HW221117   1.037   4.407   7.085 -0.3940 -0.6196  0.6913
 3220SOL     OW21118   2.935   4.622   8.883 -0.2429 -0.2358  0.3118
 3220SOL    HW121119   2.895   4.537   8.865  1.0334 -0.9044  0.6728
 3220SOL    HW221120   2.928   4.616   8.978 -2.1446  0.9900  0.2556
 3221SOL     OW21121   4.108   3.565   7.639 -0.0602  0.1167 -0.1984
 3221SOL    HW121122   4.019   3.586   7.612  0.0225  0.0446 -0.5226
 3221SOL    HW221123   4.099   3.472   7.663 -2.8008  0.6635  0.9465
 3222SOL     OW21124   3.921   4.138   6.365  0.1083  0.2168 -0.0630
 3222SOL    HW121125   3.891   4.150   6.275  1.4794 -1.1627 -0.6975
 3222SOL    HW221126   4.006   4.097   6.349  1.8660  3.9902 -0.6450
 3223SOL     OW21127   1.934   1.279  10.037 -0.0460  0.7333  0.1608
 3223SOL    HW121128   1.873   1.349  10.059  1.3628  1.5755  1.3729
 3223SOL    HW221129   1.945   1.227  10.116  0.5777 -0.9530 -1.0329
 3224SOL     OW21130   1.682   0.887   8.946 -0.0126 -0.0335  0.2364
 3224SOL    HW121131   1.652   0.812   8.895 -0.8769  0.6580 -0.2676
 3224SOL    HW221132   1.724   0.851   9.023  1.3121  2.2439  0.5915
 3225SOL     OW21133   2.398   0.716   0.086 -0.3394  0.2673  0.0599
 3225SOL    HW121134   2.450   0.654   0.136 -0.2146 -0.7512 -1.3386
 3225SOL    HW221135   2.322   0.717   0.144 -0.6816  0.1615 -0.3862
 3226SOL     OW21136   1.028   2.175  10.752 -0.3697 -0.7109 -0.3063
 3226SOL    HW121137   1.111   2.220  10.765 -0.2521 -1.5440  1.7092
 3226SOL    HW221138   0.978   2.228  10.814  0.9165  0.0085  0.1063
 3227SOL     OW21139   2.136   2.673   4.662 -0.1699  0.6211 -0.8885
 3227SOL    HW121140   2.085   2.624   4.597 -2.0712  1.2261  0.1674
 3227SOL    HW221141   2.087   2.647   4.740 -0.0101 -0.3206 -1.0936
 3228SOL     OW21142   4.175   0.901   6.349  0.0042  0.2297 -0.0997
 3228SOL    HW121143   4.232   0.926   6.422  0.0980 -1.8841  0.5397
 3228SOL    HW221144   4.115   0.840   6.393  0.6969  0.0787  0.6275
 3229SOL     OW21145   2.072   0.209   6.863  0.3077 -0.8075  0.1730
 3229SOL    HW121146   2.131   0.195   6.789 -0.3567 -0.5846 -0.4007
 3229SOL    HW221147   2.125   0.261   6.924  0.4655  0.1068 -0.7477
 3230SOL     OW21148   1.715   0.837   7.865 -0.2599 -0.1325 -0.0609
 3230SOL    HW121149   1.791   0.860   7.918  0.3313  0.0557 -0.9852
 3230SOL    HW221150   1.657   0.894   7.915  0.9985 -0.0333  1.2698
 3231SOL     OW21151   1.397   2.982   6.410 -0.3786 -0.2239 -0.3174
 3231SOL    HW121152   1.460   2.919   6.378 -0.0470 -0.1632  0.2158
 3231SOL    HW221153   1.410   2.970   6.504  0.7789  0.0500 -0.4500
 3232SOL     OW21154   3.757   3.238   7.880 -0.2287 -0.0897  0.3707
 3232SOL    HW121155   3.828   3.175   7.889  0.0154 -0.1262 -1.7857
 3232SOL    HW221156   3.725   3.224   7.791 -0.1041 -2.5062  0.6900
 3233SOL     OW21157   1.914   2.266   4.651 -0.5760  0.2997 -0.0811
 3233SOL    HW121158   1.852   2.337   4.636  0.6757  0.9944 -2.1193
 3233SOL    HW221159   1.869   2.199   4.601 -0.2166  0.9751 -1.3261
 3234SOL     OW21160   2.513   1.324   7.678  0.2434  0.0264  0.1165
 3234SOL    HW121161   2.499   1.290   7.589 -1.2921  0.5299  0.1672
 3234SOL    HW221162   2.575   1.259   7.711  0.2106  2.1054  4.1373
 3235SOL     OW21163   4.481   0.764   8.820 -0.0462 -0.2283  0.3552
 3235SOL    HW121164   4.481   0.786   8.913  1.5209  0.1651  0.2632
 3235SOL    HW221165   4.503   0.852   8.790  1.3051 -0.4514  0.7169
 3236SOL     OW21166   3.451   3.939   0.975 -0.6005  0.2220  0.0479
 3236SOL    HW121167   3.503   3.975   1.046 -1.2732 -0.6314  0.9659
 3236SOL    HW221168   3.404   3.866   1.015 -1.7436 -0.4154 -2.4079
 3237SOL     OW21169   2.309   3.176   5.018 -0.7115  0.1318  0.0366
 3237SOL    HW121170   2.229   3.161   5.069 -0.7546  0.1155 -0.0356
 3237SOL    HW221171   2.343   3.088   5.004  1.4545  1.3704 -2.7035
 3238SOL     OW21172   0.047   0.582  17.189  0.6542  0.0738  0.0930
 3238SOL    HW121173   0.024   0.583  17.096 -0.2869 -0.3062  0.3195
 3238SOL    HW221174   0.129   0.632  17.188  0.0257  1.0928 -0.5930
 3239SOL     OW21175   1.884   2.116   9.036 -0.7597 -0.1569 -0.0681
 3239SOL    HW121176   1.961   2.060   9.027 -0.8181 -0.0516 -1.2741
 3239SOL    HW221177   1.820   2.048   9.059 -0.7787 -0.3759 -0.7600
 3240SOL     OW21178   1.245   0.322   9.297  0.0705  0.9712  0.4001
 3240SOL    HW121179   1.159   0.347   9.331 -0.3852  1.0001 -0.7697
 3240SOL    HW221180   1.221   0.266   9.224  1.5706 -0.0820  0.7180
 3241SOL     OW21181   3.123   4.123  11.512  0.0006 -0.2342  0.2119
 3241SOL    HW121182   3.087   4.106  11.425 -1.5170 -0.2226  0.8332
 3241SOL    HW221183   3.062   4.091  11.579  0.1657 -0.7272  0.1259
 3242SOL     OW21184   0.855   4.478   7.674  0.0149 -0.1021 -0.2181
 3242SOL    HW121185   0.941   4.496   7.710  0.0541  0.4188 -0.5859
 3242SOL    HW221186   0.804   4.449   7.750  2.3528  0.7918  1.7049
 3243SOL     OW21187   0.731   0.284  16.067  0.3865  0.0945  0.0839
 3243SOL    HW121188   0.773   0.209  16.023  0.7866 -0.1555  0.9004
 3243SOL    HW221189   0.716   0.256  16.157  0.8445  1.9138  0.7330
 3244SOL     OW21190   2.085   0.248   4.696  0.3112  0.4527  0.4274
 3244SOL    HW121191   2.023   0.179   4.720  1.5295 -0.1696  1.8578
 3244SOL    HW221192   2.123   0.206   4.619 -0.3396  0.4619  0.1085
 3245SOL     OW21193   4.689   1.455   4.893  0.7884  0.4561 -0.2649
 3245SOL    HW121194   4.712   1.399   4.968 -0.8669 -0.0310 -0.1244
 3245SOL    HW221195   0.012   1.533   4.922 -2.0569  2.0836 -0.0756
 3246SOL     OW21196   1.789   3.299  17.096  0.0405  0.0405 -0.0027
 3246SOL    HW121197   1.789   3.281  17.190 -1.6704  0.0393  0.0041
 3246SOL    HW221198   1.807   3.215  17.054 -0.3370 -0.3093  0.5255
 3247SOL     OW21199   3.784   1.542   1.643 -0.5472 -0.6158  0.4908
 3247SOL    HW121200   3.752   1.579   1.561  1.2670 -1.7226 -0.7110
 3247SOL    HW221201   3.773   1.619   1.699  0.9943  0.3417 -0.5393
 3248SOL     OW21202   1.964   4.689   4.323 -0.0510 -0.3476 -0.1812
 3248SOL    HW121203   1.932   4.599   4.316 -0.2769 -0.3412  0.6844
 3248SOL    HW221204   1.882   0.007   4.346  1.0911  0.4954  2.3287
 3249SOL     OW21205   0.504   4.207   6.487  0.1983  0.1031 -0.0065
 3249SOL    HW121206   0.497   4.238   6.577 -0.4153 -0.7947  0.2513
 3249SOL    HW221207   0.596   4.182   6.474  0.5923  1.8889 -0.6824
 3250SOL     OW21208   3.381   2.208  15.450  0.7645 -0.1618 -0.6220
 3250SOL    HW121209   3.419   2.169  15.372 -0.0113 -0.2900 -0.9371
 3250SOL    HW221210   3.430   2.290  15.439  2.1125 -0.8728  0.1812
 3251SOL     OW21211   3.530   0.475  17.369 -0.4939  0.3527 -0.5296
 3251SOL    HW121212   3.493   0.474  17.280 -1.7361  2.5504 -0.0407
 3251SOL    HW221213   3.523   0.569  17.385  0.5176  0.8464 -2.9576
 3252SOL     OW21214   2.660   4.216   2.359  0.2649  0.7817  0.0081
 3252SOL    HW121215   2.691   4.145   2.415  1.2462 -0.0182 -1.5489
 3252SOL    HW221216   2.708   4.197   2.278 -1.4589 -0.6303 -0.6775
 3253SOL     OW21217   3.875   0.495   8.549  0.0224  0.0510  0.1068
 3253SOL    HW121218   3.891   0.589   8.539 -2.0330  0.4210  0.2831
 3253SOL    HW221219   3.963   0.460   8.563 -0.0698 -1.3455 -2.7790
 3254SOL     OW21220   0.173   0.134   4.048  0.0129  0.7331  0.1446
 3254SOL    HW121221   0.089   0.157   4.087 -0.2518 -0.4817  0.2915
 3254SOL    HW221222   0.241   0.158   4.111  1.9768 -1.1182 -1.2473
 3255SOL     OW21223   4.437   0.933   4.848  0.1377 -0.5101  0.0696
 3255SOL    HW121224   4.375   0.865   4.874  0.3455 -0.9050 -0.4813
 3255SOL    HW221225   4.515   0.878   4.849  0.0756 -0.5953  0.1991
 3256SOL     OW21226   2.702   4.094   0.479 -0.6090 -0.0280  0.2946
 3256SOL    HW121227   2.747   4.029   0.425 -0.4109  0.8697 -0.5934
 3256SOL    HW221228   2.629   4.125   0.426  0.7616  1.1260 -0.8789
 3257SOL     OW21229   3.959   2.680   0.130 -0.0953  0.2024  0.3207
 3257SOL    HW121230   4.041   2.700   0.174 -0.0647  1.7285 -0.4475
 3257SOL    HW221231   3.988   2.596   0.095  1.0531  0.2297  1.2278
 3258SOL     OW21232   3.490   1.791  16.144 -0.3174  0.1999 -0.3477
 3258SOL    HW121233   3.481   1.780  16.239 -0.7604  1.1664 -0.2761
 3258SOL    HW221234   3.545   1.869  16.148  0.6206 -0.3717 -1.9928
 3259SOL     OW21235   0.502   4.553   5.052 -0.7117 -0.1352 -0.1858
 3259SOL    HW121236   0.412   4.547   5.021 -1.0183  1.3137  0.4439
 3259SOL    HW221237   0.550   4.530   4.972  3.0450  3.0651  1.0930
 3260SOL     OW21238   4.372   3.763  11.733  0.0811 -0.2501  0.4391
 3260SOL    HW121239   4.464   3.740  11.725  0.3796  1.5822 -1.3001
 3260SOL    HW221240   4.355   3.742  11.825 -0.1287  1.5589  0.8062
 3261SOL     OW21241   1.982   3.141   1.573  0.0187  0.3857 -0.1444
 3261SOL    HW121242   2.024   3.136   1.488 -2.3986 -0.0479 -1.3329
 3261SOL    HW221243   1.890   3.127   1.550  0.4900 -2.3820 -0.3825
 3262SOL     OW21244   1.861   2.627   6.985 -0.2008 -0.7371 -0.9853
 3262SOL    HW121245   1.809   2.617   7.064  0.2685 -0.3403 -0.6306
 3262SOL    HW221246   1.788   2.614   6.925 -0.4303 -0.8956 -0.6693
 3263SOL     OW21247   4.284   1.957   1.273 -0.0726  0.2439 -0.7166
 3263SOL    HW121248   4.364   1.991   1.234 -0.8434  1.6839 -1.0694
 3263SOL    HW221249   4.303   1.934   1.364 -1.7748  1.9967  0.0879
 3264SOL     OW21250   0.507   2.497  11.572 -0.7759 -0.2661 -0.6516
 3264SOL    HW121251   0.600   2.476  11.568 -0.4334  1.1200 -0.0744
 3264SOL    HW221252   0.475   2.416  11.531 -0.9579  0.7658 -2.5295
 3265SOL     OW21253   3.120   2.886  12.535  0.2677  0.5734  0.4533
 3265SOL    HW121254   3.063   2.911  12.608 -1.5044  2.0997 -1.4748
 3265SOL    HW221255   3.092   2.947  12.467  0.5724  1.4662  1.1185
 3266SOL     OW21256   1.304   3.701   3.226 -0.3907 -0.2739  0.2475
 3266SOL    HW121257   1.385   3.697   3.175 -0.9119 -1.9042 -0.4436
 3266SOL    HW221258   1.307   3.788   3.268  1.2123 -0.8601  1.3430
 3267SOL     OW21259   1.934   4.624   5.584  0.1796  0.3462  0.2701
 3267SOL    HW121260   1.973   4.537   5.574 -4.1173 -1.8206  2.7174
 3267SOL    HW221261   1.956   4.663   5.499  1.5344 -3.4003 -1.1235
 3268SOL     OW21262   2.628   1.826   3.941  0.2663  0.2318 -0.1451
 3268SOL    HW121263   2.649   1.878   3.863  1.2840 -0.8269 -0.5854
 3268SOL    HW221264   2.575   1.878   4.001 -1.4373 -0.8409 -0.6921
 3269SOL     OW21265   2.195   2.650  15.904 -0.1863  0.0786  0.5770
 3269SOL    HW121266   2.193   2.597  15.824 -0.0737  2.7170 -1.1629
 3269SOL    HW221267   2.280   2.617  15.933 -0.6132 -1.9113 -0.4366
 3270SOL     OW21268   3.796   1.561   2.798  0.0062 -0.5525  0.0126
 3270SOL    HW121269   3.739   1.624   2.844  1.3790  0.7258 -0.0472
 3270SOL    HW221270   3.854   1.621   2.751 -0.9725  0.9394  0.6931
 3271SOL     OW21271   1.234   4.402   5.039 -0.1148  0.7532 -0.7813
 3271SOL    HW121272   1.297   4.340   5.078 -1.5896  0.5055  1.2188
 3271SOL    HW221273   1.262   4.485   5.078 -1.0110 -0.1398  1.7853
 3272SOL     OW21274   4.029   4.353   0.224  0.2900 -0.4505  0.2802
 3272SOL    HW121275   4.098   4.318   0.281  0.3018 -1.3842 -0.3152
 3272SOL    HW221276   3.951   4.365   0.279  0.0531 -1.9730  0.2963
 3273SOL     OW21277   1.207   3.590   7.285  0.0777  0.7332  0.1427
 3273SOL    HW121278   1.270   3.609   7.355  1.2030 -0.2448 -0.6013
 3273SOL    HW221279   1.210   3.495   7.295  0.0973  0.6573 -0.6485
 3274SOL     OW21280   4.091   3.245   2.774  0.0146 -0.4250 -0.0399
 3274SOL    HW121281   4.090   3.189   2.852 -2.4355 -0.3508  0.0127
 3274SOL    HW221282   4.179   3.226   2.745  0.1249 -1.1697  0.7748
 3275SOL     OW21283   1.686   2.696   4.283  0.0663  0.0091 -0.4473
 3275SOL    HW121284   1.728   2.711   4.198  0.5332  0.1232 -0.1977
 3275SOL    HW221285   1.740   2.748   4.342 -0.4007 -0.3080  0.2624
 3276SOL     OW21286   3.456   2.718   6.381  0.1971  0.3992  0.7998
 3276SOL    HW121287   3.374   2.692   6.423  1.2356 -1.9112  1.3604
 3276SOL    HW221288   3.494   2.784   6.439  0.3697  0.2789  0.8232
 3277SOL     OW21289   0.560   3.693  11.832  0.0051  0.1923  0.0875
 3277SOL    HW121290   0.572   3.779  11.874  1.9775  0.0185 -0.1112
 3277SOL    HW221291   0.475   3.671  11.870 -0.6294  0.1261 -1.4076
 3278SOL     OW21292   3.937   2.528   5.406  0.1612  0.0949 -0.7269
 3278SOL    HW121293   3.921   2.524   5.312  1.5755  0.3107 -0.9623
 3278SOL    HW221294   3.975   2.614   5.420 -1.5999  0.7128  0.2269
 3279SOL     OW21295   0.138   2.439   6.910 -0.6563  0.4387  0.1817
 3279SOL    HW121296   0.120   2.458   6.818  0.1942 -0.0636 -0.0899
 3279SOL    HW221297   0.233   2.427   6.907 -0.6829 -0.0430  1.5365
 3280SOL     OW21298   1.850   2.088  17.411 -0.2646  0.3505  0.3393
 3280SOL    HW121299   1.909   2.143  17.463  0.3169  0.6823 -0.6750
 3280SOL    HW221300   1.789   2.150  17.374 -3.4434 -3.3369 -0.6102
 3281SOL     OW21301   2.786   0.843   9.086  0.4864 -0.2238 -1.0069
 3281SOL    HW121302   2.715   0.857   9.023 -0.5192  1.1917  0.4847
 3281SOL    HW221303   2.814   0.754   9.063 -0.4636 -0.2913 -1.9338
 3282SOL     OW21304   2.947   1.180   4.673 -0.1014 -0.5258  0.2979
 3282SOL    HW121305   2.899   1.122   4.614  0.4652  0.3161 -1.0033
 3282SOL    HW221306   3.035   1.143   4.659 -1.6102 -3.8391 -0.5656
 3283SOL     OW21307   3.107   3.104   5.618  0.0865  0.0650 -0.3671
 3283SOL    HW121308   3.116   3.008   5.623 -2.6397 -0.1303  0.4989
 3283SOL    HW221309   3.176   3.122   5.683  1.1074  0.4425 -1.5552
 3284SOL     OW21310   4.645   1.144  10.347  0.0723 -0.4339  0.6390
 3284SOL    HW121311   4.574   1.148  10.411 -0.2190 -0.8801  0.3518
 3284SOL    HW221312   0.006   1.149  10.390  0.2598 -0.4738  0.2782
 3285SOL     OW21313   3.652   3.470   6.813  0.3363 -0.3081 -0.1682
 3285SOL    HW121314   3.671   3.383   6.847  0.8615 -0.1554 -0.0690
 3285SOL    HW221315   3.703   3.530   6.867  2.5947 -0.7466 -1.8137
 3286SOL     OW21316   2.786   1.421   1.609  0.2395 -0.2863  0.4407
 3286SOL    HW121317   2.816   1.346   1.660  1.6546 -0.2695 -0.3721
 3286SOL    HW221318   2.730   1.378   1.544 -0.0333  1.2786 -0.3880
 3287SOL     OW21319   3.876   2.077   7.905 -0.0778 -0.3172 -0.1219
 3287SOL    HW121320   3.879   2.091   7.810 -1.3355  1.6322  0.1346
 3287SOL    HW221321   3.968   2.087   7.928  0.3943 -2.3465 -1.0664
 3288SOL     OW21322   3.797   3.477  12.285 -0.3424 -0.8916 -0.2647
 3288SOL    HW121323   3.876   3.474  12.340 -0.9591 -1.4431  0.5794
 3288SOL    HW221324   3.742   3.536  12.335  0.3608 -0.5726  0.1276
 3289SOL     OW21325   0.370   3.808   6.749  0.1149 -0.0293 -0.1648
 3289SOL    HW121326   0.304   3.849   6.693 -0.5364 -1.6896 -0.6085
 3289SOL    HW221327   0.389   3.871   6.818 -0.8637 -0.2667  0.3203
 3290SOL     OW21328   1.315   4.350   9.173 -0.7576 -0.4351 -0.6543
 3290SOL    HW121329   1.340   4.438   9.201 -0.3292 -1.0326  0.8581
 3290SOL    HW221330   1.224   4.342   9.204  0.3736  1.5441  3.1826
 3291SOL     OW21331   1.697   0.122   5.235  0.2410  0.0537 -0.1104
 3291SOL    HW121332   1.634   0.081   5.295  0.4638 -0.4173 -0.1968
 3291SOL    HW221333   1.733   0.049   5.184 -0.8509  0.2561 -1.1733
 3292SOL     OW21334   2.129   0.003  13.199 -0.4736  0.2627  0.3006
 3292SOL    HW121335   2.142   0.003  13.104  0.1633 -0.4641  0.3877
 3292SOL    HW221336   2.118   0.096  13.216  3.3824  1.5539 -4.1527
 3293SOL     OW21337   4.183   0.510  14.815  0.2719  0.5399  0.2195
 3293SOL    HW121338   4.160   0.588  14.865 -0.9256  0.9779 -1.0196
 3293SOL    HW221339   4.278   0.508  14.827  0.3111 -0.1265 -0.1628
 3294SOL     OW21340   0.649   4.705   6.713  0.7583  0.7086 -0.9895
 3294SOL    HW121341   0.726   0.003   6.765  1.0933 -2.8204 -0.0044
 3294SOL    HW221342   0.664   0.005   6.622 -3.1016  1.1361 -1.4950
 3295SOL     OW21343   1.401   3.508   3.622 -0.0137  0.4556 -0.4969
 3295SOL    HW121344   1.420   3.468   3.706 -0.7100 -1.8923 -1.4715
 3295SOL    HW221345   1.352   3.587   3.646  1.3181  0.6046  1.6580
 3296SOL     OW21346   1.772   3.543   2.991  0.0811  0.4563  0.5939
 3296SOL    HW121347   1.837   3.597   2.947 -1.9562  0.9043 -1.8506
 3296SOL    HW221348   1.700   3.563   2.931 -0.7406 -1.4646  0.9409
 3297SOL     OW21349   3.722   1.084   3.558  0.0561 -0.1169 -0.4609
 3297SOL    HW121350   3.663   1.130   3.498 -1.4099  1.5594  2.2781
 3297SOL    HW221351   3.799   1.082   3.501  0.2663  2.0611 -0.2295
 3298SOL     OW21352   4.238   4.464  10.933 -0.4258  0.2250 -0.4005
 3298SOL    HW121353   4.320   4.415  10.922 -1.7073 -1.4813 -2.2841
 3298SOL    HW221354   4.254   4.530  10.866 -0.8175  1.8368  1.0793
 3299SOL     OW21355   2.333   3.762   3.581  0.3954  0.2057 -0.4364
 3299SOL    HW121356   2.312   3.673   3.608  0.6298  0.6703  1.2655
 3299SOL    HW221357   2.424   3.747   3.556  0.2063 -2.1763  0.2905
 3300SOL     OW21358   0.759   3.584  11.666 -0.0594 -0.3420  0.3649
 3300SOL    HW121359   0.802   3.524  11.727 -0.9213 -0.8564  0.4721
 3300SOL    HW221360   0.701   3.630  11.727  1.6599 -1.4733  2.8753
 3301SOL     OW21361   2.569   3.350   3.563  0.4995 -0.4326  0.3028
 3301SOL    HW121362   2.551   3.273   3.617  0.5706 -1.0709 -0.5881
 3301SOL    HW221363   2.582   3.303   3.480  0.3978  0.7989 -0.4099
 3302SOL     OW21364   1.154   3.673  17.088 -0.6179  0.2844 -0.4578
 3302SOL    HW121365   1.137   3.764  17.065 -0.1048 -0.1488 -2.6249
 3302SOL    HW221366   1.238   3.652  17.046 -0.0277 -3.6235  2.6597
 3303SOL     OW21367   4.062   0.606   8.143 -0.0200 -0.7542 -0.1733
 3303SOL    HW121368   4.125   0.637   8.079  2.6852 -1.3335  2.1933
 3303SOL    HW221369   4.009   0.684   8.159  0.2859 -0.8413  1.3229
 3304SOL     OW21370   2.106   4.251   2.507  0.5318 -0.2154  0.5233
 3304SOL    HW121371   2.097   4.331   2.454 -0.0534 -1.2028 -0.8900
 3304SOL    HW221372   2.184   4.211   2.468  0.6789  0.6666 -0.0960
 3305SOL     OW21373   4.701   0.594   8.681  0.0331  0.0055  0.0972
 3305SOL    HW121374   4.693   0.605   8.776  1.3264  0.1426  0.1874
 3305SOL    HW221375   0.035   0.667   8.660  1.5325 -1.2739 -0.1669
 3306SOL     OW21376   2.622   3.245  12.187  0.1269  0.0868 -0.4077
 3306SOL    HW121377   2.654   3.155  12.179 -0.4930 -0.2240  0.5071
 3306SOL    HW221378   2.546   3.251  12.128  0.1812 -0.2577 -0.5113
 3307SOL     OW21379   2.927   1.825   2.443 -0.8444  0.0803  0.2022
 3307SOL    HW121380   2.994   1.873   2.394 -1.6070 -0.5948 -1.5019
 3307SOL    HW221381   2.845   1.853   2.401  0.0621  2.2289 -0.1915
 3308SOL     OW21382   1.702   2.724  13.887 -0.8770  0.0389  0.0465
 3308SOL    HW121383   1.747   2.761  13.963 -2.4592 -0.1942  1.0898
 3308SOL    HW221384   1.662   2.802  13.849 -0.1404  0.9800  1.2037
 3309SOL     OW21385   3.189   1.475   3.720 -0.5061  0.0504  0.2601
 3309SOL    HW121386   3.207   1.562   3.684  0.2845  0.4379  1.5720
 3309SOL    HW221387   3.278   1.439   3.726 -0.1034  1.1636  0.9102
 3310SOL     OW21388   0.524   1.904  16.735  0.1273 -0.1989  0.2857
 3310SOL    HW121389   0.498   1.836  16.673  0.4896 -1.0307  1.0377
 3310SOL    HW221390   0.456   1.900  16.802 -0.1132 -0.8854  0.0059
 3311SOL     OW21391   3.235   0.079   7.053 -0.6054 -0.3692 -0.0014
 3311SOL    HW121392   3.172   0.032   7.108  0.4621 -0.7838  0.8499
 3311SOL    HW221393   3.209   0.170   7.069 -1.7069 -1.5025  4.5261
 3312SOL     OW21394   0.532   3.190  11.738 -0.0719  0.0761  0.5697
 3312SOL    HW121395   0.559   3.150  11.821  0.4162  0.1476  0.4425
 3312SOL    HW221396   0.463   3.126  11.719  0.0073  0.0827  0.2684
 3313SOL     OW21397   3.373   4.505   4.589  0.3202  0.2348 -0.0513
 3313SOL    HW121398   3.343   4.503   4.498  1.9728 -0.6453 -0.5851
 3313SOL    HW221399   3.292   4.517   4.637 -0.1091 -2.7766 -0.0514
 3314SOL     OW21400   3.639   2.971   6.792  0.3089 -0.6135  0.1303
 3314SOL    HW121401   3.568   2.984   6.855 -0.3452 -0.5515 -0.6325
 3314SOL    HW221402   3.709   2.919   6.832  0.0373  0.7631  2.4221
 3315SOL     OW21403   4.556   4.652  11.544 -0.1571  0.2474 -0.3862
 3315SOL    HW121404   4.502   4.720  11.586  1.2461 -0.2884  2.3250
 3315SOL    HW221405   4.601   4.603  11.613 -2.7773 -1.5148  0.0429
 3316SOL     OW21406   0.324   0.212   6.791 -0.3720  0.6002  0.1652
 3316SOL    HW121407   0.353   0.159   6.717  0.1249 -0.5422  1.1926
 3316SOL    HW221408   0.243   0.180   6.829 -0.4321 -0.4961 -0.8835
 3317SOL     OW21409   0.917   1.379   7.352 -0.3726 -0.2734 -0.1373
 3317SOL    HW121410   0.998   1.361   7.401  1.0660 -0.9880 -2.7678
 3317SOL    HW221411   0.870   1.295   7.350 -3.7630  1.6296 -0.2057
 3318SOL     OW21412   4.323   4.182  16.805  0.0890 -0.3227  0.1281
 3318SOL    HW121413   4.414   4.182  16.834  0.0611  0.2179  0.2248
 3318SOL    HW221414   4.277   4.215  16.882  1.0817 -0.9819  1.0016
 3319SOL     OW21415   2.253   1.827   0.510  0.0931 -0.2786  0.6482
 3319SOL    HW121416   2.324   1.765   0.527  0.5862  0.3122  0.7071
 3319SOL    HW221417   2.254   1.823   0.414  0.4386  2.3094  0.5635
 3320SOL     OW21418   2.364   1.054   9.074  0.4497 -0.1101 -0.3800
 3320SOL    HW121419   2.383   1.146   9.096 -0.5871  0.0333 -0.0616
 3320SOL    HW221420   2.345   1.022   9.163  0.8039  1.6777  0.3569
 3321SOL     OW21421   0.329   1.925   3.212 -0.1525  0.3068  0.5481
 3321SOL    HW121422   0.401   1.944   3.272 -1.4769  0.1445  2.1802
 3321SOL    HW221423   0.376   1.852   3.172  0.1569 -0.6846  2.7032
 3322SOL     OW21424   0.115   3.020   3.489  0.0872 -0.4953  0.3296
 3322SOL    HW121425   0.088   2.977   3.570 -0.6487  0.9839  0.8757
 3322SOL    HW221426   0.209   3.031   3.504  0.3241 -1.7793 -0.2148
 3323SOL     OW21427   0.851   3.789  13.542  0.0808  0.1965  0.5361
 3323SOL    HW121428   0.841   3.718  13.479 -2.0676 -0.2797  1.3991
 3323SOL    HW221429   0.820   3.751  13.624  0.5061  0.9554  1.0563
 3324SOL     OW21430   3.137   1.649  15.719  0.2540  0.2199 -0.4637
 3324SOL    HW121431   3.157   1.637  15.626  1.1971  1.1316 -0.3830
 3324SOL    HW221432   3.218   1.633  15.767  0.9886  1.6820 -1.1860
 3325SOL     OW21433   2.612   2.722   0.741 -0.3013 -0.6942  0.7384
 3325SOL    HW121434   2.519   2.741   0.725  0.3455  1.9949  0.2370
 3325SOL    HW221435   2.643   2.809   0.718  2.1546 -2.2556 -1.7662
 3326SOL     OW21436   4.573   0.563   2.559  0.4257  0.2817 -0.6662
 3326SOL    HW121437   4.657   0.516   2.564  0.2981  0.0420 -0.7737
 3326SOL    HW221438   4.530   0.499   2.502 -1.4253  1.6526 -0.8006
 3327SOL     OW21439   4.204   0.635   7.893  0.2241  0.1093 -0.1001
 3327SOL    HW121440   4.151   0.573   7.843  0.6752 -1.1258  0.9649
 3327SOL    HW221441   4.268   0.574   7.929 -0.1831 -1.8771 -2.7782
 3328SOL     OW21442   3.125   3.210  10.924  0.0310 -0.6342  0.1725
 3328SOL    HW121443   3.131   3.303  10.946 -0.7539 -0.4017 -0.5581
 3328SOL    HW221444   3.081   3.200  10.839  0.3148 -0.0413 -0.0434
 3329SOL     OW21445   4.036   4.604  13.114  0.1566  0.2353  0.1058
 3329SOL    HW121446   4.113   4.564  13.074 -1.6624 -0.4928 -2.6867
 3329SOL    HW221447   4.020   4.544  13.187  0.8163  0.4380  0.4177
 3330SOL     OW21448   2.114   3.002  13.055 -0.3446  0.3729 -0.3795
 3330SOL    HW121449   2.167   3.075  13.024 -1.7296  0.2372 -3.0094
 3330SOL    HW221450   2.065   2.975  12.978  0.1423  0.0061 -0.5576
 3331SOL     OW21451   3.248   3.805   3.956  0.4543  0.1875  0.2035
 3331SOL    HW121452   3.296   3.877   3.915 -0.1552  0.7300  0.4467
 3331SOL    HW221453   3.221   3.750   3.883  1.4522  1.6825 -1.2870
 3332SOL     OW21454   3.414   1.615   4.548 -0.6347 -0.5736 -0.1831
 3332SOL    HW121455   3.386   1.620   4.457 -2.0492 -2.6007  0.1263
 3332SOL    HW221456   3.364   1.691   4.577  1.2079  0.8491 -0.7580
 3333SOL     OW21457   4.054   4.714   2.828  0.4870 -0.1304  0.2341
 3333SOL    HW121458   3.986   4.647   2.830  0.2017  0.0747 -2.2780
 3333SOL    HW221459   4.065   0.025   2.740  0.4898 -1.2668 -0.2291
 3334SOL     OW21460   2.871   3.211   5.769  0.2350 -0.5286  0.8876
 3334SOL    HW121461   2.814   3.287   5.779  4.1088  2.5342 -0.0347
 3334SOL    HW221462   2.808   3.139   5.766  1.5537 -1.7498  2.5022
 3335SOL     OW21463   0.820   1.212   8.030  0.7346  0.3311 -0.1019
 3335SOL    HW121464   0.865   1.153   7.969  0.9204  2.2848 -1.8545
 3335SOL    HW221465   0.868   1.295   8.030  3.4537 -1.2581  0.6832
 3336SOL     OW21466   2.693   0.457  16.956  0.2122 -0.2552  0.0514
 3336SOL    HW121467   2.697   0.392  17.027  0.9200 -1.1924 -0.8375
 3336SOL    HW221468   2.610   0.499  16.978  0.2755 -1.1244  2.0102
 3337SOL     OW21469   3.549   3.486   2.395 -0.0390  0.1894  0.5083
 3337SOL    HW121470   3.635   3.450   2.416 -0.0524 -0.0979  0.0660
 3337SOL    HW221471   3.510   3.400   2.384  1.4771 -0.0754 -2.6572
 3338SOL     OW21472   2.753   0.614   6.280 -0.4226 -0.7298  0.3512
 3338SOL    HW121473   2.766   0.675   6.353 -0.1406  0.9729 -1.1246
 3338SOL    HW221474   2.716   0.680   6.222  1.5553  0.1404  0.1104
 3339SOL     OW21475   4.373   3.605   1.755 -0.0180 -0.1140  0.1881
 3339SOL    HW121476   4.412   3.617   1.668 -0.9374  0.3915 -0.1554
 3339SOL    HW221477   4.342   3.693   1.777 -0.9182  0.3941 -3.1048
 3340SOL     OW21478   3.020   1.656   5.250  0.7563  0.5165 -0.2643
 3340SOL    HW121479   2.994   1.736   5.295 -0.3587  0.3397 -0.5900
 3340SOL    HW221480   3.108   1.645   5.286 -0.1465 -2.0258  1.2082
 3341SOL     OW21481   0.344   2.946  15.628  0.4569  0.2102  0.3390
 3341SOL    HW121482   0.403   2.880  15.665  1.4267 -0.1263 -1.8075
 3341SOL    HW221483   0.328   2.908  15.541  1.4456  1.4395 -0.3803
 3342SOL     OW21484   4.042   3.457  14.551  0.0610 -0.2926  0.1077
 3342SOL    HW121485   4.123   3.507  14.564  0.5867 -0.5494 -2.2513
 3342SOL    HW221486   3.987   3.488  14.623 -1.1009 -1.1813 -0.4044
 3343SOL     OW21487   1.922   0.277   2.735 -0.5580 -0.2553 -0.0069
 3343SOL    HW121488   1.829   0.273   2.716 -0.6650  0.4340  0.3715
 3343SOL    HW221489   1.956   0.239   2.653  4.7809 -0.3511  2.2614
 3344SOL     OW21490   4.190   4.160   1.721 -1.0722  0.0575  0.4378
 3344SOL    HW121491   4.149   4.192   1.801 -2.6427  3.3816 -1.6774
 3344SOL    HW221492   4.201   4.236   1.663 -0.5853  0.3464  0.9076
 3345SOL     OW21493   2.137   0.725  11.798  0.3594  0.7190  0.5848
 3345SOL    HW121494   2.141   0.761  11.887 -2.0069  0.3937  0.8204
 3345SOL    HW221495   2.136   0.636  11.831  1.3600  0.8860  1.0668
 3346SOL     OW21496   2.054   3.315   5.227  0.3009 -0.4267 -0.7019
 3346SOL    HW121497   2.066   3.385   5.292 -0.3559 -1.7888  0.8930
 3346SOL    HW221498   1.973   3.346   5.187 -1.0418 -0.9211  1.5973
 3347SOL     OW21499   4.145   2.623  12.866 -0.1438 -0.4871  0.6011
 3347SOL    HW121500   4.177   2.539  12.834  2.6206  0.8231 -0.1079
 3347SOL    HW221501   4.118   2.654  12.780  2.7371 -3.5117 -1.4116
 3348SOL     OW21502   0.838   3.977   3.637  0.1521 -0.0636 -0.2622
 3348SOL    HW121503   0.906   4.033   3.599 -2.0911  1.4606 -1.9704
 3348SOL    HW221504   0.777   3.966   3.564  0.9323 -0.0949 -0.9105
 3349SOL     OW21505   3.883   0.866   6.999  0.7216  0.0143 -0.2716
 3349SOL    HW121506   3.944   0.809   7.046 -1.2892 -1.6289  0.3462
 3349SOL    HW221507   3.866   0.943   7.053 -0.6016 -1.3198  1.1936
 3350SOL     OW21508   1.149   4.679  16.324 -0.0985 -0.3435 -0.3344
 3350SOL    HW121509   1.173   4.637  16.406  0.8027  0.6102 -0.1085
 3350SOL    HW221510   1.208   4.634  16.264  0.9905  2.7746 -1.6026
 3351SOL     OW21511   2.245   4.417  10.342 -0.6676  1.3085 -0.3480
 3351SOL    HW121512   2.330   4.373  10.348 -0.1869  2.5364  1.6625
 3351SOL    HW221513   2.247   4.443  10.250  1.6978  0.1383 -0.6434
 3352SOL     OW21514   3.900   4.506  17.446 -0.3367  0.2181 -0.2430
 3352SOL    HW121515   3.918   4.480  17.537  0.1357 -0.2012 -0.4555
 3352SOL    HW221516   3.861   4.591  17.465  2.4345  0.7993  2.9294
 3353SOL     OW21517   1.595   4.571   7.836 -0.2558 -0.5020 -0.4155
 3353SOL    HW121518   1.650   4.493   7.828 -0.7699 -0.6674 -2.2977
 3353SOL    HW221519   1.596   4.572   7.932 -0.3745 -0.0884 -0.4181
 3354SOL     OW21520   3.722   1.425   8.865  0.1007 -0.2399 -0.0886
 3354SOL    HW121521   3.626   1.428   8.870  0.0702 -1.0842 -0.1743
 3354SOL    HW221522   3.744   1.516   8.881 -2.7701  0.1440  1.7436
 3355SOL     OW21523   3.723   2.327   2.865 -0.6901  0.7236  0.5027
 3355SOL    HW121524   3.664   2.367   2.802  1.1114  1.1264 -0.9231
 3355SOL    HW221525   3.797   2.310   2.807  1.0502  0.0272  2.9013
 3356SOL     OW21526   1.779   4.189   5.155 -0.2923 -0.0966  0.6359
 3356SOL    HW121527   1.818   4.183   5.242 -2.2353  1.2779  1.5968
 3356SOL    HW221528   1.863   4.190   5.110 -1.7499  1.7150 -2.0682
 3357SOL     OW21529   4.613   4.045   6.699 -0.2152 -0.3027  0.9098
 3357SOL    HW121530   4.630   3.993   6.778  1.2306 -0.2396  0.6423
 3357SOL    HW221531   4.587   4.126   6.742 -2.3561 -1.1661  1.2205
 3358SOL     OW21532   4.059   3.452   9.936 -0.5516  0.0856  0.0454
 3358SOL    HW121533   4.045   3.416   9.848  0.5189 -0.7827  0.2277
 3358SOL    HW221534   4.007   3.531   9.943  0.1356  0.4216  1.3027
 3359SOL     OW21535   0.741   0.252   9.293  0.0533 -0.0364 -0.1771
 3359SOL    HW121536   0.742   0.211   9.207  0.9833  1.2017 -0.7512
 3359SOL    HW221537   0.683   0.187   9.334  1.9270 -1.5089  0.1277
 3360SOL     OW21538   0.726   2.200   3.543  0.6784  0.1401  0.2147
 3360SOL    HW121539   0.752   2.109   3.529 -2.3145 -0.5549 -0.7392
 3360SOL    HW221540   0.729   2.223   3.450 -2.2530 -0.4223 -0.0090
 3361SOL     OW21541   1.893   1.063   8.202 -0.0694  0.3393  0.0799
 3361SOL    HW121542   1.974   1.059   8.253 -0.5205 -1.9410  0.6364
 3361SOL    HW221543   1.910   0.992   8.140 -0.8178 -0.4243  0.7459
 3362SOL     OW21544   4.092   4.544   6.550  0.4568 -0.0194 -0.3335
 3362SOL    HW121545   4.103   4.511   6.639  1.6604  0.9690 -0.1205
 3362SOL    HW221546   4.172   4.522   6.504 -0.4480 -0.3413 -1.7477
 3363SOL     OW21547   3.709   1.797   5.854  0.1868  0.4144 -0.6683
 3363SOL    HW121548   3.798   1.828   5.873  0.0625 -0.1902  0.9731
 3363SOL    HW221549   3.684   1.823   5.766 -1.5193  2.0298  0.2825
 3364SOL     OW21550   4.436   0.936   2.533  0.8044 -0.0873 -0.2060
 3364SOL    HW121551   4.423   0.855   2.483  1.3599  0.0924 -0.6457
 3364SOL    HW221552   4.375   0.988   2.480  1.3338  2.6815  1.8984
 3365SOL     OW21553   2.211   0.242   7.857 -0.1976  0.0748 -0.7304
 3365SOL    HW121554   2.292   0.194   7.876 -0.4273 -0.6997 -1.7286
 3365SOL    HW221555   2.156   0.197   7.920 -2.1226  2.3207 -0.8161
 3366SOL     OW21556   1.758   3.926   2.471 -0.1547  0.7730  0.8849
 3366SOL    HW121557   1.751   4.020   2.456 -0.0545  0.5051 -0.8714
 3366SOL    HW221558   1.847   3.919   2.505  0.3841  0.5282 -0.5803
 3367SOL     OW21559   3.318   0.340   3.681 -0.0653  0.0230  0.4859
 3367SOL    HW121560   3.282   0.255   3.704 -1.4813  0.8581  1.3707
 3367SOL    HW221561   3.242   0.383   3.641  0.9095  0.5638 -0.7959
 3368SOL     OW21562   1.104   4.525   4.815  0.3503  0.0250 -0.0642
 3368SOL    HW121563   1.162   4.462   4.858 -0.3609  1.4640  3.0805
 3368SOL    HW221564   1.148   4.608   4.795 -0.8192  1.1793  2.0614
 3369SOL     OW21565   3.659   3.848   8.994 -0.6732 -0.4999  0.0226
 3369SOL    HW121566   3.587   3.785   8.987 -0.9626 -0.2274  0.5205
 3369SOL    HW221567   3.638   3.917   8.932  0.9125  1.4019  1.5738
 3370SOL     OW21568   2.270   3.455   6.903 -0.5406 -0.1564 -0.1332
 3370SOL    HW121569   2.249   3.520   6.971 -0.2830 -0.3147  0.1002
 3370SOL    HW221570   2.239   3.502   6.826 -2.4037  0.9146  1.2782
 3371SOL     OW21571   3.102   0.993   8.334  0.4185 -0.3102  0.5151
 3371SOL    HW121572   3.041   1.040   8.391  1.1230  1.6457 -0.3852
 3371SOL    HW221573   3.064   0.987   8.247  0.7520 -0.0507  0.3538
 3372SOL     OW21574   0.552   3.801   8.036 -0.0365  0.3670 -0.1447
 3372SOL    HW121575   0.640   3.774   8.010 -0.0308 -0.0725  0.3292
 3372SOL    HW221576   0.552   3.816   8.131 -1.1659  1.9988 -0.4151
 3373SOL     OW21577   1.766   3.593  11.274  0.4143  0.0666 -0.3579
 3373SOL    HW121578   1.809   3.614  11.191  0.4393  1.3035 -0.0365
 3373SOL    HW221579   1.841   3.588  11.333  0.5283  0.8923 -0.4326
 3374SOL     OW21580   3.441   4.109   7.268 -0.0709 -0.2343  0.1884
 3374SOL    HW121581   3.491   4.048   7.214 -1.8395 -1.8593  0.4058
 3374SOL    HW221582   3.394   4.153   7.198  1.5518  3.3584  1.3388
 3375SOL     OW21583   3.741   0.850   4.240 -0.1454  0.0910 -0.3993
 3375SOL    HW121584   3.749   0.912   4.168  0.6363  1.2299  0.6764
 3375SOL    HW221585   3.806   0.885   4.301  0.2038  2.4104 -2.1174
 3376SOL     OW21586   2.935   4.253   6.073  0.3632  0.4761  0.3741
 3376SOL    HW121587   2.860   4.293   6.116 -0.4222 -0.1365 -0.4233
 3376SOL    HW221588   2.987   4.223   6.148  1.6528  2.5866  0.3046
 3377SOL     OW21589   0.442   4.461   0.954  0.1142 -0.4961 -0.2187
 3377SOL    HW121590   0.479   4.419   0.877  1.1094 -1.0178  0.5552
 3377SOL    HW221591   0.438   4.555   0.937  1.7898 -0.4411 -0.3141
 3378SOL     OW21592   2.182   4.432   9.005  0.2554 -0.1986  0.0213
 3378SOL    HW121593   2.134   4.502   8.961 -1.2654 -0.7023  0.8796
 3378SOL    HW221594   2.186   4.364   8.937 -1.6902 -0.2816 -0.0275
 3379SOL     OW21595   1.626   4.188   0.385 -0.6362  1.1220  0.1434
 3379SOL    HW121596   1.668   4.118   0.335 -2.7548 -0.1146  0.0790
 3379SOL    HW221597   1.699   4.216   0.439  1.9123 -1.1168 -2.1606
 3380SOL     OW21598   4.277   3.082  11.582  0.0962  0.4824  0.8213
 3380SOL    HW121599   4.321   2.999  11.603  0.6882  1.1773  2.3326
 3380SOL    HW221600   4.252   3.058  11.493  1.8666 -0.4825  0.5882
 3381SOL     OW21601   3.141   0.704  15.957 -0.3533  0.3012  0.2119
 3381SOL    HW121602   3.136   0.793  15.922  2.6365  1.6290  3.1057
 3381SOL    HW221603   3.204   0.668  15.895  0.7909 -1.7631  2.5875
 3382SOL     OW21604   1.595   4.020   5.471 -0.0413  0.6697  0.4476
 3382SOL    HW121605   1.530   4.086   5.445 -1.9699 -0.7095  1.7601
 3382SOL    HW221606   1.562   3.937   5.435  1.1313 -0.1929  1.3589
 3383SOL     OW21607   0.399   1.869  10.841  0.2195 -0.8967 -0.2302
 3383SOL    HW121608   0.492   1.891  10.840 -0.0338  0.1924  0.6119
 3383SOL    HW221609   0.384   1.790  10.893  0.2582 -0.8316 -0.1217
 3384SOL     OW21610   2.236   2.983  15.717 -0.3716 -0.8067 -0.5554
 3384SOL    HW121611   2.295   2.914  15.688  1.2847 -0.5174  2.0615
 3384SOL    HW221612   2.162   2.986  15.657 -0.7100  1.7980 -0.0408
 3385SOL     OW21613   4.226   0.308  17.438 -0.1790 -0.6075  0.1249
 3385SOL    HW121614   4.279   0.341  17.365 -0.9236  0.5651  0.1161
 3385SOL    HW221615   4.270   0.230  17.472 -2.0804 -1.9039 -0.3858
 3386SOL     OW21616   1.172   0.805  16.727 -0.1668 -0.2637 -0.4443
 3386SOL    HW121617   1.180   0.710  16.728  1.0206 -0.1793 -1.0995
 3386SOL    HW221618   1.262   0.821  16.755  0.1365  1.5549 -2.4017
 3387SOL     OW21619   4.332   3.955  16.407  0.0066 -0.1608  0.8069
 3387SOL    HW121620   4.286   3.971  16.489 -2.2715 -0.2812 -0.4687
 3387SOL    HW221621   4.393   3.885  16.430  0.6270  0.0843 -0.0973
 3388SOL     OW21622   3.939   4.226  14.130 -0.3285  0.0849 -0.0188
 3388SOL    HW121623   3.962   4.187  14.215 -1.1003 -1.2618 -0.4257
 3388SOL    HW221624   3.920   4.317  14.154  2.2922  1.1515 -2.0016
 3389SOL     OW21625   1.513   2.210   2.057 -0.0897 -0.1883  0.3331
 3389SOL    HW121626   1.513   2.306   2.053  2.3376 -0.1277  1.4885
 3389SOL    HW221627   1.440   2.193   2.116 -0.7643  2.6273  0.3079
 3390SOL     OW21628   4.216   1.327   9.041  0.0362  0.3856 -0.1921
 3390SOL    HW121629   4.231   1.421   9.055  0.5296  0.0519  1.5718
 3390SOL    HW221630   4.203   1.321   8.947 -0.8646  2.8165 -0.2336
 3391SOL     OW21631   4.618   2.221   4.226  0.0308 -0.0030  0.1587
 3391SOL    HW121632   4.585   2.139   4.262  1.6575 -0.3596  0.8371
 3391SOL    HW221633   4.684   2.185   4.167 -0.7539  0.0174 -0.7361
 3392SOL     OW21634   3.213   0.385  14.131  1.0320  0.1985  0.6225
 3392SOL    HW121635   3.290   0.342  14.168 -0.9643 -3.1241  0.8889
 3392SOL    HW221636   3.166   0.407  14.211 -0.3823 -1.7981  0.3375
 3393SOL     OW21637   1.698   3.348   4.735 -0.7238  0.3874  0.8979
 3393SOL    HW121638   1.735   3.399   4.662 -0.0050  2.1270  2.4898
 3393SOL    HW221639   1.625   3.404   4.763 -2.1500 -1.8776  1.7277
 3394SOL     OW21640   1.406   4.658   6.480  0.7489  0.6424  0.3983
 3394SOL    HW121641   1.318   4.690   6.499  0.0827 -1.7515  1.3498
 3394SOL    HW221642   1.377   4.595   6.415 -0.4620 -0.2539  1.7900
 3395SOL     OW21643   3.934   2.313  10.253 -0.4672  0.2337 -0.2981
 3395SOL    HW121644   3.993   2.345  10.184  3.0879 -2.5850  1.4151
 3395SOL    HW221645   3.867   2.381  10.250 -0.8634 -0.2175 -1.9154
 3396SOL     OW21646   4.673   4.687   1.254  0.5221 -0.6148  0.3299
 3396SOL    HW121647   0.010   4.658   1.187  0.8857  2.1765 -0.5520
 3396SOL    HW221648   4.590   4.700   1.208 -0.7716  1.8685  3.3174
 3397SOL     OW21649   4.259   0.936  10.470  0.3336 -0.0135  0.4777
 3397SOL    HW121650   4.259   0.879  10.546  0.2253  0.0252  0.5070
 3397SOL    HW221651   4.231   0.870  10.406  0.3292  0.9890 -0.5694
 3398SOL     OW21652   3.422   3.330   8.993 -0.4181  0.0780  0.4828
 3398SOL    HW121653   3.363   3.334   9.069  0.8783 -0.5896  1.5097
 3398SOL    HW221654   3.354   3.330   8.925  2.0038 -0.2165 -1.9147
 3399SOL     OW21655   3.703   2.585   9.319 -0.3178  0.2461 -0.0333
 3399SOL    HW121656   3.707   2.668   9.272 -0.6651 -0.3142 -1.0648
 3399SOL    HW221657   3.794   2.557   9.320 -0.4540 -0.2185 -0.9820
 3400SOL     OW21658   3.679   1.274   5.351  0.4912 -0.0851 -0.1223
 3400SOL    HW121659   3.697   1.352   5.405 -0.4711 -1.1175  1.7029
 3400SOL    HW221660   3.584   1.279   5.358  0.5329  0.8871 -0.2048
 3401SOL     OW21661   3.447   0.553   1.126  0.5424 -0.2201 -0.7995
 3401SOL    HW121662   3.418   0.513   1.044  0.8608 -0.3760 -0.8329
 3401SOL    HW221663   3.381   0.520   1.187 -0.4926  0.6544 -1.4308
 3402SOL     OW21664   3.559   0.742   2.564 -0.4703 -0.1386 -0.2124
 3402SOL    HW121665   3.617   0.720   2.492  0.8582  0.7943  0.5697
 3402SOL    HW221666   3.617   0.722   2.638 -0.4332  0.9944  0.0602
 3403SOL     OW21667   3.870   4.356   8.663  0.2212 -0.7641 -0.3897
 3403SOL    HW121668   3.791   4.406   8.646  1.0043  1.2596  1.9356
 3403SOL    HW221669   3.832   4.316   8.741  1.0133  1.4518  1.1228
 3404SOL     OW21670   1.772   3.525  11.557 -0.8528  0.1318 -0.0223
 3404SOL    HW121671   1.856   3.551  11.519  0.1012 -0.2672  1.8021
 3404SOL    HW221672   1.788   3.436  11.590  0.7538  1.2732  2.3179
 3405SOL     OW21673   1.921   2.135   6.464  0.4969  0.3877 -0.3093
 3405SOL    HW121674   1.928   2.208   6.526  0.5280  0.8327 -0.8304
 3405SOL    HW221675   2.010   2.099   6.470  0.3034 -0.1153 -0.4460
 3406SOL     OW21676   0.263   2.493   2.363  0.3352  0.3201  0.2501
 3406SOL    HW121677   0.259   2.417   2.306  0.0580  0.6487 -0.1657
 3406SOL    HW221678   0.202   2.556   2.324  1.1302  1.5637  1.0173
 3407SOL     OW21679   2.660   2.047   3.396  0.3179 -0.5497  0.1459
 3407SOL    HW121680   2.623   2.136   3.392  0.1480 -0.6949 -1.4565
 3407SOL    HW221681   2.739   2.052   3.343  0.3185  1.2813  0.3012
 3408SOL     OW21682   0.576   1.900   4.213  0.4748 -0.2043 -0.4116
 3408SOL    HW121683   0.544   1.834   4.151 -0.0191 -0.3406 -0.0070
 3408SOL    HW221684   0.632   1.950   4.153  0.2777  0.9614  0.3763
 3409SOL     OW21685   3.254   1.348   6.422  0.3129 -0.3047  0.2646
 3409SOL    HW121686   3.217   1.318   6.505  1.1141 -0.1071  0.7023
 3409SOL    HW221687   3.336   1.370   6.467 -0.4680  3.9380 -0.4019
 3410SOL     OW21688   2.684   4.603   4.017  0.3862  0.0556 -0.6538
 3410SOL    HW121689   2.729   4.546   4.079  1.0444  0.3096 -0.8974
 3410SOL    HW221690   2.674   4.549   3.938  1.8374 -1.3815  0.1536
 3411SOL     OW21691   1.149   0.551  12.976 -0.7467  0.0063  0.0907
 3411SOL    HW121692   1.141   0.634  13.023 -1.1321  0.0921 -0.1226
 3411SOL    HW221693   1.242   0.528  12.972 -0.5447  0.9686 -0.8847
 3412SOL     OW21694   0.803   2.021   6.358  0.1702 -0.0559 -0.2123
 3412SOL    HW121695   0.856   1.971   6.420  0.4370  1.3678  0.7216
 3412SOL    HW221696   0.776   1.958   6.292  2.1268 -1.2689  0.1678
 3413SOL     OW21697   4.356   0.746  17.033 -0.4496  0.2411  0.4733
 3413SOL    HW121698   4.407   0.711  17.106  2.1365  2.2662 -0.3358
 3413SOL    HW221699   4.277   0.695  17.051  0.9477 -1.3126  2.2155
 3414SOL     OW21700   3.102   0.595  10.998 -0.5636 -0.0143 -0.2886
 3414SOL    HW121701   3.026   0.556  10.954 -1.0516 -0.0093  0.5671
 3414SOL    HW221702   3.160   0.536  10.950  1.3847  0.6306  1.2846
 3415SOL     OW21703   3.975   0.384   6.190  0.2930 -0.6836  0.4574
 3415SOL    HW121704   3.884   0.409   6.203  0.7611  1.0845  0.3543
 3415SOL    HW221705   4.013   0.471   6.201 -0.8336 -0.1362  0.0125
 3416SOL     OW21706   1.181   4.336   3.884  0.2825 -0.4603 -0.0442
 3416SOL    HW121707   1.168   4.415   3.832 -0.4807 -0.0702  0.7504
 3416SOL    HW221708   1.251   4.363   3.944 -0.3205  0.2676  0.3203
 3417SOL     OW21709   3.954   3.035   2.236 -0.1485  0.0484 -0.1790
 3417SOL    HW121710   3.891   2.970   2.267  1.4640 -1.9979 -1.1930
 3417SOL    HW221711   4.041   2.996   2.249 -0.5821 -1.2629 -1.2189
 3418SOL     OW21712   0.028   4.384   7.765  0.1913 -0.1952 -0.1495
 3418SOL    HW121713   4.672   4.333   7.751 -0.0825  0.4343 -0.8830
 3418SOL    HW221714   0.039   4.424   7.679  0.5581 -0.1791 -0.0933
 3419SOL     OW21715   0.083   2.544   2.121 -0.3300  0.7446  0.3499
 3419SOL    HW121716   0.124   2.458   2.127  0.7100  1.1437 -1.0560
 3419SOL    HW221717   0.036   2.531   2.039  0.1100  0.4377  0.1474
 3420SOL     OW21718   0.971   0.589   4.853 -0.2271  0.4932 -0.1653
 3420SOL    HW121719   0.893   0.591   4.798  1.0072  2.4711 -1.8312
 3420SOL    HW221720   0.963   0.673   4.899  0.6730 -0.1468  1.1756
 3421SOL     OW21721   0.781   0.050   9.126  0.1517 -0.1840  0.2688
 3421SOL    HW121722   0.753   0.042   9.035 -0.4773  1.0956  0.3413
 3421SOL    HW221723   0.756   4.690   9.165  3.2128 -1.4091 -0.4687
 3422SOL     OW21724   3.845   3.076   8.311 -0.1498 -0.5297 -0.4743
 3422SOL    HW121725   3.766   3.123   8.285 -2.2386 -3.4981  0.3506
 3422SOL    HW221726   3.836   2.998   8.257  1.7260  1.5955 -3.8073
 3423SOL     OW21727   2.025   3.948  14.017  0.7582 -0.1824 -0.2580
 3423SOL    HW121728   1.960   3.937  13.948  1.4975 -0.0996 -0.9678
 3423SOL    HW221729   2.055   3.858  14.028  1.0369  0.1067  1.3895
 3424SOL     OW21730   2.068   3.011   2.842  1.3359 -0.1718  0.0815
 3424SOL    HW121731   2.044   2.976   2.756 -0.1762  0.0850  0.3905
 3424SOL    HW221732   2.005   3.083   2.853  1.7250 -0.1702  2.3992
 3425SOL     OW21733   3.018   1.386   5.447 -0.9655 -0.1439 -0.0881
 3425SOL    HW121734   3.027   1.429   5.532  1.3938  1.0348 -0.9296
 3425SOL    HW221735   2.933   1.426   5.432 -0.3637 -0.2562 -3.9669
 3426SOL     OW21736   0.090   4.230   6.593  0.3926  0.1728  0.1152
 3426SOL    HW121737   0.026   4.205   6.660 -0.2930 -2.4017 -1.5005
 3426SOL    HW221738   0.120   4.313   6.629 -0.4009  0.5113 -0.0174
 3427SOL     OW21739   1.057   2.554   5.251  0.2758 -0.9400 -0.4787
 3427SOL    HW121740   0.966   2.581   5.269  0.6740  1.3894 -1.9147
 3427SOL    HW221741   1.052   2.464   5.283  0.6614 -0.0635  2.0282
 3428SOL     OW21742   2.367   3.864   0.823  0.3406 -0.4501 -0.5380
 3428SOL    HW121743   2.341   3.955   0.837  1.5782 -0.2722  0.7505
 3428SOL    HW221744   2.428   3.847   0.895 -1.6548  2.4124  1.8493
 3429SOL     OW21745   0.632   2.759  13.552  0.3892  0.3849 -0.6583
 3429SOL    HW121746   0.628   2.801  13.638  2.1290 -0.4732 -0.1563
 3429SOL    HW221747   0.723   2.734  13.537 -0.0600 -1.3791 -0.4033
 3430SOL     OW21748   4.709   3.597  16.473  0.6244  0.1060  0.5030
 3430SOL    HW121749   0.013   3.533  16.538  0.1429  0.7149  1.3065
 3430SOL    HW221750   0.054   3.661  16.489 -1.4271  2.2755  0.5478
 3431SOL     OW21751   0.725   1.559   6.261 -0.3794  0.0077 -0.1234
 3431SOL    HW121752   0.702   1.650   6.243  1.5918  0.5793  0.1970
 3431SOL    HW221753   0.790   1.546   6.191  0.2679 -1.4608  0.7422
 3432SOL     OW21754   1.665   3.643   0.876 -0.0669  0.0990 -0.1030
 3432SOL    HW121755   1.616   3.611   0.800 -0.6542 -0.0907  0.3586
 3432SOL    HW221756   1.751   3.635   0.834  0.8597  2.3637  1.3838
 3433SOL     OW21757   2.826   2.948   6.795 -0.0849  0.5824  0.5143
 3433SOL    HW121758   2.748   2.898   6.768  0.5587 -0.8322  1.2918
 3433SOL    HW221759   2.810   3.023   6.737  0.7991  0.6328  0.3292
 3434SOL     OW21760   4.209   3.738   5.458 -0.0401  0.0782  0.0974
 3434SOL    HW121761   4.220   3.831   5.474  1.3744  0.1618 -1.2958
 3434SOL    HW221762   4.299   3.727   5.426  0.3720  1.0822  0.9292
 3435SOL     OW21763   2.241   1.620   1.488  0.1138  0.3292  0.4653
 3435SOL    HW121764   2.163   1.566   1.502  0.5075  0.3916  2.8591
 3435SOL    HW221765   2.205   1.706   1.511  0.6545  0.6918 -0.0489
 3436SOL     OW21766   3.362   2.440   1.565  0.1094 -0.1575  0.3196
 3436SOL    HW121767   3.335   2.515   1.512  0.9716 -1.1514 -1.5241
 3436SOL    HW221768   3.456   2.451   1.572  0.0856  2.0403 -2.6969
 3437SOL     OW21769   3.663   2.183  14.410  0.4281  0.0382  0.0197
 3437SOL    HW121770   3.688   2.107  14.358 -2.1610 -1.5212  1.0314
 3437SOL    HW221771   3.710   2.253  14.364 -0.3309  0.6189  0.1315
 3438SOL     OW21772   4.032   2.115  13.609  0.1641  0.1641 -0.6191
 3438SOL    HW121773   4.028   2.021  13.592  2.1255 -0.2402  1.1252
 3438SOL    HW221774   4.120   2.113  13.646 -0.3505 -1.5525  0.4939
 3439SOL     OW21775   2.537   1.468  12.750 -0.6104  0.2640 -0.0034
 3439SOL    HW121776   2.612   1.455  12.692  0.2740  0.4148  1.1200
 3439SOL    HW221777   2.465   1.482  12.688 -0.2254  0.6176 -0.3738
 3440SOL     OW21778   3.003   0.237   4.361 -0.2312  0.3090  0.3550
 3440SOL    HW121779   3.090   0.276   4.365 -0.3210  0.7945 -2.3264
 3440SOL    HW221780   2.961   0.289   4.293 -2.1028 -0.1637  1.1260
 3441SOL     OW21781   3.195   0.648   8.067 -0.4403  0.1073 -0.0299
 3441SOL    HW121782   3.198   0.582   7.998  0.2189 -0.4685  0.5454
 3441SOL    HW221783   3.119   0.618   8.116  2.2907 -2.2501  2.7422
 3442SOL     OW21784   0.968   1.073  17.541 -0.3748  0.3432  1.0113
 3442SOL    HW121785   1.059   1.057  17.566 -0.5243  1.5319  2.3104
 3442SOL    HW221786   0.980   1.154  17.492 -0.7870 -1.4400 -2.0232
 3443SOL     OW21787   2.845   4.441   4.803 -0.1636  0.4243  0.4104
 3443SOL    HW121788   2.849   4.533   4.776  1.1670  0.5850  1.1438
 3443SOL    HW221789   2.789   4.449   4.880  0.9602 -0.7694  1.3493
 3444SOL     OW21790   2.977   3.691   7.182 -0.0064  0.0772  0.1152
 3444SOL    HW121791   3.014   3.608   7.209  1.5566  0.5032 -0.7792
 3444SOL    HW221792   2.986   3.677   7.088  1.8519 -1.5930  0.5654
 3445SOL     OW21793   1.751   0.772  10.296 -0.0424 -0.1841 -0.1466
 3445SOL    HW121794   1.757   0.677  10.291  0.2494 -0.2471  1.3260
 3445SOL    HW221795   1.673   0.771  10.352 -0.0619 -1.3632 -0.2087
 3446SOL     OW21796   2.299   0.305   6.721  0.0790  0.3130  0.5703
 3446SOL    HW121797   2.301   0.392   6.680 -0.5356 -0.6365 -1.5050
 3446SOL    HW221798   2.372   0.297   6.783  0.3502  0.9681  0.3365
 3447SOL     OW21799   2.661   0.900   1.108  0.0218  0.3059  0.1511
 3447SOL    HW121800   2.598   0.969   1.085 -1.3133 -0.7324  0.6921
 3447SOL    HW221801   2.734   0.955   1.137 -0.5488  0.5719  1.1110
 3448SOL     OW21802   1.568   0.779   0.283  0.5695  0.0122 -0.3734
 3448SOL    HW121803   1.646   0.767   0.337 -1.2058 -2.8659  1.5459
 3448SOL    HW221804   1.586   0.868   0.254 -0.1544  0.6559  1.1123
 3449SOL     OW21805   4.263   0.298   5.873 -0.2709  0.1111 -0.9039
 3449SOL    HW121806   4.340   0.245   5.851  0.0952  0.0814  0.4344
 3449SOL    HW221807   4.207   0.231   5.834  1.2373 -1.6775  0.0095
 3450SOL     OW21808   3.363   0.237   6.189 -0.0472  0.1019 -0.4290
 3450SOL    HW121809   3.287   0.180   6.201  0.3736 -0.2390  0.5788
 3450SOL    HW221810   3.330   0.315   6.144  0.1543 -0.6580 -1.9145
 3451SOL     OW21811   1.880   3.581   3.285  0.6857  0.6320  0.2048
 3451SOL    HW121812   1.840   3.607   3.368 -1.1183 -1.4924  0.0032
 3451SOL    HW221813   1.803   3.563   3.231  1.2182  1.0188 -0.6913
 3452SOL     OW21814   0.971   0.919   8.737 -0.2859  0.0807 -0.3136
 3452SOL    HW121815   1.038   0.963   8.788 -0.4300  0.8304 -0.7765
 3452SOL    HW221816   0.964   0.828   8.766  0.1774 -0.1501 -0.9314
 3453SOL     OW21817   3.595   0.176   7.701 -0.0146 -0.2912 -0.4157
 3453SOL    HW121818   3.514   0.175   7.752 -0.6653 -1.1703 -1.4754
 3453SOL    HW221819   3.602   0.081   7.706  0.3943 -0.2949 -1.1432
 3454SOL     OW21820   4.388   3.915   8.832 -0.1449  0.7022  0.1289
 3454SOL    HW121821   4.323   3.847   8.815 -0.9119  1.8920 -1.6226
 3454SOL    HW221822   4.343   3.993   8.801  1.8388  0.0489 -4.4162
 3455SOL     OW21823   0.417   3.197   6.249  0.1840 -0.3709 -0.2583
 3455SOL    HW121824   0.335   3.234   6.283  0.0804 -1.4866  0.7343
 3455SOL    HW221825   0.397   3.208   6.156 -2.0413 -1.4562  0.0935
 3456SOL     OW21826   0.897   4.272   2.477  0.5460 -0.4010  0.0276
 3456SOL    HW121827   0.863   4.185   2.454  0.6223 -0.2129 -0.7959
 3456SOL    HW221828   0.989   4.244   2.480  0.8612  0.6813  0.2117
 3457SOL     OW21829   0.628   3.874  10.883  0.3040  0.2816  0.5377
 3457SOL    HW121830   0.675   3.957  10.893  0.4719  0.3429 -0.6606
 3457SOL    HW221831   0.572   3.870  10.960  0.3907  3.1462  0.7537
 3458SOL     OW21832   1.119   2.746   3.480 -0.1707  0.7175  0.2941
 3458SOL    HW121833   1.207   2.715   3.504  0.8724  1.7502 -2.1940
 3458SOL    HW221834   1.069   2.740   3.562  0.3571  0.1432  0.5773
 3459SOL     OW21835   3.266   1.870  13.981  0.4103  0.7339  0.1853
 3459SOL    HW121836   3.211   1.848  14.056 -1.4746  0.8511 -1.1743
 3459SOL    HW221837   3.337   1.914  14.028  0.5061  1.2268 -0.4190
 3460SOL     OW21838   4.479   3.665   8.671 -0.0720  0.3454 -0.2935
 3460SOL    HW121839   4.558   3.712   8.699  0.8114 -2.6960  2.2900
 3460SOL    HW221840   4.518   3.579   8.659 -0.2102  0.0690  1.1525
 3461SOL     OW21841   3.983   0.886   8.630 -0.2096 -0.3557  0.0843
 3461SOL    HW121842   3.914   0.844   8.580 -0.7405  0.3146  0.2554
 3461SOL    HW221843   3.934   0.915   8.707  2.3170  1.6682  0.9434
 3462SOL     OW21844   4.185   2.721  15.226  0.0537  0.5070 -0.5450
 3462SOL    HW121845   4.173   2.668  15.148 -2.4265  1.1718 -0.6008
 3462SOL    HW221846   4.229   2.800  15.193  0.7041 -0.4729 -1.9927
 3463SOL     OW21847   0.939   3.355   1.599 -0.0498  0.4576 -0.4582
 3463SOL    HW121848   1.004   3.407   1.647 -0.0676 -0.1040  0.1818
 3463SOL    HW221849   0.886   3.332   1.675 -2.1089 -1.2842 -2.4404
 3464SOL     OW21850   4.664   3.316  14.467  0.5402  0.9964  0.0505
 3464SOL    HW121851   4.712   3.233  14.474  0.5099  0.9966  0.2438
 3464SOL    HW221852   4.603   3.299  14.395  0.5764 -2.0282  0.7438
 3465SOL     OW21853   3.050   1.110   5.455 -0.1142  0.0307  0.4618
 3465SOL    HW121854   3.106   1.124   5.378 -0.4295  1.8262  0.5617
 3465SOL    HW221855   3.043   1.199   5.488 -0.0215  0.0993  0.2959
 3466SOL     OW21856   0.453   0.339   7.170  0.5383  0.0850 -0.1636
 3466SOL    HW121857   0.428   0.357   7.261 -0.5986 -1.8532 -0.0929
 3466SOL    HW221858   0.548   0.346   7.181  0.6451 -1.1619 -0.3037
 3467SOL     OW21859   0.448   3.631   5.751  0.3990 -0.0757 -0.2735
 3467SOL    HW121860   0.423   3.640   5.843  0.2224  0.0852 -0.3359
 3467SOL    HW221861   0.460   3.536   5.759 -1.4234 -0.3101 -0.3065
 3468SOL     OW21862   0.256   1.562   4.398  0.3519 -0.1412  0.1022
 3468SOL    HW121863   0.201   1.497   4.354  1.9817  0.3738 -2.6771
 3468SOL    HW221864   0.335   1.509   4.406  0.0202 -0.6213  0.1710
 3469SOL     OW21865   1.914   2.462   2.823 -0.0398 -0.4297 -0.1884
 3469SOL    HW121866   1.929   2.551   2.792 -0.2214  0.4222  2.1831
 3469SOL    HW221867   1.949   2.415   2.747  0.5802 -2.4433  1.3265
 3470SOL     OW21868   4.522   1.374   2.194 -0.3154  0.0780 -0.5958
 3470SOL    HW121869   4.588   1.359   2.126  0.2560  2.6099 -0.5785
 3470SOL    HW221870   4.559   1.453   2.233  0.0234 -0.5811  0.4026
 3471SOL     OW21871   3.020   2.275  10.614 -0.6085 -0.1347  0.0624
 3471SOL    HW121872   2.949   2.239  10.561 -0.2521  0.2092 -0.6454
 3471SOL    HW221873   3.020   2.231  10.698  0.1931 -2.8389 -1.3529
 3472SOL     OW21874   1.142   4.241   2.095 -0.3287 -0.0476 -0.7663
 3472SOL    HW121875   1.115   4.332   2.083  1.7019  0.6208 -0.2722
 3472SOL    HW221876   1.220   4.235   2.039  0.7300 -0.7226  0.7627
 3473SOL     OW21877   0.265   4.688  12.215  0.1522  0.3298  0.3996
 3473SOL    HW121878   0.308   4.680  12.130  0.3924 -0.4944  0.5945
 3473SOL    HW221879   0.182   0.006  12.196  0.2318  0.4123  0.2361
 3474SOL     OW21880   1.923   1.324   0.320 -0.8854 -0.2494 -0.0144
 3474SOL    HW121881   1.920   1.366   0.234 -1.1008  0.1355  0.1771
 3474SOL    HW221882   1.928   1.233   0.294 -3.2286  0.0822 -1.6151
 3475SOL     OW21883   0.275   3.241   3.205  0.1662 -0.0984 -0.4591
 3475SOL    HW121884   0.183   3.253   3.180  0.1667  0.5840 -0.1548
 3475SOL    HW221885   0.293   3.315   3.263  0.2226 -0.4175 -0.0734
 3476SOL     OW21886   2.473   2.917  15.033 -0.1678 -0.2453 -0.1369
 3476SOL    HW121887   2.561   2.953  15.046 -0.3962  0.2946 -0.0838
 3476SOL    HW221888   2.462   2.908  14.938  0.2522 -1.3704 -0.0687
 3477SOL     OW21889   2.587   3.722   7.263  0.2163 -0.3286 -0.2318
 3477SOL    HW121890   2.620   3.634   7.242  0.1010 -0.5651  0.5933
 3477SOL    HW221891   2.613   3.736   7.354  0.0388 -2.1253  0.0955
 3478SOL     OW21892   3.031   1.936   1.186 -0.4980  0.2925  0.1717
 3478SOL    HW121893   3.052   1.984   1.265 -1.8044  2.1574 -0.6124
 3478SOL    HW221894   3.053   1.998   1.116 -0.6500  1.2654  0.9910
 3479SOL     OW21895   4.661   3.254   6.953  0.0455  0.3686  0.0842
 3479SOL    HW121896   0.020   3.301   6.952 -1.1289  2.4597  1.9517
 3479SOL    HW221897   4.655   3.213   6.866 -0.5087 -1.0276  0.7810
 3480SOL     OW21898   0.217   3.638  13.836 -0.6517  0.0403 -0.1504
 3480SOL    HW121899   0.263   3.686  13.905 -0.7873 -1.7689  1.2011
 3480SOL    HW221900   0.244   3.550  13.859 -1.9617 -0.4351 -0.4091
 3481SOL     OW21901   3.225   0.974  15.599 -0.0502 -0.2943 -0.7537
 3481SOL    HW121902   3.145   0.970  15.547 -0.0501 -1.5352 -0.6665
 3481SOL    HW221903   3.272   1.037  15.545 -0.4198  0.1038 -0.6064
 3482SOL     OW21904   1.319   2.154   6.906  0.0554  0.2944  0.0361
 3482SOL    HW121905   1.226   2.160   6.926 -0.0696  0.2361 -0.5079
 3482SOL    HW221906   1.310   2.064   6.872  2.1410 -0.4850  1.5964
 3483SOL     OW21907   3.873   3.306   6.198 -0.9966  0.4695 -0.1481
 3483SOL    HW121908   3.787   3.325   6.234 -1.0885 -1.1263  0.4934
 3483SOL    HW221909   3.910   3.392   6.217  1.9130 -0.3069 -2.2636
 3484SOL     OW21910   2.591   3.144   4.732 -0.1855  0.0605  0.3750
 3484SOL    HW121911   2.523   3.095   4.778 -1.1760  1.9266  0.8897
 3484SOL    HW221912   2.551   3.159   4.646  1.3925 -1.3234 -0.6124
 3485SOL     OW21913   0.232   4.388  13.921 -0.1524  0.0183  0.7789
 3485SOL    HW121914   0.292   4.423  13.986  0.8120 -0.7108  0.2869
 3485SOL    HW221915   0.200   4.470  13.883 -1.4425  0.1038  2.0633
 3486SOL     OW21916   2.329   0.985  11.451  0.5750 -0.1502  0.2000
 3486SOL    HW121917   2.324   1.079  11.464  0.8695  0.0953 -1.4612
 3486SOL    HW221918   2.268   0.969  11.379  0.3986 -0.0359  0.3244
 3487SOL     OW21919   2.613   3.034   8.649 -0.8445  0.2077 -0.3456
 3487SOL    HW121920   2.545   3.047   8.584 -0.6583  0.8511 -0.4125
 3487SOL    HW221921   2.608   3.103   8.715  0.2204  0.9288 -1.0074
 3488SOL     OW21922   3.831   2.558   4.918 -0.1757 -0.0588 -0.3106
 3488SOL    HW121923   3.849   2.650   4.899 -0.2941 -0.1363 -0.7840
 3488SOL    HW221924   3.763   2.542   4.853 -0.3692 -1.5077  0.2506
 3489SOL     OW21925   0.051   3.925   8.078  0.0576  0.0388 -0.4615
 3489SOL    HW121926   0.133   3.910   8.125 -0.2060  1.1261  0.3519
 3489SOL    HW221927   0.084   3.924   7.988 -1.4252 -3.3764 -0.9744
 3490SOL     OW21928   1.347   4.262   3.664  0.0409  0.7401  0.3410
 3490SOL    HW121929   1.358   4.168   3.650  1.4888  0.8388  0.9082
 3490SOL    HW221930   1.324   4.269   3.757  0.6999 -2.5123  0.7508
 3491SOL     OW21931   1.672   2.824   7.172 -0.2756 -0.1496  0.3050
 3491SOL    HW121932   1.645   2.732   7.165  0.9975 -0.3905 -1.3279
 3491SOL    HW221933   1.728   2.831   7.249 -1.6112 -1.7788  1.4248
 3492SOL     OW21934   4.225   2.970  15.116  0.2696  0.1528  0.6914
 3492SOL    HW121935   4.242   2.924  15.034  0.0442 -0.2209  0.8490
 3492SOL    HW221936   4.298   3.032  15.115  0.3416  0.0397 -0.4484
 3493SOL     OW21937   0.062   0.552  10.350 -0.3353 -0.5180  0.7441
 3493SOL    HW121938   0.044   0.600  10.269  0.4760  2.0735  2.1262
 3493SOL    HW221939   0.140   0.597  10.381 -0.6903  0.6744 -0.0932
 3494SOL     OW21940   2.314   0.017   8.222 -0.2336 -0.3839  0.5337
 3494SOL    HW121941   2.267   4.661   8.245  0.0349 -0.2034  1.6943
 3494SOL    HW221942   2.374   0.019   8.297 -0.0612  0.5777  0.3728
 3495SOL     OW21943   3.774   4.483   9.800 -0.1923 -0.5983 -0.3074
 3495SOL    HW121944   3.824   4.435   9.734 -1.3514 -0.9166 -0.9387
 3495SOL    HW221945   3.842   4.524   9.854 -0.3718  0.5466 -0.9422
 3496SOL     OW21946   4.582   3.424   6.565 -0.1916  0.5816  1.0469
 3496SOL    HW121947   4.623   3.451   6.483  0.8684 -1.3697  0.9292
 3496SOL    HW221948   4.607   3.501   6.616  0.9610  0.5485  0.5272
 3497SOL     OW21949   4.546   2.703   2.812  0.6293  0.2317 -0.2353
 3497SOL    HW121950   4.612   2.743   2.755  0.1458 -0.0284 -0.9794
 3497SOL    HW221951   4.525   2.625   2.761  0.1800  0.9904 -1.2225
 3498SOL     OW21952   4.374   2.981   5.308  0.3337 -0.1056  0.2076
 3498SOL    HW121953   4.448   3.028   5.270 -2.1915  3.6478 -0.0660
 3498SOL    HW221954   4.428   2.934   5.371  1.4884  1.1049  0.1162
 3499SOL     OW21955   0.518   1.484  12.099  0.0123 -0.5285 -0.0489
 3499SOL    HW121956   0.450   1.452  12.040 -0.5666 -1.2862  1.0198
 3499SOL    HW221957   0.596   1.477  12.044  0.2987  2.1698  0.0169
 3500SOL     OW21958   1.461   3.804   5.353  0.1121 -0.0545 -0.3044
 3500SOL    HW121959   1.453   3.709   5.359 -0.8416  0.1238  1.4918
 3500SOL    HW221960   1.454   3.810   5.258 -0.8778  1.6778 -0.1261
 3501SOL     OW21961   0.153   1.615   0.345  0.3714 -0.2000 -0.6723
 3501SOL    HW121962   0.157   1.704   0.309  0.2283 -0.0920 -0.4191
 3501SOL    HW221963   0.224   1.617   0.410 -0.2583 -0.5885  0.0221
 3502SOL     OW21964   1.259   2.902   3.201 -0.2089  0.5328  0.3681
 3502SOL    HW121965   1.282   2.911   3.293 -0.3668 -0.1723  0.4732
 3502SOL    HW221966   1.166   2.880   3.194  0.2579 -1.3642  0.0431
 3503SOL     OW21967   4.169   2.251   2.166 -0.4592  0.5803  0.7619
 3503SOL    HW121968   4.200   2.250   2.075  1.1105  0.0918  1.2920
 3503SOL    HW221969   4.171   2.346   2.176  2.2516  0.5438  0.6940
 3504SOL     OW21970   2.244   1.202   4.502  0.1330  0.0389  0.0908
 3504SOL    HW121971   2.219   1.261   4.431  1.5130  0.9011  0.3295
 3504SOL    HW221972   2.198   1.128   4.461 -1.4700  0.8883  0.4040
 3505SOL     OW21973   3.013   1.683   3.190  0.6878 -0.0381 -0.3270
 3505SOL    HW121974   3.050   1.743   3.126 -1.9152 -0.9641 -2.6814
 3505SOL    HW221975   3.065   1.716   3.263 -0.3531 -0.3428  0.5579
 3506SOL     OW21976   2.683   4.303  17.004 -0.2988 -0.4776  0.7932
 3506SOL    HW121977   2.678   4.355  16.924 -0.9578 -3.5907 -1.1633
 3506SOL    HW221978   2.600   4.255  17.002 -0.6405  0.0856  1.2549
 3507SOL     OW21979   0.571   2.632  17.699  0.0100 -0.2622  0.5811
 3507SOL    HW121980   0.510   2.668   0.064 -1.9657 -0.0369 -1.3918
 3507SOL    HW221981   0.564   2.537   0.006 -0.9448 -0.3032 -0.7926
 3508SOL     OW21982   4.470   0.741   2.733  0.3333 -0.0846  0.2291
 3508SOL    HW121983   4.461   0.809   2.665 -2.0274  0.1072  0.7108
 3508SOL    HW221984   4.519   0.678   2.680  0.2128  0.9659 -1.1304
 3509SOL     OW21985   1.569   2.580   7.150  0.8136 -0.8609  0.6363
 3509SOL    HW121986   1.473   2.577   7.149  0.7689  0.3487  1.2659
 3509SOL    HW221987   1.593   2.500   7.104  0.4279 -1.2713  1.1415
 3510SOL     OW21988   0.166   0.328   5.776  0.9817 -0.1460  0.0990
 3510SOL    HW121989   0.199   0.253   5.728 -0.5588 -0.5477 -0.3350
 3510SOL    HW221990   0.206   0.316   5.862  1.5215 -0.1436 -0.1531
 3511SOL     OW21991   0.106   1.750   4.669  0.3092 -0.4057 -0.8237
 3511SOL    HW121992   0.114   1.800   4.751  0.4503  0.4946 -1.3908
 3511SOL    HW221993   0.198   1.726   4.659  0.2459 -1.4986  1.0855
 3512SOL     OW21994   3.318   4.404   1.371  0.0216  0.3924  0.3620
 3512SOL    HW121995   3.359   4.478   1.327 -1.0904  0.5060 -0.4732
 3512SOL    HW221996   3.274   4.355   1.301  0.0759  0.5282  0.2338
 3513SOL     OW21997   4.158   1.605   4.151 -0.8463 -0.2086  0.2840
 3513SOL    HW121998   4.107   1.594   4.231 -0.7994 -0.4248  0.2841
 3513SOL    HW221999   4.103   1.663   4.099 -0.0569  3.2450  3.3303
 3514SOL     OW22000   2.574   0.478   0.482 -0.4748  0.2059 -0.2263
 3514SOL    HW122001   2.579   0.384   0.501  0.8893  0.3582  0.1263
 3514SOL    HW222002   2.599   0.513   0.567  0.2286 -2.9787  0.8637
 3515SOL     OW22003   3.478   4.640   5.866 -0.3004  0.2287  0.2308
 3515SOL    HW122004   3.454   4.594   5.786  0.3800 -0.0721  0.1984
 3515SOL    HW222005   3.414   4.711   5.863 -0.1999  0.3626  1.0948
 3516SOL     OW22006   0.952   0.207   6.911 -0.4291 -0.3482 -0.0354
 3516SOL    HW122007   0.880   0.192   6.972  1.0402 -1.6067  1.3906
 3516SOL    HW222008   0.964   0.127   6.860 -0.0265 -0.2905 -0.0309
 3517SOL     OW22009   0.773   2.268   5.018  0.2873 -0.3963  0.5256
 3517SOL    HW122010   0.706   2.336   5.009  2.3831  1.5958  0.1131
 3517SOL    HW222011   0.744   2.199   4.958  1.1619  0.0807 -0.4357
 3518SOL     OW22012   3.640   0.116   7.198  0.2437  0.4188  0.0742
 3518SOL    HW122013   3.607   0.206   7.199 -0.6974  0.0933 -1.3319
 3518SOL    HW222014   3.636   0.080   7.287 -1.0522 -1.1408 -0.6073
 3519SOL     OW22015   3.589   3.748   1.289  0.1334  0.1896 -0.2379
 3519SOL    HW122016   3.524   3.678   1.299  0.3165  0.0434 -0.0498
 3519SOL    HW222017   3.618   3.734   1.199  1.2326  0.2166  0.1023
 3520SOL     OW22018   3.044   2.495   2.581 -0.2052 -0.6763  0.3520
 3520SOL    HW122019   2.974   2.544   2.539 -0.6028 -0.6114  1.0884
 3520SOL    HW222020   3.066   2.427   2.518  0.1741  1.2475 -1.5892
 3521SOL     OW22021   2.574   4.346   7.056 -0.2145  0.1762 -0.3722
 3521SOL    HW122022   2.612   4.286   6.992  1.9925  2.2408 -1.0233
 3521SOL    HW222023   2.497   4.385   7.014 -0.9989 -3.2519 -2.1058
 3522SOL     OW22024   1.823   3.910   3.785 -0.0356 -0.3058  0.3918
 3522SOL    HW122025   1.785   3.846   3.845  0.2561  1.1814  2.1476
 3522SOL    HW222026   1.911   3.875   3.774  0.6662  2.1504 -1.9610
 3523SOL     OW22027   3.928   3.673   3.900  0.1452 -0.1317 -0.4070
 3523SOL    HW122028   3.970   3.759   3.914  1.0134 -0.4327 -1.1292
 3523SOL    HW222029   3.917   3.680   3.805 -2.1706  0.9826 -0.0655
 3524SOL     OW22030   2.739   2.871  15.643 -0.0037  0.1777 -0.0054
 3524SOL    HW122031   2.804   2.872  15.573  0.7162  1.3479  0.6689
 3524SOL    HW222032   2.774   2.937  15.703 -1.3514 -0.5886  1.6338
 3525SOL     OW22033   2.672   3.016   5.752 -0.3126  0.2005 -0.1714
 3525SOL    HW122034   2.635   2.983   5.671 -1.7283  0.7400  0.2495
 3525SOL    HW222035   2.599   3.006   5.814  0.5692 -2.7906  0.3407
 3526SOL     OW22036   0.184   3.284   6.598  0.4355  0.2865 -0.1390
 3526SOL    HW122037   0.134   3.297   6.678 -0.0162  0.3745 -0.4335
 3526SOL    HW222038   0.200   3.190   6.601 -0.9515  0.0619  0.1543
 3527SOL     OW22039   4.177   2.313   3.906  0.4530 -0.2448 -0.0528
 3527SOL    HW122040   4.249   2.372   3.928  0.8281 -0.4157 -0.8252
 3527SOL    HW222041   4.203   2.225   3.932  0.3041 -0.1226  0.5199
 3528SOL     OW22042   2.594   1.262   8.600 -0.1367  0.1136  0.5788
 3528SOL    HW122043   2.623   1.281   8.689  1.3819  1.2136 -0.1429
 3528SOL    HW222044   2.559   1.345   8.567 -0.0817  0.8756  2.4074
 3529SOL     OW22045   3.142   0.268  15.495 -0.1675 -0.6689  0.4851
 3529SOL    HW122046   3.214   0.330  15.508 -1.7787  1.5713 -1.3069
 3529SOL    HW222047   3.148   0.240  15.404 -0.8010  3.1925 -0.7471
 3530SOL     OW22048   3.603   2.344   9.252 -0.5807 -0.4286  0.1023
 3530SOL    HW122049   3.662   2.416   9.275  1.8406 -2.3661 -0.0378
 3530SOL    HW222050   3.545   2.336   9.327  0.7424 -0.1589  1.1525
 3531SOL     OW22051   3.671   1.183  10.817  0.1199 -0.9176  0.4618
 3531SOL    HW122052   3.707   1.202  10.903 -0.6577 -0.4799  0.6949
 3531SOL    HW222053   3.640   1.094  10.833  1.5992 -1.1517  2.0021
 3532SOL     OW22054   1.568   1.614   2.763 -0.3246 -0.1145  0.0695
 3532SOL    HW122055   1.645   1.593   2.710  0.1155  0.3058  0.5387
 3532SOL    HW222056   1.566   1.709   2.758  0.1402 -0.2237 -2.2493
 3533SOL     OW22057   0.864   1.965   3.432  0.5184  0.4943  0.0135
 3533SOL    HW122058   0.877   1.943   3.340  1.3928 -1.1929  0.5274
 3533SOL    HW222059   0.903   1.891   3.479  0.9328 -0.4607 -1.8414
 3534SOL     OW22060   4.662   0.146   8.031 -0.2550 -0.0504 -0.1785
 3534SOL    HW122061   4.598   0.098   8.084  0.0189  0.5135  0.6588
 3534SOL    HW222062   4.707   0.072   7.991  0.6716  0.6314 -0.3888
 3535SOL     OW22063   1.139   1.501   3.507  0.0914  0.5813  0.4238
 3535SOL    HW122064   1.108   1.468   3.591 -0.1799  1.0246  0.4979
 3535SOL    HW222065   1.061   1.493   3.452  0.9380 -0.7260 -0.5970
 3536SOL     OW22066   0.815   0.160  16.294  0.6183 -0.4230  0.4735
 3536SOL    HW122067   0.904   0.178  16.263  0.1168  1.0915 -0.0836
 3536SOL    HW222068   0.845   0.095  16.358  0.1213 -1.1767 -0.0562
 3537SOL     OW22069   3.716   0.074   2.368 -0.0195  0.0891  0.7098
 3537SOL    HW122070   3.628   0.049   2.396 -0.5763  1.2712  0.0303
 3537SOL    HW222071   3.701   0.161   2.331 -2.2879 -0.4871  0.2607
 3538SOL     OW22072   4.293   1.818   2.881  0.4059  0.2076  0.2721
 3538SOL    HW122073   4.307   1.730   2.848  0.4507 -0.2354  1.4575
 3538SOL    HW222074   4.326   1.819   2.971  0.9934  0.4208  0.0597
 3539SOL     OW22075   4.093   3.252   6.438  0.0473 -0.0718  0.7380
 3539SOL    HW122076   4.019   3.299   6.399  0.6290  0.6905  0.5472
 3539SOL    HW222077   4.058   3.222   6.522  0.8321 -1.9312  0.4017
 3540SOL     OW22078   1.180   2.700  15.441 -0.3203  0.6157  0.8711
 3540SOL    HW122079   1.181   2.741  15.528 -0.7232 -1.4400  1.8413
 3540SOL    HW222080   1.270   2.671  15.426 -0.7060 -0.0776 -0.1330
 3541SOL     OW22081   4.264   4.277   2.957  0.2904  0.2185 -0.0335
 3541SOL    HW122082   4.176   4.277   2.995  0.7327 -2.0490  0.9546
 3541SOL    HW222083   4.257   4.354   2.900 -0.0382 -2.6626 -3.8151
 3542SOL     OW22084   2.237   1.968  13.632  0.1844 -0.5975  0.7237
 3542SOL    HW122085   2.191   2.046  13.598 -0.9203 -1.3313  0.5186
 3542SOL    HW222086   2.220   1.962  13.726 -0.0189 -1.8261  0.5998
 3543SOL     OW22087   1.618   2.560   8.267 -0.0066  0.9530 -0.7565
 3543SOL    HW122088   1.582   2.515   8.190 -0.4633  0.8602 -0.4900
 3543SOL    HW222089   1.652   2.639   8.223  2.7111 -0.3996 -1.0475
 3544SOL     OW22090   3.906   2.208   4.329 -0.3228  0.1794  0.4676
 3544SOL    HW122091   3.829   2.242   4.283 -1.1454  1.0313  2.4686
 3544SOL    HW222092   3.882   2.206   4.422  0.0893  1.1907  0.5925
 3545SOL     OW22093   3.131   1.525   5.955 -0.0091 -0.4810  0.4961
 3545SOL    HW122094   3.156   1.473   6.032  0.3220 -1.2226 -0.1052
 3545SOL    HW222095   3.178   1.606   5.975 -0.0621 -0.0942 -0.9815
 3546SOL     OW22096   1.631   3.089  15.965  0.4294 -0.3115  0.0224
 3546SOL    HW122097   1.700   3.144  16.002 -1.3786  0.7227  1.8528
 3546SOL    HW222098   1.605   3.030  16.035 -0.5923  1.2457  0.9527
 3547SOL     OW22099   3.713   1.247   1.600  0.0049  0.2596  0.1238
 3547SOL    HW122100   3.726   1.338   1.575 -0.9618  0.1030 -0.9410
 3547SOL    HW222101   3.630   1.250   1.648 -0.3491  1.5782 -0.5898
 3548SOL     OW22102   1.943   3.410   2.339 -0.1000  0.3199 -0.0305
 3548SOL    HW122103   1.986   3.463   2.272 -0.5674  1.4436  0.5677
 3548SOL    HW222104   1.925   3.337   2.279  0.3042 -0.2050  0.4881
 3549SOL     OW22105   0.633   1.551   0.805 -0.3876 -0.3350  1.0625
 3549SOL    HW122106   0.642   1.611   0.879 -0.4232  0.0149  0.7822
 3549SOL    HW222107   0.544   1.516   0.813 -1.0256  0.4231 -3.1962
 3550SOL     OW22108   3.634   2.851   1.860 -0.0961 -0.2658  0.5561
 3550SOL    HW122109   3.730   2.840   1.859  0.1182  1.7159  0.2541
 3550SOL    HW222110   3.615   2.844   1.954 -1.0960 -1.7041  0.2509
 3551SOL     OW22111   3.805   2.482  11.913  0.3204 -0.0293  0.5343
 3551SOL    HW122112   3.716   2.454  11.892  0.6246 -0.7194  0.1493
 3551SOL    HW222113   3.787   2.574  11.935  0.0044  0.1111 -0.2880
 3552SOL     OW22114   0.725   1.164   7.333 -0.0107 -0.0082 -0.6496
 3552SOL    HW122115   0.660   1.147   7.265  0.6769  0.4065 -1.4233
 3552SOL    HW222116   0.732   1.078   7.374  2.5568  0.3933 -0.2309
 3553SOL     OW22117   4.197   4.367   5.780  0.7052 -0.1790 -0.0148
 3553SOL    HW122118   4.167   4.455   5.798 -0.4869 -0.4353 -0.7051
 3553SOL    HW222119   4.161   4.325   5.858 -0.4599 -2.3920 -1.7417
 3554SOL     OW22120   2.738   0.742  14.465 -0.1442 -0.0798 -0.4508
 3554SOL    HW122121   2.809   0.726  14.404  0.8507  2.4567  0.0348
 3554SOL    HW222122   2.744   0.666  14.522  1.0677 -1.2198 -2.1138
 3555SOL     OW22123   2.630   1.192   9.333 -0.3758 -0.3744 -0.5462
 3555SOL    HW122124   2.653   1.109   9.293 -2.3832 -1.0743 -0.2180
 3555SOL    HW222125   2.716   1.232   9.343 -0.3757 -0.3031 -0.8442
 3556SOL     OW22126   4.211   4.608   8.540 -0.7713  0.7195 -0.3204
 3556SOL    HW122127   4.188   4.690   8.495 -0.4203  0.8874 -0.1948
 3556SOL    HW222128   4.196   4.617   8.634  2.3502 -2.9183  0.5152
 3557SOL     OW22129   1.341   2.891  16.589 -0.5139  0.0838 -0.1007
 3557SOL    HW122130   1.330   2.904  16.495  0.0704  0.4815 -0.1151
 3557SOL    HW222131   1.281   2.954  16.630 -0.4867  0.4253 -0.5868
 3558SOL     OW22132   4.135   3.113   4.113 -0.2297  0.2515  0.0948
 3558SOL    HW122133   4.132   3.035   4.058  1.2379 -2.2234  3.5287
 3558SOL    HW222134   4.219   3.146   4.080 -0.5721 -0.2547 -1.2811
 3559SOL     OW22135   0.041   0.497   5.004  0.0071 -0.1827 -0.3531
 3559SOL    HW122136   4.724   0.513   5.089 -3.7931  0.5036 -2.3623
 3559SOL    HW222137   4.683   0.481   4.958  1.7140 -2.1371 -2.7157
 3560SOL     OW22138   3.356   1.207   6.844 -0.0198 -0.0139  0.1675
 3560SOL    HW122139   3.412   1.129   6.850 -0.7475 -0.6256 -0.9658
 3560SOL    HW222140   3.348   1.235   6.935 -0.3073 -1.2203  0.5058
 3561SOL     OW22141   1.488   3.813  14.511  0.4179  0.4647  0.1247
 3561SOL    HW122142   1.428   3.817  14.586 -1.0403  2.4119 -1.1392
 3561SOL    HW222143   1.443   3.867  14.445  0.3387  0.0263 -0.1795
 3562SOL     OW22144   3.464   1.963   3.235 -0.1417  0.4236 -0.1016
 3562SOL    HW122145   3.442   2.021   3.308  0.0801  2.7251 -1.8531
 3562SOL    HW222146   3.523   1.900   3.276 -1.3755 -0.9270 -0.4015
 3563SOL     OW22147   1.922   1.800   5.556  0.3035 -0.2229 -0.2932
 3563SOL    HW122148   1.861   1.841   5.617  0.7693 -1.0773  0.7468
 3563SOL    HW222149   1.985   1.869   5.538  1.1779 -1.1890 -0.9689
 3564SOL     OW22150   3.880   3.670   6.312  0.7366 -0.3988 -0.1305
 3564SOL    HW122151   3.939   3.677   6.237 -0.1344 -0.4480 -0.8171
 3564SOL    HW222152   3.887   3.755   6.356 -0.9485 -0.7350  0.7890
 3565SOL     OW22153   3.228   2.558   7.493 -0.3725 -0.1615  0.4150
 3565SOL    HW122154   3.288   2.537   7.421 -1.2518 -0.7065 -0.1483
 3565SOL    HW222155   3.208   2.652   7.484 -4.4755 -1.2406 -1.4821
 3566SOL     OW22156   0.433   1.573   2.378  0.3010  0.0279  0.4173
 3566SOL    HW122157   0.412   1.513   2.307 -0.5872  0.6804  0.1308
 3566SOL    HW222158   0.390   1.650   2.341  0.0819  0.7238  2.1134
 3567SOL     OW22159   2.957   4.183   7.226 -0.1951  0.3414  0.1997
 3567SOL    HW122160   2.998   4.210   7.308  0.9499 -0.9421  0.0448
 3567SOL    HW222161   2.895   4.120   7.264 -0.1790  0.3238  0.1970
 3568SOL     OW22162   3.849   3.105   6.029 -0.2224  0.5236  0.1518
 3568SOL    HW122163   3.862   3.178   6.090  1.4611  0.8285 -0.5797
 3568SOL    HW222164   3.824   3.038   6.093  1.5781 -0.1746  0.1097
 3569SOL     OW22165   2.799   0.618   7.112  0.3543  0.1641  0.4094
 3569SOL    HW122166   2.838   0.575   7.036  1.4646 -2.3389  2.4153
 3569SOL    HW222167   2.840   0.705   7.109 -0.3423  0.5099  0.8814
 3570SOL     OW22168   3.765   0.397   2.898 -0.2349 -0.1984 -0.9179
 3570SOL    HW122169   3.847   0.388   2.945 -0.9009 -1.2496  0.0300
 3570SOL    HW222170   3.747   0.309   2.865 -0.8279  0.2378 -1.7661
 3571SOL     OW22171   3.598   3.048   9.922  0.0334 -0.6071  0.4353
 3571SOL    HW122172   3.656   2.989   9.873  0.1435 -0.8095  0.8037
 3571SOL    HW222173   3.618   3.138   9.897  1.4405 -0.6478  1.3995
 3572SOL     OW22174   0.694   3.056  13.044  0.4363 -0.1539 -0.6691
 3572SOL    HW122175   0.685   2.963  13.025 -1.6716 -0.0995  0.0494
 3572SOL    HW222176   0.612   3.099  13.019  0.8512  1.7909  1.2194
 3573SOL     OW22177   3.245   1.237   3.986 -0.0998 -0.0078 -0.1526
 3573SOL    HW122178   3.267   1.264   4.076 -1.8156  0.1863  0.2028
 3573SOL    HW222179   3.329   1.220   3.942  0.5708  2.3323  0.1851
 3574SOL     OW22180   3.561   3.329   9.347 -0.0225  0.4784  0.3378
 3574SOL    HW122181   3.568   3.236   9.367 -0.0745  0.1044 -1.3525
 3574SOL    HW222182   3.501   3.352   9.418  0.1336 -0.3539  0.7360
 3575SOL     OW22183   2.408   4.152   6.592 -0.1844 -0.0240 -0.1705
 3575SOL    HW122184   2.324   4.128   6.553  0.8975  0.7545 -2.9082
 3575SOL    HW222185   2.404   4.091   6.667 -0.3382  1.3799  0.9583
 3576SOL     OW22186   2.756   1.245   2.887 -0.1968 -0.3652  0.6962
 3576SOL    HW122187   2.733   1.304   2.958  0.6511  0.2614  0.4564
 3576SOL    HW222188   2.793   1.298   2.816 -0.0120  0.3359  1.3146
 3577SOL     OW22189   2.555   2.790  15.828 -0.2070  0.0379 -0.8117
 3577SOL    HW122190   2.637   2.793  15.779 -0.9781  1.9176 -1.9913
 3577SOL    HW222191   2.498   2.756  15.759 -0.9404  0.2612 -0.3148
 3578SOL     OW22192   0.432   2.358   7.878  0.0269 -0.7495  0.4562
 3578SOL    HW122193   0.515   2.338   7.834 -0.7954 -2.3542 -0.3730
 3578SOL    HW222194   0.408   2.276   7.920  1.8538 -2.3398 -1.6008
 3579SOL     OW22195   4.209   2.816   1.817  0.0333  0.7854 -0.1567
 3579SOL    HW122196   4.291   2.858   1.788  1.6080 -0.1960  2.9004
 3579SOL    HW222197   4.183   2.768   1.739  0.6799  1.0218 -0.5234
 3580SOL     OW22198   1.051   1.769   4.096  0.1185  0.4009 -0.6104
 3580SOL    HW122199   1.039   1.753   4.190  2.3437  2.9421  0.0932
 3580SOL    HW222200   0.999   1.849   4.085 -1.8572 -0.2908  3.2997
 3581SOL     OW22201   4.143   1.047  15.551 -0.4297  0.0034 -0.3877
 3581SOL    HW122202   4.145   1.132  15.507 -0.9484 -0.4598 -1.3201
 3581SOL    HW222203   4.132   1.072  15.642  2.3294 -1.4982  0.3517
 3582SOL     OW22204   0.624   3.429   3.479 -0.3392  0.0196  0.1202
 3582SOL    HW122205   0.645   3.514   3.518  0.3158 -0.0276 -0.1392
 3582SOL    HW222206   0.703   3.403   3.433 -0.1023 -1.0249  1.1148
 3583SOL     OW22207   0.070   1.320   7.095  0.2137 -0.4302 -0.0211
 3583SOL    HW122208   0.095   1.261   7.167 -2.5456 -0.8616  0.5783
 3583SOL    HW222209   4.720   1.373   7.124  0.9452  0.4847  0.1707
 3584SOL     OW22210   4.681   2.630   4.420 -0.2313  0.1672 -0.2170
 3584SOL    HW122211   4.687   2.553   4.476  1.0820  0.2208 -0.2775
 3584SOL    HW222212   4.606   2.613   4.364 -1.3865 -1.8448  1.9391
 3585SOL     OW22213   2.908   1.171   5.062  0.5106 -0.4235  0.5331
 3585SOL    HW122214   2.992   1.145   5.024  0.0924  2.9554 -2.5771
 3585SOL    HW222215   2.908   1.265   5.080 -0.0626 -0.3479  0.0949
 3586SOL     OW22216   1.278   4.226  10.963  0.1468  0.6387  0.1397
 3586SOL    HW122217   1.237   4.139  10.960  1.3446  0.0554  0.7808
 3586SOL    HW222218   1.320   4.231  11.048 -2.2858 -0.7402  1.4419
 3587SOL     OW22219   2.430   0.754   8.067 -0.3799  0.3808  0.2503
 3587SOL    HW122220   2.508   0.701   8.052 -0.2569  1.0807 -1.5424
 3587SOL    HW222221   2.365   0.689   8.041  1.6693 -0.4042 -2.8693
 3588SOL     OW22222   3.373   3.584   6.304  0.5414  0.3327 -0.6070
 3588SOL    HW122223   3.388   3.552   6.215  1.2024  1.1681 -0.7924
 3588SOL    HW222224   3.379   3.679   6.295 -0.9862  0.5696  0.8983
 3589SOL     OW22225   3.570   1.377   1.190  0.2544 -0.1083 -0.8400
 3589SOL    HW122226   3.542   1.426   1.267 -0.6887  1.3610 -2.1219
 3589SOL    HW222227   3.505   1.399   1.123  2.4302  0.0465 -2.9051
 3590SOL     OW22228   1.262   1.553  13.486 -0.2855  0.5757  0.0199
 3590SOL    HW122229   1.170   1.543  13.461 -0.3436  1.3127 -0.0634
 3590SOL    HW222230   1.296   1.463  13.481 -1.9025  0.0054 -0.5635
 3591SOL     OW22231   1.472   3.293   8.364  0.5706 -0.5301  0.5480
 3591SOL    HW122232   1.412   3.321   8.433 -1.0133 -0.2185 -0.9545
 3591SOL    HW222233   1.485   3.204   8.395 -1.6419 -0.8749  0.4737
 3592SOL     OW22234   1.519   0.616  10.738  0.0146 -0.0146 -0.4077
 3592SOL    HW122235   1.541   0.532  10.697  0.9189 -0.5029  1.0627
 3592SOL    HW222236   1.527   0.599  10.832  0.6422  1.5515 -0.1704
 3593SOL     OW22237   2.491   0.716  14.667  0.1517 -0.0293 -0.1433
 3593SOL    HW122238   2.493   0.786  14.731  2.4455 -0.4720  0.2675
 3593SOL    HW222239   2.523   0.757  14.587 -0.5863  0.6786 -0.0807
 3594SOL     OW22240   2.926   0.462   5.375  0.7413 -1.0089 -0.3417
 3594SOL    HW122241   2.898   0.520   5.304  0.7741  1.0399  1.3213
 3594SOL    HW222242   2.842   0.472   5.419  0.4066 -1.4444 -0.8940
 3595SOL     OW22243   3.712   3.459   5.389 -0.2057  0.5915 -0.3705
 3595SOL    HW122244   3.660   3.397   5.441  0.1287 -1.9219 -3.0065
 3595SOL    HW222245   3.749   3.407   5.317  0.9143  1.3966 -0.3782
 3596SOL     OW22246   4.559   2.740   3.614 -0.5850 -0.4501  0.3821
 3596SOL    HW122247   4.519   2.666   3.661  1.4374 -0.6370  1.7849
 3596SOL    HW222248   4.640   2.706   3.576 -0.7341  0.1219 -0.4560
 3597SOL     OW22249   3.212   0.180   6.459 -0.1882 -0.1667 -0.2310
 3597SOL    HW122250   3.149   0.147   6.396  1.3977  0.1514 -1.9999
 3597SOL    HW222251   3.244   0.100   6.502  1.1370  0.7744  0.5699
 3598SOL     OW22252   1.735   3.320   7.515  0.1968  0.3734  0.0423
 3598SOL    HW122253   1.707   3.308   7.424 -2.3392  0.6404  0.7727
 3598SOL    HW222254   1.806   3.381   7.495  2.2553 -1.5600  1.4864
 3599SOL     OW22255   1.677   1.036   8.404 -0.7252  1.0005  0.0074
 3599SOL    HW122256   1.610   1.014   8.339 -2.6454  1.5390  1.7913
 3599SOL    HW222257   1.754   1.039   8.347 -1.0960 -0.7234 -0.5953
 3600SOL     OW22258   4.720   2.089  13.809 -0.4147 -0.1036  0.2669
 3600SOL    HW122259   4.682   2.053  13.728 -0.2259 -0.4965  0.3515
 3600SOL    HW222260   0.087   2.061  13.803  0.1440  2.0823 -1.7540
 3601SOL     OW22261   1.464   1.004   8.222 -0.4606 -0.1260 -0.3602
 3601SOL    HW122262   1.408   1.067   8.175 -1.1214 -0.7285 -0.3795
 3601SOL    HW222263   1.465   0.929   8.163 -2.1988 -1.4377  1.2904
 3602SOL     OW22264   4.438   2.745  12.424 -0.1563  0.2998  0.4155
 3602SOL    HW122265   4.503   2.752  12.494  0.3272  1.1078 -0.1141
 3602SOL    HW222266   4.399   2.832  12.433 -1.9528 -0.2916 -1.9925
 3603SOL     OW22267   0.308   4.161  10.119  0.2635  0.2379  0.0316
 3603SOL    HW122268   0.218   4.190  10.107 -0.3151 -0.9022  1.6931
 3603SOL    HW222269   0.329   4.167  10.025 -0.9329 -1.1981 -0.3278
 3604SOL     OW22270   4.171   2.803   5.824 -0.2339  0.1394  0.0623
 3604SOL    HW122271   4.136   2.857   5.752  0.2084  0.6956  0.2698
 3604SOL    HW222272   4.131   2.841   5.902  0.3877  0.7005  0.1115
 3605SOL     OW22273   0.357   3.743   9.626  0.1161  0.9947 -0.3410
 3605SOL    HW122274   0.301   3.680   9.672 -0.0164  1.9980  0.8733
 3605SOL    HW222275   0.350   3.814   9.690 -2.8769  0.4003  0.0098
 3606SOL     OW22276   0.680   1.613   0.551  0.3427  0.5328  0.2216
 3606SOL    HW122277   0.667   1.590   0.643 -0.9389 -0.3652 -0.1883
 3606SOL    HW222278   0.733   1.539   0.521 -1.2196  0.3972 -2.2301
 3607SOL     OW22279   4.503   3.747   5.679 -0.0892  0.1155 -0.1396
 3607SOL    HW122280   4.476   3.673   5.625 -0.6932  1.0260 -1.0806
 3607SOL    HW222281   4.419   3.774   5.717  0.9927 -1.2295  3.1210
 3608SOL     OW22282   2.723   3.084   9.307 -0.2451  0.2893 -0.0854
 3608SOL    HW122283   2.676   3.026   9.367 -0.9556 -0.6358 -1.5601
 3608SOL    HW222284   2.784   3.019   9.272 -2.6387 -1.4655 -0.8962
 3609SOL     OW22285   2.404   2.344   3.635  0.3214  0.7937  0.5268
 3609SOL    HW122286   2.416   2.435   3.664 -0.4561  0.8365  0.7324
 3609SOL    HW222287   2.419   2.350   3.540 -2.4348 -1.2734 -0.0620
 3610SOL     OW22288   2.738   3.105   9.646  0.1451  0.7877  0.2950
 3610SOL    HW122289   2.679   3.042   9.604  1.8441 -0.9293  0.5104
 3610SOL    HW222290   2.811   3.114   9.585 -1.5740 -1.7433 -2.1908
 3611SOL     OW22291   1.767   2.120   5.261  0.9026 -0.6795  0.1144
 3611SOL    HW122292   1.799   2.127   5.351 -0.1510  0.6407  0.3801
 3611SOL    HW222293   1.679   2.155   5.272  1.0485 -0.0100 -0.8258
 3612SOL     OW22294   3.772   2.238   3.663 -0.0312 -0.0924  0.3957
 3612SOL    HW122295   3.775   2.303   3.732  3.2687  0.2101 -0.0107
 3612SOL    HW222296   3.851   2.255   3.611 -0.3016  0.4594  0.1713
 3613SOL     OW22297   2.844   2.622   2.321 -0.4344 -0.1210  0.2760
 3613SOL    HW122298   2.819   2.568   2.246  2.8806 -1.8587  0.4296
 3613SOL    HW222299   2.880   2.696   2.273  0.5599 -0.0850  1.0701
 3614SOL     OW22300   0.037   3.900   4.874 -0.4601 -1.0242  0.0207
 3614SOL    HW122301   0.090   3.853   4.939  0.2127  1.8303  1.5318
 3614SOL    HW222302   4.695   3.832   4.863 -1.4178 -0.2055  0.7247
 3615SOL     OW22303   3.385   0.473   4.235 -0.5174 -0.3310 -0.4383
 3615SOL    HW122304   3.454   0.533   4.204  0.0012  0.5067  2.3533
 3615SOL    HW222305   3.317   0.486   4.169  1.5139  0.8537 -2.3026
 3616SOL     OW22306   1.095   3.141   5.798  0.9012 -0.0649  0.3632
 3616SOL    HW122307   1.171   3.143   5.855 -0.4347  1.8127  2.0943
 3616SOL    HW222308   1.021   3.133   5.858  0.6524  1.4261  0.2516
 3617SOL     OW22309   2.301   3.493   3.626 -0.3485 -0.5226  1.1186
 3617SOL    HW122310   2.248   3.429   3.579 -0.6300  0.3288  0.2681
 3617SOL    HW222311   2.390   3.459   3.625 -0.6976 -1.3363 -1.4878
 3618SOL     OW22312   3.017   1.178   3.230 -0.1709 -0.1108  0.3516
 3618SOL    HW122313   3.042   1.207   3.318 -1.6752 -2.5120  1.5955
 3618SOL    HW222314   3.000   1.261   3.188 -0.5210  0.4416  1.5689
 3619SOL     OW22315   0.876   3.702   6.347 -0.4578 -0.5827 -0.1320
 3619SOL    HW122316   0.871   3.794   6.374  2.5038 -0.3330 -0.3600
 3619SOL    HW222317   0.888   3.658   6.432 -1.4534  0.4232  0.5284
 3620SOL     OW22318   0.536   0.901   2.284 -0.0274  0.0458 -0.2937
 3620SOL    HW122319   0.481   0.973   2.314  0.4175 -0.3308  1.4249
 3620SOL    HW222320   0.615   0.923   2.334  0.0206 -1.7165  0.4045
 3621SOL     OW22321   3.328   2.400   1.991 -0.3699  0.0206  0.2789
 3621SOL    HW122322   3.422   2.381   1.990 -0.5113 -0.7050  2.2345
 3621SOL    HW222323   3.296   2.310   1.994 -1.7440  0.5904  2.7828
 3622SOL     OW22324   3.345   2.609   1.362 -0.1359 -0.2725  0.1985
 3622SOL    HW122325   3.329   2.682   1.303 -0.4406 -0.7968 -0.3623
 3622SOL    HW222326   3.349   2.540   1.296  0.9886  0.0842 -0.1191
 3623SOL     OW22327   4.418   2.952   8.447  0.5521  0.3959  0.1957
 3623SOL    HW122328   4.392   3.018   8.383 -0.4061 -2.3766 -2.2870
 3623SOL    HW222329   4.376   2.980   8.528 -2.5693  0.2517 -1.3959
 3624SOL     OW22330   1.167   1.985   1.979 -0.3833  0.5183 -0.3401
 3624SOL    HW122331   1.123   1.932   2.046  0.2429 -0.4713 -0.7124
 3624SOL    HW222332   1.110   1.949   1.912  0.1549 -0.4090 -0.3067
 3625SOL     OW22333   4.418   0.277   2.404  0.2970 -0.0670  0.2803
 3625SOL    HW122334   4.444   0.330   2.328 -0.1626 -0.6303 -0.2773
 3625SOL    HW222335   4.416   0.195   2.354  2.2439 -0.4524  0.8366
 3626SOL     OW22336   3.008   4.317   9.945 -0.4675  0.2063  0.5700
 3626SOL    HW122337   3.064   4.346   9.872  1.4455 -1.4265  1.3930
 3626SOL    HW222338   2.918   4.331   9.918  0.1082  1.1798 -0.8741
 3627SOL     OW22339   4.013   2.520   6.423 -0.0589  0.1823 -0.4463
 3627SOL    HW122340   4.057   2.583   6.480 -0.1921 -1.3336  1.3171
 3627SOL    HW222341   3.998   2.578   6.348  0.3785  0.5782 -0.2258
 3628SOL     OW22342   3.264   3.834   4.248  0.2467 -0.9088 -0.4444
 3628SOL    HW122343   3.184   3.800   4.287 -0.7209  1.7833 -0.0900
 3628SOL    HW222344   3.301   3.758   4.203  0.1507 -1.5478  0.5478
 3629SOL     OW22345   0.374   3.275   1.225 -0.3437  0.0975 -0.3214
 3629SOL    HW122346   0.337   3.317   1.148 -0.9976 -0.1111 -0.1229
 3629SOL    HW222347   0.418   3.195   1.195 -2.4393 -0.8804 -0.7614
 3630SOL     OW22348   2.069   1.593   0.309  0.0903 -0.1029 -0.4789
 3630SOL    HW122349   2.058   1.508   0.353  1.1629  0.4941  0.9213
 3630SOL    HW222350   2.144   1.570   0.254 -0.9860 -2.4030 -1.0042
 3631SOL     OW22351   2.414   2.402   5.518  0.7733  0.4286  0.3133
 3631SOL    HW122352   2.341   2.350   5.485  1.0896  1.0074 -1.3003
 3631SOL    HW222353   2.494   2.350   5.512  0.8663  0.5761  0.2619
 3632SOL     OW22354   3.232   2.862  11.084 -0.7213  0.2096 -0.2017
 3632SOL    HW122355   3.198   2.794  11.026  1.0262 -1.6629  0.9776
 3632SOL    HW222356   3.248   2.811  11.164 -2.1295  1.5988  0.9759
 3633SOL     OW22357   4.187   2.819   5.011  0.3472  0.0181 -0.2731
 3633SOL    HW122358   4.234   2.900   4.992  1.0346  0.2831  2.6036
 3633SOL    HW222359   4.096   2.843   4.993 -0.4197 -0.4651  3.0740
 3634SOL     OW22360   0.223   0.201   8.313  0.1333 -0.5179  0.4814
 3634SOL    HW122361   0.200   0.214   8.221  1.7588  1.2266  0.3375
 3634SOL    HW222362   0.212   0.106   8.323  2.3196 -0.6571  1.5475
 3635SOL     OW22363   3.915   3.022  17.092 -0.0284 -0.3084 -0.2839
 3635SOL    HW122364   3.842   2.980  17.137 -0.0693 -2.3093 -2.1732
 3635SOL    HW222365   3.988   2.968  17.123  0.3589  0.1317 -0.4171
 3636SOL     OW22366   1.685   0.716   3.955 -0.1242 -0.6884  0.4570
 3636SOL    HW122367   1.592   0.728   3.975 -0.6224 -2.3360 -0.8097
 3636SOL    HW222368   1.692   0.621   3.969  1.0617 -0.3688  2.0547
 3637SOL     OW22369   2.959   2.709   8.729 -0.1614  0.3777 -0.3928
 3637SOL    HW122370   2.944   2.619   8.698 -0.0978  0.4126 -0.5280
 3637SOL    HW222371   3.017   2.687   8.802 -0.1670  2.3058  0.1819
 3638SOL     OW22372   4.429   3.079   0.615  0.3779 -0.0387 -0.1323
 3638SOL    HW122373   4.403   2.995   0.652 -3.0983  0.8195 -0.6218
 3638SOL    HW222374   4.519   3.097   0.642  0.5090 -4.5497  2.3816
 3639SOL     OW22375   2.859   0.423  14.394 -0.6941  0.2839  0.1309
 3639SOL    HW122376   2.839   0.499  14.340 -1.2586  0.0961  0.0761
 3639SOL    HW222377   2.769   0.396  14.410 -1.2248  1.0777 -1.5040
 3640SOL     OW22378   4.350   2.165   6.068  0.1789  0.0527 -0.3877
 3640SOL    HW122379   4.313   2.174   6.156 -1.8927  0.7932 -1.3278
 3640SOL    HW222380   4.366   2.071   6.072  3.4038  0.6519  0.5907
 3641SOL     OW22381   2.489   0.981   5.584  0.5120  0.7341  0.1854
 3641SOL    HW122382   2.499   0.992   5.490  0.7787 -1.6384 -0.0660
 3641SOL    HW222383   2.578   0.957   5.611  0.0441  0.2016  1.2911
 3642SOL     OW22384   1.431   3.952   1.944  0.0662 -0.6691  0.2528
 3642SOL    HW122385   1.406   3.965   2.035  0.1425  1.8397 -0.0836
 3642SOL    HW222386   1.472   3.865   1.950  1.6319  0.3368  3.8116
 3643SOL     OW22387   1.210   0.527  10.602  0.5813  0.9523  0.4978
 3643SOL    HW122388   1.222   0.441  10.643  0.0230  1.0456  0.8606
 3643SOL    HW222389   1.136   0.565  10.649  1.6278  0.7970  2.2938
 3644SOL     OW22390   1.457   2.480   8.049 -0.2415  0.0569 -0.4129
 3644SOL    HW122391   1.384   2.542   8.046 -0.0590  0.2987  0.1944
 3644SOL    HW222392   1.398   2.405   8.061  0.4581 -0.0297  2.5566
 3645SOL     OW22393   4.152   3.262   0.497  0.2193  0.0729 -0.2000
 3645SOL    HW122394   4.224   3.322   0.511 -0.2189  0.6041 -0.2223
 3645SOL    HW222395   4.202   3.182   0.478 -0.8245 -0.9254  1.2283
 3646SOL     OW22396   3.904   3.381   4.691 -0.0222 -0.5050  0.6428
 3646SOL    HW122397   3.919   3.367   4.597 -0.4669  0.1579  0.4717
 3646SOL    HW222398   3.920   3.474   4.704  1.1391 -0.4336 -1.2187
 3647SOL     OW22399   0.348   2.851  15.374 -0.0965  0.0314  0.3367
 3647SOL    HW122400   0.277   2.873  15.314  2.1078  1.0934 -1.8787
 3647SOL    HW222401   0.328   2.761  15.399  0.9488 -0.3908 -0.3977
 3648SOL     OW22402   2.138   2.271   8.384 -0.0618 -0.2730 -0.2675
 3648SOL    HW122403   2.124   2.337   8.451 -0.3014  0.2170 -0.7996
 3648SOL    HW222404   2.142   2.326   8.306 -1.4478  0.5174  0.2391
 3649SOL     OW22405   1.471   2.747   7.413  0.3280 -0.2077 -0.1686
 3649SOL    HW122406   1.534   2.729   7.343 -1.5118  0.5524 -1.9995
 3649SOL    HW222407   1.474   2.843   7.417  0.6991 -0.3413  2.8193
 3650SOL     OW22408   4.473   0.546  11.096  0.1414  0.7351 -0.0389
 3650SOL    HW122409   4.426   0.488  11.156 -2.0139  2.0883 -0.4410
 3650SOL    HW222410   4.560   0.547  11.138  0.5503 -1.2510 -0.8313
 3651SOL     OW22411   2.775   2.363   7.146  0.2256  0.0210  0.2826
 3651SOL    HW122412   2.718   2.422   7.097 -1.0759 -0.2928  1.4141
 3651SOL    HW222413   2.789   2.414   7.226  1.5964  0.1645 -0.0495
 3652SOL     OW22414   2.993   3.751  10.057 -0.0372 -0.1314 -0.2078
 3652SOL    HW122415   2.906   3.715  10.037 -0.6494  1.1383  0.1148
 3652SOL    HW222416   2.980   3.845  10.040 -0.7600 -0.1276  0.3650
 3653SOL     OW22417   0.988   1.945  17.138 -0.5159  0.7888 -0.1449
 3653SOL    HW122418   1.018   2.035  17.128  1.1029  0.0831 -1.7321
 3653SOL    HW222419   1.010   1.905  17.054  2.4343  1.4754  0.2976
 3654SOL     OW22420   2.195   0.738   7.405  0.7708  0.7066  0.0713
 3654SOL    HW122421   2.105   0.770   7.396  0.3099 -0.8503 -0.8477
 3654SOL    HW222422   2.187   0.646   7.381 -0.9531  0.1009  2.8864
 3655SOL     OW22423   3.241   3.124   5.368  0.2346  0.5416 -0.7612
 3655SOL    HW122424   3.204   3.095   5.451 -0.1735 -4.3437 -2.6298
 3655SOL    HW222425   3.169   3.100   5.309  1.3640 -1.9113 -1.1461
 3656SOL     OW22426   1.731   1.167   5.527  0.5070  0.1756  0.1118
 3656SOL    HW122427   1.814   1.135   5.561  0.1826  0.0877  0.8276
 3656SOL    HW222428   1.678   1.125   5.595 -3.0979  1.6756 -1.7980
 3657SOL     OW22429   4.721   3.218   1.252 -0.2711 -0.3115 -0.1820
 3657SOL    HW122430   4.650   3.196   1.312 -0.0142 -1.1671 -0.1882
 3657SOL    HW222431   0.045   3.288   1.296 -0.9212 -0.3809  0.6302
 3658SOL     OW22432   0.508   4.659   7.802 -0.4391  0.1744  0.3214
 3658SOL    HW122433   0.582   4.693   7.753 -0.5164  0.4130  0.3702
 3658SOL    HW222434   0.523   4.564   7.801  0.7763  0.3552  1.3027
 3659SOL     OW22435   1.719   3.859   9.510  0.1655 -0.1836 -0.0686
 3659SOL    HW122436   1.636   3.907   9.503  1.0785  1.4421  0.2194
 3659SOL    HW222437   1.738   3.831   9.421  1.9164  1.4816 -0.2093
 3660SOL     OW22438   0.846   4.531   0.846  0.3822 -0.1879 -0.0408
 3660SOL    HW122439   0.858   4.470   0.918  1.7088  1.7637  1.3847
 3660SOL    HW222440   0.833   4.616   0.888  0.4079 -0.8567  1.3088
 3661SOL     OW22441   4.120   1.132   4.122 -0.1394  0.0882  0.1280
 3661SOL    HW122442   4.138   1.221   4.089  0.7700  0.4474  1.5901
 3661SOL    HW222443   4.046   1.145   4.181 -0.0470 -0.4721  0.3621
 3662SOL     OW22444   1.605   2.580   3.577 -0.2756  0.3999  0.8989
 3662SOL    HW122445   1.676   2.549   3.520 -0.2294 -0.3186  1.3464
 3662SOL    HW222446   1.541   2.509   3.569 -0.9203  1.0612  0.1777
 3663SOL     OW22447   4.446   3.561   7.764  0.0841 -0.1906  0.0591
 3663SOL    HW122448   4.491   3.481   7.736  1.7902  0.8293 -0.1160
 3663SOL    HW222449   4.445   3.608   7.681  1.3843 -1.6791 -0.8050
 3664SOL     OW22450   4.682   1.399   5.536  0.4080 -0.2074 -0.2500
 3664SOL    HW122451   4.677   1.319   5.483 -0.6126 -0.3219  0.0177
 3664SOL    HW222452   4.710   1.375   5.625 -1.0799 -2.8473 -0.4865
 3665SOL     OW22453   3.956   2.457   4.072 -0.2388  0.0214 -0.1940
 3665SOL    HW122454   3.986   2.526   4.013  0.3270  1.2800  1.5828
 3665SOL    HW222455   4.012   2.386   4.040 -2.3513 -1.3375 -0.8337
 3666SOL     OW22456   2.040   4.410   0.155 -0.3180  0.3252 -0.3587
 3666SOL    HW122457   2.026   4.438   0.064 -2.4180 -0.8297 -0.3807
 3666SOL    HW222458   1.976   4.470   0.193 -0.9898 -0.8791  0.4009
 3667SOL     OW22459   4.610   1.910   5.908  0.4239 -0.6322  0.1906
 3667SOL    HW122460   4.563   1.973   5.853  0.7198  0.9363  1.7535
 3667SOL    HW222461   4.550   1.836   5.896  0.1820 -0.4432  0.2416
 3668SOL     OW22462   1.188   4.561   0.378 -1.6434  0.2578 -0.0691
 3668SOL    HW122463   1.202   4.640   0.326 -1.9793  0.9473  0.8916
 3668SOL    HW222464   1.128   4.505   0.328  1.2697 -2.0219 -0.9978
 3669SOL     OW22465   3.698   1.132   0.988  0.4666 -0.0830 -0.1661
 3669SOL    HW122466   3.675   1.225   0.976 -0.6739 -0.3078  0.2389
 3669SOL    HW222467   3.719   1.126   1.081  0.4985 -1.2596 -0.2585
 3670SOL     OW22468   1.670   4.610  11.306 -0.4245  0.2989 -0.0320
 3670SOL    HW122469   1.615   4.572  11.375  1.6815  1.8177  2.4690
 3670SOL    HW222470   1.617   4.684  11.278 -0.9678 -0.8565 -2.0339
 3671SOL     OW22471   0.387   2.378  11.918  0.0501 -0.1997 -0.7708
 3671SOL    HW122472   0.314   2.327  11.952  0.7893 -0.9603 -0.3349
 3671SOL    HW222473   0.346   2.464  11.927  0.3717  0.1031 -2.1225
 3672SOL     OW22474   3.464   0.870   8.931  0.2879  0.8718 -0.5612
 3672SOL    HW122475   3.475   0.965   8.920  0.2533  0.9218 -0.1946
 3672SOL    HW222476   3.387   0.868   8.874  0.0683  0.5452 -0.2578
 3673SOL     OW22477   4.537   1.740   2.052  0.2194 -0.6069  0.3870
 3673SOL    HW122478   4.541   1.832   2.078 -0.3259 -0.6064  0.4659
 3673SOL    HW222479   4.563   1.703   2.137  0.2890  2.3616  1.6604
 3674SOL     OW22480   0.404   0.021  11.933  0.0965 -0.3001 -0.2536
 3674SOL    HW122481   0.368   0.056  11.851 -0.4958 -0.9991 -0.2922
 3674SOL    HW222482   0.492   4.718  11.910  0.8748 -0.3732  2.8846
 3675SOL     OW22483   2.946   0.014  13.907  0.3535  0.2410  0.8079
 3675SOL    HW122484   2.879   4.689  13.954 -0.1841  0.6855  0.5088
 3675SOL    HW222485   3.013   4.671  13.902  0.6118  0.6599 -1.2633
 3676SOL     OW22486   1.204   2.782   5.220  0.2539 -0.7603  0.5210
 3676SOL    HW122487   1.144   2.710   5.199 -0.0524 -0.0938 -0.8948
 3676SOL    HW222488   1.246   2.800   5.136 -0.6819 -0.1021  0.1981
 3677SOL     OW22489   3.739   3.957   6.266 -0.1937 -0.2505  0.2001
 3677SOL    HW122490   3.683   3.912   6.330 -1.7413  0.6928 -0.4966
 3677SOL    HW222491   3.812   3.990   6.318 -0.1227 -0.0741 -0.0125
 3678SOL     OW22492   3.789   4.453   5.181  0.5074  0.2186 -0.1828
 3678SOL    HW122493   3.788   4.363   5.216  0.2771  1.3122  2.6911
 3678SOL    HW222494   3.882   4.455   5.160  0.9024 -0.6338  1.3843
 3679SOL     OW22495   1.028   4.146   4.898 -0.3484  0.1235 -0.1603
 3679SOL    HW122496   0.960   4.118   4.959 -0.1916 -2.2322 -1.0859
 3679SOL    HW222497   1.019   4.091   4.821  1.1980 -1.4516  0.7969
 3680SOL     OW22498   3.464   4.232   8.551 -0.1113 -0.1673  0.1896
 3680SOL    HW122499   3.374   4.200   8.557 -0.1758  0.7372  3.8721
 3680SOL    HW222500   3.507   4.147   8.543 -2.4638 -1.3272 -0.0827
 3681SOL     OW22501   2.276   1.401  16.740 -0.1069 -0.4076  0.3001
 3681SOL    HW122502   2.201   1.407  16.680  0.6777  2.9223 -0.3711
 3681SOL    HW222503   2.334   1.366  16.673  1.3767  0.6271  1.0519
 3682SOL     OW22504   4.513   3.259   4.455 -0.1816 -0.0438 -0.9751
 3682SOL    HW122505   4.587   3.211   4.417 -0.6297 -1.1751 -0.4404
 3682SOL    HW222506   4.479   3.311   4.382 -1.9374  2.0532  1.3239
 3683SOL     OW22507   3.364   3.757   4.516  0.1325 -0.5066  0.1343
 3683SOL    HW122508   3.433   3.824   4.519 -0.2815  0.0343 -2.3960
 3683SOL    HW222509   3.355   3.749   4.421  2.8467 -0.1003 -0.1649
 3684SOL     OW22510   3.783   3.808  16.896  0.1766 -0.1940 -0.4239
 3684SOL    HW122511   3.795   3.877  16.831  1.2188 -0.9613 -1.0606
 3684SOL    HW222512   3.827   3.740  16.845 -0.1510  0.1948 -1.2129
 3685SOL     OW22513   2.140   3.384   3.874 -0.2197 -0.1705  0.1524
 3685SOL    HW122514   2.154   3.296   3.839 -0.2835 -0.1049 -0.0346
 3685SOL    HW222515   2.201   3.437   3.823 -0.4637  1.3249  1.4301
 3686SOL     OW22516   4.319   0.252   0.927 -0.6070 -0.1684  0.1215
 3686SOL    HW122517   4.248   0.189   0.918  0.2372 -0.7385 -2.5143
 3686SOL    HW222518   4.345   0.239   0.836  0.4401 -0.7442  0.4943
 3687SOL     OW22519   4.132   1.978   4.027 -0.2488  0.4184  0.8141
 3687SOL    HW122520   4.127   2.060   4.076 -0.9253  0.3496  0.8484
 3687SOL    HW222521   4.227   1.961   4.028 -0.4229 -0.5545  0.8320
 3688SOL     OW22522   4.156   3.044   6.247 -0.2791  0.8972  0.5875
 3688SOL    HW122523   4.129   3.095   6.324  0.2646  0.8883  0.7876
 3688SOL    HW222524   4.211   3.113   6.210  0.1766 -0.9132 -2.0750
 3689SOL     OW22525   1.976   0.818   6.385  0.0914  0.3513  0.1289
 3689SOL    HW122526   1.983   0.727   6.412 -0.2048  0.7243  1.4566
 3689SOL    HW222527   1.936   0.803   6.299 -0.4908 -0.4546  0.5393
 3690SOL     OW22528   1.408   3.696   7.474  0.2360  0.1953 -0.0263
 3690SOL    HW122529   1.365   3.764   7.525 -1.8433  0.6265 -2.3698
 3690SOL    HW222530   1.495   3.732   7.487  0.0203  0.8533 -0.4342
 3691SOL     OW22531   3.763   0.536  16.150  0.3918  0.2152 -0.7290
 3691SOL    HW122532   3.745   0.587  16.229  1.3081 -0.5991  0.0095
 3691SOL    HW222533   3.685   0.480  16.144  2.1207 -2.3829  0.8908
 3692SOL     OW22534   1.699   0.060   3.686  0.0306  0.6086 -0.0791
 3692SOL    HW122535   1.787   0.029   3.708 -0.1336  1.1681  1.3611
 3692SOL    HW222536   1.704   0.091   3.596  0.2247 -1.4956 -0.7856
 3693SOL     OW22537   1.514   3.296  11.414 -0.6557 -0.1728  0.6546
 3693SOL    HW122538   1.596   3.257  11.381  0.6375  2.0952  1.1752
 3693SOL    HW222539   1.461   3.217  11.424  2.0878 -2.1556 -0.2318
 3694SOL     OW22540   1.872   4.026   7.232 -0.4201 -0.0422  0.3726
 3694SOL    HW122541   1.940   4.076   7.277  0.2313 -0.3355 -0.2894
 3694SOL    HW222542   1.791   4.075   7.242 -0.1909  0.7542 -1.6464
 3695SOL     OW22543   1.168   0.920  15.737 -0.1161 -0.2284 -0.1768
 3695SOL    HW122544   1.116   0.841  15.721  1.7659 -1.5670  0.2063
 3695SOL    HW222545   1.137   0.936  15.826 -0.5124  1.0227 -0.5519
 3696SOL     OW22546   0.411   2.555  10.072  0.7307  0.7364  0.3620
 3696SOL    HW122547   0.444   2.632  10.026 -2.4550  1.2181 -1.1609
 3696SOL    HW222548   0.469   2.484  10.047  1.6959  0.9752  1.9520
 3697SOL     OW22549   4.670   1.231   3.278  0.1321 -0.6271  0.5232
 3697SOL    HW122550   4.593   1.288   3.274 -0.1530 -0.9226  1.7474
 3697SOL    HW222551   4.632   1.148   3.249 -0.2785 -0.7933  1.5314
 3698SOL     OW22552   2.832   1.557   5.545  0.3767 -0.3174 -0.3173
 3698SOL    HW122553   2.740   1.582   5.544  0.2155 -0.9229 -0.7198
 3698SOL    HW222554   2.871   1.614   5.611  1.6067 -0.1856 -1.1532
 3699SOL     OW22555   2.226   3.196   8.657  0.4473 -0.4182  0.0754
 3699SOL    HW122556   2.232   3.209   8.751  2.1298 -0.5098 -0.0332
 3699SOL    HW222557   2.243   3.282   8.620  1.8311 -0.9929 -0.6235
 3700SOL     OW22558   0.479   3.139  12.644 -0.3738 -0.2656 -0.6039
 3700SOL    HW122559   0.536   3.216  12.649 -2.9115  1.4114  2.7323
 3700SOL    HW222560   0.410   3.171  12.586  0.1124 -0.7722 -1.4712
 3701SOL     OW22561   2.205   4.366  16.081  0.4295  0.2088 -0.0165
 3701SOL    HW122562   2.205   4.420  16.160 -0.4829 -0.4275  0.4139
 3701SOL    HW222563   2.114   4.378  16.055 -0.0782  0.5967  1.9591
 3702SOL     OW22564   2.933   4.634   9.416 -0.2328 -0.0167  0.1021
 3702SOL    HW122565   2.931   4.539   9.412  0.6702 -0.0647  0.9527
 3702SOL    HW222566   2.841   4.654   9.398  0.5008  2.1666 -1.2271
 3703SOL     OW22567   1.330   3.386   5.680 -0.2799 -0.6150 -0.3788
 3703SOL    HW122568   1.384   3.390   5.759  0.8630 -0.3847 -1.1604
 3703SOL    HW222569   1.374   3.453   5.627 -0.6432  0.3193  0.5067
 3704SOL     OW22570   3.526   3.748  16.823  0.1222  0.1905  0.0262
 3704SOL    HW122571   3.507   3.668  16.871  2.1264 -2.1680 -3.0451
 3704SOL    HW222572   3.607   3.762  16.873  2.7537 -0.9756 -3.8990
 3705SOL     OW22573   4.470   0.703   7.397 -0.0328 -0.0023  0.4845
 3705SOL    HW122574   4.469   0.607   7.395 -0.2751  0.0116 -0.1792
 3705SOL    HW222575   4.555   0.727   7.361 -0.6484  1.3740 -0.0447
 3706SOL     OW22576   1.381   4.252  11.590  0.7373  0.1947  0.1705
 3706SOL    HW122577   1.371   4.177  11.649  1.0153 -0.1651 -0.2288
 3706SOL    HW222578   1.293   4.288  11.585 -0.5193 -2.8320  0.5029
 3707SOL     OW22579   4.004   3.359   4.445  0.2134  0.3614 -0.5128
 3707SOL    HW122580   4.054   3.439   4.460  0.4883  0.3352 -1.2682
 3707SOL    HW222581   4.025   3.349   4.352  2.8018 -0.7177  0.1930
 3708SOL     OW22582   4.328   3.868   7.363 -0.0317  0.0992  0.3193
 3708SOL    HW122583   4.275   3.838   7.288  1.6014  0.7759 -1.1050
 3708SOL    HW222584   4.405   3.811   7.362 -0.3219 -0.3433  3.3633
 3709SOL     OW22585   4.456   4.675   5.887  0.2267 -0.0900 -0.1417
 3709SOL    HW122586   4.514   0.018   5.923 -1.4783  0.4954  1.5079
 3709SOL    HW222587   4.430   4.713   5.803  1.2470 -1.5188 -1.1143
 3710SOL     OW22588   0.469   3.546   4.632  0.5354  0.3552  0.3646
 3710SOL    HW122589   0.508   3.529   4.717 -0.7144 -0.5713  0.7662
 3710SOL    HW222590   0.509   3.629   4.606  0.0728  0.4790  0.0344
 3711SOL     OW22591   3.500   0.094   9.917  0.2547 -0.0765 -0.2584
 3711SOL    HW122592   3.410   0.121   9.897 -0.2388 -0.1921  1.8661
 3711SOL    HW222593   3.501   0.011   9.870  0.1765 -1.6102  2.4884
 3712SOL     OW22594   2.313   4.140   2.084 -0.7549 -0.0077  0.1672
 3712SOL    HW122595   2.343   4.124   1.995  0.6888 -1.5980  0.9342
 3712SOL    HW222596   2.256   4.217   2.079  0.1060  0.6479  0.4722
 3713SOL     OW22597   0.290   1.078   2.311  0.0257 -0.0939 -0.1733
 3713SOL    HW122598   0.218   1.123   2.267  0.4673  1.0144  0.2174
 3713SOL    HW222599   0.251   1.000   2.349 -0.3223  0.6746  1.0545
 3714SOL     OW22600   3.247   2.728   8.235  0.5519  0.1308 -0.0794
 3714SOL    HW122601   3.221   2.765   8.319  0.2891 -1.4068  0.5238
 3714SOL    HW222602   3.244   2.805   8.179 -2.1334 -0.0096 -0.1029
 3715SOL     OW22603   0.998   0.942   3.160  0.3830 -0.5830  0.3587
 3715SOL    HW122604   1.064   0.905   3.219  0.0773 -0.5927  0.6919
 3715SOL    HW222605   1.038   0.923   3.075  2.9563  0.3993  1.3348
 3716SOL     OW22606   3.990   0.332   0.307 -0.5989  0.4252  0.3132
 3716SOL    HW122607   4.067   0.386   0.289 -0.6352  0.1016 -0.8384
 3716SOL    HW222608   3.937   0.359   0.232 -1.2300  0.0476  0.6267
 3717SOL     OW22609   4.670   1.835   6.554  0.4732  0.2931  0.2613
 3717SOL    HW122610   4.711   1.904   6.502  1.8403 -1.3088 -0.7851
 3717SOL    HW222611   4.716   1.846   6.637 -0.1517 -1.8671  0.8944
 3718SOL     OW22612   0.284   4.277   5.984  0.0902  0.2248  0.1872
 3718SOL    HW122613   0.365   4.255   5.938  0.3064  2.5266 -0.5321
 3718SOL    HW222614   0.233   4.331   5.924  0.9094  0.2194 -0.5096
 3719SOL     OW22615   2.214   2.729   7.749  0.0563  0.4676 -0.3482
 3719SOL    HW122616   2.231   2.696   7.837 -0.1148 -1.1483 -0.9199
 3719SOL    HW222617   2.208   2.649   7.696 -0.0226 -0.9575  1.8354
 3720SOL     OW22618   0.772   2.338  13.241  0.3154 -0.3923 -0.0553
 3720SOL    HW122619   0.850   2.354  13.188 -0.2022 -3.6413 -1.8071
 3720SOL    HW222620   0.714   2.277  13.195 -0.7808  0.3060  0.3867
 3721SOL     OW22621   1.560   1.945  11.000 -0.2597  0.0908  0.5098
 3721SOL    HW122622   1.594   1.929  11.088  2.0283 -0.3444 -0.4389
 3721SOL    HW222623   1.548   2.038  11.016  2.4448  0.3423  1.0456
 3722SOL     OW22624   3.744   0.638   2.746  0.7095  0.6197  0.3802
 3722SOL    HW122625   3.779   0.693   2.815  0.9665  0.6122  0.2562
 3722SOL    HW222626   3.709   0.559   2.789  0.3582  1.1804  1.1138
 3723SOL     OW22627   1.164   0.708   8.566  0.4453  0.1959 -0.1229
 3723SOL    HW122628   1.164   0.753   8.482 -2.0952 -0.5114 -0.5258
 3723SOL    HW222629   1.247   0.735   8.604  1.6717  1.8678 -3.9557
 3724SOL     OW22630   1.043   4.033   9.226  0.2399  0.3788  0.1258
 3724SOL    HW122631   1.029   4.099   9.293  1.5835  1.9632 -1.1797
 3724SOL    HW222632   1.078   3.956   9.272  0.7258  0.9763  0.7606
 3725SOL     OW22633   0.224   3.825   2.768  0.5086 -0.2279  0.0168
 3725SOL    HW122634   0.257   3.777   2.843  0.1523 -0.1401  0.2284
 3725SOL    HW222635   0.309   3.848   2.729 -0.5535  1.1716 -1.4859
 3726SOL     OW22636   0.085   1.492   6.875 -0.0836 -0.6707 -0.1439
 3726SOL    HW122637   0.143   1.568   6.881 -0.7565 -0.0871 -1.1958
 3726SOL    HW222638   0.104   1.439   6.952  0.2837 -1.3951 -0.7381
 3727SOL     OW22639   1.268   0.589  17.648 -0.2338  0.0419 -0.0670
 3727SOL    HW122640   1.237   0.663   0.001  2.7032  1.7519 -0.7422
 3727SOL    HW222641   1.182   0.562  17.615  1.1285 -0.3988 -3.1604
 3728SOL     OW22642   1.801   4.199   6.421  0.2731  0.2835 -1.0894
 3728SOL    HW122643   1.871   4.241   6.471  0.0724  0.8795 -1.3130
 3728SOL    HW222644   1.827   4.107   6.420 -0.0248  0.1916  0.2986
 3729SOL     OW22645   3.807   1.374   8.091 -0.3047  0.0502 -0.1692
 3729SOL    HW122646   3.879   1.430   8.120 -0.4394  0.7716 -1.2119
 3729SOL    HW222647   3.808   1.293   8.142 -3.0239  0.4186  0.4926
 3730SOL     OW22648   4.197   3.659   8.869 -0.2381  0.5503 -0.4216
 3730SOL    HW122649   4.290   3.659   8.890 -0.6136  0.9024  1.2507
 3730SOL    HW222650   4.193   3.591   8.801  1.7595  0.4843 -0.4504
 3731SOL     OW22651   1.381   2.480   8.849  0.4188  0.3221 -0.7381
 3731SOL    HW122652   1.380   2.449   8.940 -0.3111  1.1303 -0.4629
 3731SOL    HW222653   1.325   2.556   8.865 -1.0193 -1.2963  1.9796
 3732SOL     OW22654   3.244   2.965   1.499 -0.0825  0.1462 -0.0881
 3732SOL    HW122655   3.151   2.981   1.484 -0.2773 -3.4306 -2.8883
 3732SOL    HW222656   3.274   3.040   1.550  0.0988 -0.1818  0.2828
 3733SOL     OW22657   2.844   3.193   3.711 -0.2604  0.1425  1.0130
 3733SOL    HW122658   2.867   3.158   3.625  1.7758  2.3590  0.6501
 3733SOL    HW222659   2.928   3.214   3.752 -0.3268 -0.3610  1.3962
 3734SOL     OW22660   1.537   1.368   4.996  0.6999 -0.1694  0.2124
 3734SOL    HW122661   1.502   1.454   5.017  2.0409  0.5232 -0.3843
 3734SOL    HW222662   1.470   1.337   4.935  0.6933 -0.0602  0.1646
 3735SOL     OW22663   2.371   3.236  17.333  0.5728 -0.4657  0.6979
 3735SOL    HW122664   2.394   3.303  17.397 -2.4948  1.0069  0.2350
 3735SOL    HW222665   2.297   3.187  17.370  0.2829  0.4104  1.2718
 3736SOL     OW22666   1.526   4.572  16.128 -0.1442  0.2891  0.3415
 3736SOL    HW122667   1.478   4.651  16.104  0.1272  0.7114  1.2013
 3736SOL    HW222668   1.523   4.554  16.222 -0.1498 -0.0436  0.2773
 3737SOL     OW22669   3.911   1.775   7.705  0.1404 -0.5836 -0.4772
 3737SOL    HW122670   3.850   1.703   7.692 -0.7326 -0.3204  2.0896
 3737SOL    HW222671   3.864   1.826   7.771 -1.0078 -0.5964 -1.2898
 3738SOL     OW22672   4.441   4.265   4.645 -0.1927  0.0716 -0.0976
 3738SOL    HW122673   4.437   4.228   4.557  1.4032 -2.5277  0.9125
 3738SOL    HW222674   4.533   4.245   4.664 -1.5325 -3.2779  2.9395
 3739SOL     OW22675   0.289   2.090  11.086 -0.0426 -0.4679  0.4060
 3739SOL    HW122676   0.273   2.022  11.151  1.3095 -0.2559  0.9659
 3739SOL    HW222677   0.350   2.139  11.141  0.0219 -1.0859  0.8745
 3740SOL     OW22678   1.824   0.286  16.643 -0.2790  0.0839 -0.0380
 3740SOL    HW122679   1.740   0.325  16.616 -0.1010 -0.4821 -1.4081
 3740SOL    HW222680   1.791   0.199  16.667  0.8997  0.2369  2.1262
 3741SOL     OW22681   1.139   2.261   7.224 -0.2690 -0.1941  0.3810
 3741SOL    HW122682   1.104   2.172   7.219 -0.8355 -0.0407  1.4908
 3741SOL    HW222683   1.225   2.254   7.264  0.1704  4.3498  0.1654
 3742SOL     OW22684   1.446   0.623  16.555  0.4669  0.4856 -0.1503
 3742SOL    HW122685   1.477   0.697  16.608 -1.4860  0.3751  1.1506
 3742SOL    HW222686   1.359   0.604  16.589  0.3432 -0.0935 -0.7964
 3743SOL     OW22687   0.605   0.567   2.278  0.4736 -0.4356  0.4774
 3743SOL    HW122688   0.649   0.629   2.337  0.2325  0.3812 -0.2053
 3743SOL    HW222689   0.523   0.612   2.259  0.3577 -0.4313  0.9838
 3744SOL     OW22690   3.472   2.604   7.882  0.3063  0.2176 -0.0818
 3744SOL    HW122691   3.499   2.516   7.908 -1.3216 -0.0090  0.8887
 3744SOL    HW222692   3.378   2.592   7.891  0.4958 -0.3008  1.2013
 3745SOL     OW22693   3.374   1.457   9.377  0.3800 -0.7894  0.1512
 3745SOL    HW122694   3.371   1.387   9.312 -3.7120  1.3323 -1.8952
 3745SOL    HW222695   3.446   1.504   9.335 -0.7049 -1.8528 -2.9028
 3746SOL     OW22696   2.566   0.159   4.584 -0.2936 -0.1257 -0.2049
 3746SOL    HW122697   2.540   0.248   4.560  2.1509 -0.0165 -2.4735
 3746SOL    HW222698   2.499   0.100   4.550  0.1482 -2.7029  3.3544
 3747SOL     OW22699   0.443   4.176   4.477  0.2910 -0.0899  0.0491
 3747SOL    HW122700   0.501   4.123   4.423 -0.2176 -0.4644 -0.1255
 3747SOL    HW222701   0.357   4.137   4.465 -0.4250  2.3287 -2.8317
 3748SOL     OW22702   3.134   2.872   8.536 -0.0284  0.3158  0.0825
 3748SOL    HW122703   3.065   2.807   8.549 -0.3291  0.7691  0.7228
 3748SOL    HW222704   3.133   2.905   8.626  1.8432 -1.2004  0.6643
 3749SOL     OW22705   1.244   2.889   8.663 -0.7455 -0.3649  0.1999
 3749SOL    HW122706   1.224   2.814   8.720 -1.9227  0.3702  0.7599
 3749SOL    HW222707   1.186   2.863   8.592 -2.0509  1.4850  0.5984
 3750SOL     OW22708   0.775   0.794   2.701  0.4196  1.0600  0.6513
 3750SOL    HW122709   0.700   0.852   2.689 -0.6301 -0.1887  1.2042
 3750SOL    HW222710   0.725   0.715   2.680  2.6394  0.0800 -0.9749
 3751SOL     OW22711   3.862   3.275   5.224 -0.0332  0.0595 -0.0038
 3751SOL    HW122712   3.780   3.253   5.180  0.2563 -0.4747 -0.2825
 3751SOL    HW222713   3.928   3.228   5.173  0.1765  1.7372 -1.2713
 3752SOL     OW22714   1.798   2.226   6.234 -0.0565 -0.0110  0.1348
 3752SOL    HW122715   1.821   2.198   6.322 -0.0589 -1.6482 -0.3909
 3752SOL    HW222716   1.869   2.286   6.211 -1.5634  1.7218  0.0459
 3753SOL     OW22717   1.598   1.046  15.725  0.3681 -0.4217 -0.2503
 3753SOL    HW122718   1.560   0.958  15.722 -0.1157 -0.2964  2.5773
 3753SOL    HW222719   1.583   1.057  15.819 -1.4198 -3.2856 -0.1715
 3754SOL     OW22720   2.141   1.203   2.262  0.2709 -0.3243 -0.5749
 3754SOL    HW122721   2.174   1.140   2.327 -0.0803  0.9809  0.8679
 3754SOL    HW222722   2.214   1.263   2.248 -0.0348 -0.1133 -1.2489
 3755SOL     OW22723   1.419   3.601   6.334 -0.1808 -0.6193 -0.0139
 3755SOL    HW122724   1.366   3.668   6.292 -0.7095 -0.7758  0.4062
 3755SOL    HW222725   1.371   3.523   6.306  0.4723 -0.6895 -0.9477
 3756SOL     OW22726   1.168   4.252   2.883 -0.1768 -0.1919 -0.1741
 3756SOL    HW122727   1.254   4.294   2.876 -0.6875  1.1587  1.5629
 3756SOL    HW222728   1.158   4.267   2.977 -2.5493  0.3014 -0.5187
 3757SOL     OW22729   0.056   3.293   1.716  0.0455 -0.4082 -0.2935
 3757SOL    HW122730   0.012   3.339   1.787 -1.1828 -3.1596  0.7263
 3757SOL    HW222731   0.146   3.326   1.714  0.2560 -0.8949  1.2920
 3758SOL     OW22732   2.785   0.299   2.553  0.1030  0.2967  0.5664
 3758SOL    HW122733   2.867   0.280   2.507 -0.3407  1.1182 -0.5577
 3758SOL    HW222734   2.760   0.222   2.604 -0.2909  1.8551  2.6997
 3759SOL     OW22735   2.525   3.132   3.395  0.0942 -0.1732 -0.4415
 3759SOL    HW122736   2.572   3.090   3.323  1.2002  0.6848 -0.2285
 3759SOL    HW222737   2.509   3.054   3.448 -0.0852 -0.2827 -0.6550
 3760SOL     OW22738   0.210   4.098   8.741 -0.0413 -0.3824  0.6744
 3760SOL    HW122739   0.217   4.002   8.740 -1.1634 -0.4658  0.1658
 3760SOL    HW222740   0.122   4.106   8.703  0.5370 -0.8563 -0.7904
 3761SOL     OW22741   2.677   1.510   4.295  0.3727  0.0839  0.3242
 3761SOL    HW122742   2.716   1.444   4.352 -2.0677 -1.7254 -0.1321
 3761SOL    HW222743   2.681   1.589   4.349 -1.2430 -0.1362  0.7607
 3762SOL     OW22744   1.759   0.850   5.910  0.2055 -0.0641 -0.0849
 3762SOL    HW122745   1.720   0.937   5.901 -1.1481 -0.7798 -1.1550
 3762SOL    HW222746   1.840   0.887   5.946  0.5535  0.5313 -1.4708
 3763SOL     OW22747   1.707   1.738   0.244  0.1920  0.7915 -0.0599
 3763SOL    HW122748   1.748   1.744   0.157  1.2783  2.5583  0.5786
 3763SOL    HW222749   1.680   1.646   0.249  0.2841  0.6891 -1.4316
 3764SOL     OW22750   0.186   0.997   2.911 -0.1345  0.4243  0.1079
 3764SOL    HW122751   0.128   1.057   2.865 -1.0519  0.0384  0.7698
 3764SOL    HW222752   0.269   1.045   2.907  1.1248 -1.6070  1.8708
 3765SOL     OW22753   0.096   3.171   7.530 -0.2880 -0.3816  0.5973
 3765SOL    HW122754   0.138   3.178   7.616  0.8245 -1.1256  0.1116
 3765SOL    HW222755   0.053   3.087   7.543 -2.6176  0.8214  0.7120
 3766SOL     OW22756   2.348   4.217  16.978  0.6675  0.1416  0.1233
 3766SOL    HW122757   2.388   4.144  17.026 -1.0963 -0.2515  0.9657
 3766SOL    HW222758   2.297   4.254  17.050  0.8892 -1.4692  1.1032
 3767SOL     OW22759   3.261   0.459  15.251 -0.5718  0.5640 -0.0928
 3767SOL    HW122760   3.240   0.365  15.245 -1.9966  0.9960 -1.8316
 3767SOL    HW222761   3.219   0.494  15.173 -2.2466 -0.6616  0.2351
 3768SOL     OW22762   0.476   1.693   3.314 -0.2749 -0.5162  0.5450
 3768SOL    HW122763   0.496   1.622   3.375  1.0825 -2.2036 -1.8681
 3768SOL    HW222764   0.513   1.769   3.358  2.0356 -0.3210 -1.7807
 3769SOL     OW22765   1.695   0.154   6.320  0.1461 -0.4709 -0.6309
 3769SOL    HW122766   1.620   0.215   6.321  0.6693  0.1471  0.7076
 3769SOL    HW222767   1.763   0.206   6.363 -0.8822  1.3570 -1.2106
 3770SOL     OW22768   3.014   2.437   8.915 -0.3128 -0.6998  0.0970
 3770SOL    HW122769   2.957   2.448   8.839  0.4815  2.1563 -0.0759
 3770SOL    HW222770   3.056   2.523   8.919 -1.9275  0.0902  0.4135
 3771SOL     OW22771   1.808   2.441   3.479 -0.3779 -0.4454  0.3416
 3771SOL    HW122772   1.837   2.350   3.478  0.5134 -0.1851  1.9425
 3771SOL    HW222773   1.821   2.467   3.388 -1.4250  1.3532  0.7158
 3772SOL     OW22774   0.850   1.307   5.039  0.2227  0.4857 -0.1686
 3772SOL    HW122775   0.798   1.328   5.117  1.7086  2.6706  0.2378
 3772SOL    HW222776   0.787   1.301   4.967 -1.1998  1.8833  0.9747
 3773SOL     OW22777   1.534   3.574   7.266 -0.0911  0.7987  0.0876
 3773SOL    HW122778   1.470   3.511   7.233  0.5339 -0.2496  0.8537
 3773SOL    HW222779   1.487   3.621   7.335 -0.7707 -0.0851  0.2326
 3774SOL     OW22780   4.070   4.480  11.810 -0.5081  0.0564 -0.0899
 3774SOL    HW122781   4.005   4.512  11.874 -1.2850  1.4788 -1.5795
 3774SOL    HW222782   4.056   4.386  11.810 -0.0957 -0.0014  2.0388
 3775SOL     OW22783   2.893   0.965   5.289  0.4550 -0.1601 -0.0795
 3775SOL    HW122784   2.837   1.029   5.246 -0.2407  0.2589  1.4473
 3775SOL    HW222785   2.964   1.016   5.329 -0.3574 -0.2193  1.4298
 3776SOL     OW22786   1.678   0.006   5.685  0.3270  0.0134 -0.1854
 3776SOL    HW122787   1.659   4.637   5.684 -1.5983  0.4111 -1.8015
 3776SOL    HW222788   1.772   0.008   5.669  0.2764 -2.6168 -0.7971
 3777SOL     OW22789   2.012   3.956   8.898  0.7392 -0.0626  0.1411
 3777SOL    HW122790   2.092   3.917   8.864  0.2243 -1.8653  1.0282
 3777SOL    HW222791   2.035   4.048   8.886 -0.1613  0.2110  0.4920
 3778SOL     OW22792   3.389   4.086   9.520  0.9736  0.2294  0.3875
 3778SOL    HW122793   3.395   3.992   9.508  1.7460  0.4693 -1.1721
 3778SOL    HW222794   3.457   4.096   9.586  0.5987  0.1649  0.7796
 3779SOL     OW22795   2.263   3.274   6.227  0.1916  0.5438 -0.3718
 3779SOL    HW122796   2.203   3.299   6.297  2.4400  1.2580  1.3019
 3779SOL    HW222797   2.219   3.316   6.154  1.8173  2.0372 -0.4923
 3780SOL     OW22798   3.556   4.079   5.722  0.1581 -0.2664 -0.0905
 3780SOL    HW122799   3.505   4.115   5.650  0.1903  1.2011  0.6253
 3780SOL    HW222800   3.596   4.006   5.675  2.0716 -0.2065  1.4278
 3781SOL     OW22801   3.299   4.356   4.367 -0.2331  0.3173 -0.5654
 3781SOL    HW122802   3.268   4.442   4.340 -2.3012 -0.0495  0.6487
 3781SOL    HW222803   3.215   4.312   4.355 -0.1755 -0.1402  0.6650
 3782SOL     OW22804   0.973   0.847   7.629 -0.1808 -0.4930  0.1363
 3782SOL    HW122805   1.037   0.827   7.698 -2.2971 -0.3565  2.1737
 3782SOL    HW222806   0.946   0.758   7.606 -0.9990  0.0464 -0.9621
 3783SOL     OW22807   1.474   4.227   6.214  0.0039 -0.4006 -0.1551
 3783SOL    HW122808   1.433   4.141   6.213 -0.6759 -0.0412 -1.6258
 3783SOL    HW222809   1.405   4.266   6.162  1.4309  2.0489 -0.1999
 3784SOL     OW22810   3.537   0.457   1.521  0.2385  0.6868  0.0963
 3784SOL    HW122811   3.609   0.397   1.500 -0.7751 -0.8153  0.8415
 3784SOL    HW222812   3.564   0.539   1.480  0.9028  0.0530 -0.7272
 3785SOL     OW22813   0.317   2.132  10.821 -0.1700  0.0603 -0.4875
 3785SOL    HW122814   0.296   2.127  10.914 -0.9523  3.8212 -0.4901
 3785SOL    HW222815   0.327   2.036  10.823 -3.2868 -0.2842 -0.6817
 3786SOL     OW22816   3.042   3.419   1.916  0.0270  0.3182 -0.3323
 3786SOL    HW122817   3.063   3.326   1.906  1.9606  0.6887  0.2755
 3786SOL    HW222818   3.046   3.435   2.011  1.1682  1.2483 -0.5365
 3787SOL     OW22819   4.027   2.375   7.062  0.1812  0.0335  0.5839
 3787SOL    HW122820   3.958   2.327   7.107 -0.2986 -1.1372 -1.3745
 3787SOL    HW222821   4.000   2.466   7.079 -1.3650 -0.9011  3.1067
 3788SOL     OW22822   1.099   4.597   7.765  0.5192 -0.4819  0.0482
 3788SOL    HW122823   1.177   4.639   7.802  0.9143 -1.8224  0.7539
 3788SOL    HW222824   1.034   4.666   7.782  1.2019  0.6813 -2.0570
 3789SOL     OW22825   3.723   4.520  14.806  0.3351  0.0090  0.3851
 3789SOL    HW122826   3.722   4.461  14.731 -1.5739 -0.1682  0.5484
 3789SOL    HW222827   3.767   4.473  14.877  1.5278  0.6060  0.0439
 3790SOL     OW22828   4.482   3.636   9.990  0.4746 -0.4387 -0.1067
 3790SOL    HW122829   4.464   3.559   9.936 -0.5044 -0.2240 -0.0864
 3790SOL    HW222830   4.451   3.597  10.072 -1.8709  2.2324  0.2680
 3791SOL     OW22831   3.164   2.343   5.057  0.5459  0.5747 -0.1032
 3791SOL    HW122832   3.209   2.392   4.989  0.9575  0.0310 -0.2232
 3791SOL    HW222833   3.092   2.318   4.999  1.1773  0.9531 -1.0298
 3792SOL     OW22834   1.911   3.843  15.615 -0.5183  0.5373 -0.0689
 3792SOL    HW122835   1.910   3.751  15.642 -2.1393  0.4809 -0.3299
 3792SOL    HW222836   1.923   3.835  15.520  0.7838  1.4819  0.0176
 3793SOL     OW22837   3.827   4.436  11.589 -0.4078  0.4881 -0.5816
 3793SOL    HW122838   3.821   4.472  11.678  1.0343 -2.4122  0.6754
 3793SOL    HW222839   3.734   4.415  11.582 -1.1105  2.4386  2.9478
 3794SOL     OW22840   0.106   0.244  11.597  0.4164 -0.2544  0.0116
 3794SOL    HW122841   0.062   0.329  11.585  1.6449  0.5522  1.1781
 3794SOL    HW222842   0.045   0.185  11.554  1.3789  0.0169 -1.7001
 3795SOL     OW22843   2.166   2.098   3.990 -0.0181  0.2638 -0.2675
 3795SOL    HW122844   2.118   2.073   4.069 -0.5560 -4.2048 -1.9939
 3795SOL    HW222845   2.225   2.169   4.017  0.5995 -0.2570 -0.2549
 3796SOL     OW22846   2.261   4.085  11.525 -0.3024  0.1759  0.4429
 3796SOL    HW122847   2.353   4.102  11.547 -0.3188 -0.5606  1.0834
 3796SOL    HW222848   2.225   4.173  11.521 -1.6348 -0.4448 -1.1523
 3797SOL     OW22849   2.975   2.711  12.169 -1.0808  0.6467  0.5087
 3797SOL    HW122850   3.003   2.704  12.078  0.3628  1.6389  0.8852
 3797SOL    HW222851   3.059   2.685  12.205 -2.2274 -0.1807  2.5763
 3798SOL     OW22852   2.251   1.995   4.822  0.3160  0.5128  0.5442
 3798SOL    HW122853   2.180   1.999   4.757  0.5169  0.5478  0.3268
 3798SOL    HW222854   2.315   1.941   4.775 -0.7623  0.3144 -0.7084
 3799SOL     OW22855   3.109   2.059  10.843 -0.3032 -0.2474 -0.2940
 3799SOL    HW122856   3.175   2.112  10.886 -0.6618  0.6919 -0.8963
 3799SOL    HW222857   3.137   1.971  10.867  0.5887  0.8291  2.5656
 3800SOL     OW22858   2.112   1.485   7.909 -0.1668  0.2009  0.0918
 3800SOL    HW122859   2.154   1.503   7.993 -1.9080  0.0941  0.9681
 3800SOL    HW222860   2.175   1.436   7.857 -0.7848 -1.1474  0.6152
 3801SOL     OW22861   1.610   2.883   4.596 -0.0299 -0.6860  0.0148
 3801SOL    HW122862   1.578   2.972   4.582 -1.7842 -1.6037 -2.0089
 3801SOL    HW222863   1.674   2.867   4.527 -0.8380 -1.5170 -0.5540
 3802SOL     OW22864   1.766   2.141  13.948 -0.1322 -0.1187 -0.2027
 3802SOL    HW122865   1.741   2.058  13.989 -0.6485  0.0026 -0.2706
 3802SOL    HW222866   1.690   2.166  13.896  1.3039  2.9074 -0.8870
 3803SOL     OW22867   0.009   0.879  17.399 -0.2734  0.0756  0.1551
 3803SOL    HW122868   0.069   0.824  17.450  2.0850  2.2504 -0.3250
 3803SOL    HW222869   4.648   0.847  17.430 -0.5492 -1.2918 -2.0157
 3804SOL     OW22870   3.387   3.588   7.234 -0.2086  0.5733  0.0604
 3804SOL    HW122871   3.409   3.606   7.325  1.3609  2.6579 -0.7178
 3804SOL    HW222872   3.362   3.678   7.216 -1.0247  0.2526 -0.3771
 3805SOL     OW22873   0.276   2.386   9.408  0.0462 -0.0065 -0.5611
 3805SOL    HW122874   0.334   2.321   9.449 -0.5225 -0.3202 -0.2512
 3805SOL    HW222875   0.244   2.427   9.489 -1.3835  0.5767 -1.4271
 3806SOL     OW22876   3.856   3.701   5.466  0.3904  0.5044  0.0784
 3806SOL    HW122877   3.906   3.677   5.544 -0.9424 -2.8588 -0.0931
 3806SOL    HW222878   3.834   3.614   5.433 -0.8060  1.0964 -0.7122
 3807SOL     OW22879   2.496   2.764  13.452  0.0735  0.0794  0.3620
 3807SOL    HW122880   2.566   2.829  13.454 -0.0420  0.2699 -1.7943
 3807SOL    HW222881   2.435   2.801  13.516  0.5317 -0.5999  1.1811
 3808SOL     OW22882   1.771   0.357   5.133 -0.1471  0.1651 -0.3661
 3808SOL    HW122883   1.764   0.270   5.173 -0.6524  0.3436 -0.0664
 3808SOL    HW222884   1.679   0.385   5.125  0.1505  1.1102 -0.5002
 3809SOL     OW22885   0.628   1.558  10.867  0.4789 -0.5572 -0.1596
 3809SOL    HW122886   0.607   1.465  10.858 -2.6871  0.1471 -0.1823
 3809SOL    HW222887   0.549   1.593  10.908 -0.5269 -2.9807 -0.0797
 3810SOL     OW22888   3.895   1.357   6.493  0.3520 -0.0155 -0.1213
 3810SOL    HW122889   3.972   1.412   6.505 -0.1239  0.8823 -1.2500
 3810SOL    HW222890   3.884   1.336   6.401  1.1672 -0.3705 -0.1344
 3811SOL     OW22891   4.372   1.508   7.542  0.3376 -0.5883 -0.4342
 3811SOL    HW122892   4.347   1.595   7.510  0.0369 -0.0262  1.3370
 3811SOL    HW222893   4.293   1.463   7.570  2.1873 -3.0071  0.8855
 3812SOL     OW22894   0.044   3.688   6.555  0.4182  0.1723  0.0820
 3812SOL    HW122895   0.004   3.673   6.641 -0.9283 -0.6899 -0.6993
 3812SOL    HW222896   0.058   3.782   6.565  1.7498 -0.0252  0.0207
 3813SOL     OW22897   0.160   4.166   8.994  0.1467 -0.1508  0.3218
 3813SOL    HW122898   0.126   4.085   9.032 -1.4315  1.6827  2.8458
 3813SOL    HW222899   0.191   4.145   8.906  3.0599  1.3379  0.9857
 3814SOL     OW22900   3.342   4.310   2.823 -0.1945 -0.0076  0.0752
 3814SOL    HW122901   3.424   4.290   2.868 -0.3565  0.2369  0.4767
 3814SOL    HW222902   3.340   4.397   2.864  2.9911  0.7141 -1.3055
 3815SOL     OW22903   0.196   0.296   4.350  0.5292 -0.2962  0.5681
 3815SOL    HW122904   0.245   0.276   4.271 -0.9540 -0.8546 -0.2138
 3815SOL    HW222905   0.145   0.217   4.366  0.7492 -0.5557 -0.0231
 3816SOL     OW22906   2.489   2.224  16.443  0.0988 -0.3394 -0.4105
 3816SOL    HW122907   2.513   2.273  16.522 -0.8140  0.6124 -0.7275
 3816SOL    HW222908   2.437   2.149  16.471 -1.6176  1.0727  0.2129
 3817SOL     OW22909   2.608   1.945   2.896  0.1353 -0.2653  0.0567
 3817SOL    HW122910   2.669   1.980   2.831  0.4930  0.7360  0.9295
 3817SOL    HW222911   2.543   2.015   2.903  1.0928  0.9202 -2.8586
 3818SOL     OW22912   1.001   4.031  10.728 -0.0255  0.1300 -0.1308
 3818SOL    HW122913   1.079   4.084  10.712  1.1813 -1.5841  0.0327
 3818SOL    HW222914   1.040   3.954  10.770  0.2353  0.3239 -0.0184
 3819SOL     OW22915   1.040   2.102   6.935  0.6538  0.7692  0.3065
 3819SOL    HW122916   1.028   2.065   6.847 -0.3662  1.3897  0.1793
 3819SOL    HW222917   0.951   2.092   6.967  0.6827 -0.8951 -0.1282
 3820SOL     OW22918   4.372   2.738  15.626 -0.1109 -0.5141  0.2917
 3820SOL    HW122919   4.467   2.751  15.628 -0.4850  2.5616 -1.5543
 3820SOL    HW222920   4.340   2.737  15.716 -1.0702  0.2797 -0.0381
 3821SOL     OW22921   0.804   3.328   8.060  0.3570  0.1073 -0.0704
 3821SOL    HW122922   0.863   3.253   8.047 -1.2977 -1.2437  0.1892
 3821SOL    HW222923   0.796   3.356   7.969  0.4966  2.6224  0.6907
 3822SOL     OW22924   1.804   3.022   5.093 -0.0294  0.7918 -0.6463
 3822SOL    HW122925   1.899   3.033   5.085  0.1714 -0.3568  0.1735
 3822SOL    HW222926   1.789   2.928   5.090  1.3585  0.5209  0.5691
 3823SOL     OW22927   0.865   1.633   9.271 -0.1904  0.2038 -0.4263
 3823SOL    HW122928   0.845   1.672   9.186 -1.0153  0.2408 -0.2113
 3823SOL    HW222929   0.955   1.604   9.252 -0.8081 -0.4568 -2.3486
 3824SOL     OW22930   1.268   0.420   3.138  0.2756  0.1171  0.3241
 3824SOL    HW122931   1.206   0.457   3.074 -0.6918  1.0705  1.8264
 3824SOL    HW222932   1.328   0.490   3.159  0.3015 -0.3277  1.7109
 3825SOL     OW22933   0.775   0.111  14.894  0.2068  0.1934  0.2285
 3825SOL    HW122934   0.768   0.201  14.863  0.2214 -0.1525 -0.7853
 3825SOL    HW222935   0.868   0.100  14.915  0.7833 -0.0097 -2.3754
 3826SOL     OW22936   4.558   1.940   3.157  0.1692 -0.0443  0.2697
 3826SOL    HW122937   4.649   1.970   3.163 -0.1360  0.4077  2.7509
 3826SOL    HW222938   4.508   2.018   3.133 -1.7797 -0.5085  2.7843
 3827SOL     OW22939   3.389   3.464   5.592  1.0386  0.2592 -0.0418
 3827SOL    HW122940   3.305   3.424   5.572  0.4620  2.3663 -1.8050
 3827SOL    HW222941   3.365   3.547   5.634 -1.4120 -0.8151  0.6371
 3828SOL     OW22942   0.507   1.673   5.201  0.1483 -0.6016  0.7177
 3828SOL    HW122943   0.437   1.738   5.198  0.7835 -0.0513 -1.6636
 3828SOL    HW222944   0.572   1.722   5.250  0.8492  0.9484 -1.7779
 3829SOL     OW22945   1.847   1.492   3.999 -0.3962 -0.0480 -0.4161
 3829SOL    HW122946   1.818   1.582   3.984  1.4109  0.2708 -1.8879
 3829SOL    HW222947   1.768   1.442   3.977  1.6108 -2.4347 -2.1892
 3830SOL     OW22948   3.147   2.857  11.692  0.0306  0.5899 -0.2050
 3830SOL    HW122949   3.239   2.869  11.669  0.0312  0.4231 -0.2851
 3830SOL    HW222950   3.116   2.945  11.669  1.0724  2.0402  3.8786
 3831SOL     OW22951   2.031   4.509   1.809  0.3652  0.6670 -0.1302
 3831SOL    HW122952   1.976   4.455   1.752  0.8033 -1.7804  1.7119
 3831SOL    HW222953   2.101   4.532   1.749  0.8251  3.3418  1.4291
 3832SOL     OW22954   0.842   1.663   7.797  0.0067  0.0922  0.2023
 3832SOL    HW122955   0.859   1.693   7.708  0.4120  0.9422  0.5673
 3832SOL    HW222956   0.801   1.577   7.786  3.8852 -2.1629  3.2088
 3833SOL     OW22957   3.911   1.898   5.233  0.5947 -0.1537 -0.2064
 3833SOL    HW122958   3.874   1.819   5.273 -0.3885  0.1691 -0.4697
 3833SOL    HW222959   3.998   1.902   5.273 -0.3974  1.8679  1.7397
 3834SOL     OW22960   1.044   0.219   8.093 -0.3543  0.3520  0.5755
 3834SOL    HW122961   1.098   0.140   8.099  0.1620  0.5926 -0.8774
 3834SOL    HW222962   1.070   0.270   8.169  1.7298 -2.1857  1.5804
 3835SOL     OW22963   1.813   3.035   3.062 -0.0187 -0.0194 -0.0325
 3835SOL    HW122964   1.736   3.015   3.009 -0.0426 -0.6321  0.2191
 3835SOL    HW222965   1.797   3.126   3.086 -0.7035  0.1130 -1.0288
 3836SOL     OW22966   4.720   1.378   7.850 -0.2135  0.7935  0.0543
 3836SOL    HW122967   0.023   1.402   7.761  0.6925 -1.9146 -0.4163
 3836SOL    HW222968   0.075   1.329   7.870  0.7128  1.5670 -1.7272
 3837SOL     OW22969   3.855   3.875   1.879  0.0701 -0.3738 -0.1062
 3837SOL    HW122970   3.853   3.914   1.792 -2.7300 -2.0279 -0.7834
 3837SOL    HW222971   3.847   3.951   1.937 -3.1337  0.8393 -2.1757
 3838SOL     OW22972   2.085   0.145   7.450  0.6521 -0.3767  0.0366
 3838SOL    HW122973   2.063   0.205   7.521 -0.3770 -0.0699 -0.5441
 3838SOL    HW222974   2.034   0.185   7.380 -0.0681 -1.1899  0.0996
 3839SOL     OW22975   4.472   4.217   8.125 -0.5076  0.5504 -0.1287
 3839SOL    HW122976   4.462   4.122   8.128  0.5897  0.4056 -1.0099
 3839SOL    HW222977   4.386   4.244   8.091 -0.7464  0.3662  0.3342
 3840SOL     OW22978   0.277   3.288   9.940  0.2146 -0.0551  0.1992
 3840SOL    HW122979   0.297   3.351  10.009  1.9417  1.5720 -1.7884
 3840SOL    HW222980   0.273   3.209   9.994  2.1274 -0.4883 -0.2834
 3841SOL     OW22981   3.922   0.013  10.741  0.4144  0.0751  0.2518
 3841SOL    HW122982   3.868   4.705  10.669 -0.4679 -1.3791  1.5764
 3841SOL    HW222983   3.969   0.083  10.695 -1.4514  0.8271 -0.5517
 3842SOL     OW22984   0.937   3.178   4.729 -0.4988 -0.2922 -0.0899
 3842SOL    HW122985   0.924   3.206   4.639  1.8529  0.8739 -0.0708
 3842SOL    HW222986   0.849   3.141   4.739 -0.4652 -0.5093 -0.6005
 3843SOL     OW22987   0.091   3.356   7.320  0.3600  0.0868  0.7262
 3843SOL    HW122988   4.725   3.352   7.292  0.4104  1.0365  0.4440
 3843SOL    HW222989   0.100   3.287   7.386  0.1951 -0.2857  0.3615
 3844SOL     OW22990   0.711   1.252   4.044  0.4715  0.7753 -0.5798
 3844SOL    HW122991   0.620   1.277   4.030  0.3872  0.2613 -0.9432
 3844SOL    HW222992   0.737   1.271   4.134 -1.3380  0.3019  0.0492
 3845SOL     OW22993   0.382   4.009   6.376  0.5586 -0.1841 -0.2014
 3845SOL    HW122994   0.328   4.047   6.307 -1.0429 -3.5017 -0.8015
 3845SOL    HW222995   0.429   4.089   6.399  0.4346  0.7620 -3.3169
 3846SOL     OW22996   0.555   2.401   2.004  0.3224 -0.2157  0.3146
 3846SOL    HW122997   0.508   2.478   2.036 -0.0227  0.5282 -1.9923
 3846SOL    HW222998   0.485   2.351   1.962 -0.7402  2.5189 -1.1756
 3847SOL     OW22999   2.789   1.786  12.506  0.1004  0.4811 -0.1028
 3847SOL    HW123000   2.774   1.691  12.507  0.8890  0.3338 -1.4160
 3847SOL    HW223001   2.852   1.792  12.578  2.1217 -0.1272 -1.8266
 3848SOL     OW23002   4.040   1.861   7.057 -0.5624  0.4108  0.7041
 3848SOL    HW123003   4.064   1.951   7.036  1.7188 -0.5134 -0.6204
 3848SOL    HW223004   4.078   1.809   6.986  0.4444  3.1905 -0.7500
 3849SOL     OW23005   4.501   2.786   8.668 -0.6530  0.1342 -0.0503
 3849SOL    HW123006   4.551   2.740   8.601 -0.0608 -0.0388  0.5124
 3849SOL    HW223007   4.449   2.835   8.604 -2.5422 -3.5452 -1.3551
 3850SOL     OW23008   0.270   2.643   5.897 -0.1100  0.1366  0.5302
 3850SOL    HW123009   0.292   2.720   5.949 -1.9222  1.4428 -0.6514
 3850SOL    HW223010   0.344   2.638   5.836  0.3077  1.0608  0.9604
 3851SOL     OW23011   4.666   2.840   5.222 -0.1111 -0.1726 -0.2631
 3851SOL    HW123012   4.607   2.859   5.149 -1.1689  0.7564  0.8415
 3851SOL    HW223013   4.653   2.748   5.245  0.9068 -0.1491  0.3621
 3852SOL     OW23014   2.600   2.373   3.993  0.2240 -0.0291 -0.7420
 3852SOL    HW123015   2.690   2.364   4.023 -0.0232  1.5567  0.4865
 3852SOL    HW223016   2.599   2.462   3.958 -0.1690 -0.2191 -1.2150
 3853SOL     OW23017   1.807   0.991  17.142  0.8365 -0.3264  0.1841
 3853SOL    HW123018   1.861   1.053  17.191 -1.6357  0.4154  1.9631
 3853SOL    HW223019   1.854   1.011  17.060 -0.6475 -3.4618 -1.4280
 3854SOL     OW23020   3.789   3.976   2.937  0.2485  0.3416 -0.3084
 3854SOL    HW123021   3.746   3.898   2.972  0.2293  0.6091  0.2759
 3854SOL    HW223022   3.774   3.961   2.844 -2.2034 -3.2719  0.6754
 3855SOL     OW23023   0.341   3.420   8.235  0.6529 -0.2339  0.0721
 3855SOL    HW123024   0.373   3.505   8.266  0.7196 -0.8618  1.6843
 3855SOL    HW223025   0.420   3.387   8.192  0.2659  1.7359 -2.1516
 3856SOL     OW23026   3.181   0.569   1.249 -0.1179 -0.2551 -0.3376
 3856SOL    HW123027   3.172   0.658   1.281  0.1841 -1.3118  2.6838
 3856SOL    HW223028   3.166   0.524   1.332 -0.1373 -0.3020 -0.3661
 3857SOL     OW23029   0.661   0.145   2.413  0.7614 -0.2637  0.0057
 3857SOL    HW123030   0.729   0.137   2.346  2.0683  0.5634  1.2432
 3857SOL    HW223031   0.596   0.076   2.397  1.2558 -0.4374 -1.2423
 3858SOL     OW23032   2.958   2.384  15.442  0.0090 -0.8103 -0.0121
 3858SOL    HW123033   3.026   2.331  15.484  0.7173 -1.5939 -2.1484
 3858SOL    HW223034   3.004   2.405  15.361  0.2791  0.1157  0.3805
 3859SOL     OW23035   2.330   1.599   5.310  0.2752  0.1670  0.2845
 3859SOL    HW123036   2.319   1.574   5.219  1.1211  2.5585 -0.4796
 3859SOL    HW223037   2.271   1.532   5.346 -0.3047 -0.2191 -1.3794
 3860SOL     OW23038   2.265   3.262   2.623 -0.2552 -0.5221  0.6008
 3860SOL    HW123039   2.206   3.337   2.633  1.3222  0.7342  0.4280
 3860SOL    HW223040   2.202   3.205   2.579  0.7918 -1.4586  0.3037
 3861SOL     OW23041   3.370   3.318   8.131 -0.0186 -0.2734 -0.2248
 3861SOL    HW123042   3.465   3.311   8.138 -0.2082  0.3667  2.7944
 3861SOL    HW223043   3.347   3.336   8.222  1.3770  1.9917 -0.3001
 3862SOL     OW23044   3.940   1.749   7.282  0.4903 -0.0329  0.5006
 3862SOL    HW123045   3.980   1.820   7.332  0.3811  0.9235 -0.7634
 3862SOL    HW223046   3.990   1.764   7.202 -1.0429 -0.5095 -0.5621
 3863SOL     OW23047   3.946   3.573   2.945  0.1143  0.1767 -0.1670
 3863SOL    HW123048   3.994   3.521   3.010 -0.7731  0.4245  0.6855
 3863SOL    HW223049   3.985   3.565   2.858  0.9894 -1.4251  0.3661
 3864SOL     OW23050   0.778   3.137   7.025  0.0080  0.3190 -0.0101
 3864SOL    HW123051   0.873   3.133   7.031  0.0231 -0.0517 -0.5454
 3864SOL    HW223052   0.755   3.193   6.951 -0.8255 -0.0347 -0.0158
 3865SOL     OW23053   3.871   4.371   6.524  0.3674 -0.1754 -0.2124
 3865SOL    HW123054   3.963   4.389   6.544 -0.1031 -1.0791  2.7413
 3865SOL    HW223055   3.883   4.309   6.451 -2.8390 -1.4190  0.3358
 3866SOL     OW23056   3.701   1.449   3.649 -0.2510  0.4843 -0.3103
 3866SOL    HW123057   3.707   1.508   3.573 -1.6088  1.1943  0.1402
 3866SOL    HW223058   3.757   1.380   3.613  0.9906  1.0148  0.6256
 3867SOL     OW23059   4.483   3.544   6.324  0.3219  0.1857  0.4143
 3867SOL    HW123060   4.426   3.468   6.317  1.1142 -0.4180  0.4919
 3867SOL    HW223061   4.425   3.616   6.299  0.0416 -0.6558 -1.3861
 3868SOL     OW23062   3.184   1.112  14.488  0.5180  0.2513  0.4697
 3868SOL    HW123063   3.153   1.096  14.578  0.4240  0.0315  0.3962
 3868SOL    HW223064   3.100   1.090  14.447  1.0209 -0.7226 -0.0077
 3869SOL     OW23065   4.271   2.475   7.237  0.2541  0.9404  0.1318
 3869SOL    HW123066   4.227   2.489   7.320  0.5098  0.6355  0.3220
 3869SOL    HW223067   4.199   2.442   7.183  0.8814  0.7580 -0.5925
 3870SOL     OW23068   0.525   0.383   5.996 -0.4815  0.3359  0.4173
 3870SOL    HW123069   0.443   0.334   5.995 -0.4734  0.2881  1.5611
 3870SOL    HW223070   0.564   0.359   5.912 -1.4585  1.2063 -0.2996
 3871SOL     OW23071   1.879   3.046   8.214 -0.2092  0.9065  0.3003
 3871SOL    HW123072   1.796   3.015   8.250 -0.3514 -2.6082 -3.0949
 3871SOL    HW223073   1.900   2.985   8.143 -1.4387 -0.8463  1.4641
 3872SOL     OW23074   1.536   1.840  16.657 -0.0752 -0.0747  0.2678
 3872SOL    HW123075   1.482   1.918  16.666 -1.4249 -1.0421  0.5899
 3872SOL    HW223076   1.507   1.793  16.735  0.8426 -0.9471  0.0934
 3873SOL     OW23077   0.919   3.804  17.367  0.8035 -0.3191  0.2187
 3873SOL    HW123078   0.873   3.871  17.417  1.5117 -0.4846  1.0708
 3873SOL    HW223079   0.870   3.821  17.286  0.8156  0.3616  0.3562
 3874SOL     OW23080   1.619   0.944   4.983 -0.0262  0.0387  0.5118
 3874SOL    HW123081   1.691   0.935   5.046 -0.9096 -1.2995  1.3146
 3874SOL    HW223082   1.586   0.855   4.981  0.0706 -0.0040  0.9928
 3875SOL     OW23083   2.813   2.122   5.296  0.2261  0.1917 -0.2374
 3875SOL    HW123084   2.870   2.189   5.334  1.2145 -1.5458  1.4097
 3875SOL    HW223085   2.738   2.171   5.264  0.5573  0.4230 -0.6583
 3876SOL     OW23086   1.469   2.140  14.021 -0.4652 -0.4873  0.0686
 3876SOL    HW123087   1.439   2.070  14.080  0.5046  1.8581  3.3565
 3876SOL    HW223088   1.447   2.095  13.939 -0.9587  0.5269 -0.3543
 3877SOL     OW23089   3.293   0.432   4.762 -0.1296  0.0161 -0.0643
 3877SOL    HW123090   3.239   0.369   4.715  0.1102  0.4496 -0.9224
 3877SOL    HW223091   3.273   0.511   4.713 -3.1986 -1.3568 -1.0161
 3878SOL     OW23092   1.433   1.976  13.784  0.3205  0.0587 -0.0230
 3878SOL    HW123093   1.472   1.983  13.697 -2.6176  0.3130 -1.3182
 3878SOL    HW223094   1.367   2.044  13.782  0.6637  0.3745 -0.7954
 3879SOL     OW23095   4.301   2.455   5.994 -0.4250 -0.0214  0.1275
 3879SOL    HW123096   4.312   2.365   6.026  0.3043 -0.4162 -1.2701
 3879SOL    HW223097   4.388   2.469   5.957 -0.1565 -1.9585  0.0359
 3880SOL     OW23098   3.718   3.804  13.619 -0.0559  0.4583 -0.0197
 3880SOL    HW123099   3.749   3.757  13.541  0.5137 -1.8899  1.6251
 3880SOL    HW223100   3.787   3.787  13.683 -0.1824  1.1183  0.2868
 3881SOL     OW23101   1.044   1.426   3.763  0.1056  0.6273  0.0593
 3881SOL    HW123102   0.964   1.378   3.740  0.2155  1.2105 -1.5561
 3881SOL    HW223103   1.017   1.482   3.836 -0.3501  0.9091 -0.3298
 3882SOL     OW23104   3.158   0.054   1.472 -0.0086 -0.2461  0.2899
 3882SOL    HW123105   3.219   0.078   1.402 -0.5010 -1.1742 -0.4645
 3882SOL    HW223106   3.185   4.691   1.500 -1.8119 -0.2288  2.0534
 3883SOL     OW23107   3.596   0.496   7.344  0.5243  0.3249  0.1386
 3883SOL    HW123108   3.647   0.511   7.265  0.2839 -2.0110 -0.4812
 3883SOL    HW223109   3.511   0.530   7.316 -0.1945 -1.1581  0.4947
 3884SOL     OW23110   1.132   0.593  15.895 -0.1074  0.3419  0.8499
 3884SOL    HW123111   1.195   0.535  15.852 -0.3289  1.3162 -0.8119
 3884SOL    HW223112   1.174   0.599  15.981  1.2005 -0.1525  0.2439
 3885SOL     OW23113   1.210   2.036   8.300  0.0778  0.4037  0.0340
 3885SOL    HW123114   1.193   1.979   8.225 -1.2631  2.1176 -0.9603
 3885SOL    HW223115   1.143   2.004   8.361  1.3490  0.5982  1.5331
 3886SOL     OW23116   3.723   3.329  16.435 -0.4059 -0.2190 -0.2204
 3886SOL    HW123117   3.704   3.394  16.502 -0.4325 -0.8210  0.3581
 3886SOL    HW223118   3.805   3.363  16.399 -1.0378  0.8317 -0.6744
 3887SOL     OW23119   3.561   1.464   2.650 -0.0669  0.3954  0.2915
 3887SOL    HW123120   3.628   1.516   2.696  0.4587  0.6493 -0.7509
 3887SOL    HW223121   3.616   1.420   2.585  0.6082  1.3350  0.2197
 3888SOL     OW23122   0.937   1.708   2.754  0.0231  0.0687  0.0667
 3888SOL    HW123123   0.939   1.804   2.752  1.5449 -0.0484 -3.3570
 3888SOL    HW223124   0.969   1.688   2.842  0.5424  0.7253  0.0262
 3889SOL     OW23125   0.105   3.448   5.525 -0.0688  0.4184  0.1875
 3889SOL    HW123126   0.151   3.365   5.514 -0.1592  0.1495  1.8254
 3889SOL    HW223127   0.185   3.501   5.519  0.8930 -1.0287  0.3262
 3890SOL     OW23128   4.054   0.907   2.096  0.4119  0.8568  0.3293
 3890SOL    HW123129   4.136   0.955   2.101  0.0219  1.4381  1.1055
 3890SOL    HW223130   4.064   0.863   2.180 -0.8504  0.0323  0.0610
 3891SOL     OW23131   3.806   3.408   9.544  0.1000  0.0445  0.5727
 3891SOL    HW123132   3.733   3.381   9.488  0.1656  0.7432  0.1551
 3891SOL    HW223133   3.747   3.444   9.610  0.7046  0.2956  0.9716
 3892SOL     OW23134   4.367   3.841   4.754  0.1969 -0.4383  0.6622
 3892SOL    HW123135   4.435   3.777   4.733  0.2147  0.2960 -1.5519
 3892SOL    HW223136   4.326   3.857   4.669  2.8864 -1.2362 -0.7810
 3893SOL     OW23137   0.153   3.135   1.058  0.3555 -0.5410 -0.2052
 3893SOL    HW123138   0.182   3.221   1.029 -0.5035 -0.6968 -1.5459
 3893SOL    HW223139   0.120   3.152   1.146  1.6766 -2.0909  0.5863
 3894SOL     OW23140   3.416   3.613   4.758 -0.6825  0.2309  0.2806
 3894SOL    HW123141   3.402   3.645   4.669  1.7595 -1.9318 -0.8786
 3894SOL    HW223142   3.509   3.594   4.745 -1.5635 -1.8010 -2.9636
 3895SOL     OW23143   1.826   1.264  11.204  0.5753  0.1714 -0.0032
 3895SOL    HW123144   1.903   1.289  11.153 -0.5377  1.5572 -1.0145
 3895SOL    HW223145   1.868   1.227  11.281 -0.2400 -1.5227 -0.3688
 3896SOL     OW23146   2.162   2.656   2.747  0.0949 -0.0882 -0.4364
 3896SOL    HW123147   2.127   2.719   2.684 -1.2422  0.6965  1.0891
 3896SOL    HW223148   2.256   2.662   2.733  0.5421 -1.2453  2.0168
 3897SOL     OW23149   1.135   2.380   3.478  0.0470  0.4377  0.5080
 3897SOL    HW123150   1.119   2.288   3.501  1.4376  0.2616  0.7866
 3897SOL    HW223151   1.072   2.417   3.540  0.0765  0.8860  0.2696
 3898SOL     OW23152   3.410   2.216  14.402 -0.1675 -0.0411  0.0339
 3898SOL    HW123153   3.502   2.227  14.425 -0.2956  1.9621 -0.3414
 3898SOL    HW223154   3.401   2.145  14.465 -0.8822  0.0712  0.0599
 3899SOL     OW23155   1.343   4.072   8.050  0.4035  0.7268 -0.4703
 3899SOL    HW123156   1.403   4.005   8.084  0.2841  1.6039  1.4101
 3899SOL    HW223157   1.403   4.147   8.047 -2.0116  2.5800 -2.5287
 3900SOL     OW23158   1.897   3.219  16.698  0.4378  0.0375  0.1790
 3900SOL    HW123159   1.817   3.178  16.730  0.0249  0.7909  0.1111
 3900SOL    HW223160   1.944   3.234  16.780  0.1606  0.5025  0.2570
 3901SOL     OW23161   1.325   0.093   5.732  0.1277  0.0343 -0.1275
 3901SOL    HW123162   1.339   0.150   5.656  1.0166 -0.3727 -0.2699
 3901SOL    HW223163   1.260   0.138   5.786  1.6154  2.3142 -0.2221
 3902SOL     OW23164   1.065   0.347   5.118  0.0982 -0.3141 -0.0335
 3902SOL    HW123165   1.055   0.300   5.201 -0.9558 -3.8370 -2.1601
 3902SOL    HW223166   1.090   0.437   5.140 -0.5785  0.2771 -1.6910
 3903SOL     OW23167   2.495   2.482   2.991  0.1165  0.1679 -0.1949
 3903SOL    HW123168   2.485   2.521   2.904 -1.3928  0.0842 -0.0604
 3903SOL    HW223169   2.497   2.564   3.041  1.6229 -0.4684  0.7898
 3904SOL     OW23170   0.376   0.421   3.753 -0.3322 -0.4939 -0.0939
 3904SOL    HW123171   0.299   0.445   3.802 -0.0815 -0.5569  0.3281
 3904SOL    HW223172   0.427   0.501   3.742 -2.8118  1.0189 -0.5523
 3905SOL     OW23173   3.081   1.730   7.801 -0.1563 -0.0689 -0.2587
 3905SOL    HW123174   3.002   1.774   7.770  0.9339 -0.4612 -3.5182
 3905SOL    HW223175   3.058   1.638   7.813  0.0107 -0.2789 -1.5635
 3906SOL     OW23176   4.409   1.427   3.862 -0.1199  0.0213 -0.1075
 3906SOL    HW123177   4.396   1.511   3.905  2.3676  0.3707 -0.0468
 3906SOL    HW223178   4.488   1.448   3.811 -0.2969 -0.4765 -0.5801
 3907SOL     OW23179   0.981   3.865   6.105  0.3724  0.1723  0.5225
 3907SOL    HW123180   0.886   3.853   6.100  0.6645 -0.8260 -2.6577
 3907SOL    HW223181   0.984   3.907   6.191 -0.1507 -0.4912  0.8630
 3908SOL     OW23182   2.024   4.204   5.055 -0.3841  0.4132 -0.3413
 3908SOL    HW123183   2.116   4.205   5.082 -1.3039  3.4879  2.7276
 3908SOL    HW223184   2.021   4.151   4.976 -0.9997 -0.0847  0.0206
 3909SOL     OW23185   2.405   4.514  14.435 -0.1777  0.0709 -0.4463
 3909SOL    HW123186   2.412   4.422  14.410 -1.0931  0.2274 -1.3064
 3909SOL    HW223187   2.411   4.501  14.529  2.7230  0.1950 -0.5966
 3910SOL     OW23188   1.933   1.199   9.153 -0.1600  0.6285 -0.2688
 3910SOL    HW123189   1.961   1.139   9.084  2.3682  0.6231  0.7539
 3910SOL    HW223190   1.958   1.149   9.231  0.5263  2.1923  0.5149
 3911SOL     OW23191   2.219   3.194   7.671  0.0817  0.0268  0.3581
 3911SOL    HW123192   2.226   3.117   7.615 -0.1502  1.7131 -1.9883
 3911SOL    HW223193   2.158   3.244   7.617  1.1199  2.7355  1.6633
 3912SOL     OW23194   0.086   0.956   8.865  0.5859 -0.0734 -0.1190
 3912SOL    HW123195   0.163   0.998   8.901 -0.7508  0.9058  1.6202
 3912SOL    HW223196   0.018   1.021   8.883  0.1228 -0.4922 -0.3152
 3913SOL     OW23197   4.113   2.799   6.349 -0.3122  0.8707  0.3668
 3913SOL    HW123198   4.152   2.878   6.312 -1.2640 -0.0864 -2.6585
 3913SOL    HW223199   4.128   2.748   6.270 -1.5086  0.4814  0.3990
 3914SOL     OW23200   1.676   1.530   8.007  0.6573 -0.4385 -0.3830
 3914SOL    HW123201   1.752   1.542   7.951  0.0076 -2.1012 -1.6096
 3914SOL    HW223202   1.723   1.505   8.087 -0.3213 -1.4998 -0.1297
 3915SOL     OW23203   3.178   1.129   9.343  0.4013  0.1205 -0.2394
 3915SOL    HW123204   3.167   1.224   9.341  1.9752  0.3348  1.2724
 3915SOL    HW223205   3.136   1.107   9.426 -1.7920  2.1587 -0.8076
 3916SOL     OW23206   1.237   0.239   6.769 -0.9472 -0.2456 -0.0719
 3916SOL    HW123207   1.323   0.229   6.729 -0.8355 -1.3751  0.4601
 3916SOL    HW223208   1.191   0.264   6.689 -0.2316 -2.1741 -1.0745
 3917SOL     OW23209   0.341   0.461   7.775  0.2564 -0.1418 -0.7806
 3917SOL    HW123210   0.295   0.544   7.764 -1.1600 -0.7622  0.5317
 3917SOL    HW223211   0.431   0.493   7.781 -0.4150  1.8084 -1.2109
 3918SOL     OW23212   3.698   1.119   3.823 -0.4600  0.2286  0.2291
 3918SOL    HW123213   3.712   1.111   3.728 -0.8074  0.6827  0.1403
 3918SOL    HW223214   3.687   1.213   3.834  1.3473  0.4453  0.1597
 3919SOL     OW23215   0.520   2.183  13.461 -1.0514 -0.0743 -0.2694
 3919SOL    HW123216   0.484   2.103  13.422 -0.3052 -0.8006  0.5611
 3919SOL    HW223217   0.485   2.175  13.550  2.2057  2.0333  1.2080
 3920SOL     OW23218   3.670   2.174   6.868  0.7516  0.1441  0.3989
 3920SOL    HW123219   3.654   2.264   6.894  2.0152  0.4424  0.1167
 3920SOL    HW223220   3.593   2.127   6.899 -0.3456  1.9004  0.2962
 3921SOL     OW23221   3.925   2.825   1.883 -0.1582  0.1113 -0.3753
 3921SOL    HW123222   3.942   2.730   1.886 -1.5763 -0.2021 -2.1008
 3921SOL    HW223223   4.012   2.862   1.868 -0.3004  0.8032  0.5754
 3922SOL     OW23224   2.649   2.610  16.053  0.0968 -0.1992 -0.3185
 3922SOL    HW123225   2.642   2.620  15.958  0.3562 -0.4794 -0.3649
 3922SOL    HW223226   2.557   2.586  16.064  0.4036 -0.7317  1.1116
 3923SOL     OW23227   3.416   2.316   5.198  0.4934 -0.4711  0.6119
 3923SOL    HW123228   3.424   2.402   5.157 -2.6811 -1.4111 -1.9662
 3923SOL    HW223229   3.374   2.276   5.122 -2.3013  0.7090  1.5298
 3924SOL     OW23230   2.389   1.706   2.396 -0.5846  0.1372  0.1637
 3924SOL    HW123231   2.370   1.774   2.332 -1.2379  1.0405  1.3074
 3924SOL    HW223232   2.402   1.760   2.474  1.4416 -1.2397  0.7894
 3925SOL     OW23233   1.735   1.996   8.808  0.7584 -0.2142 -0.2178
 3925SOL    HW123234   1.799   1.943   8.761  0.5919 -1.6024  1.1624
 3925SOL    HW223235   1.682   1.928   8.848  2.0167 -1.3250 -0.4678
 3926SOL     OW23236   1.991   0.849   8.536  0.1216 -0.2675 -0.2355
 3926SOL    HW123237   2.037   0.870   8.618  1.4009 -2.8154 -0.3232
 3926SOL    HW223238   2.023   0.920   8.480  1.2991 -0.5208  0.1241
 3927SOL     OW23239   4.120   2.753   6.880  0.8623 -0.1795 -0.2968
 3927SOL    HW123240   4.103   2.795   6.964  1.1472 -2.4411  0.8805
 3927SOL    HW223241   4.032   2.740   6.845  1.6709 -1.2044 -1.9879
 3928SOL     OW23242   4.540   0.994   3.183  0.0679  0.3212  0.1739
 3928SOL    HW123243   4.575   0.911   3.150 -0.1918  0.8326 -1.3798
 3928SOL    HW223244   4.457   0.968   3.223  0.1307 -0.2335 -0.0613
 3929SOL     OW23245   2.487   1.669   6.922  0.0045 -0.4855  0.1714
 3929SOL    HW123246   2.434   1.741   6.889 -0.4886  0.0927  2.2426
 3929SOL    HW223247   2.571   1.688   6.881  0.1273 -0.0382  0.6366
 3930SOL     OW23248   0.853   4.006   8.898  0.5067  0.0925 -0.5103
 3930SOL    HW123249   0.842   4.076   8.962  0.1681 -0.8208  0.4369
 3930SOL    HW223250   0.894   3.944   8.958 -1.8648  0.9924  2.0303
 3931SOL     OW23251   1.609   3.647   4.444 -0.0551 -0.2067 -0.1163
 3931SOL    HW123252   1.625   3.729   4.397 -2.1606  1.0478  1.3724
 3931SOL    HW223253   1.555   3.683   4.514  0.2546 -0.3690  0.2021
 3932SOL     OW23254   0.424   0.047   5.340  0.2217  0.3051 -0.3052
 3932SOL    HW123255   0.473   4.694   5.312  0.6234  0.0469  1.1356
 3932SOL    HW223256   0.336   0.042   5.301 -0.1447 -0.0417  0.5555
 3933SOL     OW23257   2.357   3.033   5.434 -0.1090  0.0103  0.1278
 3933SOL    HW123258   2.263   3.050   5.430 -0.0553  0.1511 -0.6495
 3933SOL    HW223259   2.363   2.978   5.356 -0.6673  1.5840 -1.0286
 3934SOL     OW23260   1.956   1.599   3.702 -0.2833  0.0019 -0.1752
 3934SOL    HW123261   2.021   1.668   3.715 -2.2609  2.1345 -1.6637
 3934SOL    HW223262   1.892   1.640   3.760  1.7398 -1.8306  3.3315
 3935SOL     OW23263   3.190   4.010   6.489  0.6982 -0.6354 -0.3704
 3935SOL    HW123264   3.267   4.009   6.547  1.3591 -1.2865 -1.2740
 3935SOL    HW223265   3.121   3.961   6.533 -1.6958  3.1221  0.0722
 3936SOL     OW23266   1.606   3.859   6.150 -0.1207  0.3895  0.3743
 3936SOL    HW123267   1.522   3.900   6.170  0.9359  2.2236  1.0579
 3936SOL    HW223268   1.645   3.926   6.095  0.4411 -1.8239 -1.9245
 3937SOL     OW23269   1.520   3.136   4.525 -0.8115 -0.7606 -0.0781
 3937SOL    HW123270   1.583   3.158   4.593 -1.6913 -0.6872  0.7030
 3937SOL    HW223271   1.533   3.213   4.468 -2.2959 -0.3366  0.1556
 3938SOL     OW23272   2.985   0.976   6.822 -0.1508  0.1881  0.0165
 3938SOL    HW123273   3.052   1.041   6.801  0.6638 -0.0407  1.9256
 3938SOL    HW223274   2.922   0.968   6.751 -0.2095  0.3567  0.0496
 3939SOL     OW23275   2.013   1.634  13.903 -0.2246  0.2199 -0.4038
 3939SOL    HW123276   2.069   1.675  13.838  0.4041  0.0821  0.0548
 3939SOL    HW223277   1.932   1.605  13.862 -0.9877 -0.1327  1.3371
 3940SOL     OW23278   2.816   0.845   7.705  0.1145  0.4580  0.1877
 3940SOL    HW123279   2.858   0.882   7.783  0.0711  1.3945 -0.2245
 3940SOL    HW223280   2.864   0.891   7.636  0.3651  1.3750  0.9652
 3941SOL     OW23281   2.132   3.475   2.664 -0.3144 -0.3682  0.3981
 3941SOL    HW123282   2.121   3.498   2.757  2.0743  0.8490  0.3823
 3941SOL    HW223283   2.040   3.483   2.640  0.2614  0.5909 -1.4491
 3942SOL     OW23284   0.569   4.238  10.777 -0.0513 -0.3457 -0.2562
 3942SOL    HW123285   0.484   4.195  10.783  0.0428 -0.3143  1.2709
 3942SOL    HW223286   0.597   4.224  10.868 -0.4737 -2.9536 -0.5325
 3943SOL     OW23287   3.464   1.187  17.439 -0.5050  0.1083 -0.7050
 3943SOL    HW123288   3.543   1.133  17.430 -0.6561  0.0514 -1.7290
 3943SOL    HW223289   3.410   1.128  17.490  0.6072 -0.1148  0.2113
 3944SOL     OW23290   3.776   1.918   6.893  0.2299 -0.2415  0.2258
 3944SOL    HW123291   3.757   2.011   6.903  0.7291 -0.2653  1.5043
 3944SOL    HW223292   3.828   1.902   6.972  1.9682  2.0573 -0.4867
 3945SOL     OW23293   4.588   3.686   2.556  0.4080  0.8505 -0.0217
 3945SOL    HW123294   4.659   3.703   2.618  0.4522  1.2368 -0.1782
 3945SOL    HW223295   4.637   3.656   2.479 -0.7869 -0.6235 -0.2101
 3946SOL     OW23296   1.874   1.946   0.809 -0.7052 -0.4148  0.7114
 3946SOL    HW123297   1.892   1.852   0.807 -1.0051 -0.4532 -0.1457
 3946SOL    HW223298   1.930   1.982   0.740  1.4803 -1.7693  1.7748
 3947SOL     OW23299   2.793   3.929   0.294 -0.4048 -0.1552  0.6566
 3947SOL    HW123300   2.795   3.875   0.215 -1.1432 -1.2418  1.3735
 3947SOL    HW223301   2.880   3.919   0.333 -0.0879 -2.6156 -0.6473
 3948SOL     OW23302   0.199   2.360   2.820 -0.3316  0.3639  0.1151
 3948SOL    HW123303   0.259   2.292   2.790 -2.1399 -2.1580  2.2111
 3948SOL    HW223304   0.139   2.357   2.746 -1.9598 -1.4140  1.4920
 3949SOL     OW23305   0.856   1.226   3.622 -0.0074 -0.1869  0.2021
 3949SOL    HW123306   0.780   1.169   3.628  1.0797 -1.8758 -1.8342
 3949SOL    HW223307   0.917   1.180   3.564 -3.0772 -2.9882 -0.8350
 3950SOL     OW23308   2.024   0.532   3.923  0.1021 -0.0963 -0.2648
 3950SOL    HW123309   1.941   0.495   3.954  0.8162 -0.3455  1.3093
 3950SOL    HW223310   2.045   0.600   3.987  0.4955  0.6942 -1.2347
 3951SOL     OW23311   2.654   4.646  13.269  0.5088 -0.5390  0.0209
 3951SOL    HW123312   2.695   4.594  13.199  1.2238 -0.8955  0.7018
 3951SOL    HW223313   2.705   4.614  13.343 -2.5383 -2.1595  1.4280
 3952SOL     OW23314   1.685   4.266   6.803 -0.5670  0.0304 -0.4689
 3952SOL    HW123315   1.714   4.307   6.885  0.7953  1.8253 -1.8558
 3952SOL    HW223316   1.748   4.195   6.790 -1.3831  0.1128 -4.6818
 3953SOL     OW23317   2.981   3.674   6.879 -0.2746  0.0509  0.3978
 3953SOL    HW123318   2.997   3.672   6.785  0.9323  2.7790  0.5638
 3953SOL    HW223319   2.888   3.650   6.873 -1.2851  3.7038  1.2964
 3954SOL     OW23320   2.750   0.351   6.376  0.2759 -0.0322 -0.0185
 3954SOL    HW123321   2.736   0.435   6.332 -1.1471 -0.5214 -0.4880
 3954SOL    HW223322   2.740   0.375   6.468  1.1022  0.2828 -0.0035
 3955SOL     OW23323   4.385   1.541  14.185  0.9356  0.0365  0.2393
 3955SOL    HW123324   4.363   1.448  14.186 -4.0859  1.1815  0.4645
 3955SOL    HW223325   4.453   1.537  14.118 -0.2966 -0.0741 -1.0047
 3956SOL     OW23326   4.341   2.857  11.322  0.2961 -0.6520 -0.1375
 3956SOL    HW123327   4.429   2.856  11.285  0.2431  2.5786 -0.3579
 3956SOL    HW223328   4.290   2.876  11.244 -0.0211 -1.7522 -0.2032
 3957SOL     OW23329   3.154   4.163  17.532  0.2634 -0.3311 -0.1393
 3957SOL    HW123330   3.116   4.248  17.507  2.0582  0.0853 -1.4223
 3957SOL    HW223331   3.074   4.112  17.542  0.7904 -1.2454 -0.6860
 3958SOL     OW23332   3.977   3.852   3.366 -0.1993 -0.3854  0.4856
 3958SOL    HW123333   4.030   3.835   3.288 -1.9851  0.3673 -0.8775
 3958SOL    HW223334   4.045   3.834   3.431  0.4322  4.0445  1.0640
 3959SOL     OW23335   2.293   1.233  12.644 -0.1756  0.0763 -0.0165
 3959SOL    HW123336   2.257   1.199  12.562 -1.7228  1.3160  0.1384
 3959SOL    HW223337   2.346   1.310  12.624 -1.2299  0.8578  0.2103
 3960SOL     OW23338   1.821   3.680   5.583 -0.3205 -0.1630 -0.1823
 3960SOL    HW123339   1.875   3.612   5.541  0.8182  1.3677 -1.1913
 3960SOL    HW223340   1.872   3.761   5.580 -0.4118 -0.0552  1.0790
 3961SOL     OW23341   1.517   3.352  12.947 -0.0278 -0.1581 -0.1959
 3961SOL    HW123342   1.501   3.442  12.920 -0.7385 -0.0245  0.6786
 3961SOL    HW223343   1.567   3.368  13.026  0.1364 -0.7966 -0.1685
 3962SOL     OW23344   4.054   0.067   0.330  0.2278  0.3783  0.5581
 3962SOL    HW123345   4.122   0.073   0.396  1.3409 -2.0785 -0.3448
 3962SOL    HW223346   4.051   0.157   0.298 -0.9128 -0.4288 -1.6948
 3963SOL     OW23347   4.689   0.120   2.734 -0.0354 -0.2751 -0.9608
 3963SOL    HW123348   4.715   0.186   2.670  1.5354  0.5370  0.5173
 3963SOL    HW223349   4.668   0.045   2.678 -0.4314 -1.0332  0.2185
 3964SOL     OW23350   2.537   0.172   3.233  0.1129 -1.1658 -0.1706
 3964SOL    HW123351   2.467   0.133   3.180 -3.0553  0.4218  2.8752
 3964SOL    HW223352   2.613   0.135   3.187  0.8668 -0.2506  0.3405
 3965SOL     OW23353   3.655   0.704   4.635  0.1122  0.0722 -0.2558
 3965SOL    HW123354   3.602   0.635   4.593  1.4042 -1.7421  1.0647
 3965SOL    HW223355   3.634   0.786   4.592  0.0495  0.3856  0.3703
 3966SOL     OW23356   1.881   3.617   0.716 -0.0612 -0.0082 -0.1062
 3966SOL    HW123357   1.937   3.541   0.700 -0.6326 -0.3105 -0.6388
 3966SOL    HW223358   1.929   3.689   0.677  0.1581 -0.6350 -0.9902
 3967SOL     OW23359   4.365   4.055  11.703 -0.0187  0.8883 -0.1155
 3967SOL    HW123360   4.446   4.049  11.754 -0.6503  0.9001  0.9025
 3967SOL    HW223361   4.346   3.961  11.696 -0.2073  0.8838  0.3965
 3968SOL     OW23362   2.479   3.039   1.958 -0.6508  0.5088  0.2422
 3968SOL    HW123363   2.476   2.948   1.927 -0.5930 -0.4492  3.0508
 3968SOL    HW223364   2.557   3.046   2.013  0.0658  1.8997 -0.9338
 3969SOL     OW23365   1.916   1.658  10.862  0.0611  0.1695  0.0065
 3969SOL    HW123366   1.853   1.723  10.830 -0.1048 -0.0593 -0.1346
 3969SOL    HW223367   1.861   1.581  10.844  0.0014  0.7399 -2.2865
 3970SOL     OW23368   0.503   0.463   3.245 -0.2151 -0.3714  0.4022
 3970SOL    HW123369   0.433   0.529   3.243 -0.4953 -0.6155  1.6955
 3970SOL    HW223370   0.465   0.411   3.316 -2.8639  0.4407 -0.4035
 3971SOL     OW23371   3.501   1.207   1.770  0.1739 -0.6109  0.3111
 3971SOL    HW123372   3.494   1.114   1.790 -0.0323 -1.0292 -1.7460
 3971SOL    HW223373   3.435   1.227   1.704 -1.1769 -1.4217  1.4275
 3972SOL     OW23374   3.432   4.100   5.014 -0.0641 -0.3118  0.1554
 3972SOL    HW123375   3.382   4.152   5.077  0.3094 -0.0928  0.2766
 3972SOL    HW223376   3.467   4.030   5.068  1.2920 -0.5800 -1.0633
 3973SOL     OW23377   2.232   4.387   9.280 -0.1009 -0.0306 -0.0111
 3973SOL    HW123378   2.313   4.416   9.320 -0.8686  0.4109  1.2291
 3973SOL    HW223379   2.233   4.400   9.185  0.6482  1.1957  0.1725
 3974SOL     OW23380   3.071   3.053   3.152 -0.2357  0.2112 -0.2306
 3974SOL    HW123381   3.014   2.976   3.144 -0.0932  0.2360 -1.3933
 3974SOL    HW223382   3.129   3.031   3.225  1.5283 -1.2099 -2.0425
 3975SOL     OW23383   0.715   1.055   7.039  0.1393 -0.6268 -0.2872
 3975SOL    HW123384   0.671   0.982   6.994 -2.1715  0.6759 -0.1359
 3975SOL    HW223385   0.800   1.021   7.066  0.9781  1.9061  0.2310
 3976SOL     OW23386   4.458   3.959  11.973  0.1422  1.0433 -0.0561
 3976SOL    HW123387   4.423   3.870  11.983  0.2779  1.2197  1.9625
 3976SOL    HW223388   4.381   4.015  11.982  0.4233  1.0772  2.1751
 3977SOL     OW23389   3.010   2.919   3.869  0.7421  0.2907 -0.2036
 3977SOL    HW123390   3.044   2.879   3.949  1.1954  2.8702  0.8944
 3977SOL    HW223391   2.937   2.973   3.898 -0.2618  0.0498 -2.2958
 3978SOL     OW23392   4.674   4.505  11.748  0.1249 -0.2746  0.0733
 3978SOL    HW123393   0.001   4.431  11.717  1.4490  0.8337 -0.3349
 3978SOL    HW223394   0.009   4.544  11.812  0.6679  0.0001 -0.6074
 3979SOL     OW23395   0.748   4.344   2.079  0.1350 -0.0895  0.1645
 3979SOL    HW123396   0.655   4.348   2.055  0.0192 -0.9890  0.4531
 3979SOL    HW223397   0.756   4.258   2.121 -0.2842  0.6296  1.7218
 3980SOL     OW23398   0.514   0.297   8.762  0.0744  0.2544 -0.7523
 3980SOL    HW123399   0.547   0.382   8.732 -1.2709  1.3346  0.8493
 3980SOL    HW223400   0.452   0.273   8.692 -1.2719  0.8766  0.2309
 3981SOL     OW23401   1.500   2.825   9.276 -0.3194 -0.3381  0.4758
 3981SOL    HW123402   1.548   2.845   9.195 -0.6381  0.6054  0.5202
 3981SOL    HW223403   1.428   2.777   9.236 -0.6655  1.1606 -0.7052
 3982SOL     OW23404   2.770   1.027   8.727  0.4549 -0.3310  0.0011
 3982SOL    HW123405   2.865   1.028   8.734  0.3135  0.2682  1.8680
 3982SOL    HW223406   2.763   1.112   8.684  0.7535 -0.0223  0.5551
 3983SOL     OW23407   0.978   0.448  14.541  0.3798  0.1516 -0.0154
 3983SOL    HW123408   0.884   0.461  14.552  0.2054 -0.2471 -1.0405
 3983SOL    HW223409   0.986   0.353  14.553  2.2454  0.4216  0.7946
 3984SOL     OW23410   0.201   0.356  14.800  0.5846  0.4207  0.0029
 3984SOL    HW123411   0.157   0.276  14.831  1.3710  0.2975  0.8032
 3984SOL    HW223412   0.154   0.426  14.845 -0.2472  0.6769 -1.2651
 3985SOL     OW23413   0.320   2.326   3.388 -0.1626  0.0530 -0.7645
 3985SOL    HW123414   0.353   2.296   3.303  2.3913  0.3316  0.1311
 3985SOL    HW223415   0.369   2.406   3.408 -1.2262  0.6690 -0.6693
 3986SOL     OW23416   3.779   4.390   3.514 -0.1811 -0.2594 -0.0670
 3986SOL    HW123417   3.827   4.436   3.445  0.9467 -0.9809  0.2320
 3986SOL    HW223418   3.734   4.317   3.471 -1.3313 -0.4325  1.4522
 3987SOL     OW23419   3.755   2.802   3.142 -0.1101 -0.0187  0.1007
 3987SOL    HW123420   3.673   2.754   3.130 -0.9506  1.7846 -1.4551
 3987SOL    HW223421   3.817   2.729   3.141  1.3323  1.2111  1.3184
 3988SOL     OW23422   4.114   4.278   5.550  0.1013  0.1929  0.4314
 3988SOL    HW123423   4.131   4.314   5.638 -0.2811  1.0167  0.1649
 3988SOL    HW223424   4.163   4.337   5.493 -2.4173  0.2902 -1.6298
 3989SOL     OW23425   3.959   3.851   5.142  0.1232 -0.1000 -0.0488
 3989SOL    HW123426   3.870   3.819   5.130  0.5259 -0.6877 -1.5033
 3989SOL    HW223427   3.960   3.864   5.237 -0.3353  3.7466 -0.5685
 3990SOL     OW23428   3.897   1.101  14.443 -0.3071  0.2160  0.5641
 3990SOL    HW123429   3.812   1.085  14.401  0.1888 -0.4265 -0.1811
 3990SOL    HW223430   3.925   1.011  14.459  2.2660  1.1807  1.4914
 3991SOL     OW23431   2.309   1.875   6.849  0.4902 -0.0914 -0.0061
 3991SOL    HW123432   2.336   1.961   6.819 -3.0218  1.3277  0.8382
 3991SOL    HW223433   2.275   1.896   6.936  1.6498  0.6801  0.2468
 3992SOL     OW23434   3.277   3.254  13.230  0.1319 -0.4383 -0.7020
 3992SOL    HW123435   3.312   3.312  13.298 -1.9405 -0.4708  0.3804
 3992SOL    HW223436   3.347   3.191  13.216  0.3687 -0.0913 -1.1108
 3993SOL     OW23437   1.321   0.733   7.847 -0.2848 -0.6771 -0.0409
 3993SOL    HW123438   1.229   0.740   7.870 -0.9013 -1.1214 -2.3145
 3993SOL    HW223439   1.333   0.642   7.818 -1.6928 -1.3219  1.3784
 3994SOL     OW23440   1.170   3.212   3.511 -0.0946 -0.7395  0.4444
 3994SOL    HW123441   1.119   3.151   3.458 -0.0010 -0.5510  0.1353
 3994SOL    HW223442   1.101   3.266   3.551  0.5413  0.0787  0.4554
 3995SOL     OW23443   4.407   4.219   4.380 -0.5647 -0.0165 -0.1402
 3995SOL    HW123444   4.491   4.252   4.346 -0.0471 -1.7041 -0.4713
 3995SOL    HW223445   4.439   4.140   4.423  0.5634  0.4624 -0.0708
 3996SOL     OW23446   0.829   4.541   5.343  0.2259  0.6106  0.2246
 3996SOL    HW123447   0.816   4.454   5.380 -3.6053  1.0671  0.0462
 3996SOL    HW223448   0.918   4.559   5.370  1.0394 -1.5801 -1.0049
 3997SOL     OW23449   2.345   2.909  15.980 -0.2695  0.3180 -0.0341
 3997SOL    HW123450   2.294   2.928  15.900  1.3659  0.3840 -1.0578
 3997SOL    HW223451   2.430   2.881  15.945  0.5239  0.9774  1.3991
 3998SOL     OW23452   0.913   4.417   9.037  0.0366 -0.4194  0.0136
 3998SOL    HW123453   0.961   4.337   9.015 -1.8876 -1.5659 -0.0390
 3998SOL    HW223454   0.945   4.481   8.973  0.4539 -0.6469 -0.0102
 3999SOL     OW23455   3.995   1.390  17.240  0.1029  0.6213 -0.3376
 3999SOL    HW123456   3.935   1.333  17.191  1.2184 -1.8735  1.1598
 3999SOL    HW223457   4.028   1.334  17.311 -0.3060  2.0445  0.9830
 4000SOL     OW23458   0.676   0.009   3.058 -0.3260  0.8534 -0.1730
 4000SOL    HW123459   0.742   0.018   2.990 -0.5674 -1.5965 -0.7245
 4000SOL    HW223460   0.611   0.078   3.043 -0.3096  1.2254  1.4040
 4001SOL     OW23461   3.032   1.307   3.460  0.4494 -0.9736 -0.5653
 4001SOL    HW123462   2.959   1.278   3.514 -0.0199  0.8989 -0.2066
 4001SOL    HW223463   2.997   1.390   3.429  1.0280 -0.4797  0.0857
 4002SOL     OW23464   0.616   1.607   8.056 -0.4063 -0.3749 -0.0009
 4002SOL    HW123465   0.649   1.592   8.144  1.1834  0.5668 -0.4400
 4002SOL    HW223466   0.699   1.629   8.015 -1.9423  3.2488 -1.1814
 4003SOL     OW23467   3.089   3.569   4.651  0.8695 -0.1846  0.0935
 4003SOL    HW123468   3.177   3.540   4.628  1.2765  0.6696  0.5453
 4003SOL    HW223469   3.105   3.605   4.738  0.3181  0.0394  0.1041
 4004SOL     OW23470   1.577   4.559   7.124 -0.4272 -0.4615 -0.4972
 4004SOL    HW123471   1.653   4.527   7.075  0.5021  1.4316 -0.2617
 4004SOL    HW223472   1.618   4.620   7.185  0.8051 -0.8971 -0.8837
 4005SOL     OW23473   0.752   1.552  10.506 -0.0911 -0.5253  0.1316
 4005SOL    HW123474   0.801   1.604  10.570 -1.2312  0.7818 -0.0642
 4005SOL    HW223475   0.789   1.590  10.427  1.0088 -0.0013  0.9141
 4006SOL     OW23476   1.313   4.505   4.113 -0.1704 -0.0808  0.5695
 4006SOL    HW123477   1.378   4.494   4.044 -1.4840  0.2406 -0.7341
 4006SOL    HW223478   1.365   4.458   4.178  0.2213  0.3381  0.5571
 4007SOL     OW23479   3.131   1.510  11.627  0.2541  0.0944 -0.1425
 4007SOL    HW123480   3.209   1.502  11.572 -0.8560 -1.3357 -1.5020
 4007SOL    HW223481   3.154   1.456  11.703 -0.5413  1.8752  1.3477
 4008SOL     OW23482   2.702   2.907  15.305  0.3298 -0.1721  0.7507
 4008SOL    HW123483   2.797   2.898  15.314  0.2853 -1.2620  0.2103
 4008SOL    HW223484   2.716   2.954  15.223 -0.7739 -0.3735  0.4414
 4009SOL     OW23485   3.481   2.575   5.494  0.6982  0.4013 -0.4161
 4009SOL    HW123486   3.494   2.661   5.455 -0.9206  0.5967 -0.5088
 4009SOL    HW223487   3.551   2.520   5.460  0.5976  0.0830 -0.1111
 4010SOL     OW23488   1.924   4.715   6.580 -0.0986  0.2697  0.1041
 4010SOL    HW123489   1.832   4.700   6.560  0.5312  0.4271 -2.7902
 4010SOL    HW223490   1.934   4.673   6.666 -0.2399  0.2603  0.1153
 4011SOL     OW23491   1.794   0.170  14.168  0.0045 -0.2986  0.3179
 4011SOL    HW123492   1.732   0.168  14.241  1.0532  0.8097  1.2435
 4011SOL    HW223493   1.766   0.098  14.112 -0.2676  0.9192 -1.0916
 4012SOL     OW23494   1.250   0.740   7.539  0.2626 -0.3139  0.3476
 4012SOL    HW123495   1.219   0.664   7.488 -0.0914  1.3473 -1.9053
 4012SOL    HW223496   1.258   0.703   7.627  3.7564  0.8026  0.5006
 4013SOL     OW23497   4.693   3.572   5.809 -0.0525  0.1892 -0.1126
 4013SOL    HW123498   4.624   3.600   5.749  1.0455  3.2447  0.0542
 4013SOL    HW223499   0.040   3.631   5.784 -0.6168 -0.4026 -3.0676
 4014SOL     OW23500   0.746   0.752   9.845  0.2323 -0.2303  0.1139
 4014SOL    HW123501   0.707   0.689   9.785  1.6748 -1.1512  0.1354
 4014SOL    HW223502   0.816   0.784   9.788  0.4509 -1.5249 -0.3352
 4015SOL     OW23503   0.240   4.176   3.653  0.0670 -0.2728 -0.0476
 4015SOL    HW123504   0.261   4.086   3.680 -3.6703 -0.7899  1.0572
 4015SOL    HW223505   0.205   4.161   3.566  0.5566  0.8873 -0.4428
 4016SOL     OW23506   0.195   3.344  16.222  0.1050  0.5314 -0.1282
 4016SOL    HW123507   0.229   3.431  16.203  0.0708  0.5172 -0.2609
 4016SOL    HW223508   0.112   3.336  16.174 -0.0796 -1.1170  0.4437
 4017SOL     OW23509   3.736   0.843  11.739 -0.8080 -0.4476  0.5215
 4017SOL    HW123510   3.653   0.887  11.720 -0.7478 -1.0759 -1.1067
 4017SOL    HW223511   3.796   0.899  11.690 -0.8842  0.0228  0.9623
 4018SOL     OW23512   0.497   0.717   5.123 -0.2800 -0.4906 -0.4690
 4018SOL    HW123513   0.434   0.645   5.132 -0.2662 -0.6640 -1.8201
 4018SOL    HW223514   0.463   0.770   5.195 -1.8152 -0.3754 -1.2817
 4019SOL     OW23515   0.967   3.726   5.337  0.3268 -0.8369 -0.6330
 4019SOL    HW123516   0.988   3.722   5.430 -1.9831 -0.3580 -0.0671
 4019SOL    HW223517   1.019   3.803   5.315 -0.1447 -0.5017 -0.5933
 4020SOL     OW23518   2.756   4.623   2.843 -0.1440  0.6495  0.9194
 4020SOL    HW123519   2.835   4.580   2.810 -1.1785 -1.8348  1.7313
 4020SOL    HW223520   2.690   4.556   2.827 -0.4221  0.9811  0.6671
 4021SOL     OW23521   1.584   1.702   8.297 -0.2509  0.0001 -0.7969
 4021SOL    HW123522   1.671   1.670   8.275 -0.3714 -0.0173 -1.2474
 4021SOL    HW223523   1.594   1.730   8.388  1.1086 -3.2712  0.0561
 4022SOL     OW23524   2.093   0.563   5.516  0.4980  0.0052  0.7909
 4022SOL    HW123525   2.004   0.579   5.548  0.5808 -2.4143  2.2936
 4022SOL    HW223526   2.057   0.554   5.428  1.4113 -1.1771  0.5394
 4023SOL     OW23527   0.411   2.157  13.746 -0.0551 -0.2528  0.0693
 4023SOL    HW123528   0.362   2.151  13.828  1.5429 -2.4991  0.8840
 4023SOL    HW223529   0.387   2.071  13.712  1.3151 -0.7949  0.4420
 4024SOL     OW23530   4.487   0.138   3.974  0.2247  0.0394 -0.1990
 4024SOL    HW123531   4.553   0.166   3.910 -0.4550 -0.4027 -1.1046
 4024SOL    HW223532   4.412   0.128   3.916 -0.7156 -0.1652  1.0523
 4025SOL     OW23533   3.565   2.443   6.946  0.0303  0.5375 -0.1113
 4025SOL    HW123534   3.472   2.445   6.925 -0.4755  1.1341  2.1972
 4025SOL    HW223535   3.570   2.510   7.014  0.7759 -0.4276  0.7799
 4026SOL     OW23536   2.847   1.310   5.800  0.0249 -0.3809  0.6506
 4026SOL    HW123537   2.761   1.341   5.772  0.6259  2.5790  2.1161
 4026SOL    HW223538   2.834   1.215   5.807 -3.2350  0.0409  0.1500
 4027SOL     OW23539   4.582   1.342   4.067  0.5080 -0.0517  0.7589
 4027SOL    HW123540   4.629   1.263   4.041  0.2575 -0.1386  0.5640
 4027SOL    HW223541   4.515   1.339   3.998  1.0799 -0.7918  0.2383
 4028SOL     OW23542   2.745   0.231   9.987  0.1865  0.1448  0.4578
 4028SOL    HW123543   2.830   0.211   9.949 -0.0127  2.5729 -1.2640
 4028SOL    HW223544   2.704   0.147  10.007  0.9195 -0.5857 -1.1222
 4029SOL     OW23545   4.313   1.912  11.090 -0.3427 -0.1968  0.1130
 4029SOL    HW123546   4.306   2.004  11.112  0.4948  0.5759 -2.8940
 4029SOL    HW223547   4.380   1.880  11.151  1.5018  0.3762 -1.6226
 4030SOL     OW23548   3.706   3.554   4.975 -0.7418  0.4002 -0.5054
 4030SOL    HW123549   3.654   3.474   4.975 -1.4493  0.8569 -0.1166
 4030SOL    HW223550   3.789   3.518   4.945 -0.7200  1.2238 -1.4393
 4031SOL     OW23551   3.799   4.570  10.947  0.1848 -0.1554 -0.2108
 4031SOL    HW123552   3.836   4.619  10.874  0.9425  1.8684  1.5119
 4031SOL    HW223553   3.761   4.646  10.992 -1.7699 -1.0695 -0.3202
 4032SOL     OW23554   4.678   2.467   7.638 -0.8851 -0.1215 -0.3790
 4032SOL    HW123555   4.583   2.476   7.638 -0.9414 -0.6777 -1.1773
 4032SOL    HW223556   4.681   2.375   7.663  2.4921 -0.0884 -0.6335
 4033SOL     OW23557   2.875   1.846   4.783 -0.3682 -0.0052  0.4761
 4033SOL    HW123558   2.793   1.892   4.802  0.1800  1.0887  0.2040
 4033SOL    HW223559   2.925   1.855   4.864 -1.8106  1.7321  1.1649
 4034SOL     OW23560   1.674   2.780   9.473  0.5486 -0.3486 -0.0169
 4034SOL    HW123561   1.601   2.815   9.421 -1.3681  0.5984  3.2666
 4034SOL    HW223562   1.725   2.860   9.490 -1.7705  1.2306 -0.4796
 4035SOL     OW23563   3.392   3.315   3.918 -0.6936 -0.6376 -0.1555
 4035SOL    HW123564   3.300   3.339   3.918 -1.1299 -2.3351  0.8433
 4035SOL    HW223565   3.425   3.383   3.859 -0.6125 -0.8949 -0.4093
 4036SOL     OW23566   0.145   4.587   2.474  0.7491  0.2337  0.3984
 4036SOL    HW123567   0.168   4.537   2.396  4.9929 -0.1750  1.8817
 4036SOL    HW223568   0.059   4.549   2.495  1.0552 -0.7534 -0.1325
 4037SOL     OW23569   3.828   3.047   7.050 -0.2096  0.1457 -0.1043
 4037SOL    HW123570   3.834   3.018   7.141 -1.5821 -1.8750 -0.6471
 4037SOL    HW223571   3.831   2.962   7.007  2.1735  1.3471 -2.3090
 4038SOL     OW23572   2.093   3.399   8.041 -1.0015  0.3105  0.4465
 4038SOL    HW123573   2.135   3.322   8.001 -0.6761  0.8572 -0.2568
 4038SOL    HW223574   2.002   3.370   8.038 -1.4955  1.7633  1.3179
 4039SOL     OW23575   0.283   4.654   8.616  0.2290 -0.2097  0.3970
 4039SOL    HW123576   0.264   4.564   8.593 -0.1808 -0.2513  0.8951
 4039SOL    HW223577   0.223   4.665   8.690  0.5497  0.2376  0.5924
 4040SOL     OW23578   1.964   0.818   2.729 -0.4091  0.2145 -0.1661
 4040SOL    HW123579   1.988   0.726   2.735 -1.6117 -0.0125  1.1788
 4040SOL    HW223580   1.901   0.826   2.800 -2.0860 -3.1929 -1.2541
 4041SOL     OW23581   1.965   0.903   9.198 -0.0114  0.1425 -0.3908
 4041SOL    HW123582   1.993   0.909   9.106 -1.4823  1.5946 -0.7721
 4041SOL    HW223583   2.032   0.853   9.243  0.0744  0.3760 -0.2604
 4042SOL     OW23584   2.006   3.101   1.320  0.1504 -0.1532 -0.3161
 4042SOL    HW123585   2.028   3.192   1.300 -2.2167  0.7080  0.9675
 4042SOL    HW223586   1.910   3.105   1.314  0.0689  0.1933  1.3818
 4043SOL     OW23587   1.610   0.593   7.803 -0.1447  0.4762  0.2045
 4043SOL    HW123588   1.644   0.678   7.830 -3.0981  0.9220  2.5001
 4043SOL    HW223589   1.555   0.622   7.730 -1.9805 -0.4527  1.2261
 4044SOL     OW23590   4.678   0.632   6.907 -0.8768 -0.2230  0.5936
 4044SOL    HW123591   4.588   0.625   6.937 -1.1160 -3.0394 -0.7595
 4044SOL    HW223592   0.004   0.637   6.989 -0.1388  0.5523  0.0847
 4045SOL     OW23593   0.764   4.109  16.611 -0.0215 -0.2128 -0.3021
 4045SOL    HW123594   0.699   4.066  16.556  1.9701 -0.9405 -2.0631
 4045SOL    HW223595   0.752   4.201  16.591 -0.2794 -0.6386 -2.0374
 4046SOL     OW23596   2.435   3.574   7.959  0.2297  0.2544 -0.1048
 4046SOL    HW123597   2.407   3.547   8.046 -0.6651 -1.6354 -0.9754
 4046SOL    HW223598   2.428   3.485   7.924 -0.9670 -0.1159  1.0510
 4047SOL     OW23599   2.167   4.497   1.391  0.3767  0.0107 -0.1708
 4047SOL    HW123600   2.136   4.584   1.365  0.5708  0.0787 -0.1721
 4047SOL    HW223601   2.083   4.452   1.393  1.1377 -1.3980 -0.0567
 4048SOL     OW23602   1.291   4.500   6.318 -0.7267  0.0543 -0.1087
 4048SOL    HW123603   1.315   4.441   6.246 -1.6920 -0.7621  0.2399
 4048SOL    HW223604   1.203   4.524   6.289 -0.5745 -0.3073 -0.8708
 4049SOL     OW23605   2.936   0.696   2.767  0.2485 -0.7457 -0.2385
 4049SOL    HW123606   2.964   0.609   2.796  0.0444 -0.3327  1.2224
 4049SOL    HW223607   2.998   0.754   2.811 -1.3494  0.7240  0.0636
 4050SOL     OW23608   0.116   0.386  15.688 -0.0515 -0.6351  0.4643
 4050SOL    HW123609   0.196   0.364  15.640  0.2779  1.5572  0.0434
 4050SOL    HW223610   0.086   0.298  15.713  0.8218 -1.2311 -0.5683
 4051SOL     OW23611   3.708   2.138   4.010 -0.0600 -0.3550  0.2326
 4051SOL    HW123612   3.616   2.151   4.032 -0.3132  0.7149 -1.4698
 4051SOL    HW223613   3.730   2.080   4.082 -0.8866  1.2347  1.7729
 4052SOL     OW23614   3.745   1.493  16.649  0.0007  0.5125  0.1714
 4052SOL    HW123615   3.838   1.505  16.666 -0.3435 -1.1478  3.2294
 4052SOL    HW223616   3.746   1.545  16.569  0.4154  0.7224  0.3130
 4053SOL     OW23617   4.472   3.836   4.103  0.1800  0.1158 -0.2725
 4053SOL    HW123618   4.489   3.921   4.143  1.2796 -0.9077  1.4758
 4053SOL    HW223619   4.495   3.779   4.177  0.4664  2.0965  1.1781
 4054SOL     OW23620   2.102   2.497   4.140  0.5572  0.7248  0.5820
 4054SOL    HW123621   2.170   2.436   4.168  1.9095  1.3057 -1.3780
 4054SOL    HW223622   2.030   2.454   4.185  0.1158 -0.1989 -0.9823
 4055SOL     OW23623   1.878   2.075   8.385 -0.9304  0.3195 -0.2688
 4055SOL    HW123624   1.962   2.041   8.415 -1.4515 -1.7770 -1.1848
 4055SOL    HW223625   1.897   2.167   8.405 -1.2818 -0.2612  2.7155
 4056SOL     OW23626   0.694   0.069   8.017  0.1630  0.6252  0.6518
 4056SOL    HW123627   0.743   0.057   7.935 -0.0176  1.2009  0.4565
 4056SOL    HW223628   0.649   4.710   8.020 -0.1181  0.7281 -0.9340
 4057SOL     OW23629   0.874   1.944   9.195  0.2000 -0.4318  0.6567
 4057SOL    HW123630   0.908   2.000   9.125 -0.1737 -1.9921 -0.7965
 4057SOL    HW223631   0.843   1.865   9.150  1.1489 -0.4127 -0.0427
 4058SOL     OW23632   4.062   3.276   8.170 -0.2968 -0.6865  0.1258
 4058SOL    HW123633   3.991   3.213   8.157 -0.8189 -0.0440 -0.1522
 4058SOL    HW223634   4.115   3.275   8.090 -1.4735 -1.5603 -0.6398
 4059SOL     OW23635   4.662   1.580   1.839 -0.6883 -0.3067  0.0864
 4059SOL    HW123636   4.619   1.497   1.856 -0.4511 -0.4068  0.1913
 4059SOL    HW223637   4.609   1.639   1.893 -0.6134 -0.4136  0.2745
 4060SOL     OW23638   3.861   0.649   3.743  0.0430  0.1366  0.6667
 4060SOL    HW123639   3.799   0.707   3.698  0.1776  2.0094  2.9191
 4060SOL    HW223640   3.905   0.718   3.793  0.0528 -0.0288  0.8866
 4061SOL     OW23641   4.636   0.190  10.411  0.3786 -0.4409  0.6052
 4061SOL    HW123642   4.639   0.264  10.471 -2.0342  0.3217 -0.2199
 4061SOL    HW223643   4.550   0.154  10.431 -0.5117  1.4897  0.2011
 4062SOL     OW23644   3.010   0.985   2.286  0.0702 -0.3243 -0.3002
 4062SOL    HW123645   3.023   1.077   2.309 -0.8393 -0.8105  2.1499
 4062SOL    HW223646   2.977   0.989   2.196 -1.6874 -1.1361  0.2902
 4063SOL     OW23647   2.262   3.790  12.743 -0.1827 -0.1296 -0.3071
 4063SOL    HW123648   2.357   3.784  12.742 -0.1826  0.0320 -1.3210
 4063SOL    HW223649   2.242   3.863  12.802  0.5892  2.6485 -3.4665
 4064SOL     OW23650   1.592   0.151   4.183  0.5647 -0.0587 -0.1824
 4064SOL    HW123651   1.588   0.158   4.087 -0.1746 -1.2362 -0.2408
 4064SOL    HW223652   1.572   0.242   4.206 -0.5614 -0.2054 -0.6069
 4065SOL     OW23653   4.284   1.148  16.273 -0.4194  0.2658 -0.1427
 4065SOL    HW123654   4.303   1.235  16.308 -1.0534  1.7821 -3.5113
 4065SOL    HW223655   4.327   1.095  16.340 -0.1875  0.9595  0.2550
 4066SOL     OW23656   1.274   3.324   7.295  0.2300 -0.2506  0.2265
 4066SOL    HW123657   1.318   3.321   7.380  1.4264  1.2874 -0.3400
 4066SOL    HW223658   1.283   3.229   7.285 -0.4854 -0.4779  1.7754
 4067SOL     OW23659   2.888   1.691   7.445 -0.2231  0.2613  0.2813
 4067SOL    HW123660   2.916   1.782   7.435 -2.4638  0.7553 -1.5520
 4067SOL    HW223661   2.946   1.652   7.379 -2.4120  0.8293 -1.9889
 4068SOL     OW23662   2.551   1.331   1.150  0.2505 -0.3574 -0.4809
 4068SOL    HW123663   2.476   1.390   1.149  0.8285  0.3827  0.1238
 4068SOL    HW223664   2.617   1.394   1.120  0.6482 -0.3967  0.3152
 4069SOL     OW23665   4.255   4.494  16.309  0.1041 -0.8597 -0.3500
 4069SOL    HW123666   4.191   4.423  16.312 -0.9303  0.1705  1.7757
 4069SOL    HW223667   4.315   4.459  16.242  1.0129  0.2637 -0.1302
 4070SOL     OW23668   4.548   3.659   2.928  0.4695 -0.3057  0.2883
 4070SOL    HW123669   4.455   3.671   2.911  0.1521 -0.7846  1.6883
 4070SOL    HW223670   4.560   3.575   2.885  0.6669  0.8971 -2.0109
 4071SOL     OW23671   3.201   3.894  12.728 -0.0780  0.3036  0.2775
 4071SOL    HW123672   3.250   3.841  12.665 -1.2452  0.2469 -0.5796
 4071SOL    HW223673   3.137   3.829  12.757  0.5285 -0.1383  0.6140
 4072SOL     OW23674   0.420   4.116   1.706  0.3313  0.4060 -0.1464
 4072SOL    HW123675   0.345   4.117   1.647 -0.5679 -2.8607  0.9773
 4072SOL    HW223676   0.459   4.031   1.685 -0.6033 -0.2676  0.8357
 4073SOL     OW23677   1.454   4.010   1.354  0.0366  0.2793  0.4495
 4073SOL    HW123678   1.360   4.025   1.342 -0.0739  0.7206  1.9130
 4073SOL    HW223679   1.445   3.933   1.411  0.3571  0.4836  0.7739
 4074SOL     OW23680   0.806   3.437   5.595 -0.6944  0.1313 -0.2210
 4074SOL    HW123681   0.871   3.447   5.664 -2.3764  0.6843  1.3101
 4074SOL    HW223682   0.851   3.455   5.513 -1.1957 -0.3817 -0.6107
 4075SOL     OW23683   2.480   1.868  14.548  0.2173  0.0540 -0.6796
 4075SOL    HW123684   2.440   1.924  14.481 -2.2565  0.4413  1.1369
 4075SOL    HW223685   2.413   1.805  14.576  1.1032 -0.6946 -0.2365
 4076SOL     OW23686   1.327   0.039  15.081 -0.1615  0.8241 -0.0943
 4076SOL    HW123687   1.251   4.714  15.050 -0.7668  1.4762  0.3531
 4076SOL    HW223688   1.297   0.127  15.060  0.3396  0.6934 -1.3486
 4077SOL     OW23689   4.355   3.782   6.588  0.2678  0.3388  0.0088
 4077SOL    HW123690   4.316   3.697   6.567  0.4471 -0.1766  1.7779
 4077SOL    HW223691   4.397   3.815   6.509 -1.4997  0.7785 -0.7407
 4078SOL     OW23692   4.372   4.218   6.123  0.4511 -0.1064 -0.2865
 4078SOL    HW123693   4.368   4.313   6.113  0.8731  0.1147  1.5605
 4078SOL    HW223694   4.465   4.216   6.147  0.9486 -1.2937 -2.3261
 4079SOL     OW23695   0.635   4.068   4.299 -0.0877  0.0603  0.6119
 4079SOL    HW123696   0.699   4.004   4.331 -0.9193 -0.6789  0.8130
 4079SOL    HW223697   0.682   4.113   4.229 -0.0625 -0.6246  0.1913
 4080SOL     OW23698   2.598   1.883   8.767 -0.0060 -0.2254  0.0155
 4080SOL    HW123699   2.690   1.861   8.777  0.9674  2.9859 -1.8744
 4080SOL    HW223700   2.558   1.801   8.794  1.2114 -0.6539  0.5003
 4081SOL     OW23701   3.462   1.507   6.910 -0.3620  0.4721  0.4748
 4081SOL    HW123702   3.553   1.524   6.886  0.0269 -0.6064  1.1447
 4081SOL    HW223703   3.438   1.593   6.879 -2.1805 -1.3579 -3.1363
 4082SOL     OW23704   2.509   3.048   0.110 -0.6305 -0.8023  0.0753
 4082SOL    HW123705   2.470   2.977   0.059 -0.0729  0.1283 -1.6606
 4082SOL    HW223706   2.533   3.109   0.040  2.3601  0.7332  2.4590
 4083SOL     OW23707   1.039   0.844   4.633  0.0174 -0.0641 -0.3078
 4083SOL    HW123708   0.962   0.887   4.669  0.1742  1.7896 -2.1351
 4083SOL    HW223709   1.020   0.751   4.648  1.6830 -0.3792 -0.1566
 4084SOL     OW23710   4.078   0.308   2.624  0.7566 -0.3893  0.2337
 4084SOL    HW123711   4.167   0.281   2.648  1.5590  1.7812 -0.2932
 4084SOL    HW223712   4.030   0.225   2.618 -1.9930  1.2095  0.1184
 4085SOL     OW23713   2.982   2.221   4.901  0.0014 -0.3987 -0.2571
 4085SOL    HW123714   2.981   2.199   4.808  0.7101 -1.1689 -0.0878
 4085SOL    HW223715   2.891   2.196   4.915  0.7572 -0.6191  4.2394
 4086SOL     OW23716   3.360   0.717  15.530 -0.5244  0.0332  0.1921
 4086SOL    HW123717   3.337   0.779  15.599 -0.7395  3.0376 -2.5700
 4086SOL    HW223718   3.295   0.740  15.464 -1.1551 -0.9251  0.4896
 4087SOL     OW23719   1.442   3.739   1.472  0.0143 -0.2288 -0.5231
 4087SOL    HW123720   1.357   3.707   1.440 -1.0187 -0.1303  2.1457
 4087SOL    HW223721   1.468   3.669   1.531  1.2031 -0.2332 -1.0614
 4088SOL     OW23722   2.315   3.815   7.187  0.3605  0.2931  0.3831
 4088SOL    HW123723   2.408   3.797   7.195 -0.1805 -2.0709  1.3082
 4088SOL    HW223724   2.295   3.873   7.260  0.2048 -0.9612  1.3219
 4089SOL     OW23725   0.045   4.683   8.382  0.4937 -0.0383  0.4305
 4089SOL    HW123726   0.039   4.625   8.305  2.0130  0.9643 -0.4477
 4089SOL    HW223727   0.015   4.629   8.455  0.9508 -0.1614  0.5285
 4090SOL     OW23728   3.835   0.112   8.134 -0.2318  0.1370 -0.3884
 4090SOL    HW123729   3.897   0.041   8.120 -0.6087 -0.1651 -0.5371
 4090SOL    HW223730   3.844   0.142   8.224  0.6411  1.8473 -1.0393
 4091SOL     OW23731   3.607   2.388   2.132 -0.6168 -0.3419  0.3530
 4091SOL    HW123732   3.679   2.357   2.188  0.7841  2.0578 -0.1005
 4091SOL    HW223733   3.606   2.325   2.060  1.1779  0.1137 -0.0721
 4092SOL     OW23734   0.571   1.293  10.832 -0.1968 -0.5920  0.4956
 4092SOL    HW123735   0.573   1.311  10.738 -0.4366  1.9989  0.9898
 4092SOL    HW223736   0.608   1.205  10.835 -0.5512 -0.7197  1.1527
 4093SOL     OW23737   0.191   4.091   0.650 -0.0904 -0.0370  0.0531
 4093SOL    HW123738   0.206   4.020   0.588  1.4106 -0.5317  0.9911
 4093SOL    HW223739   0.260   4.066   0.711  0.5124 -0.4133 -0.7784
 4094SOL     OW23740   1.740   3.091   0.995 -0.1576  0.4176 -0.4459
 4094SOL    HW123741   1.797   3.025   0.957  0.1361  0.2392  0.3122
 4094SOL    HW223742   1.653   3.053   0.985  0.2098 -0.1310 -1.5730
 4095SOL     OW23743   2.649   2.676   3.931  0.1380 -0.4968 -0.2713
 4095SOL    HW123744   2.731   2.639   3.900  0.4241 -0.8472  0.9091
 4095SOL    HW223745   2.670   2.687   4.024  2.5744  3.1057 -1.2605
 4096SOL     OW23746   4.525   4.599  14.305 -0.0333  0.1614 -0.0843
 4096SOL    HW123747   4.476   4.641  14.234  0.0576  0.0841 -0.1935
 4096SOL    HW223748   4.520   4.508  14.274 -0.4277  1.1647 -3.0406
 4097SOL     OW23749   3.846   1.372   0.096  0.3450  0.3007 -0.0056
 4097SOL    HW123750   3.821   1.304   0.158 -0.4919 -1.0465 -1.8364
 4097SOL    HW223751   3.855   1.317   0.018  0.7947 -0.1334  0.3603
 4098SOL     OW23752   2.064   1.870   5.896 -0.0073 -0.5295  0.2590
 4098SOL    HW123753   2.115   1.791   5.879 -0.0800 -0.2926 -1.1243
 4098SOL    HW223754   1.991   1.827   5.941 -0.4693  0.8809  0.8447
 4099SOL     OW23755   1.099   3.526   0.670 -0.1053 -0.3389 -0.1404
 4099SOL    HW123756   1.082   3.532   0.764  2.1933 -0.2295  0.2580
 4099SOL    HW223757   1.073   3.434   0.664  0.3031 -0.4367 -0.4040
 4100SOL     OW23758   3.087   2.660   9.262  0.4306  0.0451  0.5281
 4100SOL    HW123759   3.024   2.679   9.331 -0.9936  0.3716 -0.8769
 4100SOL    HW223760   3.170   2.683   9.304 -0.3372  1.3001  1.3683
 4101SOL     OW23761   2.793   0.821   6.459 -0.3436 -0.8630  0.5854
 4101SOL    HW123762   2.830   0.901   6.497 -0.6029 -0.1741 -0.6079
 4101SOL    HW223763   2.730   0.871   6.408  0.6555  1.0123  1.1766
 4102SOL     OW23764   1.092   0.595   2.994 -0.4697 -0.2168 -0.3466
 4102SOL    HW123765   1.098   0.687   2.968  1.3933 -0.4250 -0.6486
 4102SOL    HW223766   1.133   0.559   2.915 -1.8278 -1.9651 -0.2809
 4103SOL     OW23767   3.463   2.318  13.042  0.5657  0.3917  0.2230
 4103SOL    HW123768   3.453   2.223  13.044 -0.3144  0.5381  2.1636
 4103SOL    HW223769   3.532   2.342  13.104  0.4581 -2.9723  1.6017
 4104SOL     OW23770   4.667   4.648  14.511  0.1827  0.2264  0.0780
 4104SOL    HW123771   4.629   4.636  14.424 -1.4546  1.1846  0.6779
 4104SOL    HW223772   0.033   4.624  14.488  0.6708  0.5734  1.6409
 4105SOL     OW23773   0.559   3.809   6.292 -0.0415 -1.1072 -0.6312
 4105SOL    HW123774   0.532   3.719   6.272 -1.1897 -1.0330  0.5428
 4105SOL    HW223775   0.475   3.840   6.327 -0.1693 -1.8108 -0.3015
 4106SOL     OW23776   0.079   2.590   3.573 -0.5620  0.1641 -0.4402
 4106SOL    HW123777   0.054   2.502   3.543  0.5137  0.0665 -1.0432
 4106SOL    HW223778   0.137   2.617   3.502 -3.0065  0.1876 -2.4305
 4107SOL     OW23779   1.234   2.503   4.154 -0.0475  0.2076 -0.1927
 4107SOL    HW123780   1.268   2.431   4.100  1.7102 -0.2104  1.4533
 4107SOL    HW223781   1.319   2.533   4.186 -0.9905  0.8131  1.7367
 4108SOL     OW23782   1.848   2.862   7.713  0.4160  0.3452 -0.4310
 4108SOL    HW123783   1.914   2.887   7.778  1.8364 -1.4658 -1.1751
 4108SOL    HW223784   1.880   2.911   7.637  0.3770 -0.0428 -0.6978
 4109SOL     OW23785   4.636   4.465   2.571 -0.3885  0.3615  0.2486
 4109SOL    HW123786   4.658   4.395   2.633  1.1575 -0.1048 -0.8407
 4109SOL    HW223787   4.572   4.419   2.515 -2.0697 -1.7684  3.8674
 4110SOL     OW23788   4.371   3.257   8.847  0.0492  0.5141  0.4388
 4110SOL    HW123789   4.437   3.287   8.910 -0.5142  0.1913  1.1874
 4110SOL    HW223790   4.403   3.167   8.836 -1.3937  0.5311 -3.6126
 4111SOL     OW23791   3.477   3.211   4.181 -0.1087 -0.0418  0.0279
 4111SOL    HW123792   3.442   3.279   4.238  1.0206  0.2867  0.3297
 4111SOL    HW223793   3.456   3.250   4.096 -1.8558  1.1614  1.0267
 4112SOL     OW23794   0.371   3.607   6.008  0.0220 -0.4079 -0.2219
 4112SOL    HW123795   0.355   3.617   6.102  0.9556 -0.5352 -0.0519
 4112SOL    HW223796   0.290   3.560   5.988 -0.5628  0.9586 -1.1063
 4113SOL     OW23797   1.053   2.688   5.819 -0.3220  0.3473 -0.0407
 4113SOL    HW123798   0.977   2.649   5.863 -0.9183  0.9700 -0.5149
 4113SOL    HW223799   1.009   2.713   5.737 -0.7516  0.0899  0.1097
 4114SOL     OW23800   3.981   0.353  17.150  0.2627 -0.1117  0.3597
 4114SOL    HW123801   3.942   0.425  17.199  1.4337 -0.2628  1.5061
 4114SOL    HW223802   3.914   0.323  17.088  1.9504 -0.1431 -1.4368
 4115SOL     OW23803   3.014   4.500   0.344 -0.2988  0.2534 -0.3087
 4115SOL    HW123804   2.999   4.453   0.426 -0.7071  0.0087 -0.5272
 4115SOL    HW223805   2.925   4.506   0.312 -1.4636 -2.0044  2.5347
 4116SOL     OW23806   1.486   2.525   9.595  0.3212 -0.6772 -0.0371
 4116SOL    HW123807   1.438   2.519   9.677 -0.5633 -2.9049 -0.7241
 4116SOL    HW223808   1.416   2.561   9.540  0.4078  0.5923  0.6911
 4117SOL     OW23809   1.485   1.517   9.000  0.1156  0.6705  0.2001
 4117SOL    HW123810   1.393   1.520   9.027  0.2373  0.3970  0.6359
 4117SOL    HW223811   1.520   1.438   9.041 -2.3545 -0.6544 -0.2596
 4118SOL     OW23812   3.242   2.854   4.975 -0.2636  0.4060  0.0273
 4118SOL    HW123813   3.175   2.789   4.997  2.3632 -2.9578 -1.8788
 4118SOL    HW223814   3.277   2.875   5.062  0.0308  0.9988 -0.2331
 4119SOL     OW23815   3.866   1.472   2.134  0.3946  0.8617 -0.1231
 4119SOL    HW123816   3.816   1.420   2.196  0.7086 -0.1853 -0.7505
 4119SOL    HW223817   3.840   1.442   2.047 -0.9893  2.2482 -0.1786
 4120SOL     OW23818   3.693   4.473  17.287  0.5789 -0.2093 -0.0390
 4120SOL    HW123819   3.759   4.496  17.352 -0.2926 -1.0588  1.1497
 4120SOL    HW223820   3.632   4.546  17.300  1.0319 -0.3945  3.0165
 4121SOL     OW23821   3.997   2.442  13.900  0.1682 -0.0833  0.1347
 4121SOL    HW123822   4.046   2.521  13.878 -0.5305  0.7765  1.6615
 4121SOL    HW223823   4.058   2.371  13.880 -0.2089 -0.4679  0.3401
 4122SOL     OW23824   0.142   1.836  14.924 -0.1506 -0.0690  0.2526
 4122SOL    HW123825   0.084   1.824  14.848  0.8800  0.8652 -0.6927
 4122SOL    HW223826   0.084   1.852  14.998  0.2898 -0.7724  0.7410
 4123SOL     OW23827   0.602   3.131   6.423 -0.3636 -0.3241  0.3266
 4123SOL    HW123828   0.662   3.127   6.349 -0.5415  1.5115  0.0899
 4123SOL    HW223829   0.523   3.173   6.387  0.5406 -0.0546 -1.3386
 4124SOL     OW23830   3.658   1.776   0.039 -0.0134 -0.1186  0.2369
 4124SOL    HW123831   3.642   1.686   0.010 -1.0215  0.2811 -0.4466
 4124SOL    HW223832   3.585   1.812  17.688  0.6443  0.1613 -0.5121
 4125SOL     OW23833   3.357   0.455  16.856 -0.2524  0.0089 -0.2068
 4125SOL    HW123834   3.266   0.431  16.839 -0.1742  0.7039 -1.6693
 4125SOL    HW223835   3.395   0.415  16.778 -1.1408  0.3659 -0.8213
 4126SOL     OW23836   0.762   4.158   4.620  0.3961  0.2607  0.1332
 4126SOL    HW123837   0.808   4.228   4.667  0.4532  1.6558 -2.0264
 4126SOL    HW223838   0.727   4.211   4.549  0.6024 -3.0435 -2.4556
 4127SOL     OW23839   0.606   0.397   4.289 -0.2545 -0.1770 -0.5181
 4127SOL    HW123840   0.698   0.415   4.269 -0.1383 -1.0745 -0.7795
 4127SOL    HW223841   0.578   0.380   4.199  2.0499  1.7270 -1.6031
 4128SOL     OW23842   2.202   2.329   5.748  0.3370  0.4927 -0.6538
 4128SOL    HW123843   2.274   2.276   5.713 -0.3050 -1.7958  1.5329
 4128SOL    HW223844   2.236   2.349   5.835 -2.0098  3.1021 -0.3231
 4129SOL     OW23845   3.727   3.835   1.573 -0.0932 -0.1735  0.2753
 4129SOL    HW123846   3.684   3.847   1.488 -1.3682 -0.9711  0.7945
 4129SOL    HW223847   3.790   3.906   1.584  0.5091 -0.2923 -2.3763
 4130SOL     OW23848   4.229   1.946   3.503 -0.1087  0.5108 -0.3759
 4130SOL    HW123849   4.205   1.960   3.594 -2.6264  0.8480 -1.1032
 4130SOL    HW223850   4.304   1.887   3.515  0.7555  2.1622  2.2238
 4131SOL     OW23851   0.465   3.523   7.927  0.5934  0.1288  0.4519
 4131SOL    HW123852   0.389   3.523   7.869 -0.5801 -0.2292  1.9790
 4131SOL    HW223853   0.490   3.615   7.916 -1.3335  0.5656 -0.2783
 4132SOL     OW23854   2.456   3.313   7.716 -0.2139 -0.4638 -0.2169
 4132SOL    HW123855   2.496   3.273   7.639  0.7357  0.7908 -0.3697
 4132SOL    HW223856   2.368   3.273   7.712 -0.2877 -0.3373  0.1512
 4133SOL     OW23857   0.340   1.473   7.170 -0.8688 -0.3416 -0.6638
 4133SOL    HW123858   0.335   1.431   7.256 -1.3447  0.3199 -0.3709
 4133SOL    HW223859   0.271   1.538   7.180 -0.2245  0.4255 -1.1881
 4134SOL     OW23860   2.653   1.552   2.337  0.0086 -0.5778  0.0628
 4134SOL    HW123861   2.632   1.483   2.399  1.1323 -0.6542  0.3637
 4134SOL    HW223862   2.566   1.590   2.328 -0.2932 -1.1165  0.7355
 4135SOL     OW23863   1.220   3.812   6.729  0.0976 -0.7920 -0.5302
 4135SOL    HW123864   1.186   3.733   6.686  0.8072 -1.6700  0.5381
 4135SOL    HW223865   1.251   3.870   6.659 -0.0354  1.1370  1.0076
 4136SOL     OW23866   2.384   4.272   8.426  0.3530 -0.0089 -0.1104
 4136SOL    HW123867   2.406   4.365   8.433 -0.2240 -0.1798  3.8066
 4136SOL    HW223868   2.400   4.263   8.332  0.7289  0.0369 -0.0510
 4137SOL     OW23869   1.588   2.939  12.215  0.0188  0.2899 -0.2608
 4137SOL    HW123870   1.583   2.890  12.297  0.8079  0.7639  0.0750
 4137SOL    HW223871   1.639   2.889  12.152  1.3790  0.5207  0.6353
 4138SOL     OW23872   0.442   3.417   6.706  0.1179  0.3276  0.2573
 4138SOL    HW123873   0.412   3.432   6.796 -0.2286  0.7494  0.0742
 4138SOL    HW223874   0.374   3.366   6.663 -0.6283  2.0590 -0.6026
 4139SOL     OW23875   4.159   4.403   0.781  0.4787  0.4906  0.1674
 4139SOL    HW123876   4.159   4.497   0.764  2.9192  0.3906 -0.3411
 4139SOL    HW223877   4.247   4.378   0.752  0.2046 -1.2987  0.8443
 4140SOL     OW23878   2.616   1.616   1.730  0.1873  0.7621 -0.4826
 4140SOL    HW123879   2.689   1.558   1.706 -1.2793 -0.6783 -1.4529
 4140SOL    HW223880   2.544   1.559   1.704  0.6457 -0.2366  0.4361
 4141SOL     OW23881   1.346   4.352  11.290  0.2578  0.2128 -0.1382
 4141SOL    HW123882   1.389   4.354  11.376 -0.6433 -0.5822  0.3289
 4141SOL    HW223883   1.428   4.338  11.243  0.1321  0.4377 -0.4187
 4142SOL     OW23884   0.810   0.368   0.939  0.2021 -0.3634 -0.3158
 4142SOL    HW123885   0.801   0.316   0.858  1.0957 -2.6894  1.0609
 4142SOL    HW223886   0.898   0.404   0.933 -0.0218 -0.1665 -2.4728
 4143SOL     OW23887   2.895   0.255   4.831 -0.0113 -0.5035  0.1936
 4143SOL    HW123888   2.884   0.265   4.736  0.2429  1.3189  0.3643
 4143SOL    HW223889   2.823   0.304   4.870 -0.3903  0.6762 -1.9896
 4144SOL     OW23890   1.227   0.042   4.814 -0.0515 -0.1626 -0.2689
 4144SOL    HW123891   1.146   0.086   4.839  0.5063  0.0848  1.1103
 4144SOL    HW223892   1.294   0.101   4.849 -0.2241  0.3350 -0.7791
 4145SOL     OW23893   1.743   0.426  15.863  0.1729 -0.4762 -0.0249
 4145SOL    HW123894   1.709   0.490  15.926 -0.2020 -3.2004  2.5630
 4145SOL    HW223895   1.669   0.366  15.850 -0.0033  0.2698 -2.4101
 4146SOL     OW23896   4.520   2.714   6.678 -0.0125 -1.1747  0.3951
 4146SOL    HW123897   4.568   2.785   6.635 -0.9373  0.3387  1.8522
 4146SOL    HW223898   4.576   2.641   6.651  1.8861 -0.2004  1.6996
 4147SOL     OW23899   0.990   3.610   8.131  0.6251  0.3542 -0.1398
 4147SOL    HW123900   0.936   3.550   8.182  1.5468  0.0787  0.5246
 4147SOL    HW223901   1.075   3.567   8.129  0.3314 -0.1992 -0.5362
 4148SOL     OW23902   0.244   0.645   2.900 -0.3145 -0.2593  0.5254
 4148SOL    HW123903   0.226   0.705   2.972 -0.3409  0.2267  0.1142
 4148SOL    HW223904   0.181   0.667   2.832 -1.4419 -1.2752  1.2390
 4149SOL     OW23905   0.935   2.740   8.966 -0.8828 -0.3886 -0.0174
 4149SOL    HW123906   0.918   2.780   8.881 -1.3109 -1.2465 -0.3288
 4149SOL    HW223907   0.850   2.759   9.005 -2.2220  0.5055 -3.4003
 4150SOL     OW23908   3.183   2.068   7.849  0.4360 -0.6360 -0.2300
 4150SOL    HW123909   3.140   2.092   7.931  0.0833  1.3443 -1.0113
 4150SOL    HW223910   3.219   1.984   7.877  1.6774 -1.0169 -2.9624
 4151SOL     OW23911   1.545   1.218   7.595  0.2398  0.0969  0.0282
 4151SOL    HW123912   1.534   1.122   7.595 -0.5452  0.1839  0.1833
 4151SOL    HW223913   1.470   1.249   7.645  0.1323  1.5202 -1.0234
 4152SOL     OW23914   3.280   1.812   1.759  0.6437  0.3665  0.6325
 4152SOL    HW123915   3.203   1.805   1.702  1.0780 -0.7945  0.1807
 4152SOL    HW223916   3.245   1.797   1.846 -2.6542 -0.0773 -0.7460
 4153SOL     OW23917   1.154   4.706   4.541  0.2237 -0.3975 -0.5546
 4153SOL    HW123918   1.140   0.047   4.610  1.3639 -0.4645 -0.2689
 4153SOL    HW223919   1.241   0.007   4.511  0.6076 -0.5749  0.4335
 4154SOL     OW23920   0.123   3.000   5.630  0.2672  0.1125 -0.3577
 4154SOL    HW123921   0.158   3.076   5.584 -0.5019 -0.3424 -1.6862
 4154SOL    HW223922   0.160   2.924   5.584 -1.8319 -0.8414 -0.4709
 4155SOL     OW23923   2.696   0.047   7.126  0.2180  0.2292  0.1996
 4155SOL    HW123924   2.635   0.120   7.138 -1.2216 -1.4016  2.7429
 4155SOL    HW223925   2.744   0.059   7.208 -0.0613 -0.9232  0.5258
 4156SOL     OW23926   3.369   4.684  16.297 -0.0666  0.0950 -0.2488
 4156SOL    HW123927   3.351   4.631  16.219  0.4718  0.4777 -0.6271
 4156SOL    HW223928   3.324   0.042  16.276 -0.0368 -0.1541 -1.2842
 4157SOL     OW23929   3.026   3.680   5.519  0.1258  0.0395 -0.1028
 4157SOL    HW123930   3.037   3.619   5.446  0.8082  0.1851 -0.1193
 4157SOL    HW223931   2.986   3.618   5.579  1.6203 -1.1753 -0.3781
 4158SOL     OW23932   3.285   0.887  14.647 -0.2464 -0.3114  0.1315
 4158SOL    HW123933   3.204   0.858  14.605  0.9288 -1.3293 -1.4231
 4158SOL    HW223934   3.336   0.908  14.568 -1.1465 -0.9201 -0.6063
 4159SOL     OW23935   3.790   1.263  16.890 -0.5084  0.0675  0.1367
 4159SOL    HW123936   3.768   1.188  16.834 -0.9327  0.8537 -0.7658
 4159SOL    HW223937   3.862   1.306  16.844 -0.2575  1.3176  1.7276
 4160SOL     OW23938   3.870   0.751   3.431  0.7991  0.0473  0.2999
 4160SOL    HW123939   3.839   0.664   3.455 -1.5412  1.2746  1.7006
 4160SOL    HW223940   3.786   0.796   3.426  0.5093 -0.8401 -2.9550
 4161SOL     OW23941   4.078   1.107   8.311 -0.7250  0.2485 -0.8706
 4161SOL    HW123942   4.126   1.040   8.360 -0.3317  2.0241  1.1614
 4161SOL    HW223943   4.100   1.082   8.222  0.4325  0.3992 -0.6225
 4162SOL     OW23944   0.461   2.593   5.699  0.2153 -0.1235  0.1614
 4162SOL    HW123945   0.430   2.506   5.676  0.3215 -0.6716  2.0587
 4162SOL    HW223946   0.499   2.624   5.616 -0.4893  0.1626 -0.0522
 4163SOL     OW23947   3.720   4.251   2.741 -0.1269 -0.4236 -0.0547
 4163SOL    HW123948   3.790   4.195   2.706  1.1801  0.9980  0.2424
 4163SOL    HW223949   3.656   4.254   2.670 -0.6456  2.9306  0.5401
 4164SOL     OW23950   3.407   0.111   4.582  0.1540  0.3047  0.5344
 4164SOL    HW123951   3.497   0.143   4.573  0.6301 -0.2906  3.2154
 4164SOL    HW223952   3.359   0.160   4.516  0.9273 -0.1099 -0.3222
 4165SOL     OW23953   1.712   3.507  12.135 -0.1052 -0.4007 -0.5542
 4165SOL    HW123954   1.729   3.600  12.120  1.3187 -0.4626  0.6778
 4165SOL    HW223955   1.650   3.509  12.208  1.1093  1.5011  0.4182
 4166SOL     OW23956   2.635   1.983   7.248  0.2350 -0.0610  0.1859
 4166SOL    HW123957   2.596   1.992   7.335  0.8773 -0.1001  0.4832
 4166SOL    HW223958   2.648   1.888   7.253  1.1962  0.1146  1.0339
 4167SOL     OW23959   4.271   4.356  13.207 -0.0153 -0.1801  0.0469
 4167SOL    HW123960   4.301   4.351  13.298 -1.5150  1.0874  0.6020
 4167SOL    HW223961   4.210   4.284  13.198  0.1984 -0.4919  1.1283
 4168SOL     OW23962   2.082   0.577   6.797 -0.0656  0.0393 -0.1236
 4168SOL    HW123963   1.991   0.605   6.791 -0.2716 -0.1323  2.3843
 4168SOL    HW223964   2.100   0.544   6.709 -3.0385 -0.3780 -0.5631
 4169SOL     OW23965   0.987   1.920   4.609  0.3921  0.0321 -0.1045
 4169SOL    HW123966   0.993   1.984   4.681  1.8700  1.2518 -1.3241
 4169SOL    HW223967   1.018   1.845   4.660  0.4537 -0.4567 -0.8791
 4170SOL     OW23968   0.381   2.661  13.614 -0.2033  0.7289  0.3784
 4170SOL    HW123969   0.466   2.661  13.569  0.5167 -0.0546  1.7406
 4170SOL    HW223970   0.333   2.727  13.563  0.0339  0.4710 -0.1833
 4171SOL     OW23971   2.004   1.299   3.895  0.1167  0.6947  0.8818
 4171SOL    HW123972   1.939   1.328   3.959 -1.5696  1.7616 -1.3151
 4171SOL    HW223973   1.967   1.322   3.810 -0.0853 -1.4323  0.3944
 4172SOL     OW23974   1.678   2.671   9.727  0.4101 -0.3194 -0.1548
 4172SOL    HW123975   1.612   2.618   9.682 -1.4544  0.5222  1.6044
 4172SOL    HW223976   1.704   2.731   9.657  1.4058  0.8400  1.2255
 4173SOL     OW23977   0.778   3.895   4.700 -0.1450  0.4698 -0.4349
 4173SOL    HW123978   0.771   3.982   4.661  0.6637 -0.4500 -2.6656
 4173SOL    HW223979   0.765   3.913   4.793 -1.5016  0.9372 -0.7139
 4174SOL     OW23980   2.066   0.006   5.065 -0.2025  0.9493 -0.3963
 4174SOL    HW123981   2.137   0.047   5.015  0.7773  0.1675  0.3516
 4174SOL    HW223982   1.990   0.051   5.029  0.1511  0.7776 -1.3569
 4175SOL     OW23983   0.534   3.654   7.243 -0.0783 -0.3282  0.0463
 4175SOL    HW123984   0.466   3.587   7.241 -1.5627  1.2401 -2.1684
 4175SOL    HW223985   0.561   3.652   7.151 -1.8251 -1.1750 -0.4486
 4176SOL     OW23986   2.193   1.815  15.766  0.1674  0.1404  0.2592
 4176SOL    HW123987   2.273   1.867  15.761  0.3637 -0.4623 -3.3395
 4176SOL    HW223988   2.148   1.843  15.846 -0.5938 -1.6662  0.4688
 4177SOL     OW23989   2.181   0.224   3.380 -0.1640  0.0739 -0.2246
 4177SOL    HW123990   2.204   0.311   3.350 -1.5664  0.5285  0.0235
 4177SOL    HW223991   2.138   0.182   3.305  1.1991 -1.5374 -0.1131
 4178SOL     OW23992   3.774   1.324  11.867  0.5095  0.0988 -0.2867
 4178SOL    HW123993   3.828   1.308  11.790  1.2796  1.1656  0.0291
 4178SOL    HW223994   3.767   1.239  11.911  0.9313  1.2329  1.9800
 4179SOL     OW23995   2.535   0.410   8.972  0.0476 -0.7462  0.0686
 4179SOL    HW123996   2.496   0.477   8.915  1.4774 -1.3704 -1.6178
 4179SOL    HW223997   2.508   0.440   9.059  1.4115  0.9993 -0.1154
 4180SOL     OW23998   0.215   3.839   0.203  0.1485 -0.0550 -0.4327
 4180SOL    HW123999   0.167   3.904   0.255 -0.7407  1.0233 -2.5815
 4180SOL    HW224000   0.190   3.873   0.117 -0.6283 -0.8988 -0.5385
 4181SOL     OW24001   0.719   1.832   2.598  0.3739  0.4808 -0.2069
 4181SOL    HW124002   0.766   1.757   2.636 -1.9213  0.2389  2.1475
 4181SOL    HW224003   0.796   1.862   2.549 -0.1519  0.2744 -1.1439
 4182SOL     OW24004   3.258   0.958   6.551  0.1718  0.3463 -0.5170
 4182SOL    HW124005   3.260   0.862   6.550  1.3291  0.3724 -0.6605
 4182SOL    HW224006   3.293   0.967   6.462  1.0804 -0.1885 -0.2185
 4183SOL     OW24007   0.760   0.242   5.849  0.1805 -0.5152  0.5130
 4183SOL    HW124008   0.854   0.255   5.838 -0.1002  1.1728  0.0285
 4183SOL    HW224009   0.758   0.195   5.933  0.8260  0.6941  1.2124
 4184SOL     OW24010   4.657   1.184  12.365 -0.1399  0.4527  0.0181
 4184SOL    HW124011   4.622   1.241  12.297  0.0758 -1.3416 -1.6036
 4184SOL    HW224012   4.647   1.100  12.320 -0.6803  0.1132  0.7643
 4185SOL     OW24013   4.140   0.572   4.542 -0.5365 -0.1831  0.3592
 4185SOL    HW124014   4.146   0.615   4.457 -1.2983  0.9189  0.8678
 4185SOL    HW224015   4.054   0.599   4.575  0.5612  1.6448  1.6634
 4186SOL     OW24016   0.390   3.624   3.320 -0.0675 -0.3095 -0.3777
 4186SOL    HW124017   0.335   3.675   3.261 -0.0525  0.2047  0.0479
 4186SOL    HW224018   0.375   3.672   3.402 -1.4025  1.6365 -1.7546
 4187SOL     OW24019   3.480   2.119   2.263  0.8156  0.2316 -0.4088
 4187SOL    HW124020   3.513   2.029   2.268 -0.9417 -0.4561 -1.2411
 4187SOL    HW224021   3.552   2.175   2.293 -0.9301  2.5168 -0.5594
 4188SOL     OW24022   3.390   2.597   4.645  0.2096  0.2224  0.3040
 4188SOL    HW124023   3.413   2.559   4.561  1.8303  0.9703  0.4087
 4188SOL    HW224024   3.478   2.618   4.675  2.2152 -1.0084 -4.9113
 4189SOL     OW24025   2.240   2.964   3.266 -0.3639 -0.1599  0.6245
 4189SOL    HW124026   2.152   2.930   3.252 -0.4779 -0.3479  1.7869
 4189SOL    HW224027   2.220   3.058   3.265  3.2367  0.6298  1.7070
 4190SOL     OW24028   1.123   3.288   7.956 -0.0693  0.5622 -0.1787
 4190SOL    HW124029   1.182   3.361   7.974  1.7335 -1.1428  0.9801
 4190SOL    HW224030   1.085   3.272   8.043 -0.5204 -0.8491 -0.6419
 4191SOL     OW24031   0.098   0.167   7.747 -0.6530  0.2127 -0.2420
 4191SOL    HW124032   0.183   0.154   7.791 -0.2390  0.6964 -0.9018
 4191SOL    HW224033   0.061   0.079   7.757  1.6367 -0.6009  1.0510
 4192SOL     OW24034   2.725   3.138   2.076 -0.1237 -0.6152  0.4882
 4192SOL    HW124035   2.813   3.172   2.090 -1.4110  2.6415  0.7506
 4192SOL    HW224036   2.691   3.138   2.166 -1.1275  0.6699  0.1149
 4193SOL     OW24037   4.381   3.915   1.727 -0.2515 -0.1602  0.0708
 4193SOL    HW124038   4.362   3.991   1.782  0.5315 -1.6556  2.4039
 4193SOL    HW224039   4.452   3.954   1.675  0.4757  0.6184  1.6584
 4194SOL     OW24040   2.823   0.236   2.024  0.2558 -0.1416 -0.0514
 4194SOL    HW124041   2.851   0.253   1.934 -1.5516  2.6104 -0.0858
 4194SOL    HW224042   2.760   0.308   2.027  1.2237  0.6204  1.7911
 4195SOL     OW24043   2.045   2.145   6.837  0.4913  0.3870  0.0372
 4195SOL    HW124044   1.963   2.122   6.793  0.5033  1.1077 -0.3626
 4195SOL    HW224045   2.031   2.234   6.866 -1.1866 -0.5117  1.9673
 4196SOL     OW24046   2.425   2.869   4.662  0.2812  0.3136 -0.1226
 4196SOL    HW124047   2.387   2.884   4.575 -0.8607 -1.6446  0.0417
 4196SOL    HW224048   2.440   2.777   4.637  1.1012  0.1197  1.1027
 4197SOL     OW24049   3.477   3.245  13.022  0.3272 -0.6112 -0.2781
 4197SOL    HW124050   3.506   3.155  13.011 -0.4603 -0.7436 -1.3294
 4197SOL    HW224051   3.547   3.302  12.991 -0.9766  2.6376  2.7484
 4198SOL     OW24052   2.788   0.583   5.147 -0.0918 -0.7243 -0.2446
 4198SOL    HW124053   2.755   0.613   5.062  0.6488  0.0166 -0.2774
 4198SOL    HW224054   2.724   0.514   5.162 -1.1504  0.6452  1.5385
 4199SOL     OW24055   2.664   2.114   1.241 -0.5128  0.5360  0.4492
 4199SOL    HW124056   2.578   2.074   1.250 -0.4150 -0.1521 -1.6225
 4199SOL    HW224057   2.715   2.047   1.286 -0.8266 -0.0747 -0.0961
 4200SOL     OW24058   1.099   1.432   7.772  0.1627  0.5561 -0.7316
 4200SOL    HW124059   1.119   1.515   7.728 -0.0428  1.2808  0.5394
 4200SOL    HW224060   1.047   1.388   7.705 -0.9914 -0.6783  0.9547
 4201SOL     OW24061   1.054   2.473  11.965 -0.1659 -0.3681 -0.0736
 4201SOL    HW124062   1.025   2.557  11.999 -2.2381 -1.1315  0.0648
 4201SOL    HW224063   1.068   2.426  12.047 -1.0756  2.0701  1.4667
 4202SOL     OW24064   3.775   1.630   9.695  0.1758 -0.0190  0.1824
 4202SOL    HW124065   3.699   1.575   9.674  0.3196  0.4790 -1.6564
 4202SOL    HW224066   3.771   1.658   9.787 -0.1206 -1.9681  0.7633
 4203SOL     OW24067   0.385   0.585   4.667 -0.3415 -0.1416 -0.0026
 4203SOL    HW124068   0.437   0.511   4.698  0.4683  0.5954  0.4121
 4203SOL    HW224069   0.315   0.543   4.616  1.4551 -2.2622 -0.7007
 4204SOL     OW24070   2.447   1.836   2.626  0.1291  0.3620 -0.1173
 4204SOL    HW124071   2.415   1.826   2.716  0.4785 -0.4289 -0.0809
 4204SOL    HW224072   2.540   1.852   2.642  0.4071 -0.2564 -1.1493
 4205SOL     OW24073   1.824   3.238  10.876 -0.1127 -0.2253 -0.4136
 4205SOL    HW124074   1.779   3.234  10.792 -0.5361  0.5365 -0.2166
 4205SOL    HW224075   1.819   3.328  10.906 -2.1899 -0.5823  0.2727
 4206SOL     OW24076   3.004   3.049   1.414 -0.2084  0.5653 -0.8390
 4206SOL    HW124077   2.949   3.122   1.444  2.4842  1.0287  3.0019
 4206SOL    HW224078   2.986   3.054   1.320 -0.4835  0.0046 -0.8146
 4207SOL     OW24079   0.173   4.319  11.291  0.1053 -0.3554 -0.1379
 4207SOL    HW124080   0.199   4.376  11.364 -2.4619  1.1984 -0.4510
 4207SOL    HW224081   0.079   4.313  11.304  0.3071 -0.6005  1.2929
 4208SOL     OW24082   3.951   2.003  16.901  0.5165  0.0892 -1.0145
 4208SOL    HW124083   3.941   1.908  16.911  0.3662 -0.0477 -2.4180
 4208SOL    HW224084   3.988   2.022  16.987  1.6861 -0.7472 -1.3318
 4209SOL     OW24085   4.715   1.027   6.410  0.8251 -0.0219 -0.0696
 4209SOL    HW124086   4.714   1.109   6.460 -1.0774 -0.3332  0.4159
 4209SOL    HW224087   4.718   1.066   6.323 -1.5505 -0.2791 -0.2511
 4210SOL     OW24088   2.910   3.504   3.428  0.1509 -0.2117 -0.0790
 4210SOL    HW124089   2.880   3.521   3.517 -0.7954  1.6950 -0.7520
 4210SOL    HW224090   3.004   3.520   3.434  0.5873 -2.3757 -1.4046
 4211SOL     OW24091   0.386   1.427   0.821  0.8018 -0.2922 -0.0217
 4211SOL    HW124092   0.355   1.370   0.751  0.5185  3.6935 -3.0869
 4211SOL    HW224093   0.376   1.375   0.901  0.1031 -1.0242 -0.5825
 4212SOL     OW24094   4.007   1.982   8.264 -0.1439 -0.5021  0.4011
 4212SOL    HW124095   3.952   1.917   8.308 -0.7669 -0.2421  0.0091
 4212SOL    HW224096   3.955   2.062   8.260  0.8822  0.1087 -1.1239
 4213SOL     OW24097   1.529   2.222   5.320  0.2063  0.1217 -0.0293
 4213SOL    HW124098   1.561   2.305   5.285 -1.6166  1.1958  0.8727
 4213SOL    HW224099   1.480   2.247   5.398 -1.5250 -1.0200 -0.7418
 4214SOL     OW24100   2.711   4.546   1.850 -0.5879  0.2998  0.1784
 4214SOL    HW124101   2.627   4.542   1.896 -1.2694 -0.0156 -1.0925
 4214SOL    HW224102   2.762   4.491   1.909 -1.6036 -0.2262  0.5630
 4215SOL     OW24103   4.638   0.350   6.374 -0.1488 -0.7925  0.1684
 4215SOL    HW124104   0.003   0.348   6.342  0.1116 -1.3847  0.9290
 4215SOL    HW224105   4.644   0.388   6.462  1.1843 -1.4497  0.3628
 4216SOL     OW24106   0.738   2.859   2.180  0.2526 -0.2859  0.2279
 4216SOL    HW124107   0.708   2.923   2.116  0.0217 -0.2758  0.3448
 4216SOL    HW224108   0.812   2.896   2.229  2.1880 -1.2908 -1.9542
 4217SOL     OW24109   2.322   2.757   3.491 -0.0800 -0.2949 -0.3032
 4217SOL    HW124110   2.290   2.801   3.412  1.1212  0.2055 -0.5089
 4217SOL    HW224111   2.357   2.826   3.547  0.0088 -0.6149  0.0330
 4218SOL     OW24112   2.548   2.302  10.380  0.4627 -0.1129  0.4917
 4218SOL    HW124113   2.580   2.391  10.366  0.9093 -0.4601 -0.7362
 4218SOL    HW224114   2.620   2.251  10.344 -0.0563 -0.7754  0.3920
 4219SOL     OW24115   2.503   4.506   3.229 -0.3658 -0.2257  0.2469
 4219SOL    HW124116   2.524   4.579   3.287 -0.7937 -1.6627  2.1925
 4219SOL    HW224117   2.572   4.440   3.227  0.7675  1.0253 -2.1059
 4220SOL     OW24118   4.368   4.279   8.945  0.3363 -0.3507 -0.3944
 4220SOL    HW124119   4.293   4.254   8.890  0.4158  0.1906 -0.7575
 4220SOL    HW224120   4.355   4.374   8.934 -0.4362 -0.4808 -0.6497
 4221SOL     OW24121   2.448   3.043  13.259  0.4305  0.1371  0.2660
 4221SOL    HW124122   2.360   3.034  13.297 -0.0841  0.9481 -0.7021
 4221SOL    HW224123   2.495   3.089  13.328 -2.8542  0.8888  2.0238
 4222SOL     OW24124   0.081   3.939  10.425  0.3965  0.0296  0.2357
 4222SOL    HW124125   0.035   4.023  10.417  1.4806  0.8435  2.5454
 4222SOL    HW224126   0.015   3.873  10.407  0.5285 -0.4496  1.4797
 4223SOL     OW24127   1.219   2.620   8.269  0.2110 -0.1074  0.1005
 4223SOL    HW124128   1.242   2.540   8.317  0.1258 -1.5282 -2.2102
 4223SOL    HW224129   1.164   2.578   8.202  1.1307  0.7749 -1.1948
 4224SOL     OW24130   3.529   3.732   0.832  0.3821 -0.3216  0.1626
 4224SOL    HW124131   3.612   3.730   0.880  0.7387  0.6345 -0.4193
 4224SOL    HW224132   3.499   3.808   0.882  1.4522 -0.0386  0.3735
 4225SOL     OW24133   3.664   3.753   3.980  0.7276 -0.0611 -0.4116
 4225SOL    HW124134   3.754   3.741   3.949  1.3108  0.9762  0.9145
 4225SOL    HW224135   3.609   3.735   3.903 -0.3325  1.6407 -0.0435
 4226SOL     OW24136   3.635   0.253   4.502 -0.0280  0.1173  0.4089
 4226SOL    HW124137   3.597   0.340   4.492 -0.2619 -0.0332  0.0055
 4226SOL    HW224138   3.715   0.260   4.450  0.0714 -1.7126  0.3066
 4227SOL     OW24139   1.130   4.622   3.089  0.0575  0.6679 -0.7594
 4227SOL    HW124140   1.050   4.581   3.121  1.9642 -3.2818 -0.9459
 4227SOL    HW224141   1.108   4.711   3.116  0.7761 -0.0025  2.1195
 4228SOL     OW24142   4.057   2.289   0.299  0.1262 -0.2003 -0.6018
 4228SOL    HW124143   4.018   2.323   0.380  0.8266 -0.0036 -0.3441
 4228SOL    HW224144   4.114   2.364   0.280 -0.6758  0.7838  0.8921
 4229SOL     OW24145   2.587   3.284   4.227 -0.3181  0.5992  0.1615
 4229SOL    HW124146   2.545   3.335   4.296  1.2667  1.1064  0.7303
 4229SOL    HW224147   2.540   3.311   4.148 -0.3461 -0.8326 -0.2985
 4230SOL     OW24148   1.790   2.667   5.831 -0.1494 -0.6513  0.6544
 4230SOL    HW124149   1.879   2.637   5.810  0.6638  0.9819  1.7793
 4230SOL    HW224150   1.740   2.643   5.753  0.0917  0.5166  0.1425
 4231SOL     OW24151   4.493   1.635   4.321  0.4808 -0.9626  0.2397
 4231SOL    HW124152   4.533   1.634   4.408 -0.0206 -0.3904  0.4830
 4231SOL    HW224153   4.419   1.694   4.333  0.3063 -0.9712 -0.8546
 4232SOL     OW24154   2.163   4.066   1.634  0.6414 -0.5840 -1.1214
 4232SOL    HW124155   2.090   4.061   1.695  0.2987 -1.9104 -1.6235
 4232SOL    HW224156   2.125   4.052   1.547  2.7303 -0.1488 -2.0930
 4233SOL     OW24157   3.185   3.076   7.008 -0.2118  0.1874  0.1652
 4233SOL    HW124158   3.115   3.015   7.032 -0.0263 -0.2840 -0.4995
 4233SOL    HW224159   3.148   3.130   6.939  2.4093  0.8177 -0.7485
 4234SOL     OW24160   1.251   4.243  10.119 -0.2553 -0.1988  0.1286
 4234SOL    HW124161   1.282   4.194  10.043 -1.5684  1.2413 -1.3294
 4234SOL    HW224162   1.331   4.242  10.171 -0.0747 -2.5169 -0.2017
 4235SOL     OW24163   1.719   4.522   1.754  0.0268  0.2420 -0.0583
 4235SOL    HW124164   1.698   4.601   1.805  0.1486  0.0618  0.2706
 4235SOL    HW224165   1.630   4.488   1.752  0.6929 -1.5167 -0.0699
 4236SOL     OW24166   4.583   3.646   6.750  0.0037 -0.5050 -0.2750
 4236SOL    HW124167   4.499   3.680   6.719  0.3556  0.6848  0.0588
 4236SOL    HW224168   4.587   3.676   6.841  0.2747  0.2274 -0.5210
 4237SOL     OW24169   2.660   0.513   1.567 -0.4666  0.2392  0.1490
 4237SOL    HW124170   2.631   0.431   1.526 -3.2018  1.4531 -0.3574
 4237SOL    HW224171   2.718   0.546   1.498 -0.0336 -2.3394 -0.6961
 4238SOL     OW24172   0.631   3.664   3.852  0.1907  0.3086  0.4409
 4238SOL    HW124173   0.547   3.625   3.827  0.5699  2.0248 -3.3657
 4238SOL    HW224174   0.683   3.644   3.775 -1.1666  1.6054 -0.8131
 4239SOL     OW24175   1.924   3.325   8.319  0.0207 -0.5661 -0.1304
 4239SOL    HW124176   1.902   3.283   8.236  0.2185 -1.0966  0.0865
 4239SOL    HW224177   1.890   3.265   8.385  1.5014 -1.7887 -0.4657
 4240SOL     OW24178   3.396   1.625   5.544  0.0288  0.2007  0.3052
 4240SOL    HW124179   3.332   1.573   5.495  0.0107  2.0686 -1.6550
 4240SOL    HW224180   3.385   1.715   5.514  0.3762  0.1424 -0.0062
 4241SOL     OW24181   1.718   4.606   2.766 -0.4131 -0.3565  0.6915
 4241SOL    HW124182   1.705   4.695   2.799  2.3415  1.2093 -2.4435
 4241SOL    HW224183   1.643   4.596   2.707 -1.5158 -0.0480  2.0476
 4242SOL     OW24184   4.523   1.496  10.626  0.0347  0.2636  0.0153
 4242SOL    HW124185   4.552   1.406  10.641 -2.6681 -0.6021 -0.0183
 4242SOL    HW224186   4.509   1.489  10.532 -0.5357 -0.9084  0.1892
 4243SOL     OW24187   0.710   4.154   8.709  0.1633 -0.2393  0.0870
 4243SOL    HW124188   0.741   4.109   8.788  0.4713 -0.2724 -0.0535
 4243SOL    HW224189   0.619   4.123   8.703  0.3244 -0.9216  1.1881
 4244SOL     OW24190   2.650   1.584  15.913 -0.6591 -0.4804  0.6885
 4244SOL    HW124191   2.578   1.620  15.862 -0.8594  0.0221  1.3235
 4244SOL    HW224192   2.713   1.554  15.848  1.7855 -1.4256  3.5242
 4245SOL     OW24193   2.819   0.866   8.228  0.6137 -0.0366 -0.4593
 4245SOL    HW124194   2.847   0.808   8.299  0.3541 -0.6952 -0.8949
 4245SOL    HW224195   2.796   0.948   8.272  1.6821 -0.0610  0.1379
 4246SOL     OW24196   4.663   2.182   6.826  0.1100 -0.1197  0.1120
 4246SOL    HW124197   4.588   2.190   6.884 -0.7198 -0.9626 -0.8312
 4246SOL    HW224198   0.010   2.214   6.881  1.8487 -1.2179 -1.4953
 4247SOL     OW24199   4.297   1.138   2.341 -0.1768  0.1773  0.1916
 4247SOL    HW124200   4.359   1.204   2.373 -0.3736 -0.2055  1.3629
 4247SOL    HW224201   4.218   1.174   2.380 -0.7222 -1.2161  0.3801
 4248SOL     OW24202   1.174   4.401  11.563  0.3541  0.1891 -0.0887
 4248SOL    HW124203   1.145   4.439  11.480  0.6115  0.0391 -0.2483
 4248SOL    HW224204   1.139   4.477  11.609  0.4332 -2.2019  3.9025
 4249SOL     OW24205   1.679   0.347  12.367 -0.5234 -0.4333 -0.1016
 4249SOL    HW124206   1.742   0.286  12.405 -0.5668 -0.2374  0.2880
 4249SOL    HW224207   1.699   0.329  12.275  0.4879  0.0091  0.0360
 4250SOL     OW24208   3.170   1.410   1.341 -0.2583  0.0435 -0.1379
 4250SOL    HW124209   3.168   1.499   1.306 -1.9448  0.5525  1.2643
 4250SOL    HW224210   3.077   1.392   1.354 -0.7619  2.4029 -0.3804
 4251SOL     OW24211   4.281   0.126   3.736 -0.4157 -0.3700  0.4215
 4251SOL    HW124212   4.271   0.055   3.673 -1.3324  0.8412 -0.7999
 4251SOL    HW224213   4.206   0.104   3.791 -1.2990  1.7523  0.0821
 4252SOL     OW24214   4.409   2.379  12.825  0.5924 -0.4999 -0.1592
 4252SOL    HW124215   4.335   2.424  12.784  1.3378  1.2831  0.4678
 4252SOL    HW224216   4.371   2.291  12.819  2.6476 -1.1494 -3.2113
 4253SOL     OW24217   3.010   0.089   3.116 -0.0227 -0.2466 -0.6083
 4253SOL    HW124218   3.069   0.031   3.067  0.3892  2.0995 -2.8385
 4253SOL    HW224219   3.049   0.174   3.096  0.2006 -0.4518 -1.0366
 4254SOL     OW24220   0.786   1.687   4.300  0.4641 -0.4479  0.6215
 4254SOL    HW124221   0.745   1.770   4.326 -1.5575 -2.0146  2.4610
 4254SOL    HW224222   0.715   1.624   4.314 -0.8711  0.4547 -1.9815
 4255SOL     OW24223   2.058   0.491   0.463  0.0630 -0.1464  0.1961
 4255SOL    HW124224   1.974   0.446   0.473  0.0804 -0.5335 -1.3877
 4255SOL    HW224225   2.104   0.439   0.529  1.9508 -2.0891 -2.6795
 4256SOL     OW24226   0.524   3.858  16.186 -0.0899 -0.2030  1.0703
 4256SOL    HW124227   0.448   3.898  16.145  1.5608  1.1558 -0.6184
 4256SOL    HW224228   0.563   3.934  16.228  2.8014 -1.5342  0.7725
 4257SOL     OW24229   2.320   4.083   3.723 -0.0841  0.2081  0.2880
 4257SOL    HW124230   2.374   4.136   3.782 -0.4541  0.1786  0.6508
 4257SOL    HW224231   2.357   4.111   3.639  1.5058 -1.2396  0.4988
 4258SOL     OW24232   2.388   3.806   4.973  0.5183 -0.0463 -0.3638
 4258SOL    HW124233   2.349   3.728   4.934  0.6584  0.0445 -0.6858
 4258SOL    HW224234   2.415   3.849   4.892  0.2210 -0.0906 -0.4866
 4259SOL     OW24235   0.162   3.750   3.192  0.4255  0.1661  0.7110
 4259SOL    HW124236   0.132   3.670   3.151  0.6641  0.3604  0.1636
 4259SOL    HW224237   0.234   3.785   3.140 -1.0668 -0.7678 -1.9679
 4260SOL     OW24238   2.771   2.899  11.833  0.5118  0.6873 -0.1727
 4260SOL    HW124239   2.809   2.836  11.772 -0.4883 -1.4783  1.4449
 4260SOL    HW224240   2.720   2.947  11.767  0.8102  1.3308  0.0604
 4261SOL     OW24241   0.792   3.681   4.978  0.3414  0.3364  0.0325
 4261SOL    HW124242   0.806   3.720   5.064  1.1021  1.5750 -0.6649
 4261SOL    HW224243   0.832   3.736   4.911  0.1462  1.3058  0.7198
 4262SOL     OW24244   2.686   1.141   6.053  0.2588  0.8591  0.3134
 4262SOL    HW124245   2.649   1.125   5.966  1.6185  0.7165 -0.2407
 4262SOL    HW224246   2.779   1.131   6.034  0.1345  1.8971 -0.8239
 4263SOL     OW24247   2.738   0.007   3.128 -0.3321 -0.0843 -0.6044
 4263SOL    HW124248   2.720   4.686   3.046 -3.0191  1.6639 -0.9906
 4263SOL    HW224249   2.832   0.023   3.123 -0.4710  0.5712 -1.1457
 4264SOL     OW24250   1.520   1.046   3.854  0.1366  0.7359  0.0607
 4264SOL    HW124251   1.470   0.967   3.831  0.0815  1.2947 -1.7672
 4264SOL    HW224252   1.443   1.095   3.883  1.2369  1.9441  0.9386
 4265SOL     OW24253   3.843   1.827  10.955  0.0820  0.6540  0.2279
 4265SOL    HW124254   3.877   1.842  11.043 -1.0163 -0.5146  0.8599
 4265SOL    HW224255   3.749   1.818  10.970  0.4621  0.8301  2.6684
 4266SOL     OW24256   2.116   4.291   8.178  0.0984 -0.2905 -0.4236
 4266SOL    HW124257   2.131   4.231   8.105  1.0616 -1.7190  0.9658
 4266SOL    HW224258   2.034   4.336   8.155  0.7320  0.8034 -0.5411
 4267SOL     OW24259   4.415   2.184   7.837 -0.1142 -0.6890 -0.4109
 4267SOL    HW124260   4.440   2.138   7.917 -0.4175  1.1774  0.7725
 4267SOL    HW224261   4.398   2.273   7.870 -0.9309 -0.0129 -2.6302
 4268SOL     OW24262   2.664   0.427  13.372 -0.1376 -0.5484 -0.2284
 4268SOL    HW124263   2.750   0.468  13.368 -0.0410 -0.5328  1.8174
 4268SOL    HW224264   2.636   0.445  13.283 -0.2561  1.5835  0.2392
 4269SOL     OW24265   1.725   0.754   8.457 -0.1650 -0.1782 -0.0103
 4269SOL    HW124266   1.714   0.848   8.473 -1.1316 -0.0609 -1.2794
 4269SOL    HW224267   1.819   0.745   8.445  0.0651  0.4177  1.3539
 4270SOL     OW24268   2.605   1.314   1.416 -0.1513 -0.1508 -0.2764
 4270SOL    HW124269   2.583   1.286   1.327 -1.5632  0.2365 -0.0541
 4270SOL    HW224270   2.525   1.281   1.455  0.2501 -2.0103 -1.0259
 4271SOL     OW24271   3.791   4.332   3.168  0.0053  0.1203 -0.3297
 4271SOL    HW124272   3.786   4.261   3.232 -0.2800  0.7694  0.3713
 4271SOL    HW224273   3.824   4.289   3.089 -0.3086 -1.7409  0.5666
 4272SOL     OW24274   1.180   0.118   6.513 -0.4460  0.2678  0.1280
 4272SOL    HW124275   1.117   0.190   6.522 -1.9459 -1.2075  1.3099
 4272SOL    HW224276   1.193   0.128   6.418 -1.0937 -1.4210 -0.1337
 4273SOL     OW24277   2.538   2.300  16.705  0.3947  0.0885 -0.5784
 4273SOL    HW124278   2.580   2.215  16.717  2.3734  1.0005 -0.9199
 4273SOL    HW224279   2.494   2.291  16.789  1.3934  0.3377 -0.0176
 4274SOL     OW24280   4.508   4.626   1.555  0.0008  0.1804  0.4143
 4274SOL    HW124281   4.464   4.684   1.493  0.7746  0.6059  0.2550
 4274SOL    HW224282   4.538   4.676   1.630 -1.5400  0.1568  1.0364
 4275SOL     OW24283   1.260   0.854   8.348 -0.7287  0.3327 -0.9144
 4275SOL    HW124284   1.346   0.879   8.382 -0.6619  0.5753 -1.2658
 4275SOL    HW224285   1.276   0.916   8.277  3.5331  0.2358 -0.0893
 4276SOL     OW24286   1.729   3.301   0.767  0.2760 -0.7054 -0.3618
 4276SOL    HW124287   1.666   3.232   0.747  0.2168 -1.5169  2.5880
 4276SOL    HW224288   1.806   3.279   0.713 -1.1213 -1.5879 -2.0005
 4277SOL     OW24289   4.464   2.516  12.277  0.7708 -0.0612 -0.0209
 4277SOL    HW124290   4.450   2.598  12.324  0.7912 -1.3096  2.1565
 4277SOL    HW224291   4.415   2.545  12.200 -0.3376  0.3952  0.8610
 4278SOL     OW24292   2.609   1.197   4.421 -0.1127 -0.0968  0.5104
 4278SOL    HW124293   2.628   1.103   4.416 -1.0515 -0.1627 -1.7777
 4278SOL    HW224294   2.696   1.223   4.453  0.0194  0.1336 -0.0366
 4279SOL     OW24295   2.787   0.007   5.456 -0.0020  0.0011 -0.1510
 4279SOL    HW124296   2.739   4.670   5.513  1.3092 -0.6224  0.2763
 4279SOL    HW224297   2.809   4.672   5.385 -1.2887 -0.8132  0.1187
 4280SOL     OW24298   4.254   4.334   4.097  0.2071 -0.7672 -0.2443
 4280SOL    HW124299   4.316   4.261   4.093 -0.5269 -1.4362  0.4753
 4280SOL    HW224300   4.313   4.407   4.111 -0.1209 -0.1054 -2.4140
 4281SOL     OW24301   3.137   3.124   4.088  0.1087  0.9963  0.2184
 4281SOL    HW124302   3.228   3.147   4.103  0.5817 -1.3593  0.9498
 4281SOL    HW224303   3.106   3.168   4.167  0.2761  1.3536  0.0851
 4282SOL     OW24304   0.687   3.725   5.625  0.5641  0.0737 -0.5233
 4282SOL    HW124305   0.760   3.672   5.657 -0.2795 -0.2330  0.8981
 4282SOL    HW224306   0.616   3.702   5.685  0.0409 -0.9623 -1.5487
 4283SOL     OW24307   4.292   1.031  17.497  0.5354 -0.0426  0.3500
 4283SOL    HW124308   4.338   1.107  17.462 -0.8956  0.9819  0.6913
 4283SOL    HW224309   4.290   1.056  17.589 -0.1952  2.0790 -0.2397
 4284SOL     OW24310   4.600   0.509  15.655  0.1862 -0.0799  0.1202
 4284SOL    HW124311   4.567   0.450  15.723  1.4923  1.2757  1.9148
 4284SOL    HW224312   4.692   0.490  15.674  0.0564  2.0372  2.8162
 4285SOL     OW24313   3.680   3.942  11.214 -0.1329  0.0288 -0.1746
 4285SOL    HW124314   3.666   3.902  11.299  0.4823  1.0822  0.4214
 4285SOL    HW224315   3.588   3.948  11.188 -0.1169 -1.1159 -0.4831
 4286SOL     OW24316   0.559   1.982   3.344 -0.0024 -0.8622  0.1233
 4286SOL    HW124317   0.576   1.957   3.435  2.9661  1.1988  0.1059
 4286SOL    HW224318   0.615   2.058   3.332 -0.6005 -0.4200  0.0989
 4287SOL     OW24319   2.027   1.055   6.969  0.0113  0.1303  0.0799
 4287SOL    HW124320   1.986   1.141   6.959  3.2349  1.4241 -1.9677
 4287SOL    HW224321   1.995   1.007   6.893 -0.2180  2.5798 -1.3479
 4288SOL     OW24322   0.572   4.523  12.439 -0.2555  0.5603 -0.3348
 4288SOL    HW124323   0.526   4.443  12.466  0.6327 -0.1879 -1.0280
 4288SOL    HW224324   0.517   4.557  12.368 -0.0789  2.3422  0.3861
 4289SOL     OW24325   2.918   4.075  16.778  0.1313  0.0077  0.3921
 4289SOL    HW124326   2.951   3.985  16.772  0.0764 -0.0241  0.5913
 4289SOL    HW224327   2.948   4.126  16.702 -1.2647  0.9500  0.4687
 4290SOL     OW24328   3.245   2.771   1.922  0.1904  0.9411  0.0942
 4290SOL    HW124329   3.215   2.806   2.006 -0.1272  0.5212  0.1577
 4290SOL    HW224330   3.165   2.787   1.872 -0.3050  0.2525  0.6619
 4291SOL     OW24331   2.963   3.576   4.118  0.2817 -0.1482 -0.4489
 4291SOL    HW124332   2.929   3.622   4.041  3.3792  1.0799 -1.1103
 4291SOL    HW224333   2.906   3.499   4.124  0.6807 -0.2654  2.0461
 4292SOL     OW24334   1.064   4.642  10.221 -0.0373 -0.2111  0.5295
 4292SOL    HW124335   1.120   4.659  10.145 -0.8178  1.2800  0.2807
 4292SOL    HW224336   1.108   4.576  10.274  1.3987  1.4631  1.4443
 4293SOL     OW24337   0.280   0.492  15.093  0.8007  0.5222  0.4853
 4293SOL    HW124338   0.280   0.558  15.162 -1.8189 -0.4109  1.3792
 4293SOL    HW224339   0.200   0.515  15.047  1.8427  1.1704 -0.9948
 4294SOL     OW24340   0.494   4.581   7.268 -0.0223  0.1965  0.0637
 4294SOL    HW124341   0.465   4.589   7.359  2.0955  1.5647  0.6135
 4294SOL    HW224342   0.419   4.547   7.219 -0.4590  1.2658 -0.0187
 4295SOL     OW24343   0.757   0.060   5.257 -0.0884 -0.3516 -0.0227
 4295SOL    HW124344   0.756   4.698   5.298  0.9694  0.6848  2.2186
 4295SOL    HW224345   0.789   0.105   5.336 -3.1036 -1.6708  1.9794
 4296SOL     OW24346   3.521   0.303   8.913 -0.3237 -0.0830 -0.3028
 4296SOL    HW124347   3.550   0.212   8.906 -1.1270 -0.3002 -0.9119
 4296SOL    HW224348   3.606   0.339   8.940 -1.1559  0.3095  1.8150
 4297SOL     OW24349   3.249   3.568  16.339  0.0692  0.4195  0.0538
 4297SOL    HW124350   3.312   3.639  16.323 -0.1841  0.7263  0.4058
 4297SOL    HW224351   3.311   3.495  16.345  0.0768  0.4124 -0.1073
 4298SOL     OW24352   3.437   1.800   6.558  0.1020 -0.1501 -0.2942
 4298SOL    HW124353   3.353   1.822   6.599 -0.8163 -0.0439 -2.2523
 4298SOL    HW224354   3.422   1.715   6.518 -0.7265 -0.9234  1.6686
 4299SOL     OW24355   1.444   1.512   5.986  0.2092  0.8729  0.1902
 4299SOL    HW124356   1.490   1.567   5.923  0.6004  2.1685  1.5996
 4299SOL    HW224357   1.480   1.532   6.073  1.9751  0.4564 -0.4648
 4300SOL     OW24358   3.918   4.689   7.614 -0.1176  0.3124 -0.0012
 4300SOL    HW124359   4.005   4.675   7.575 -0.4887 -1.9598 -0.0032
 4300SOL    HW224360   3.941   0.019   7.689  0.7688  1.8042 -1.3454
 4301SOL     OW24361   0.579   3.655   6.708 -0.1163  0.1760  0.2287
 4301SOL    HW124362   0.511   3.722   6.719 -2.0913 -1.7719 -0.0738
 4301SOL    HW224363   0.531   3.573   6.704 -1.4051  0.8255  2.1883
 4302SOL     OW24364   0.212   0.035   3.233  0.2051 -0.2817  0.2576
 4302SOL    HW124365   0.128   0.060   3.272 -0.4901  0.0011 -1.4179
 4302SOL    HW224366   0.209   0.077   3.147 -0.7807  0.2181  0.5339
 4303SOL     OW24367   2.397   4.403   0.945  0.1206 -0.3290  0.0259
 4303SOL    HW124368   2.446   4.483   0.924 -2.1829  0.9004 -0.6795
 4303SOL    HW224369   2.464   4.357   0.995 -0.0887 -0.7537 -0.0795
 4304SOL     OW24370   3.307   3.046   8.083  0.8102  0.6711 -0.1677
 4304SOL    HW124371   3.347   2.994   8.014  0.5305  0.0830  0.1172
 4304SOL    HW224372   3.333   3.136   8.061  0.7510  1.2839  2.2586
 4305SOL     OW24373   4.350   1.633   1.709  0.5402 -0.8337  0.2163
 4305SOL    HW124374   4.423   1.639   1.647  1.4386 -1.3276  1.2257
 4305SOL    HW224375   4.299   1.562   1.668  1.3857 -1.9704  1.1281
 4306SOL     OW24376   0.553   2.928  12.251  0.5053  0.2082  0.0045
 4306SOL    HW124377   0.591   2.951  12.336  1.6638 -0.0926 -0.4431
 4306SOL    HW224378   0.465   2.967  12.249 -0.0207 -1.0986 -2.3681
 4307SOL     OW24379   1.758   1.517  13.857  0.4835  0.1711 -0.0516
 4307SOL    HW124380   1.711   1.598  13.874  0.7664 -0.0812  2.0182
 4307SOL    HW224381   1.731   1.470  13.936 -1.7481  3.7306  1.3173
 4308SOL     OW24382   3.435   3.054   6.925  0.7084 -0.4249  0.3717
 4308SOL    HW124383   3.468   3.143   6.938  0.9423 -0.5234  0.4424
 4308SOL    HW224384   3.346   3.063   6.960  0.1833 -2.2100 -0.5224
 4309SOL     OW24385   0.562   3.419  11.577 -0.9985  0.2605 -0.6759
 4309SOL    HW124386   0.641   3.470  11.590  0.8008 -2.9585  0.9209
 4309SOL    HW224387   0.568   3.358  11.650 -0.4981  2.4916  1.1336
 4310SOL     OW24388   1.895   2.536  17.271  0.6120 -0.5361 -0.4011
 4310SOL    HW124389   1.885   2.566  17.181 -0.9408  0.6256  0.1617
 4310SOL    HW224390   1.967   2.594  17.299 -0.6778  0.5787  0.6250
 4311SOL     OW24391   0.724   2.111   6.959  0.3002 -0.1994  0.4626
 4311SOL    HW124392   0.675   2.097   7.040 -0.3664  1.3495  0.3281
 4311SOL    HW224393   0.664   2.067   6.898  2.0210 -0.2064 -1.2451
 4312SOL     OW24394   2.572   1.754  12.806  0.3396 -0.0032  0.4340
 4312SOL    HW124395   2.479   1.773  12.817  0.0382 -0.5957 -1.1051
 4312SOL    HW224396   2.569   1.659  12.789 -1.0016  0.4943 -2.0949
 4313SOL     OW24397   3.354   2.386   6.304  0.3315 -0.0569 -0.5190
 4313SOL    HW124398   3.269   2.406   6.342  0.8697 -1.2983  1.3688
 4313SOL    HW224399   3.394   2.335   6.374 -0.8273 -2.3157 -1.4977
 4314SOL     OW24400   2.918   2.678  11.650  0.3511 -0.0821 -0.4957
 4314SOL    HW124401   2.867   2.716  11.579 -0.6400  2.6378  1.6367
 4314SOL    HW224402   3.004   2.719  11.639 -0.4943  2.6724  3.0810
 4315SOL     OW24403   0.625   1.311   6.479 -0.0390  0.4802 -0.2822
 4315SOL    HW124404   0.693   1.265   6.528  1.7431  1.1484 -2.1093
 4315SOL    HW224405   0.575   1.235   6.448  1.9616 -1.0995  0.3667
 4316SOL     OW24406   1.590   1.536   6.229  0.4592  0.2794 -0.0124
 4316SOL    HW124407   1.516   1.496   6.274  0.7656 -0.4032 -0.1107
 4316SOL    HW224408   1.653   1.464   6.218  1.7895  1.5857 -0.8830
 4317SOL     OW24409   1.415   4.037   3.557 -0.3625 -0.1906  0.2150
 4317SOL    HW124410   1.507   4.042   3.531 -0.6571 -0.2348 -0.8171
 4317SOL    HW224411   1.381   4.010   3.472 -0.1928 -1.3177  0.5074
 4318SOL     OW24412   3.118   3.976   9.764  0.3107 -0.0978  0.3578
 4318SOL    HW124413   3.167   3.896   9.744  1.6635  0.6065  0.8414
 4318SOL    HW224414   3.166   4.002   9.844  1.0875  0.2174 -0.2088
 4319SOL     OW24415   0.197   3.715   4.559 -0.1730  0.0133 -0.2430
 4319SOL    HW124416   0.239   3.637   4.521 -1.8837 -0.8102 -0.4294
 4319SOL    HW224417   0.145   3.672   4.627 -0.0964  0.6564  0.2159
 4320SOL     OW24418   1.516   1.345   3.411 -0.1169 -0.1041 -0.2167
 4320SOL    HW124419   1.540   1.437   3.423 -0.8357 -0.1953  2.0022
 4320SOL    HW224420   1.428   1.358   3.378 -0.4158  0.3310  0.7495
 4321SOL     OW24421   3.891   4.611   4.199  0.1211  0.1820 -0.2871
 4321SOL    HW124422   3.930   4.526   4.176 -0.4992 -0.3127  0.4847
 4321SOL    HW224423   3.864   4.632   4.109  1.1822 -0.7173 -0.8201
 4322SOL     OW24424   1.018   0.393   9.060  0.6518  0.5446 -0.5951
 4322SOL    HW124425   0.985   0.412   9.147 -0.1704  0.9797 -1.0046
 4322SOL    HW224426   1.064   0.476   9.046 -0.1102  1.3131  1.5846
 4323SOL     OW24427   4.115   0.763   0.481  0.0145 -0.6660 -0.2154
 4323SOL    HW124428   4.190   0.787   0.536 -0.1529  0.2575 -0.3795
 4323SOL    HW224429   4.090   0.680   0.521  0.9596 -1.0344 -0.3901
 4324SOL     OW24430   3.784   1.899   8.473  0.0716  0.2668 -0.2060
 4324SOL    HW124431   3.689   1.902   8.480  0.1267  2.4653 -0.1598
 4324SOL    HW224432   3.809   1.839   8.543  0.2802 -0.0305 -0.5367
 4325SOL     OW24433   3.735   1.141   3.039 -0.6883 -0.0313  0.6973
 4325SOL    HW124434   3.812   1.194   3.015  0.2007 -1.9927 -0.8150
 4325SOL    HW224435   3.774   1.055   3.024  0.7882  0.7799 -0.1136
 4326SOL     OW24436   0.651   2.098   7.560  0.6668 -0.1514  0.5679
 4326SOL    HW124437   0.684   2.087   7.470 -3.4018  1.6561 -1.1374
 4326SOL    HW224438   0.559   2.072   7.562  0.6011  0.0585  0.3098
 4327SOL     OW24439   3.399   0.934   8.324  0.0334 -0.0037  0.6135
 4327SOL    HW124440   3.307   0.934   8.350 -0.3620  0.3323 -0.8189
 4327SOL    HW224441   3.443   0.883   8.393  1.0648  0.8851  0.6068
 4328SOL     OW24442   4.563   3.665   3.879  0.4013  0.2808  0.0314
 4328SOL    HW124443   4.491   3.716   3.917  0.4295  0.8694 -0.6889
 4328SOL    HW224444   4.631   3.727   3.851  0.6531 -0.0693 -0.1421
 4329SOL     OW24445   2.620   3.521   2.116 -0.1153  0.2283  0.1778
 4329SOL    HW124446   2.634   3.603   2.164  0.9346  0.4702 -0.5308
 4329SOL    HW224447   2.553   3.544   2.052  1.8650  1.3384 -1.5247
 4330SOL     OW24448   3.758   0.002   6.376 -0.2771 -0.0335 -0.0771
 4330SOL    HW124449   3.843   0.027   6.340  1.2835 -1.6578  2.4566
 4330SOL    HW224450   3.717   0.088   6.373 -0.4959 -0.1965 -1.5247
 4331SOL     OW24451   3.898   1.200   5.517  0.1874  0.5641 -0.6675
 4331SOL    HW124452   3.827   1.192   5.581  0.2101  1.8991 -0.4741
 4331SOL    HW224453   3.834   1.185   5.447  2.0800  1.3171 -2.5530
 4332SOL     OW24454   0.699   2.716   3.210 -0.1890 -0.2977 -0.2386
 4332SOL    HW124455   0.606   2.738   3.204 -0.5702 -2.1850 -1.2902
 4332SOL    HW224456   0.683   2.645   3.272 -1.1765  1.4754  1.5163
 4333SOL     OW24457   3.527   4.183   4.131  0.5212 -0.3134 -0.1509
 4333SOL    HW124458   3.546   4.204   4.222 -0.6859  1.1975 -0.2512
 4333SOL    HW224459   3.450   4.129   4.146 -0.0499 -0.4842 -3.5810
 4334SOL     OW24460   4.199   2.546  15.454  0.2766  0.3025 -0.1197
 4334SOL    HW124461   4.231   2.600  15.525 -0.3866 -1.7052  1.7085
 4334SOL    HW224462   4.223   2.592  15.373 -0.0664 -1.0002 -0.9623
 4335SOL     OW24463   1.152   0.014   5.168  0.1673  0.1437 -0.1595
 4335SOL    HW124464   1.245   0.009   5.149  0.8549 -0.4607  3.3323
 4335SOL    HW224465   1.124   0.052   5.085 -2.3604 -2.2462 -0.3983
 4336SOL     OW24466   2.536   3.246   1.776  0.0071 -0.0752  0.0902
 4336SOL    HW124467   2.626   3.275   1.789  0.1724 -1.2306  1.5630
 4336SOL    HW224468   2.539   3.173   1.838 -4.4839  2.2338  3.0412
 4337SOL     OW24469   3.518   2.828   5.437 -1.1387  0.5120 -0.4497
 4337SOL    HW124470   3.571   2.850   5.513  0.7009  0.7792 -1.7972
 4337SOL    HW224471   3.562   2.880   5.370 -1.4173 -1.9680 -2.5697
 4338SOL     OW24472   0.566   0.954   6.846 -0.6376  0.2096  0.2705
 4338SOL    HW124473   0.586   1.014   6.773 -1.3645 -0.2869 -0.3301
 4338SOL    HW224474   0.561   0.871   6.799  0.1319 -0.1381  0.8015
 4339SOL     OW24475   0.903   2.385   1.886 -0.2056 -0.3075  0.0548
 4339SOL    HW124476   0.948   2.348   1.810  0.9898  0.9339  0.1550
 4339SOL    HW224477   0.966   2.368   1.955  0.9784  2.5286 -0.3033
 4340SOL     OW24478   0.161   1.004   3.282 -0.2414 -0.3205  0.3275
 4340SOL    HW124479   0.192   1.035   3.367  0.5693 -0.9553  0.2532
 4340SOL    HW224480   0.169   1.081   3.225 -1.7899  0.0407  0.5860
 4341SOL     OW24481   0.484   4.314   3.660 -0.8231 -0.1616  0.1370
 4341SOL    HW124482   0.553   4.267   3.615 -0.9604  0.0255 -0.2759
 4341SOL    HW224483   0.410   4.254   3.655  0.0740 -1.3967  1.8563
 4342SOL     OW24484   2.099   3.402   2.099  0.7734 -0.2474 -0.6229
 4342SOL    HW124485   2.057   3.451   2.028  1.6484  1.0966 -0.2216
 4342SOL    HW224486   2.137   3.329   2.051 -1.3185 -1.8175  0.1493
 4343SOL     OW24487   0.104   2.867   2.886  0.7620 -0.2206  0.0395
 4343SOL    HW124488   0.054   2.933   2.934  1.9206  1.3622 -0.9326
 4343SOL    HW224489   0.098   2.796   2.949 -2.4918 -1.1858 -1.3809
 4344SOL     OW24490   4.679   1.388   2.664  0.0291  0.1056 -0.4161
 4344SOL    HW124491   4.713   1.360   2.580  0.0322  0.7703 -0.6370
 4344SOL    HW224492   4.701   1.480   2.676  0.9436 -0.1267 -0.3352
 4345SOL     OW24493   0.152   2.844   2.363 -0.2957  0.1506  0.0257
 4345SOL    HW124494   0.158   2.832   2.268  0.5966 -0.5322  0.1673
 4345SOL    HW224495   0.162   2.938   2.373  1.3260  0.0431 -0.4227
 4346SOL     OW24496   3.720   3.629   6.011 -0.7602 -0.1185  0.2563
 4346SOL    HW124497   3.698   3.608   6.102  0.7105  3.5852  1.4693
 4346SOL    HW224498   3.644   3.583   5.975  0.5635 -0.6560 -1.8333
 4347SOL     OW24499   0.649   2.109  16.591  0.3947  0.1869  0.2223
 4347SOL    HW124500   0.585   2.041  16.612  0.6953  0.3361  1.5914
 4347SOL    HW224501   0.699   2.124  16.671  0.7952 -0.1834  0.0442
 4348SOL     OW24502   3.658   1.240   4.154  0.0576  0.1950 -0.1645
 4348SOL    HW124503   3.620   1.282   4.077  1.2278 -0.5349 -1.1416
 4348SOL    HW224504   3.617   1.295   4.222  0.5244  0.7178 -0.3042
 4349SOL     OW24505   0.081   1.206   2.174  0.1716  0.1045 -0.2799
 4349SOL    HW124506   0.034   1.150   2.113  0.1146 -1.1538  0.9188
 4349SOL    HW224507   0.109   1.280   2.120  1.9710 -0.9275 -0.7240
 4350SOL     OW24508   2.245   2.763  14.466 -0.0762  0.4374  0.0492
 4350SOL    HW124509   2.211   2.850  14.443 -1.1872 -0.0061 -0.0137
 4350SOL    HW224510   2.337   2.788  14.467 -0.8581  3.5631 -2.3780
 4351SOL     OW24511   0.379   1.717   4.608  0.3286  0.7923 -0.5716
 4351SOL    HW124512   0.423   1.787   4.559  1.2735  1.0701  0.6868
 4351SOL    HW224513   0.343   1.673   4.531  0.5160  0.4130 -0.4380
 4352SOL     OW24514   0.961   4.016   7.204 -0.2043 -0.0553 -0.1000
 4352SOL    HW124515   1.036   4.054   7.248  0.6011  1.0678 -2.4304
 4352SOL    HW224516   0.993   3.926   7.198 -0.1357 -0.1274  1.3911
 4353SOL     OW24517   0.129   0.789   7.476  0.5295 -0.2534 -0.0419
 4353SOL    HW124518   0.215   0.809   7.441  0.9157  1.0631  1.6636
 4353SOL    HW224519   0.071   0.841   7.420  2.0277  2.2598  0.7670
 4354SOL     OW24520   2.383   4.576  11.355 -0.4544 -0.7487 -0.1400
 4354SOL    HW124521   2.341   4.538  11.277 -1.0588  0.5990 -0.4663
 4354SOL    HW224522   2.325   4.649  11.378 -0.1097 -0.6672  0.4563
 4355SOL     OW24523   3.234   1.338  11.817  0.3519 -0.4154 -0.4365
 4355SOL    HW124524   3.201   1.313  11.903 -2.8726  0.7148 -1.3425
 4355SOL    HW224525   3.322   1.360  11.847  0.7672 -0.5062 -1.5914
 4356SOL     OW24526   4.238   4.671  10.758 -0.2676  0.1463 -0.1816
 4356SOL    HW124527   4.162   4.714  10.799 -0.1610 -0.1243  0.3000
 4356SOL    HW224528   4.301   0.013  10.786  1.0034 -2.2690  2.6445
 4357SOL     OW24529   3.274   0.242   4.347  0.0375  0.1530  0.5534
 4357SOL    HW124530   3.287   0.179   4.275 -2.0562  1.0208 -0.5722
 4357SOL    HW224531   3.319   0.317   4.309 -0.1043  0.8223  1.7218
 4358SOL     OW24532   1.204   3.965   4.462 -0.5100 -0.4222 -0.3392
 4358SOL    HW124533   1.139   3.993   4.526 -0.8676  1.0762 -1.3374
 4358SOL    HW224534   1.284   3.953   4.513 -1.4233 -0.3864  1.0877
 4359SOL     OW24535   0.057   0.773   5.402 -0.0961  0.0801 -0.0635
 4359SOL    HW124536   0.002   0.752   5.478 -0.2516 -0.0321 -0.2055
 4359SOL    HW224537   4.714   0.827   5.362  1.0858  1.5129 -0.1196
 4360SOL     OW24538   1.052   4.700   0.168 -0.2349 -0.0109  0.7885
 4360SOL    HW124539   1.046   4.629   0.105 -1.5160  1.4435 -0.7150
 4360SOL    HW224540   0.982   4.667   0.225 -0.9225 -0.1627 -0.1353
 4361SOL     OW24541   3.521   2.777   0.097  0.2304  0.2273  0.0371
 4361SOL    HW124542   3.446   2.732   0.136  1.6684 -2.5457 -0.4155
 4361SOL    HW224543   3.581   2.777   0.172 -0.8438 -0.0279  0.8957
 4362SOL     OW24544   2.004   1.035   8.944 -0.3235 -0.1650 -0.6466
 4362SOL    HW124545   1.956   1.105   8.899 -1.0063 -0.0999  0.1967
 4362SOL    HW224546   2.058   1.001   8.872  0.0250  0.2429 -0.5789
 4363SOL     OW24547   2.550   1.769  15.646 -0.3180 -0.2207  0.0916
 4363SOL    HW124548   2.507   1.837  15.593 -0.7955 -2.0654 -1.8974
 4363SOL    HW224549   2.636   1.803  15.671 -1.3322 -0.4010  3.8998
 4364SOL     OW24550   0.573   2.752   8.761 -0.1780 -0.0698  0.4155
 4364SOL    HW124551   0.481   2.724   8.768 -0.6852  1.3079 -0.6999
 4364SOL    HW224552   0.617   2.730   8.843 -0.8800 -2.3149  0.1798
 4365SOL     OW24553   4.532   0.089   6.459  0.5494  0.1402  0.3862
 4365SOL    HW124554   4.575   0.170   6.432  1.5136 -0.4711  0.0947
 4365SOL    HW224555   4.485   0.111   6.540 -0.1932  0.5314 -0.1511
 4366SOL     OW24556   3.243   0.334   1.932 -0.5257 -0.3874 -0.1141
 4366SOL    HW124557   3.212   0.272   1.866  1.3157  0.2582 -1.5988
 4366SOL    HW224558   3.233   0.413   1.879 -1.5485  0.6610  1.6332
 4367SOL     OW24559   1.545   2.726   6.303  0.1939 -0.2065 -0.2116
 4367SOL    HW124560   1.452   2.704   6.291 -0.1597  1.6150 -0.8288
 4367SOL    HW224561   1.553   2.763   6.215 -1.2436 -0.6197 -0.5202
 4368SOL     OW24562   1.014   0.161   4.954  0.4648 -0.1983  0.1396
 4368SOL    HW124563   1.031   0.237   5.010 -1.3615  1.6992 -1.8715
 4368SOL    HW224564   0.965   0.203   4.882  2.5594  1.3226 -0.4032
 4369SOL     OW24565   2.951   1.814  12.759  0.5125 -0.3288  0.1759
 4369SOL    HW124566   2.998   1.732  12.740  3.6656  1.1368  1.5937
 4369SOL    HW224567   3.029   1.869  12.766  2.8772 -3.2419 -2.8482
 4370SOL     OW24568   0.667   0.685   7.321 -0.4717 -0.3272  0.1413
 4370SOL    HW124569   0.720   0.747   7.371 -2.4023  2.3017 -1.0781
 4370SOL    HW224570   0.653   0.730   7.237 -0.3680  1.3381  1.0331
 4371SOL     OW24571   0.353   2.245   3.634 -0.3635  0.3807  0.3356
 4371SOL    HW124572   0.332   2.269   3.544 -0.5199 -0.0009  0.2709
 4371SOL    HW224573   0.276   2.272   3.685  0.1106  2.0077  0.1872
 4372SOL     OW24574   0.575   3.139   2.805  0.0873 -0.2807 -0.4923
 4372SOL    HW124575   0.485   3.106   2.806  0.5550 -1.5975 -1.4344
 4372SOL    HW224576   0.595   3.150   2.899 -0.9462 -1.0050 -0.1980
 4373SOL     OW24577   4.513   2.937   6.863 -0.2782  0.2832 -0.7410
 4373SOL    HW124578   4.511   2.844   6.842 -1.1822 -0.0003  0.5672
 4373SOL    HW224579   4.600   2.971   6.842  0.4999 -0.6042  1.0678
 4374SOL     OW24580   3.664   4.699   9.672  0.3000  0.8337  0.2154
 4374SOL    HW124581   3.695   0.061   9.699  0.7647  0.5002  0.7603
 4374SOL    HW224582   3.723   4.638   9.717 -0.7711 -0.7672 -0.5619
 4375SOL     OW24583   1.016   1.757   8.225  0.1201 -0.3699 -0.0998
 4375SOL    HW124584   0.934   1.748   8.176 -0.1090  0.8888  0.0774
 4375SOL    HW224585   1.087   1.719   8.172 -2.5104 -1.6247 -2.7023
 4376SOL     OW24586   1.230   1.695   0.347  0.3157 -0.7362  0.5771
 4376SOL    HW124587   1.178   1.745   0.410 -0.3829 -1.4421  0.5724
 4376SOL    HW224588   1.314   1.739   0.356  0.0704  0.0926 -1.2408
 4377SOL     OW24589   1.589   3.806   8.906 -0.1773  0.6452 -0.8102
 4377SOL    HW124590   1.598   3.771   8.994 -0.5255 -1.4084 -1.5840
 4377SOL    HW224591   1.680   3.832   8.892  0.3016 -0.5599  0.1186
 4378SOL     OW24592   1.925   2.774   3.571  0.6230  0.5130 -0.7136
 4378SOL    HW124593   1.916   2.707   3.504  4.1455  1.1734 -1.8419
 4378SOL    HW224594   1.832   2.779   3.593 -0.0011  1.0031 -3.5306
 4379SOL     OW24595   2.783   4.525   9.730  0.0218 -0.7296 -0.6117
 4379SOL    HW124596   2.803   4.565   9.815  0.7300 -0.2084 -1.0229
 4379SOL    HW224597   2.752   4.438   9.757 -1.2111  0.4715  1.8893
 4380SOL     OW24598   3.355   1.800   0.343  0.6466 -0.8772  0.4061
 4380SOL    HW124599   3.312   1.734   0.396  0.4091 -0.6154  0.5432
 4380SOL    HW224600   3.337   1.873   0.402 -1.9177 -0.9868 -0.2449
 4381SOL     OW24601   0.513   3.241  15.944  0.1561  0.6327 -0.4993
 4381SOL    HW124602   0.588   3.222  15.888 -0.5407 -1.4203 -0.7314
 4381SOL    HW224603   0.452   3.293  15.892 -0.6317 -1.5233 -1.7500
 4382SOL     OW24604   2.265   1.062   5.254  0.4204  0.5512  0.6156
 4382SOL    HW124605   2.242   1.120   5.181  0.1143 -0.5222 -0.1382
 4382SOL    HW224606   2.214   0.983   5.232  0.1138  1.0248 -0.3929
 4383SOL     OW24607   3.251   2.334  13.224 -0.0003 -0.4273  0.5750
 4383SOL    HW124608   3.199   2.406  13.189 -0.5613 -1.0810  0.0821
 4383SOL    HW224609   3.334   2.347  13.179  1.5416 -0.8933  3.2783
 4384SOL     OW24610   3.089   3.881   5.791 -0.3344 -0.3653  0.4560
 4384SOL    HW124611   3.087   3.871   5.886  0.4233 -1.5680  0.3384
 4384SOL    HW224612   3.096   3.976   5.788  0.0164 -0.3801  0.7799
 4385SOL     OW24613   3.284   2.527   4.213  0.2788 -0.4000 -0.5067
 4385SOL    HW124614   3.274   2.509   4.306  3.5977 -0.9792 -0.2630
 4385SOL    HW224615   3.268   2.621   4.211  3.4822  0.1848  2.2678
 4386SOL     OW24616   2.115   3.357   7.173 -0.0350 -0.0172  0.0827
 4386SOL    HW124617   2.167   3.291   7.219  1.1369  0.5854 -0.3798
 4386SOL    HW224618   2.146   3.441   7.208 -0.6393 -0.5749  1.9565
 4387SOL     OW24619   1.518   0.617   7.026 -0.2086  0.2003 -0.1597
 4387SOL    HW124620   1.498   0.594   6.935 -2.2298  0.3346  0.2693
 4387SOL    HW224621   1.579   0.690   7.016 -0.5743  0.1196 -2.8669
 4388SOL     OW24622   0.636   2.216   2.432 -0.7337 -0.8808  0.3591
 4388SOL    HW124623   0.559   2.160   2.423 -0.0434 -1.5891 -1.0806
 4388SOL    HW224624   0.687   2.183   2.358 -0.6308  0.9622 -0.3936
 4389SOL     OW24625   2.679   4.040  15.558  0.2010  0.5453  0.4911
 4389SOL    HW124626   2.626   4.061  15.634 -0.0749 -1.5919  0.9027
 4389SOL    HW224627   2.685   4.125  15.515 -3.0652  1.6740  2.3259
 4390SOL     OW24628   0.498   0.304   6.487 -0.3692  0.4375 -0.5296
 4390SOL    HW124629   0.501   0.268   6.398  0.0959 -0.1656 -0.2728
 4390SOL    HW224630   0.466   0.231   6.540  2.0829  0.8324  1.5298
 4391SOL     OW24631   3.290   2.098   6.731  0.0090 -0.2390 -0.0546
 4391SOL    HW124632   3.311   2.085   6.823 -0.9475 -3.4414 -0.3027
 4391SOL    HW224633   3.285   2.193   6.716  0.0545  0.1494  2.4085
 4392SOL     OW24634   2.537   1.927   4.531  0.1340 -0.0307  0.0790
 4392SOL    HW124635   2.605   1.993   4.520 -1.7254  1.7971 -0.6332
 4392SOL    HW224636   2.589   1.849   4.514  0.1988  0.3089 -1.3210
 4393SOL     OW24637   2.443   1.954  16.505 -0.5967 -0.4216 -0.3069
 4393SOL    HW124638   2.379   1.925  16.440 -0.9070 -1.5545  0.5064
 4393SOL    HW224639   2.495   1.874  16.511  2.4823  1.5104 -1.2309
 4394SOL     OW24640   0.628   2.281   5.939  0.2576 -0.5626  0.6254
 4394SOL    HW124641   0.633   2.329   6.021 -0.7900 -1.5022  1.2414
 4394SOL    HW224642   0.537   2.302   5.917  0.3100 -0.7275  0.2507
 4395SOL     OW24643   1.736   2.635   7.508  0.3292  0.0794 -0.0465
 4395SOL    HW124644   1.810   2.677   7.463  0.6386  0.2733  0.6443
 4395SOL    HW224645   1.775   2.639   7.595 -0.4142  1.1877  0.2345
 4396SOL     OW24646   1.896   0.612   4.915 -0.4809  0.6098  0.3411
 4396SOL    HW124647   1.950   0.563   4.976 -0.7288  1.2564  1.0754
 4396SOL    HW224648   1.907   0.561   4.835  1.5637 -0.6829  1.4689
 4397SOL     OW24649   1.478   2.146  11.612  0.2108  0.1599 -0.0202
 4397SOL    HW124650   1.561   2.188  11.636  0.1778 -0.3930  1.0444
 4397SOL    HW224651   1.470   2.190  11.527  1.6522 -1.7740 -1.1315
 4398SOL     OW24652   4.457   1.982   8.071 -0.2376 -0.6462 -0.4186
 4398SOL    HW124653   4.422   1.975   8.159 -0.7503 -2.4577 -0.7660
 4398SOL    HW224654   4.452   1.892   8.039 -0.8928 -0.6734 -0.2445
 4399SOL     OW24655   1.540   0.389   6.277 -0.1277  0.0272 -0.5365
 4399SOL    HW124656   1.445   0.381   6.270 -0.2596  1.4349 -0.4440
 4399SOL    HW224657   1.543   0.465   6.335  3.1005 -0.5255  0.0735
 4400SOL     OW24658   1.626   1.584  15.833 -0.5730 -0.1740  0.0259
 4400SOL    HW124659   1.666   1.585  15.746  2.5728 -2.6235  1.4923
 4400SOL    HW224660   1.606   1.492  15.846 -0.4996 -0.1227  0.4912
 4401SOL     OW24661   3.688   2.819   3.631 -0.4906 -0.2176 -0.3309
 4401SOL    HW124662   3.650   2.882   3.570 -0.1637 -0.2296 -0.5458
 4401SOL    HW224663   3.694   2.876   3.708  1.3062 -1.3528  0.3556
 4402SOL     OW24664   4.626   3.070   2.347  0.6233 -0.0972  0.0442
 4402SOL    HW124665   4.553   3.132   2.351  0.3662 -0.4666  0.9444
 4402SOL    HW224666   4.696   3.120   2.305  1.7798 -1.2585  0.5896
 4403SOL     OW24667   0.842   1.821   7.513  0.0824  0.2301 -0.3933
 4403SOL    HW124668   0.782   1.748   7.503  0.4809 -0.4232  2.0382
 4403SOL    HW224669   0.913   1.803   7.451  2.1962 -0.8529  2.3134
 4404SOL     OW24670   0.249   3.908   5.543 -0.1150  0.5394 -0.2053
 4404SOL    HW124671   0.278   3.817   5.543 -0.1035  0.5430 -0.1819
 4404SOL    HW224672   0.167   3.909   5.494 -0.1756 -0.1564 -0.1208
 4405SOL     OW24673   3.297   4.118   4.776 -0.0340  0.3162  0.3053
 4405SOL    HW124674   3.314   4.210   4.797  0.5916  0.4634 -0.8283
 4405SOL    HW224675   3.364   4.090   4.838  1.0906 -1.5543 -1.7518
 4406SOL     OW24676   4.438   1.028   8.774  0.2499  0.0802 -0.0059
 4406SOL    HW124677   4.344   1.043   8.788 -0.0064 -0.3024 -1.3407
 4406SOL    HW224678   4.477   1.088   8.838 -2.7207  1.0364  0.9006
 4407SOL     OW24679   1.934   4.046   5.871  1.2892 -0.1406 -0.5282
 4407SOL    HW124680   1.932   3.961   5.913  0.8871 -0.1318 -0.5320
 4407SOL    HW224681   1.872   4.104   5.916  0.0667 -1.7909 -0.0853
 4408SOL     OW24682   3.991   2.359   2.464  0.2632  0.9606 -0.3642
 4408SOL    HW124683   4.024   2.447   2.478 -1.3336  1.7324 -1.4275
 4408SOL    HW224684   3.972   2.370   2.370  1.1080  1.0880 -0.5240
 4409SOL     OW24685   2.870   1.684   8.131 -0.0852 -0.3245 -0.0077
 4409SOL    HW124686   2.963   1.663   8.140 -0.4204 -2.2631 -1.0118
 4409SOL    HW224687   2.841   1.743   8.199 -0.3868 -1.7223  1.0766
 4410SOL     OW24688   1.091   2.905   6.734  0.5031  0.7813 -0.0674
 4410SOL    HW124689   1.119   2.824   6.691 -1.1234  0.8101 -1.1593
 4410SOL    HW224690   1.015   2.873   6.782 -1.3609  2.7310 -1.6853
 4411SOL     OW24691   2.461   0.951   4.014 -0.1220 -0.2557 -0.2206
 4411SOL    HW124692   2.415   1.035   4.002  1.1063  0.2788 -1.1735
 4411SOL    HW224693   2.514   0.944   3.934 -0.1803  1.2074 -0.4006
 4412SOL     OW24694   2.018   4.233  15.778 -0.3351 -0.0579  0.3879
 4412SOL    HW124695   2.008   4.145  15.813  3.0167 -0.7411 -0.3159
 4412SOL    HW224696   2.004   4.209  15.686  1.3428  1.0942 -0.1781
 4413SOL     OW24697   3.075   2.177   8.905  0.4702  0.6799 -0.1479
 4413SOL    HW124698   3.068   2.272   8.898  0.6916  0.7960  1.3030
 4413SOL    HW224699   3.059   2.156   8.997  2.0676  1.4240  0.2987
 4414SOL     OW24700   0.293   0.534  12.284 -0.3905  0.1868  0.3882
 4414SOL    HW124701   0.250   0.449  12.282  1.6983 -0.8032 -1.9427
 4414SOL    HW224702   0.288   0.558  12.377 -1.8324 -0.3376  0.4470
 4415SOL     OW24703   3.621   0.372  13.693  0.0426  0.4464 -0.4667
 4415SOL    HW124704   3.712   0.404  13.697  0.7090 -1.1696 -3.0376
 4415SOL    HW224705   3.585   0.397  13.608 -0.6042  1.9812  0.2496
 4416SOL     OW24706   0.894   2.982   5.921  0.1361  0.1004  0.2185
 4416SOL    HW124707   0.910   2.918   5.990 -1.0577  0.2931  0.6750
 4416SOL    HW224708   0.933   2.941   5.843 -0.4619  2.1573 -1.1511
 4417SOL     OW24709   1.033   0.262   7.565 -0.4136  0.0885 -0.0976
 4417SOL    HW124710   1.123   0.249   7.535 -0.1702  1.3578  0.0933
 4417SOL    HW224711   0.989   0.212   7.497 -0.6858  0.6929 -0.3611
 4418SOL     OW24712   4.135   1.243   7.874  0.2445  0.5417 -0.2222
 4418SOL    HW124713   4.224   1.207   7.865 -0.0073 -0.9848  3.7398
 4418SOL    HW224714   4.147   1.279   7.961  0.8140 -1.3941  0.4993
 4419SOL     OW24715   1.643   0.359   2.738 -0.1454 -0.5429  0.1386
 4419SOL    HW124716   1.558   0.338   2.698  0.4099 -2.5972  0.0046
 4419SOL    HW224717   1.637   0.301   2.814 -1.3430 -2.6747 -1.5500
 4420SOL     OW24718   0.607   2.639   6.801 -0.9490 -0.6010  0.1552
 4420SOL    HW124719   0.625   2.616   6.893  0.0756 -0.4420 -0.0081
 4420SOL    HW224720   0.641   2.728   6.804 -1.9654 -0.2340  0.8776
 4421SOL     OW24721   1.299   1.757   6.332  0.1734 -0.3245 -0.0360
 4421SOL    HW124722   1.282   1.664   6.317  1.4023 -0.8050  1.4887
 4421SOL    HW224723   1.392   1.766   6.311  0.1060 -0.1691 -0.2741
 4422SOL     OW24724   0.990   3.914   6.888  0.0724  0.0529 -0.4688
 4422SOL    HW124725   1.038   3.899   6.969 -0.5623  0.9625  0.0725
 4422SOL    HW224726   1.055   3.881   6.825  0.1740  0.6369 -0.6727
 4423SOL     OW24727   3.157   0.098  12.329 -0.1618  0.4344 -0.2873
 4423SOL    HW124728   3.234   0.051  12.360 -1.5796 -0.4403  1.8976
 4423SOL    HW224729   3.192   0.185  12.349 -1.1278  0.8254 -0.2753
 4424SOL     OW24730   3.333   0.598   7.258  0.2745  0.0253  0.1546
 4424SOL    HW124731   3.362   0.648   7.182 -0.2190  0.0168 -0.0349
 4424SOL    HW224732   3.242   0.626   7.258 -0.1339 -1.3227  0.4302
 4425SOL     OW24733   2.629   4.339   9.297  0.4658 -0.1377 -0.1163
 4425SOL    HW124734   2.699   4.331   9.363 -0.3569 -0.6447  0.7036
 4425SOL    HW224735   2.565   4.396   9.340  2.5162  1.8585  0.2715
 4426SOL     OW24736   2.967   0.518   8.138  0.2916  0.8742 -0.2034
 4426SOL    HW124737   2.930   0.581   8.076  0.8117  0.1532 -1.2362
 4426SOL    HW224738   2.884   0.474   8.157  0.6815 -0.1288 -0.8667
 4427SOL     OW24739   4.335   0.672   5.704 -0.4672 -0.2915  0.2679
 4427SOL    HW124740   4.300   0.748   5.748  2.2848  2.2806 -1.9910
 4427SOL    HW224741   4.289   0.598   5.744  0.0616 -1.6675 -1.6726
 4428SOL     OW24742   3.316   1.722   5.051  0.1938  0.1601 -0.3408
 4428SOL    HW124743   3.287   1.631   5.044  2.0764 -0.7179  3.3038
 4428SOL    HW224744   3.386   1.721   4.985  0.2855  1.1435 -0.2662
 4429SOL     OW24745   0.870   0.848  10.563  0.2525 -0.8271 -0.0873
 4429SOL    HW124746   0.877   0.941  10.541  1.3591 -0.5865  1.2651
 4429SOL    HW224747   0.850   0.804  10.480  1.9848 -0.6704 -0.5870
 4430SOL     OW24748   2.981   2.181   5.703  0.4802  0.4714  0.2125
 4430SOL    HW124749   3.040   2.133   5.761 -1.2222 -1.1198  0.6263
 4430SOL    HW224750   2.908   2.211   5.757  0.9307  0.2801  0.9315
 4431SOL     OW24751   4.611   4.164  16.860 -0.5792 -0.0680 -0.3948
 4431SOL    HW124752   4.585   4.121  16.941 -1.5305  0.2899 -0.4994
 4431SOL    HW224753   4.610   4.085  16.805  0.6645 -0.1209 -0.3339
 4432SOL     OW24754   0.981   3.621   1.192 -0.5046  0.0969  0.4880
 4432SOL    HW124755   0.968   3.684   1.263 -0.3279  1.0124 -0.2931
 4432SOL    HW224756   0.951   3.540   1.234 -1.8725 -0.4833 -1.6055
 4433SOL     OW24757   4.429   2.217   4.681 -0.0259  0.4024 -0.0986
 4433SOL    HW124758   4.501   2.158   4.702 -2.2592 -1.9899  0.7939
 4433SOL    HW224759   4.481   2.297   4.681  0.4397  0.0953  0.0034
 4434SOL     OW24760   2.286   1.300   9.177  0.3758 -0.0382 -0.1549
 4434SOL    HW124761   2.194   1.326   9.171  0.4692  0.2965 -0.1585
 4434SOL    HW224762   2.295   1.298   9.272  0.6319  1.5155 -0.1481
 4435SOL     OW24763   0.752   1.452  11.959 -0.1608  0.0936 -0.4488
 4435SOL    HW124764   0.829   1.480  12.009 -2.5442  0.9039  2.7758
 4435SOL    HW224765   0.782   1.380  11.903  1.4233  0.5919 -0.2621
 4436SOL     OW24766   2.927   1.478  10.267 -0.1854 -0.2018  0.3308
 4436SOL    HW124767   2.861   1.544  10.291 -0.7112 -0.3484 -0.7212
 4436SOL    HW224768   2.929   1.474  10.172  2.6281 -0.8705  0.4175
 4437SOL     OW24769   3.953   0.885  16.593  0.1870  0.6190  0.0984
 4437SOL    HW124770   4.041   0.847  16.596  0.3117  1.1371  2.2862
 4437SOL    HW224771   3.935   0.871  16.500  1.4482 -0.0784 -0.0496
 4438SOL     OW24772   0.911   3.271   3.038 -0.0812  0.1144 -0.6839
 4438SOL    HW124773   0.980   3.332   3.010  1.2495 -0.4664  1.3179
 4438SOL    HW224774   0.939   3.189   2.997  2.2340  1.2876 -1.5055
 4439SOL     OW24775   4.217   0.044   5.139 -0.2456 -0.2263  0.1698
 4439SOL    HW124776   4.180   4.710   5.073  1.6355 -1.2915  0.0450
 4439SOL    HW224777   4.194   0.134   5.114  2.0444  0.2169 -0.3905
 4440SOL     OW24778   4.187   0.730   8.675 -0.0585 -0.0758 -0.0113
 4440SOL    HW124779   4.223   0.773   8.753  1.8604  0.4025 -1.1470
 4440SOL    HW224780   4.120   0.791   8.645 -1.7854 -1.8849  0.1356
 4441SOL     OW24781   1.679   4.420   1.064 -0.2480  0.4352 -0.6516
 4441SOL    HW124782   1.756   4.430   1.008  1.6005 -0.0346  1.8292
 4441SOL    HW224783   1.606   4.421   1.003 -0.1965  1.9437 -0.6947
 4442SOL     OW24784   1.933   0.270   3.839  0.9515 -0.2869 -0.0303
 4442SOL    HW124785   1.958   0.189   3.794 -0.2310 -0.1825 -0.8663
 4442SOL    HW224786   1.887   0.228   3.912  1.0320 -1.2272 -0.5164
 4443SOL     OW24787   2.933   0.534   4.626 -0.0770 -0.3658  0.0223
 4443SOL    HW124788   2.918   0.440   4.618 -2.5552 -0.1783  2.4517
 4443SOL    HW224789   2.978   0.560   4.545  0.8363 -0.6620  0.4428
 4444SOL     OW24790   2.633   2.783   6.729  0.4681 -0.3458  0.6335
 4444SOL    HW124791   2.537   2.779   6.721  0.6750 -1.1061 -1.5314
 4444SOL    HW224792   2.663   2.717   6.666 -0.4168 -1.2952  1.2108
 4445SOL     OW24793   0.009   3.316   9.950  0.0729  0.1815 -0.3565
 4445SOL    HW124794   0.098   3.308   9.916 -0.2935  0.2934 -1.3701
 4445SOL    HW224795   4.686   3.347   9.872 -0.0778  0.0531 -0.3146
 4446SOL     OW24796   1.282   1.080   6.172  0.1937 -0.8888 -0.0930
 4446SOL    HW124797   1.325   0.997   6.153  0.4062 -0.4881 -1.3977
 4446SOL    HW224798   1.313   1.144   6.108 -2.0948 -0.1681 -0.4705
 4447SOL     OW24799   2.145   4.640   6.429  0.4121  0.3595 -0.2358
 4447SOL    HW124800   2.204   4.701   6.474  2.6281 -1.2381 -0.9878
 4447SOL    HW224801   2.063   4.662   6.474  0.4241  0.4695 -0.2669
 4448SOL     OW24802   4.540   3.739   3.556 -0.6750  0.0562 -0.9884
 4448SOL    HW124803   4.501   3.801   3.618 -2.2729 -2.4082  0.4506
 4448SOL    HW224804   4.629   3.732   3.591 -1.7075 -1.7990  1.1872
 4449SOL     OW24805   2.961   4.014  12.624  0.0248  0.4824 -0.2497
 4449SOL    HW124806   3.037   4.016  12.682  1.9306  0.9632 -2.8099
 4449SOL    HW224807   3.000   3.975  12.546 -1.3753  0.1387 -0.7817
 4450SOL     OW24808   3.014   4.212   6.560  0.4490 -0.9034 -0.3291
 4450SOL    HW124809   3.016   4.177   6.649  0.1267 -2.2369 -0.8403
 4450SOL    HW224810   3.084   4.276   6.564  0.4201 -0.8177 -1.1844
 4451SOL     OW24811   2.468   0.491  10.975  0.0270 -0.4515  0.2287
 4451SOL    HW124812   2.549   0.542  10.969 -0.3156  0.0644 -0.0591
 4451SOL    HW224813   2.434   0.529  11.055  1.3358  2.7236 -0.7368
 4452SOL     OW24814   2.720   1.442   6.865  0.0663 -0.1151 -0.0888
 4452SOL    HW124815   2.672   1.402   6.792 -1.1204 -0.0948  0.6817
 4452SOL    HW224816   2.671   1.404   6.938 -2.9853 -0.4630 -2.3131
 4453SOL     OW24817   0.214   2.523  10.259  0.3477  0.7580 -0.1746
 4453SOL    HW124818   0.287   2.521  10.197  1.3271 -1.1085  1.0286
 4453SOL    HW224819   0.141   2.490  10.207  0.9876 -1.0921  0.0969
 4454SOL     OW24820   4.522   0.346  15.881  0.3025  1.0205 -0.2360
 4454SOL    HW124821   4.584   0.279  15.910  0.1495  0.4544 -1.2190
 4454SOL    HW224822   4.455   0.298  15.831 -0.0507 -2.3218  3.3961
 4455SOL     OW24823   2.220   1.231   5.486  0.6779  0.3679 -0.0300
 4455SOL    HW124824   2.209   1.172   5.411 -3.2845  1.3986 -0.2510
 4455SOL    HW224825   2.148   1.287   5.457  0.7891  0.9284  0.8048
 4456SOL     OW24826   0.790   0.392   5.090 -0.6683  0.0556 -0.3517
 4456SOL    HW124827   0.883   0.375   5.106 -0.1093  0.0265 -3.6208
 4456SOL    HW224828   0.777   0.362   5.000 -0.7626  2.1863 -1.0406
 4457SOL     OW24829   1.293   4.104   4.903  0.4704  0.3733 -0.1825
 4457SOL    HW124830   1.208   4.144   4.921  0.7385  0.3225  1.1479
 4457SOL    HW224831   1.337   4.153   4.972  1.7241 -2.9096  1.3203
 4458SOL     OW24832   0.939   1.805   6.437  0.0869  0.7947 -0.2437
 4458SOL    HW124833   0.992   1.751   6.495 -0.2392 -1.3552 -1.9558
 4458SOL    HW224834   0.885   1.742   6.389  0.9941  1.0144 -1.5607
 4459SOL     OW24835   3.485   2.763  17.527 -0.6599  0.6496 -0.4681
 4459SOL    HW124836   3.501   2.797  17.615 -1.3152 -0.1061 -0.0503
 4459SOL    HW224837   3.566   2.718  17.503  0.6235  0.9677  3.3372
 4460SOL     OW24838   3.381   0.482   3.933 -0.5308  0.5553 -0.3907
 4460SOL    HW124839   3.443   0.549   3.904 -1.3742  1.0421 -1.0944
 4460SOL    HW224840   3.382   0.444   3.845 -2.3978 -1.1814  0.3393
 4461SOL     OW24841   3.532   0.901   5.870  0.6030 -0.0593  0.3060
 4461SOL    HW124842   3.563   0.826   5.820 -0.6624  0.1876 -0.8508
 4461SOL    HW224843   3.611   0.946   5.900  1.6560 -1.0510 -1.0148
 4462SOL     OW24844   1.944   4.546   2.602 -0.5002 -0.5453  0.5226
 4462SOL    HW124845   1.881   4.524   2.533  0.4926 -1.0139 -0.2299
 4462SOL    HW224846   1.885   4.582   2.669 -1.6234  1.2370 -1.4216
 4463SOL     OW24847   0.424   0.785   1.451  0.7637  0.0319  0.5730
 4463SOL    HW124848   0.518   0.764   1.452  0.3072 -2.0411  1.3031
 4463SOL    HW224849   0.385   0.699   1.436 -2.3394  1.3108  1.3949
 4464SOL     OW24850   1.417   2.632   7.660  0.3146 -0.0659  0.3046
 4464SOL    HW124851   1.470   2.657   7.736 -0.2995 -0.4808  0.8634
 4464SOL    HW224852   1.456   2.691   7.596 -0.3981 -1.4399 -1.3817
 4465SOL     OW24853   3.879   0.993   8.872 -0.0419  0.6330 -0.4652
 4465SOL    HW124854   3.823   0.977   8.947 -0.5840  1.2451 -0.7368
 4465SOL    HW224855   3.923   1.076   8.892 -0.0915 -0.3070  3.4721
 4466SOL     OW24856   2.005   1.651   4.975  0.4069 -0.1452  0.4935
 4466SOL    HW124857   2.009   1.664   5.070 -1.0167 -0.5460  0.6104
 4466SOL    HW224858   1.926   1.596   4.971  0.2193  0.2941 -1.4485
 4467SOL     OW24859   0.908   3.285  15.406  0.6044 -0.1939 -0.1818
 4467SOL    HW124860   0.998   3.280  15.376 -0.0918 -2.4373 -1.9487
 4467SOL    HW224861   0.898   3.361  15.463  1.4544 -1.8547  2.1903
 4468SOL     OW24862   2.736   1.763   3.192 -0.3204  0.1063  0.1631
 4468SOL    HW124863   2.824   1.730   3.207 -1.0823 -1.3653  1.4567
 4468SOL    HW224864   2.698   1.724   3.271  1.2924 -0.3694  0.6878
 4469SOL     OW24865   2.048   4.307  16.921  0.6804  0.2622  0.2002
 4469SOL    HW124866   1.995   4.234  16.952 -0.7395  1.0363 -0.3993
 4469SOL    HW224867   2.106   4.257  16.863  0.3538 -0.2031  0.2773
 4470SOL     OW24868   2.588   3.180  17.562 -0.1020 -0.4999  0.4988
 4470SOL    HW124869   2.564   3.272  17.552 -0.1197 -0.8064 -2.2463
 4470SOL    HW224870   2.680   3.203  17.578 -0.1343  0.5567 -0.7998
 4471SOL     OW24871   0.819   3.524  13.850  0.1884  0.6249 -0.0586
 4471SOL    HW124872   0.780   3.611  13.847 -1.6600 -0.2177 -0.2759
 4471SOL    HW224873   0.827   3.503  13.757 -2.2819  0.3200 -0.1905
 4472SOL     OW24874   1.844   0.433   7.751 -0.1810  0.3051  0.1745
 4472SOL    HW124875   1.808   0.353   7.789  0.8383  0.0375  0.5711
 4472SOL    HW224876   1.769   0.487   7.778 -1.6237 -1.2311 -0.7825
 4473SOL     OW24877   1.213   1.726  10.228 -0.0248  0.4546 -0.2559
 4473SOL    HW124878   1.227   1.733  10.322 -3.3177 -0.5333  0.3028
 4473SOL    HW224879   1.151   1.796  10.206  1.4213  1.1109 -2.3197
 4474SOL     OW24880   1.778   1.441   6.717  0.3842  0.2789 -0.4102
 4474SOL    HW124881   1.773   1.529   6.681 -0.5651  0.7266  0.8178
 4474SOL    HW224882   1.728   1.408   6.642  0.9561 -0.6998 -0.3533
 4475SOL     OW24883   2.038   1.163   7.901 -0.3210 -0.2109  0.3006
 4475SOL    HW124884   2.104   1.209   7.849 -0.7932 -0.8172 -0.8359
 4475SOL    HW224885   2.086   1.080   7.912  2.3717  1.4434  1.0847
 4476SOL     OW24886   3.291   4.668   1.839 -0.3370 -0.4286 -0.0963
 4476SOL    HW124887   3.241   4.591   1.868 -0.8203 -0.1000 -0.0532
 4476SOL    HW224888   3.271   4.653   1.747  1.4813 -4.2220  0.1294
 4477SOL     OW24889   2.304   2.667   6.153  0.2566 -0.1141 -0.0177
 4477SOL    HW124890   2.335   2.601   6.090 -2.5396 -1.2344 -0.2619
 4477SOL    HW224891   2.210   2.679   6.141  0.2605  0.0592  0.1363
 4478SOL     OW24892   1.392   1.496   7.312 -0.0941  0.3536 -0.2553
 4478SOL    HW124893   1.298   1.511   7.296 -0.4539  0.5744  2.1314
 4478SOL    HW224894   1.406   1.556   7.385  1.4940 -0.8452  0.4103
 4479SOL     OW24895   4.359   3.840   5.099 -0.3631 -0.2333  0.1071
 4479SOL    HW124896   4.340   3.748   5.079  0.4355  0.0287 -1.8482
 4479SOL    HW224897   4.385   3.824   5.189 -1.7959 -0.0646  0.5489
 4480SOL     OW24898   4.116   4.663   0.653 -0.3257 -0.3480 -0.1251
 4480SOL    HW124899   4.137   0.007   0.589 -0.6014 -0.6223 -0.5118
 4480SOL    HW224900   4.067   4.698   0.727  1.4587 -0.8254  1.2603
 4481SOL     OW24901   3.262   3.351  10.562 -0.0986  0.1990  0.4931
 4481SOL    HW124902   3.183   3.339  10.615  0.9318 -1.5934  1.6024
 4481SOL    HW224903   3.259   3.442  10.531  2.2498  0.2982  0.5799
 4482SOL     OW24904   3.478   2.459  13.454  0.3735 -0.5279 -0.3629
 4482SOL    HW124905   3.486   2.371  13.491  0.2751 -0.2534  0.3205
 4482SOL    HW224906   3.385   2.473  13.474 -0.0625 -0.5136 -2.4690
 4483SOL     OW24907   3.166   2.330  14.516  0.2547  0.1089 -0.0053
 4483SOL    HW124908   3.233   2.267  14.490 -0.1813 -0.0213 -0.7972
 4483SOL    HW224909   3.087   2.294  14.477  0.4024 -0.5210  0.2771
 4484SOL     OW24910   3.685   4.186   7.302 -0.7698 -0.6090 -0.2750
 4484SOL    HW124911   3.589   4.187   7.307 -0.7946 -0.7004 -0.7059
 4484SOL    HW224912   3.720   4.158   7.386  2.4032  1.0090 -1.0746
 4485SOL     OW24913   2.538   4.352   2.580  0.3941 -0.1025  0.1554
 4485SOL    HW124914   2.594   4.343   2.504  1.2766  0.9183  0.6781
 4485SOL    HW224915   2.502   4.439   2.563 -0.4761 -0.3572  0.6700
 4486SOL     OW24916   3.281   0.912   2.204  0.1648  0.3994 -0.3671
 4486SOL    HW124917   3.315   0.970   2.272 -1.8067  0.5199  0.5083
 4486SOL    HW224918   3.196   0.956   2.203  0.1242  0.2986 -1.6703
 4487SOL     OW24919   1.461   3.766  11.825 -0.4247 -0.2337  0.1695
 4487SOL    HW124920   1.414   3.777  11.908  1.3097  2.0581  0.8173
 4487SOL    HW224921   1.491   3.675  11.830  1.3470  0.2711 -1.4892
 4488SOL     OW24922   3.309   4.616   2.700  0.0287  0.1811 -0.4473
 4488SOL    HW124923   3.394   4.614   2.745  1.0244  3.5705 -2.1515
 4488SOL    HW224924   3.301   4.708   2.675 -0.6770 -0.0387 -1.0422
 4489SOL     OW24925   0.688   0.439   9.072  0.1225  0.7666 -0.4032
 4489SOL    HW124926   0.720   0.388   9.147 -1.3623 -2.1643 -1.7423
 4489SOL    HW224927   0.744   0.421   8.997  0.4075  4.2912 -1.0363
 4490SOL     OW24928   2.903   1.275   9.702 -0.1473 -0.0057 -0.1238
 4490SOL    HW124929   2.823   1.327   9.710 -0.2008  0.3004 -2.5971
 4490SOL    HW224930   2.960   1.351   9.689 -0.0734 -0.0461 -0.0340
 4491SOL     OW24931   1.921   2.657   2.314 -0.8108  0.9152 -0.1700
 4491SOL    HW124932   1.997   2.704   2.281 -1.2942 -0.1685 -2.8420
 4491SOL    HW224933   1.886   2.608   2.240  0.2975 -2.8299  1.7431
 4492SOL     OW24934   1.385   2.922   6.669  1.0054  0.4200 -0.3142
 4492SOL    HW124935   1.289   2.924   6.677  0.7393 -1.1077 -3.0425
 4492SOL    HW224936   1.415   2.900   6.757 -1.5625  0.1682  0.5233
 4493SOL     OW24937   1.069   4.386  15.263 -0.0921  0.4352 -0.0719
 4493SOL    HW124938   1.103   4.334  15.189  1.7534  1.7143 -0.1282
 4493SOL    HW224939   1.092   4.474  15.235  0.9783  0.0485 -0.4422
 4494SOL     OW24940   1.703   0.812   9.230 -0.5123 -0.1482  0.7898
 4494SOL    HW124941   1.626   0.862   9.256 -2.3610 -1.5904 -1.9071
 4494SOL    HW224942   1.774   0.873   9.250 -0.7561  0.0597  1.0276
 4495SOL     OW24943   3.576   1.260  13.469  0.2617 -0.4397 -0.5839
 4495SOL    HW124944   3.499   1.265  13.527  1.2873 -2.0790  0.9302
 4495SOL    HW224945   3.603   1.170  13.487 -0.8784 -0.4370  1.1390
 4496SOL     OW24946   3.202   1.572  15.461 -0.0245  0.2061  0.0840
 4496SOL    HW124947   3.267   1.523  15.410  0.5550  1.8940 -0.7913
 4496SOL    HW224948   3.139   1.503  15.480  0.4296  0.0122  0.8842
 4497SOL     OW24949   2.349   1.222   1.442  0.1636 -0.1017  0.3287
 4497SOL    HW124950   2.320   1.137   1.473  1.2289 -1.2741 -1.9302
 4497SOL    HW224951   2.295   1.245   1.367 -0.0715  0.0342  0.5404
 4498SOL     OW24952   0.261   0.942   2.545  0.5916 -0.4272 -0.3991
 4498SOL    HW124953   0.173   0.982   2.545  0.5498 -0.5249  0.7275
 4498SOL    HW224954   0.309   1.002   2.602 -1.2723 -0.4854  1.2503
 4499SOL     OW24955   3.257   1.008  12.183  0.2289 -0.0731 -0.5210
 4499SOL    HW124956   3.255   1.011  12.087  3.0652  0.3016 -0.5818
 4499SOL    HW224957   3.322   1.077  12.192  0.1233 -0.2634  1.5206
 4500SOL     OW24958   0.389   0.216   4.183 -0.5111  0.6492 -0.3517
 4500SOL    HW124959   0.450   0.159   4.230 -0.5621  1.8029  1.0994
 4500SOL    HW224960   0.443   0.244   4.109  1.1431 -0.8190  0.2975
 4501SOL     OW24961   3.320   0.927   2.578  0.0879  0.2201 -0.6034
 4501SOL    HW124962   3.239   0.877   2.571  0.5526 -0.7769  1.1825
 4501SOL    HW224963   3.380   0.855   2.562 -1.6489 -1.4199  0.2461
 4502SOL     OW24964   4.528   0.883   0.720 -0.1507 -0.2797  0.0904
 4502SOL    HW124965   4.581   0.816   0.763 -0.7075 -2.1955 -2.2132
 4502SOL    HW224966   4.495   0.920   0.802  0.8270  1.3224 -0.2469
 4503SOL     OW24967   2.033   1.042   4.394  0.7590  0.1240  0.0203
 4503SOL    HW124968   2.089   1.028   4.318 -0.8183 -0.0934 -1.1032
 4503SOL    HW224969   1.959   1.083   4.349  2.1545  1.6556 -0.8618
 4504SOL     OW24970   1.263   2.444   6.530  0.3993 -0.0376  0.2260
 4504SOL    HW124971   1.235   2.355   6.508  2.2271 -0.8781  1.3767
 4504SOL    HW224972   1.299   2.429   6.617  1.8108 -0.1181 -0.3722
 4505SOL     OW24973   4.456   2.432   3.309  0.2882 -0.0913 -0.1352
 4505SOL    HW124974   4.527   2.409   3.249 -0.4235  1.4273 -1.5678
 4505SOL    HW224975   4.497   2.428   3.395 -0.3309  0.0382  0.1698
 4506SOL     OW24976   2.417   3.854   8.714 -0.2451  0.0018  0.2798
 4506SOL    HW124977   2.474   3.822   8.784 -0.0055  0.5760  0.3517
 4506SOL    HW224978   2.329   3.831   8.741 -0.0796 -0.8190  0.1270
 4507SOL     OW24979   1.443   0.197   3.283 -0.3500 -0.1691 -0.5129
 4507SOL    HW124980   1.390   0.272   3.258 -2.1599 -1.2147  0.1910
 4507SOL    HW224981   1.534   0.224   3.269 -0.5353  0.0037 -1.3771
 4508SOL     OW24982   1.891   1.519   8.648  0.5072  0.6306  0.0331
 4508SOL    HW124983   1.941   1.448   8.607  1.6070  1.1387  0.5160
 4508SOL    HW224984   1.934   1.601   8.625  2.1451 -0.0273  0.7214
 4509SOL     OW24985   1.426   0.723   4.052  0.4937 -0.2208  0.1318
 4509SOL    HW124986   1.364   0.745   3.982  0.8227 -0.2961 -0.1835
 4509SOL    HW224987   1.402   0.635   4.081 -1.5692  0.3120  0.0311
 4510SOL     OW24988   2.903   2.853   7.280  0.0690  0.2225 -0.1205
 4510SOL    HW124989   2.914   2.891   7.193 -0.6741 -0.6530 -0.6023
 4510SOL    HW224990   2.876   2.924   7.338  1.0339 -0.4643  1.1739
 4511SOL     OW24991   2.774   2.754   5.818  0.3801  0.0898 -0.2028
 4511SOL    HW124992   2.703   2.703   5.857  0.7861  1.6476  2.5770
 4511SOL    HW224993   2.728   2.837   5.807  0.2861 -0.0169 -0.6132
 4512SOL     OW24994   0.262   0.389  14.558  0.2948 -0.4098 -0.1742
 4512SOL    HW124995   0.247   0.379  14.652  1.6765  1.8057  0.2793
 4512SOL    HW224996   0.354   0.366  14.550 -0.2092 -2.2151 -0.6303
 4513SOL     OW24997   3.647   1.796   2.553 -0.0716 -0.2837  0.4222
 4513SOL    HW124998   3.614   1.802   2.642 -0.3773  1.1380  0.2209
 4513SOL    HW224999   3.696   1.878   2.550  1.9120 -1.5215 -1.6985
 4514SOL     OW25000   0.099   3.067  10.773  0.1723  0.1238 -0.0334
 4514SOL    HW125001   0.081   3.129  10.702 -0.7888  0.0390  0.1323
 4514SOL    HW225002   0.106   2.981  10.731 -0.7805 -1.5954  3.3494
 4515SOL     OW25003   2.512   3.636   6.248  0.2087  0.0201  0.3466
 4515SOL    HW125004   2.576   3.587   6.199  0.8246  0.5817  0.5820
 4515SOL    HW225005   2.563   3.716   6.261 -2.9927  2.2027 -0.2915
 4516SOL     OW25006   1.977   1.451   6.099 -0.4685  0.0207  0.9495
 4516SOL    HW125007   2.004   1.494   6.018  3.1174 -2.5349  0.8387
 4516SOL    HW225008   2.061   1.448   6.143  0.0109 -2.1327 -0.1201
 4517SOL     OW25009   3.398   3.163  17.057  0.0699  0.3105  0.4202
 4517SOL    HW125010   3.357   3.116  17.130  0.7442 -0.2296  0.4491
 4517SOL    HW225011   3.324   3.170  16.997 -0.0138  1.2439  0.6348
 4518SOL     OW25012   3.649   3.520   4.664 -0.1544  0.5120 -0.7590
 4518SOL    HW125013   3.651   3.498   4.571  0.4287 -0.2153 -0.5682
 4518SOL    HW225014   3.738   3.500   4.692 -0.7284 -0.5068  0.3353
 4519SOL     OW25015   0.130   1.857   5.758  0.5654 -0.0715  0.3890
 4519SOL    HW125016   0.187   1.932   5.774  1.4570 -0.3600 -1.3613
 4519SOL    HW225017   0.052   1.884   5.806  0.2969  0.4229 -0.3238
 4520SOL     OW25018   3.402   3.612   6.790  0.2827 -0.4795  0.2817
 4520SOL    HW125019   3.421   3.654   6.874  1.5006  0.3133 -0.3879
 4520SOL    HW225020   3.487   3.588   6.753  0.6614 -1.0078  1.5200
 4521SOL     OW25021   1.246   1.450  10.216  0.0469  0.1315 -0.7561
 4521SOL    HW125022   1.258   1.545  10.221  2.2260 -0.1746 -0.5047
 4521SOL    HW225023   1.246   1.425  10.123 -1.8028 -0.2349 -0.6626
 4522SOL     OW25024   1.009   0.127  10.360  0.0539 -0.1512 -0.3318
 4522SOL    HW125025   0.998   0.044  10.313  1.8039 -0.9862  0.7301
 4522SOL    HW225026   0.921   0.141  10.394  0.6863  1.7630  0.4762
 4523SOL     OW25027   2.369   3.587   0.770  0.3045 -0.8910  0.4023
 4523SOL    HW125028   2.363   3.678   0.800 -0.4109 -0.3088 -1.5703
 4523SOL    HW225029   2.380   3.602   0.677 -0.5823 -2.4194  0.0546
 4524SOL     OW25030   3.954   3.307   0.280  0.1352 -0.1510 -0.2222
 4524SOL    HW125031   4.006   3.281   0.357  1.0457 -1.6144 -1.3280
 4524SOL    HW225032   3.941   3.400   0.293  0.2123 -0.2911  0.9192
 4525SOL     OW25033   0.743   2.537   0.243 -0.1870  0.3805 -0.0813
 4525SOL    HW125034   0.825   2.570   0.207 -0.8374  2.1732  0.0935
 4525SOL    HW225035   0.725   2.472   0.175  0.2306  2.8160 -2.5211
 4526SOL     OW25036   4.516   2.961   6.264 -0.4258 -0.2993  0.8146
 4526SOL    HW125037   4.535   3.044   6.219  0.1856 -0.5998  0.5216
 4526SOL    HW225038   4.551   2.898   6.201 -0.4323 -0.7819  1.2955
 4527SOL     OW25039   1.612   4.196   7.486  0.8396  0.1147  0.0561
 4527SOL    HW125040   1.589   4.135   7.416  1.9816  0.7215 -0.8430
 4527SOL    HW225041   1.676   4.147   7.538 -0.5241 -0.1170  1.5211
 4528SOL     OW25042   0.507   0.287  14.514 -0.0003  0.4718  0.3663
 4528SOL    HW125043   0.578   0.223  14.521 -1.4768 -1.3433 -1.3402
 4528SOL    HW225044   0.558   0.366  14.494  1.5264 -1.1615 -2.2214
 4529SOL     OW25045   4.136   1.106   6.653  0.4548 -0.1214  0.1775
 4529SOL    HW125046   4.173   1.189   6.681 -0.4839  0.7486 -1.1295
 4529SOL    HW225047   4.207   1.043   6.665 -2.6388 -3.5482  0.5162
 4530SOL     OW25048   3.441   1.308   7.104 -0.3389  0.3354  0.0825
 4530SOL    HW125049   3.533   1.305   7.129 -0.7473 -0.4028  1.4714
 4530SOL    HW225050   3.434   1.386   7.049 -0.5451  0.3980  0.1959
 4531SOL     OW25051   0.909   2.750   5.594  0.6657 -0.1385  0.0512
 4531SOL    HW125052   0.815   2.766   5.584  0.9805  0.5171 -1.8645
 4531SOL    HW225053   0.945   2.809   5.528  0.0206 -0.1805 -0.3399
 4532SOL     OW25054   2.558   1.472   0.191  0.4628 -0.0601 -0.4360
 4532SOL    HW125055   2.583   1.432   0.275  1.5197  1.3653 -0.0778
 4532SOL    HW225056   2.578   1.400   0.131 -0.8050 -0.5287 -0.3012
 4533SOL     OW25057   0.321   0.004   1.313 -0.2297 -0.2200  0.0401
 4533SOL    HW125058   0.300   4.706   1.404 -1.6947 -0.4217 -0.3547
 4533SOL    HW225059   0.402   4.681   1.295  0.8174  2.0649 -1.2105
 4534SOL     OW25060   0.787   2.429  16.053 -0.3068 -0.2214  0.2846
 4534SOL    HW125061   0.879   2.447  16.071 -0.4048  2.3586 -1.8322
 4534SOL    HW225062   0.797   2.356  15.992 -1.7653  0.0638 -0.3035
 4535SOL     OW25063   4.382   0.457   6.834  0.3756 -0.2472 -0.6294
 4535SOL    HW125064   4.290   0.432   6.825  0.0851  1.1213 -1.5572
 4535SOL    HW225065   4.397   0.477   6.741 -0.2022  2.6775 -0.0991
 4536SOL     OW25066   0.400   2.962   7.475 -0.5024  0.4405 -0.6462
 4536SOL    HW125067   0.317   2.918   7.456  0.3954 -1.2485 -0.6843
 4536SOL    HW225068   0.383   2.998   7.563  1.3367 -1.3084  0.4257
 4537SOL     OW25069   0.252   4.520   4.945  0.0171 -0.4933 -0.5045
 4537SOL    HW125070   0.256   4.525   4.850 -2.0215 -0.8503 -0.6086
 4537SOL    HW225071   0.169   4.474   4.957  0.5506 -0.4692  3.5070
 4538SOL     OW25072   3.673   1.821   5.564  0.0886  0.3622 -0.5129
 4538SOL    HW125073   3.581   1.807   5.539 -0.0020  0.8831 -0.4692
 4538SOL    HW225074   3.686   1.908   5.525 -0.1749  1.5992  2.1419
 4539SOL     OW25075   2.320   3.889   7.658 -0.8387  0.1716  0.0697
 4539SOL    HW125076   2.264   3.966   7.668 -1.1215 -0.0229 -0.0365
 4539SOL    HW225077   2.266   3.820   7.696 -1.5023  0.1834 -0.8570
 4540SOL     OW25078   1.599   3.802   1.093 -0.1803  0.5486  0.0683
 4540SOL    HW125079   1.664   3.766   1.154 -0.1178  1.5665  0.6053
 4540SOL    HW225080   1.603   3.739   1.021  1.1088  1.5287 -0.7038
 4541SOL     OW25081   0.764   3.479   4.745  0.5791  0.2768 -0.0807
 4541SOL    HW125082   0.828   3.410   4.765  1.0533  0.1276 -2.1082
 4541SOL    HW225083   0.760   3.531   4.825  0.7929 -1.5610  1.1248
 4542SOL     OW25084   1.685   0.916  11.351 -0.2478 -0.1457  0.1307
 4542SOL    HW125085   1.711   0.861  11.277  0.6026 -1.0755  1.1271
 4542SOL    HW225086   1.618   0.970  11.307 -0.3861 -1.4133 -1.1912
 4543SOL     OW25087   4.276   2.977  15.485  0.0082 -0.0338 -0.1593
 4543SOL    HW125088   4.353   3.028  15.510  1.4954 -2.0175 -0.7194
 4543SOL    HW225089   4.288   2.900  15.540 -1.3209 -0.0597  0.1067
 4544SOL     OW25090   3.647   1.051   6.164  0.3192  0.7121  0.0885
 4544SOL    HW125091   3.673   1.004   6.085  2.3724 -0.3046  1.3409
 4544SOL    HW225092   3.693   1.014   6.240 -1.4455  0.2544  0.9365
 4545SOL     OW25093   3.424   0.707  10.949  0.4331  0.0719 -0.4296
 4545SOL    HW125094   3.381   0.777  10.998 -0.0562 -1.1312  0.8565
 4545SOL    HW225095   3.441   0.660  11.030 -0.3090 -1.7797 -1.3505
 4546SOL     OW25096   2.970   4.282   5.146  0.0805  0.3025  0.4997
 4546SOL    HW125097   2.922   4.227   5.208 -0.7747  0.2896 -0.1784
 4546SOL    HW225098   3.001   4.221   5.080  1.9447  1.2348  0.4996
 4547SOL     OW25099   3.351   3.823   9.485 -0.6877  0.0259  0.1267
 4547SOL    HW125100   3.399   3.744   9.459 -1.1208 -0.2451  0.1527
 4547SOL    HW225101   3.291   3.787   9.551 -0.6487  0.7260  0.5435
 4548SOL     OW25102   3.040   4.667   7.213 -0.1679 -0.1341 -0.1268
 4548SOL    HW125103   2.992   4.585   7.221  0.9822 -0.7303  0.7912
 4548SOL    HW225104   2.968   0.003   7.233 -0.6722 -1.2268  1.3926
 4549SOL     OW25105   3.057   1.029   8.777  0.3464  0.3446  0.0717
 4549SOL    HW125106   3.111   1.019   8.698  2.5810  1.6415  1.4263
 4549SOL    HW225107   3.069   1.124   8.785 -1.7195  0.5333  0.9565
 4550SOL     OW25108   2.892   0.182  14.684 -0.1994 -0.0791 -0.3521
 4550SOL    HW125109   2.849   0.262  14.714  0.6896  1.1499 -2.3156
 4550SOL    HW225110   2.813   0.142  14.649  0.9665 -0.7975 -2.2088
 4551SOL     OW25111   1.121   0.648  12.268 -0.2885  0.1166 -0.5292
 4551SOL    HW125112   1.108   0.573  12.326 -4.9080  0.0846 -1.6052
 4551SOL    HW225113   1.195   0.695  12.305 -1.0189  0.1458  0.9022
 4552SOL     OW25114   1.130   0.996   8.089  0.1222  0.3601 -0.2275
 4552SOL    HW125115   1.178   1.009   8.007  1.2764 -2.3603  0.0256
 4552SOL    HW225116   1.153   1.075   8.138 -1.9936  0.4269  0.6469
 4553SOL     OW25117   3.883   0.950   6.305 -0.4759  0.0493 -0.2397
 4553SOL    HW125118   3.905   0.883   6.370  0.1984  0.6019  0.0962
 4553SOL    HW225119   3.951   1.012   6.330  0.7606 -0.9087 -1.2131
 4554SOL     OW25120   2.623   3.536   8.922 -0.2540  0.0236  0.1206
 4554SOL    HW125121   2.600   3.628   8.908 -1.3794 -0.2023  0.4535
 4554SOL    HW225122   2.541   3.500   8.956  1.2014 -2.6633  0.7522
 4555SOL     OW25123   0.231   1.775   3.748  0.1292 -0.0147 -0.0596
 4555SOL    HW125124   0.273   1.855   3.717 -0.4436  0.7134  1.0240
 4555SOL    HW225125   0.263   1.758   3.837 -0.3727  3.1533  0.7059
 4556SOL     OW25126   1.454   1.987   5.201  0.5191  0.6770  0.0820
 4556SOL    HW125127   1.494   1.938   5.273 -1.6610  0.4830  1.1805
 4556SOL    HW225128   1.437   2.076   5.231  0.3001 -0.2973  2.8682
 4557SOL     OW25129   4.401   3.005   9.315 -0.5153  0.1705 -0.4159
 4557SOL    HW125130   4.399   2.967   9.402  0.0151 -0.7501 -0.8125
 4557SOL    HW225131   4.472   3.068   9.331 -1.5142  1.3692 -0.7051
 4558SOL     OW25132   4.000   1.143   7.407 -0.2061 -0.8808 -0.5837
 4558SOL    HW125133   3.972   1.184   7.489  0.5586  1.4552 -1.5137
 4558SOL    HW225134   4.090   1.118   7.428 -0.4115  0.2889  1.7999
 4559SOL     OW25135   3.855   3.481  17.286 -0.2805 -0.5551  0.6828
 4559SOL    HW125136   3.927   3.450  17.342  1.1708  0.4689 -0.5970
 4559SOL    HW225137   3.896   3.565  17.263 -1.8833 -0.6018 -2.4019
 4560SOL     OW25138   4.226   4.203   2.419 -0.2934  0.0960  0.3649
 4560SOL    HW125139   4.215   4.108   2.421 -0.7662  0.1039 -2.2773
 4560SOL    HW225140   4.173   4.228   2.344 -0.1417  1.4873  0.7317
 4561SOL     OW25141   4.279   2.036   2.555  0.2944 -0.3429  0.1053
 4561SOL    HW125142   4.205   2.008   2.609 -0.6341  1.5805 -0.1391
 4561SOL    HW225143   4.349   2.035   2.619 -0.1326  1.8979  0.6245
 4562SOL     OW25144   0.019   4.026  12.039 -0.5926  0.0286 -0.2227
 4562SOL    HW125145   4.647   4.023  12.037 -0.6318  2.9118 -1.7600
 4562SOL    HW225146   0.029   3.939  12.078  2.9682  1.0832  1.2187
 4563SOL     OW25147   0.829   1.859  17.427 -0.2869 -0.5203  0.0300
 4563SOL    HW125148   0.857   1.936  17.477  2.6760 -1.0194 -0.8825
 4563SOL    HW225149   0.866   1.783  17.472 -0.0438 -0.6832 -0.4531
 4564SOL     OW25150   2.943   3.474   8.983  0.0422 -0.2934  0.8874
 4564SOL    HW125151   2.877   3.474   8.914  0.0621  0.6612  0.8684
 4564SOL    HW225152   2.996   3.551   8.960 -0.3061  0.0968  1.3924
 4565SOL     OW25153   1.694   4.075   1.472 -0.3746 -0.0345  0.4115
 4565SOL    HW125154   1.604   4.086   1.441 -0.2045  2.6494  0.8876
 4565SOL    HW225155   1.700   4.138   1.544  1.1286  0.3442 -0.0395
 4566SOL     OW25156   3.655   4.258   2.431  0.0227  0.4231  0.1193
 4566SOL    HW125157   3.646   4.162   2.437 -1.2483  0.3356 -2.9955
 4566SOL    HW225158   3.563   4.282   2.432  0.3921  1.9821 -2.1445
 4567SOL     OW25159   2.689   1.684   5.303  0.4333 -0.5994 -0.2027
 4567SOL    HW125160   2.625   1.694   5.374  1.1523  2.4074  0.0323
 4567SOL    HW225161   2.714   1.593   5.314 -0.4883 -0.6961  1.0746
 4568SOL     OW25162   0.875   2.837  16.674  0.3863  0.6218 -0.8889
 4568SOL    HW125163   0.889   2.762  16.730 -2.4779 -0.5370 -1.6939
 4568SOL    HW225164   0.797   2.875  16.715  0.4497  2.2155 -2.2195
 4569SOL     OW25165   4.602   0.072   1.756  0.6792  0.3676  0.4126
 4569SOL    HW125166   4.656   0.051   1.832  1.0098  1.6720  0.5530
 4569SOL    HW225167   4.661   0.133   1.711 -1.0501  2.7300  1.2838
 4570SOL     OW25168   0.396   0.144   3.787  0.4228 -0.1580  0.6880
 4570SOL    HW125169   0.380   0.237   3.770  0.1419  0.1438  2.6145
 4570SOL    HW225170   0.491   0.152   3.785  0.3791  0.3180  0.4518
 4571SOL     OW25171   4.266   0.269   7.211  0.4843 -0.1769  0.5682
 4571SOL    HW125172   4.221   0.321   7.144  1.8465  0.4327  0.1311
 4571SOL    HW225173   4.316   0.335   7.259 -0.1906 -0.6378  1.8971
 4572SOL     OW25174   4.323   4.491  16.653 -0.6718 -0.2548  0.1652
 4572SOL    HW125175   4.300   4.582  16.634 -0.4010 -0.4796 -1.2300
 4572SOL    HW225176   4.309   4.489  16.747 -1.9806 -1.4667 -0.0617
 4573SOL     OW25177   0.919   2.288   7.850  0.5600 -0.4830  0.0595
 4573SOL    HW125178   0.954   2.244   7.772  0.6174 -0.8451  0.2925
 4573SOL    HW225179   0.827   2.264   7.856  0.4672 -0.1229  0.1220
 4574SOL     OW25180   4.408   0.749  11.812  0.0470  0.3379 -0.2015
 4574SOL    HW125181   4.322   0.792  11.810 -0.3630 -0.4848 -0.5972
 4574SOL    HW225182   4.461   0.811  11.862 -0.6522 -0.1080  1.0873
 4575SOL     OW25183   0.381   1.159   2.701 -0.1588 -1.0845  0.6213
 4575SOL    HW125184   0.358   1.231   2.761  0.0834 -0.6732  0.2182
 4575SOL    HW225185   0.373   1.197   2.614 -1.2379 -1.3808  0.5932
 4576SOL     OW25186   4.065   2.104   6.942  0.0395  0.4772  0.4051
 4576SOL    HW125187   4.002   2.093   6.871  0.6239 -0.2383 -0.0114
 4576SOL    HW225188   4.041   2.193   6.968 -2.0561  0.0173  0.0297
 4577SOL     OW25189   2.195   0.704   0.321  0.2955 -0.3856 -0.1997
 4577SOL    HW125190   2.163   0.623   0.361  1.4337 -1.7664 -2.0111
 4577SOL    HW225191   2.115   0.745   0.289 -0.0592 -1.4447 -0.6967
 4578SOL     OW25192   0.612   0.918   7.667  0.1093 -0.3251  0.1987
 4578SOL    HW125193   0.602   0.856   7.739 -1.7671 -0.8882 -0.5573
 4578SOL    HW225194   0.586   0.996   7.716  0.1834  0.2228 -0.6320
 4579SOL     OW25195   2.794   0.795  12.956  0.0900  0.2582  0.3078
 4579SOL    HW125196   2.808   0.735  12.882  1.2956 -1.3847  1.8483
 4579SOL    HW225197   2.707   0.830  12.935 -0.2491 -0.7433  0.0073
 4580SOL     OW25198   3.460   3.259  16.693 -0.2186  0.6553 -0.5954
 4580SOL    HW125199   3.426   3.195  16.631 -1.3808  1.3560 -0.6746
 4580SOL    HW225200   3.396   3.257  16.764 -1.5313 -0.9918 -1.8240
 4581SOL     OW25201   1.328   1.328   6.904 -0.0312  0.1110  0.3306
 4581SOL    HW125202   1.285   1.412   6.891  0.9653  0.4529 -0.8221
 4581SOL    HW225203   1.309   1.283   6.822 -2.0137 -1.3103  1.5562
 4582SOL     OW25204   2.504   3.256   7.226 -0.3146  0.1538 -0.1813
 4582SOL    HW125205   2.412   3.227   7.226 -0.6511  1.2191  3.8451
 4582SOL    HW225206   2.541   3.168   7.223  0.8325  0.6138  0.4634
 4583SOL     OW25207   3.256   1.590   6.689  0.3191  0.0689 -0.1244
 4583SOL    HW125208   3.318   1.519   6.669  0.3200  0.6070 -2.0634
 4583SOL    HW225209   3.256   1.592   6.785  3.0864 -0.7578 -0.1106
 4584SOL     OW25210   3.983   3.960  15.555  0.2763  0.1342  0.8840
 4584SOL    HW125211   4.068   3.916  15.550  1.2744  2.0199  1.1070
 4584SOL    HW225212   3.937   3.909  15.489 -0.7067  1.0492  0.8699
 4585SOL     OW25213   2.548   4.189   4.846  0.1579  0.4166  0.3441
 4585SOL    HW125214   2.572   4.221   4.759  1.7523 -2.4451 -0.2635
 4585SOL    HW225215   2.622   4.133   4.867 -0.5670 -0.7291 -0.1487
 4586SOL     OW25216   1.859   1.747   9.461  0.2274  0.6697 -0.3211
 4586SOL    HW125217   1.835   1.659   9.433  0.5675  0.4137  0.2092
 4586SOL    HW225218   1.832   1.747   9.552  0.6034 -0.8770 -0.2161
 4587SOL     OW25219   3.815   0.327   2.284 -0.4712 -0.6209  0.6180
 4587SOL    HW125220   3.779   0.303   2.199 -1.5584 -1.3087  1.2678
 4587SOL    HW225221   3.736   0.362   2.324 -0.2523  0.3768  0.1698
 4588SOL     OW25222   4.482   1.092   5.701  0.8896  0.0892 -0.0588
 4588SOL    HW125223   4.565   1.048   5.717  1.3726  0.5277 -1.3187
 4588SOL    HW225224   4.497   1.130   5.614  0.2754  0.7669  0.1256
 4589SOL     OW25225   4.681   1.096   8.007  0.0955 -0.1053  0.1525
 4589SOL    HW125226   4.722   1.175   7.972 -1.7134  0.1416 -1.4122
 4589SOL    HW225227   4.683   1.046   7.926  1.4736  0.1038  0.0577
 4590SOL     OW25228   1.968   1.520  13.134  0.2666  0.4737 -0.3837
 4590SOL    HW125229   1.984   1.474  13.052  2.3280 -0.0337  0.3176
 4590SOL    HW225230   2.054   1.558  13.148 -0.4048  1.9923 -0.4151
 4591SOL     OW25231   2.562   3.229   2.308 -0.2390 -0.0344 -0.0151
 4591SOL    HW125232   2.555   3.299   2.374 -0.5270  0.5002 -0.6052
 4591SOL    HW225233   2.471   3.218   2.280 -0.6110  0.2943  1.0599
 4592SOL     OW25234   1.983   0.649   3.642  0.4885  0.3517 -0.0422
 4592SOL    HW125235   1.995   0.612   3.729  1.7084  0.4462 -0.1633
 4592SOL    HW225236   1.918   0.591   3.604  3.0618 -2.4017 -0.2376
 4593SOL     OW25237   3.638   3.433   8.179  0.1222  0.2794 -0.0603
 4593SOL    HW125238   3.580   3.490   8.230  1.0640  0.4329  0.8190
 4593SOL    HW225239   3.720   3.451   8.223  0.9345 -1.2166 -0.9438
 4594SOL     OW25240   3.663   0.823  14.632  0.1041 -0.1219 -0.8682
 4594SOL    HW125241   3.702   0.811  14.719  0.3583  1.8714 -0.7043
 4594SOL    HW225242   3.597   0.755  14.621  1.4928 -1.6716  0.4658
 4595SOL     OW25243   3.406   1.984   6.969  0.0447 -0.6790  0.1628
 4595SOL    HW125244   3.433   1.903   6.926 -0.6511 -0.8088 -0.0262
 4595SOL    HW225245   3.326   1.948   7.006  0.7107 -2.8087 -0.4926
 4596SOL     OW25246   1.378   3.000   7.521  0.3317 -0.0494  0.3872
 4596SOL    HW125247   1.449   3.064   7.523 -0.4905  0.9072 -1.0175
 4596SOL    HW225248   1.354   3.018   7.431  0.9423  0.7320  0.3821
 4597SOL     OW25249   0.287   2.758  14.378  0.0324 -0.3140  0.2503
 4597SOL    HW125250   0.345   2.727  14.309  2.4547 -0.5728  2.3985
 4597SOL    HW225251   0.205   2.711  14.365 -0.4216  0.4331  0.4204
 4598SOL     OW25252   2.873   3.089   3.457 -0.7991 -0.2968 -0.0703
 4598SOL    HW125253   2.782   3.061   3.450 -0.2698 -1.7465 -1.0697
 4598SOL    HW225254   2.880   3.156   3.389  0.0905 -0.0598  0.2470
 4599SOL     OW25255   1.535   3.713  11.232  0.2205  0.0892 -0.3165
 4599SOL    HW125256   1.490   3.647  11.180 -2.8802  2.4361 -0.6140
 4599SOL    HW225257   1.610   3.658  11.253  1.3134  1.0761 -1.6211
 4600SOL     OW25258   4.629   4.350   4.349 -0.0149 -0.2258 -0.0722
 4600SOL    HW125259   4.667   4.374   4.433  1.2703 -2.1689 -0.1054
 4600SOL    HW225260   4.706   4.315   4.304 -0.3264 -0.1050 -0.7022
 4601SOL     OW25261   1.689   4.040   4.619 -0.2130  0.1790  0.0485
 4601SOL    HW125262   1.781   4.062   4.605  0.6781 -3.9345 -0.4501
 4601SOL    HW225263   1.703   3.952   4.655  0.8765  0.4600  0.3144
 4602SOL     OW25264   2.143   2.139   8.850 -0.0050 -0.5431 -0.2113
 4602SOL    HW125265   2.209   2.080   8.888 -0.8827 -1.3129  0.1098
 4602SOL    HW225266   2.191   2.222   8.850 -1.2697  0.1733  0.6350
 4603SOL     OW25267   4.359   1.102   9.112 -0.2788  0.0620  0.2612
 4603SOL    HW125268   4.290   1.154   9.071  0.7387  1.0376 -0.2168
 4603SOL    HW225269   4.423   1.170   9.132 -1.1970  1.0149 -0.0360
 4604SOL     OW25270   3.893   0.390  13.212  0.1419  0.5075  0.4248
 4604SOL    HW125271   3.950   0.314  13.198  2.5941  2.1643  1.6201
 4604SOL    HW225272   3.840   0.352  13.283 -2.1449  0.3068 -1.3972
 4605SOL     OW25273   2.400   3.688   3.166 -0.5091 -0.1785 -0.0071
 4605SOL    HW125274   2.479   3.634   3.177 -2.1486 -2.7849 -1.0055
 4605SOL    HW225275   2.329   3.625   3.175  0.6316 -1.3078  1.1248
 4606SOL     OW25276   3.462   2.280  13.790 -0.1701  0.0042  0.2479
 4606SOL    HW125277   3.414   2.204  13.824  0.8787  0.3289  2.4757
 4606SOL    HW225278   3.460   2.246  13.701  0.8483  0.1547  0.1709
 4607SOL     OW25279   2.474   4.261  14.371 -0.8218  0.7282 -0.1052
 4607SOL    HW125280   2.395   4.210  14.355 -1.2965  0.8948  1.7744
 4607SOL    HW225281   2.533   4.195  14.407  0.8482  1.9579 -0.5735
 4608SOL     OW25282   4.087   0.844   5.478  0.2525 -0.3206 -0.3687
 4608SOL    HW125283   4.128   0.927   5.503  1.4086 -2.2291  4.0085
 4608SOL    HW225284   4.027   0.842   5.552 -0.9584 -2.9583 -1.4335
 4609SOL     OW25285   2.315   0.698   5.695 -0.2633  0.0567  0.1353
 4609SOL    HW125286   2.276   0.634   5.754  0.1902 -0.3311  0.0206
 4609SOL    HW225287   2.285   0.659   5.613 -2.4092 -1.7852  1.7995
 4610SOL     OW25288   3.347   4.558  11.991  0.4302 -0.1477 -0.4291
 4610SOL    HW125289   3.322   4.584  12.079  1.4463 -2.1202  0.4456
 4610SOL    HW225290   3.276   4.606  11.947 -0.0229 -1.1633 -0.8070
 4611SOL     OW25291   4.288   1.585   3.568 -0.8413  0.1841 -0.0966
 4611SOL    HW125292   4.304   1.659   3.627  4.6548 -0.8740 -0.3196
 4611SOL    HW225293   4.371   1.592   3.522 -1.9756 -2.0158 -2.4911
 4612SOL     OW25294   4.423   1.699  16.264  0.4822  0.1348 -0.0697
 4612SOL    HW125295   4.353   1.708  16.329  1.4998  1.5727  0.8266
 4612SOL    HW225296   4.496   1.751  16.296 -1.2593  1.0115  2.4858
 4613SOL     OW25297   2.957   0.406  13.419 -0.1800  0.2771 -0.7299
 4613SOL    HW125298   2.990   0.404  13.329 -1.8563 -0.9762 -1.2973
 4613SOL    HW225299   3.004   0.487  13.441 -1.9254  2.0611 -3.6054
 4614SOL     OW25300   0.064   1.630   8.060 -0.0729  0.1012  0.5272
 4614SOL    HW125301   0.040   1.561   7.998 -1.2084  1.4221 -0.4980
 4614SOL    HW225302   0.092   1.703   8.005 -0.2999  0.9727  1.5808
 4615SOL     OW25303   4.114   0.738   1.627 -0.1333 -0.4953  0.1971
 4615SOL    HW125304   4.156   0.659   1.594  0.2070  0.6468 -2.0991
 4615SOL    HW225305   4.026   0.734   1.590  0.2937 -2.5035 -0.5892
 4616SOL     OW25306   3.253   0.789  16.817  0.5073 -0.3911  0.0783
 4616SOL    HW125307   3.287   0.870  16.854  0.1406 -0.6253  0.9404
 4616SOL    HW225308   3.179   0.773  16.876 -0.8657  1.4892 -1.1483
 4617SOL     OW25309   0.964   4.285   4.300  0.6848 -0.7181 -0.2699
 4617SOL    HW125310   1.030   4.353   4.314 -0.2158 -0.4023  2.4651
 4617SOL    HW225311   1.025   4.211   4.297 -0.6921 -1.8597  0.1066
 4618SOL     OW25312   2.601   1.789   2.128 -0.0939 -0.0387 -0.2135
 4618SOL    HW125313   2.509   1.806   2.147 -0.1899  0.1223 -0.8461
 4618SOL    HW225314   2.656   1.852   2.176 -0.2986  0.8632 -1.1714
 4619SOL     OW25315   4.631   0.573   1.218 -0.0004  0.2696  0.1800
 4619SOL    HW125316   4.617   0.640   1.286 -1.7843  0.0686  0.0109
 4619SOL    HW225317   4.624   0.497   1.276 -0.1315 -0.7511 -1.1805
 4620SOL     OW25318   1.581   3.451   8.950  0.0022 -0.0594 -0.2683
 4620SOL    HW125319   1.592   3.373   9.004 -0.4109  0.5252  0.6632
 4620SOL    HW225320   1.507   3.490   8.996  0.3859  0.1138  0.1988
 4621SOL     OW25321   2.971   1.204   8.463  0.4126  0.5745 -0.1997
 4621SOL    HW125322   2.897   1.168   8.414  0.9381 -1.5569  0.5608
 4621SOL    HW225323   2.934   1.284   8.501 -2.2939 -0.2578 -1.0885
 4622SOL     OW25324   1.273   2.985   4.484  0.5271  0.0036 -0.3403
 4622SOL    HW125325   1.233   3.061   4.441  1.8992  0.2605 -1.1533
 4622SOL    HW225326   1.364   3.012   4.496  0.1669  0.5829  1.1418
 4623SOL     OW25327   4.123   2.892   3.948  0.2285 -0.2176  0.2967
 4623SOL    HW125328   4.042   2.859   3.986  0.6042 -1.1891  0.2601
 4623SOL    HW225329   4.178   2.817   3.922 -0.2619  0.1548 -1.8459
 4624SOL     OW25330   0.197   4.091   1.543  0.6032  0.2990 -0.5641
 4624SOL    HW125331   0.135   4.139   1.599  1.3740 -0.1518  0.6847
 4624SOL    HW225332   0.165   4.006   1.515  0.6383  0.8721 -2.3266
 4625SOL     OW25333   3.842   4.676   0.250 -0.0406  0.1411 -0.0669
 4625SOL    HW125334   3.860   4.588   0.285  0.4943  0.4158  0.3485
 4625SOL    HW225335   3.909   0.002   0.296  1.1653 -0.8622 -0.7040
 4626SOL     OW25336   2.511   3.288   6.325 -0.0877  0.2261 -0.3974
 4626SOL    HW125337   2.532   3.312   6.234  2.6472  0.4934  0.3065
 4626SOL    HW225338   2.416   3.301   6.325  0.0842  1.4874 -0.9253
 4627SOL     OW25339   0.965   0.946   7.083 -0.0100 -0.6416  0.1580
 4627SOL    HW125340   1.018   0.922   7.159  1.3647  1.8132 -0.0216
 4627SOL    HW225341   1.023   1.006   7.037 -0.4183 -2.2059 -2.3920
 4628SOL     OW25342   3.460   2.479  11.150  0.4617  0.3478 -0.2931
 4628SOL    HW125343   3.385   2.469  11.209 -0.0337 -1.6053 -1.2646
 4628SOL    HW225344   3.446   2.555  11.094 -1.6537 -1.3081 -1.9809
 4629SOL     OW25345   1.558   3.127   5.925  0.3002 -0.2134  0.3907
 4629SOL    HW125346   1.638   3.080   5.903 -0.2376 -1.3848  0.9156
 4629SOL    HW225347   1.584   3.186   5.996 -1.4645  0.8901  0.1364
 4630SOL     OW25348   4.561   4.387  12.196  0.4911  0.6094 -0.2126
 4630SOL    HW125349   4.493   4.320  12.207 -0.4491  1.5269 -0.4337
 4630SOL    HW225350   4.529   4.437  12.121  0.8640  0.1101 -0.7071
 4631SOL     OW25351   2.133   4.389   1.068 -0.1428  0.1942  0.1681
 4631SOL    HW125352   2.170   4.365   1.153  0.4260  0.3098 -0.0459
 4631SOL    HW225353   2.217   4.388   1.022  0.8916 -1.9004  2.1082
 4632SOL     OW25354   4.391   0.701   3.693 -0.4154  0.1359 -0.6335
 4632SOL    HW125355   4.311   0.693   3.642 -1.5984 -0.4430  1.3388
 4632SOL    HW225356   4.407   0.795   3.700  0.3059 -0.2258  2.4340
 4633SOL     OW25357   2.239   2.850   9.311  0.4837  0.0317 -0.0229
 4633SOL    HW125358   2.334   2.835   9.314  0.2423 -1.5370 -0.3166
 4633SOL    HW225359   2.221   2.782   9.247 -2.4107  0.1409  0.6783
 4634SOL     OW25360   3.806   3.531   3.367 -0.3332 -0.1580 -0.2167
 4634SOL    HW125361   3.892   3.527   3.323 -0.5400  2.3246 -0.8482
 4634SOL    HW225362   3.790   3.438   3.386 -0.2611 -0.5409 -1.9762
 4635SOL     OW25363   0.643   4.273   4.908  0.0173  0.4531  0.5621
 4635SOL    HW125364   0.708   4.258   4.840 -0.7523  0.6150 -0.2123
 4635SOL    HW225365   0.695   4.311   4.978  0.5526  1.1059 -0.1869
 4636SOL     OW25366   3.475   1.187  16.627 -0.7022  0.1434  0.4669
 4636SOL    HW125367   3.466   1.281  16.645  2.6335  0.5234  0.1698
 4636SOL    HW225368   3.567   1.162  16.629 -0.1630  1.8639 -2.5342
 4637SOL     OW25369   1.695   3.175   1.816  0.2816 -0.2011 -0.2468
 4637SOL    HW125370   1.710   3.086   1.786  0.4630  0.1569 -1.2386
 4637SOL    HW225371   1.631   3.207   1.753  1.5288  1.9616 -0.4419
 4638SOL     OW25372   3.954   0.512   6.585 -0.0540 -0.0340 -0.0597
 4638SOL    HW125373   3.903   0.444   6.628 -2.7042  0.7813 -1.8793
 4638SOL    HW225374   4.042   0.476   6.598 -1.0630 -2.5530 -0.3211
 4639SOL     OW25375   0.626   1.045   6.337  0.3669  0.1004 -0.0788
 4639SOL    HW125376   0.633   0.950   6.332 -3.7334 -0.1439 -0.7860
 4639SOL    HW225377   0.572   1.076   6.264  0.8030  0.9654 -0.0367
 4640SOL     OW25378   1.363   1.750  12.582  0.2585 -0.2244 -0.7625
 4640SOL    HW125379   1.337   1.808  12.654 -0.7222  0.4705 -1.6791
 4640SOL    HW225380   1.414   1.690  12.636 -0.9960 -1.1914 -0.6686
 4641SOL     OW25381   2.358   3.061   4.139 -0.5648 -0.2711 -0.3269
 4641SOL    HW125382   2.266   3.086   4.149 -0.2617  0.7511 -0.1294
 4641SOL    HW225383   2.394   3.126   4.079 -0.0661  0.2096  0.4930
 4642SOL     OW25384   3.450   4.462   0.553  0.1180 -0.0469  0.1641
 4642SOL    HW125385   3.481   4.375   0.579  0.2939  0.0021  0.1145
 4642SOL    HW225386   3.503   4.474   0.475 -0.1547  1.4300  0.2161
 4643SOL     OW25387   1.368   4.061  11.175  0.0355  0.2117 -0.7419
 4643SOL    HW125388   1.445   4.067  11.119 -0.0181  0.8919 -0.7429
 4643SOL    HW225389   1.419   4.053  11.256 -2.2906 -1.4737  0.5698
 4644SOL     OW25390   1.734   4.290   3.854  0.0808 -0.3333 -0.2620
 4644SOL    HW125391   1.741   4.320   3.764 -0.5089  1.2250  0.2199
 4644SOL    HW225392   1.820   4.251   3.872 -1.0571 -1.9048  1.8606
 4645SOL     OW25393   0.783   1.683   6.730  0.0376 -0.8648  0.5890
 4645SOL    HW125394   0.805   1.609   6.787 -1.5546 -1.1170  0.8638
 4645SOL    HW225395   0.739   1.634   6.660  1.8483 -1.0429 -0.4188
 4646SOL     OW25396   0.418   3.461  15.484  0.2428 -0.1084  0.0161
 4646SOL    HW125397   0.473   3.507  15.547  0.1583 -2.0077  1.4477
 4646SOL    HW225398   0.398   3.536  15.427  0.5325  1.2537  1.7228
 4647SOL     OW25399   0.504   0.772   2.961 -0.9174  0.5748  0.4612
 4647SOL    HW125400   0.423   0.721   2.957 -0.6055  0.0655  0.6145
 4647SOL    HW225401   0.571   0.718   3.003  0.0409 -0.4101 -2.3082
 4648SOL     OW25402   3.405   3.058   9.632  0.1683  0.0568  0.1036
 4648SOL    HW125403   3.454   3.010   9.699  0.5177 -0.6976 -0.7008
 4648SOL    HW225404   3.480   3.115   9.617 -0.2552  0.3068 -1.0498
 4649SOL     OW25405   3.290   4.102   4.197 -0.0228 -0.6652 -0.6143
 4649SOL    HW125406   3.293   4.008   4.216 -0.3748  0.1667  3.5226
 4649SOL    HW225407   3.236   4.138   4.267 -0.5201  0.3780 -1.5344
 4650SOL     OW25408   1.783   2.670   8.981  0.0369 -0.2652 -0.3304
 4650SOL    HW125409   1.734   2.729   9.039 -0.5987 -0.4106 -0.7269
 4650SOL    HW225410   1.759   2.695   8.892  0.3072  2.5495  0.3769
 4651SOL     OW25411   1.115   0.795  10.906 -0.0187  0.1154 -0.6321
 4651SOL    HW125412   1.099   0.836  10.991  2.2201  1.2281 -0.7480
 4651SOL    HW225413   1.210   0.798  10.898  0.2792 -0.3477  2.6179
 4652SOL     OW25414   0.896   2.994   5.243  0.0700  0.1720 -0.3765
 4652SOL    HW125415   0.861   3.073   5.284 -2.7569 -2.0374  1.4210
 4652SOL    HW225416   0.851   2.986   5.159  0.4552  0.0835 -0.5769
 4653SOL     OW25417   3.028   0.444   4.151  0.0354 -0.0102 -0.2112
 4653SOL    HW125418   2.978   0.457   4.070  1.1031 -1.4200 -1.0894
 4653SOL    HW225419   3.118   0.465   4.127 -0.2803  3.1429  1.3668
 4654SOL     OW25420   1.767   4.402   7.300 -0.2587  0.4973 -0.0440
 4654SOL    HW125421   1.734   4.360   7.380  2.0175 -1.1337  0.0676
 4654SOL    HW225422   1.827   4.470   7.330  1.9390 -1.7132  0.6780
 4655SOL     OW25423   0.110   0.387   0.550 -0.0685 -0.1955 -0.8107
 4655SOL    HW125424   0.124   0.364   0.458 -1.4988  0.9875 -1.3091
 4655SOL    HW225425   0.195   0.422   0.576 -1.4930  0.3253  3.1240
 4656SOL     OW25426   4.001   4.586   5.616 -0.1522 -0.2049 -0.2046
 4656SOL    HW125427   3.929   4.644   5.592  0.1101  0.4895  0.7273
 4656SOL    HW225428   3.953   4.524   5.671  1.5168 -1.0105  0.3458
 4657SOL     OW25429   4.335   1.521   1.970  0.2160 -0.0200 -0.5960
 4657SOL    HW125430   4.355   1.558   1.885 -1.0284 -1.4395 -1.5010
 4657SOL    HW225431   4.358   1.590   2.033 -2.2959  0.2077  0.0459
 4658SOL     OW25432   3.541   1.842   9.057 -0.1226 -0.2724  0.2117
 4658SOL    HW125433   3.542   1.938   9.058 -0.2505 -0.2447 -1.2019
 4658SOL    HW225434   3.511   1.826   8.967  0.7974  0.7165 -0.2769
 4659SOL     OW25435   3.410   3.052   3.833 -0.1487 -0.2926  0.0255
 4659SOL    HW125436   3.402   3.127   3.892  1.3968  1.5692 -2.1528
 4659SOL    HW225437   3.372   2.977   3.880 -0.2022 -0.7129 -0.6920
 4660SOL     OW25438   2.981   3.327   6.936 -0.4804  0.0645 -0.7373
 4660SOL    HW125439   3.075   3.344   6.932 -0.9592  2.4331 -1.6840
 4660SOL    HW225440   2.951   3.369   6.856 -0.0583  1.2919 -0.2471
 4661SOL     OW25441   3.172   1.332   8.744 -0.3707 -0.4917  0.3478
 4661SOL    HW125442   3.130   1.380   8.672  0.7679  0.2586  0.1976
 4661SOL    HW225443   3.264   1.335   8.720 -0.6419  0.2770 -0.6140
 4662SOL     OW25444   1.976   3.566   1.099 -0.0615 -0.1090 -0.5109
 4662SOL    HW125445   2.057   3.533   1.061  0.2443  0.9872 -0.8043
 4662SOL    HW225446   1.925   3.489   1.075 -0.0588 -0.1443 -0.4020
 4663SOL     OW25447   1.142   2.904   7.858 -0.4332 -0.1512 -0.5078
 4663SOL    HW125448   1.186   2.860   7.930 -0.4642 -1.2940 -1.1758
 4663SOL    HW225449   1.051   2.886   7.879 -0.5691  0.5984 -0.4578
 4664SOL     OW25450   3.576   3.965   4.455 -0.3170 -0.1768  0.2447
 4664SOL    HW125451   3.550   4.057   4.455  3.3012  0.8364 -1.7950
 4664SOL    HW225452   3.608   3.945   4.368  0.3951 -1.4237  0.7945
 4665SOL     OW25453   3.992   2.385   8.315  0.5821  0.2091  0.3680
 4665SOL    HW125454   3.955   2.319   8.374  1.7389  0.9340  1.9200
 4665SOL    HW225455   4.072   2.343   8.284 -0.1325 -0.8522 -0.0066
 4666SOL     OW25456   2.667   4.197   6.845 -0.1895 -0.6628  0.7615
 4666SOL    HW125457   2.749   4.243   6.862 -0.3708 -0.2899  0.6433
 4666SOL    HW225458   2.685   4.182   6.752 -1.8955  0.5645  0.2124
 4667SOL     OW25459   4.528   1.319  11.886  0.5912  0.8240 -0.0937
 4667SOL    HW125460   4.510   1.267  11.965  2.3911  0.8781  0.3577
 4667SOL    HW225461   4.514   1.404  11.929  1.7906  0.5401  0.8710
 4668SOL     OW25462   2.483   4.429   5.260 -0.3709  0.2350  0.3087
 4668SOL    HW125463   2.510   4.494   5.326 -0.4928  1.2629 -0.6533
 4668SOL    HW225464   2.522   4.348   5.293  0.6835  0.1100 -1.2717
 4669SOL     OW25465   0.334   1.009   2.043 -0.4510  0.3145 -0.4690
 4669SOL    HW125466   0.362   1.087   1.995  2.7438 -0.6299 -0.0818
 4669SOL    HW225467   0.349   1.044   2.131 -1.0105 -0.7129  0.0402
 4670SOL     OW25468   1.523   4.204   2.598 -0.3945  0.0429  0.0080
 4670SOL    HW125469   1.458   4.271   2.580 -1.2692 -0.7413  0.2781
 4670SOL    HW225470   1.470   4.141   2.648  1.3294 -1.4037  0.0270
 4671SOL     OW25471   2.940   1.592   2.323 -0.2657 -0.2260  0.2456
 4671SOL    HW125472   2.937   1.669   2.379 -0.9405 -0.5269  0.6258
 4671SOL    HW225473   2.847   1.577   2.305 -0.6739  2.4865  0.1956
 4672SOL     OW25474   4.521   0.717   4.227  0.2932 -0.0980  0.5553
 4672SOL    HW125475   4.516   0.703   4.322 -1.8835 -2.6560  0.0496
 4672SOL    HW225476   4.473   0.643   4.190  1.2327  0.8438 -2.5512
 4673SOL     OW25477   0.581   4.099   9.927  0.5050 -0.1943 -0.0597
 4673SOL    HW125478   0.509   4.126   9.871  0.5572 -2.0061 -0.9918
 4673SOL    HW225479   0.539   4.026   9.972  0.9752  0.9806  2.2916
 4674SOL     OW25480   4.218   2.692   3.665  0.1071  0.6586 -0.0866
 4674SOL    HW125481   4.283   2.729   3.604 -2.2676 -0.6862 -3.4186
 4674SOL    HW225482   4.139   2.733   3.630 -0.5929  0.5716  1.3754
 4675SOL     OW25483   0.168   3.355   8.038  0.1696 -0.3781 -0.2737
 4675SOL    HW125484   0.127   3.441   8.029  0.9225  0.2200  2.0033
 4675SOL    HW225485   0.243   3.362   8.097  0.2882  0.8396 -0.5707
 4676SOL     OW25486   4.168   3.938   7.103 -0.5129 -0.2759  0.1741
 4676SOL    HW125487   4.260   3.952   7.080 -1.4105 -1.9678 -4.4114
 4676SOL    HW225488   4.161   3.846   7.076 -0.8893 -0.2922  0.3183
 4677SOL     OW25489   2.165   4.090   6.488  0.5435 -0.1079 -0.1549
 4677SOL    HW125490   2.166   4.180   6.454 -0.5868  0.0827  0.2980
 4677SOL    HW225491   2.111   4.102   6.566 -2.1579  2.1525 -2.3725
 4678SOL     OW25492   0.448   2.905   3.857  0.7180 -0.0939 -0.3473
 4678SOL    HW125493   0.390   2.911   3.933  0.8646  1.0096 -0.3276
 4678SOL    HW225494   0.522   2.957   3.888  1.3388 -1.5234  0.5793
 4679SOL     OW25495   4.143   4.377   7.263  0.1453  0.3299  0.0931
 4679SOL    HW125496   4.049   4.385   7.279  0.6796  0.4844  3.1026
 4679SOL    HW225497   4.157   4.308   7.327  0.0244  1.1340  0.9839
 4680SOL     OW25498   3.731   3.844  12.942 -0.5803  0.6915 -0.6503
 4680SOL    HW125499   3.798   3.797  12.993 -1.9324 -0.6499 -0.1250
 4680SOL    HW225500   3.745   3.932  12.977 -1.5755 -0.0409  1.5820
 4681SOL     OW25501   4.355   2.307   5.704 -0.0645  0.0526  0.1043
 4681SOL    HW125502   4.434   2.346   5.741  1.0832 -3.0412  0.9124
 4681SOL    HW225503   4.304   2.384   5.679  0.8035  1.0108  1.3208
 4682SOL     OW25504   1.078   3.977   0.884  0.3183  0.5889  0.0756
 4682SOL    HW125505   1.001   3.930   0.850  1.3880 -0.8020 -0.4231
 4682SOL    HW225506   1.123   4.004   0.804 -1.1975 -0.5150 -1.1614
 4683SOL     OW25507   2.640   1.198   8.098 -0.0740 -0.2024 -0.0400
 4683SOL    HW125508   2.707   1.172   8.162 -0.5335  0.3848  0.6790
 4683SOL    HW225509   2.668   1.288   8.084 -1.7785  0.3713  0.2933
 4684SOL     OW25510   3.226   0.193   2.685 -0.0819 -0.3577 -0.1836
 4684SOL    HW125511   3.175   0.225   2.612 -1.1676 -2.5774 -0.3992
 4684SOL    HW225512   3.293   0.261   2.686 -0.5908  0.1220  0.8226
 4685SOL     OW25513   3.783   1.421  14.260  0.5012 -0.3659  0.2331
 4685SOL    HW125514   3.717   1.352  14.264  0.7112 -0.5569  0.4509
 4685SOL    HW225515   3.732   1.502  14.266 -0.5579 -0.8314 -2.4839
 4686SOL     OW25516   2.376   3.988   9.349  0.3148  0.6230 -0.6336
 4686SOL    HW125517   2.388   4.004   9.255  0.1987 -0.1211 -0.7715
 4686SOL    HW225518   2.298   4.039   9.368  1.1576  1.5997  0.2272
 4687SOL     OW25519   4.157   0.732   3.304  0.2653 -0.1866 -0.0714
 4687SOL    HW125520   4.244   0.692   3.304  0.0134 -0.7187  0.2830
 4687SOL    HW225521   4.171   0.781   3.222 -1.1133  2.5203  1.3310
 4688SOL     OW25522   3.748   0.879  11.097 -0.4766 -0.1463  0.2171
 4688SOL    HW125523   3.733   0.899  11.004  1.5051 -0.3929 -0.1636
 4688SOL    HW225524   3.686   0.808  11.109  0.2284 -1.0684 -1.5286
 4689SOL     OW25525   4.156   3.698  17.603  0.0940 -0.2504  0.2569
 4689SOL    HW125526   4.151   3.788  17.572  0.1564 -0.6012 -0.7559
 4689SOL    HW225527   4.250   3.684  17.599 -0.3638 -2.7926 -1.1870
 4690SOL     OW25528   1.860   1.537   7.818  0.1217 -0.3869  0.3334
 4690SOL    HW125529   1.951   1.517   7.844  0.7164  0.5715 -1.0350
 4690SOL    HW225530   1.853   1.479   7.742  1.5871 -0.2858  0.1236
 4691SOL     OW25531   3.594   3.306   4.836  0.0128 -0.3046 -0.1070
 4691SOL    HW125532   3.603   3.370   4.766 -1.9954  0.1788  0.0749
 4691SOL    HW225533   3.581   3.226   4.787 -0.1696 -0.2910 -0.0801
 4692SOL     OW25534   2.514   2.480   0.649  0.3975 -0.0496 -0.2890
 4692SOL    HW125535   2.570   2.403   0.637  2.2481  1.4084 -0.9620
 4692SOL    HW225536   2.575   2.548   0.678 -2.2498  1.3951  1.8891
 4693SOL     OW25537   3.109   0.949  12.432  0.0490  0.1427  0.3967
 4693SOL    HW125538   3.153   0.940  12.516  1.9461  0.5455 -0.5552
 4693SOL    HW225539   3.180   0.956  12.368  1.0509 -2.0819  1.2715
 4694SOL     OW25540   0.847   2.009  16.058 -0.1447 -0.1791  0.3006
 4694SOL    HW125541   0.804   2.080  16.010  0.2281  1.1798  1.9797
 4694SOL    HW225542   0.874   1.971  15.974  0.7368  0.5606  0.2455
 4695SOL     OW25543   4.157   1.706   6.862  0.5500  0.0284 -0.1326
 4695SOL    HW125544   4.170   1.613   6.881  1.9428  0.4323  0.8573
 4695SOL    HW225545   4.219   1.734   6.794 -0.1718 -0.4552 -1.0031
 4696SOL     OW25546   0.960   4.227   5.423 -0.2764  0.1784  0.2014
 4696SOL    HW125547   1.004   4.228   5.338  1.6201 -1.2934  1.1439
 4696SOL    HW225548   1.015   4.165   5.472 -0.6277  0.6233  1.1542
 4697SOL     OW25549   2.621   3.748   9.213  0.4882 -0.0910  0.2012
 4697SOL    HW125550   2.684   3.815   9.186  1.7596 -1.4835 -0.2625
 4697SOL    HW225551   2.665   3.667   9.189  1.2605  1.0063 -2.1950
 4698SOL     OW25552   1.880   2.632  14.099 -0.7065 -0.0039  0.1124
 4698SOL    HW125553   1.944   2.610  14.167 -0.1833 -0.9722 -0.6936
 4698SOL    HW225554   1.815   2.562  14.099 -0.4973 -0.1993  0.3481
 4699SOL     OW25555   2.637   3.896   0.686  0.1938  0.5107 -0.5956
 4699SOL    HW125556   2.543   3.905   0.705 -0.3001 -1.9442 -1.8781
 4699SOL    HW225557   2.668   3.965   0.628 -1.1623  0.1681 -1.7211
 4700SOL     OW25558   0.200   1.892   2.588  0.3204  0.6340  0.2909
 4700SOL    HW125559   0.289   1.859   2.581  0.2837  0.7418 -0.8485
 4700SOL    HW225560   0.215   1.982   2.556  1.7898  0.6732  1.1523
 4701SOL     OW25561   2.049   2.624   6.035  0.0897 -0.4668  0.3664
 4701SOL    HW125562   2.038   2.531   6.015 -1.4809 -0.5614  1.7013
 4701SOL    HW225563   2.057   2.652   5.944 -1.9469 -0.5078  0.1869
 4702SOL     OW25564   1.483   4.460  13.167 -0.3485 -0.4957  0.2266
 4702SOL    HW125565   1.464   4.366  13.156 -2.1364 -0.2261  0.9680
 4702SOL    HW225566   1.573   4.462  13.135  0.5448  1.0234  2.8591
 4703SOL     OW25567   1.038   1.178   2.950 -0.2614  0.0308 -0.8825
 4703SOL    HW125568   0.963   1.124   2.975 -0.5186  1.7642  2.1085
 4703SOL    HW225569   1.019   1.181   2.857 -0.5726  0.5641 -0.8016
 4704SOL     OW25570   0.948   2.327   3.040 -0.1140 -0.3905 -0.1825
 4704SOL    HW125571   1.005   2.283   3.104 -0.4565 -0.8787 -0.2122
 4704SOL    HW225572   1.003   2.397   3.004 -0.8816  0.7899  0.9222
 4705SOL     OW25573   3.827   0.021  17.174  0.0450  0.1712  0.0460
 4705SOL    HW125574   3.826   0.103  17.124  1.0530  0.9040  1.2493
 4705SOL    HW225575   3.878   0.052  17.249  0.7890 -0.2830 -0.2792
 4706SOL     OW25576   0.853   1.959   8.681  0.0169 -0.5040 -0.3302
 4706SOL    HW125577   0.766   1.924   8.659  0.1481 -0.5355 -0.7986
 4706SOL    HW225578   0.902   1.887   8.642  0.4876 -0.1474 -0.3990
 4707SOL     OW25579   1.217   2.182   6.442  0.1457 -0.2411 -0.0056
 4707SOL    HW125580   1.292   2.158   6.387  0.1111 -0.5855  0.0964
 4707SOL    HW225581   1.216   2.106   6.499  0.4438 -0.5131 -0.3619
 4708SOL     OW25582   3.485   2.670   3.082 -0.1812  0.2847 -0.6844
 4708SOL    HW125583   3.401   2.675   3.128  0.1541 -1.3519  0.0763
 4708SOL    HW225584   3.446   2.656   2.996  0.3717  0.7445 -1.0100
 4709SOL     OW25585   1.672   0.840   6.915 -0.0123 -0.1240  0.7728
 4709SOL    HW125586   1.691   0.873   6.827 -1.3240 -1.5550 -0.0359
 4709SOL    HW225587   1.655   0.923   6.960 -1.1328  0.1058 -0.0547
 4710SOL     OW25588   2.370   4.065   1.819 -0.1014 -0.1300  0.5974
 4710SOL    HW125589   2.387   3.972   1.838  1.1432  0.3352  1.7722
 4710SOL    HW225590   2.295   4.063   1.759 -0.1930  1.3600  0.6561
 4711SOL     OW25591   2.774   1.687   6.367  0.0608  0.0920 -0.2904
 4711SOL    HW125592   2.735   1.642   6.441 -0.2430 -0.0783 -0.5554
 4711SOL    HW225593   2.852   1.633   6.360  0.4966  0.4636  1.6071
 4712SOL     OW25594   1.172   3.566   4.144  0.4938 -0.1151  0.0509
 4712SOL    HW125595   1.161   3.600   4.056 -0.2551  2.3350  1.0887
 4712SOL    HW225596   1.259   3.600   4.164 -0.4206  0.4463  3.0666
 4713SOL     OW25597   2.873   1.668   5.868  0.2762 -0.2833 -0.3207
 4713SOL    HW125598   2.908   1.602   5.928 -3.3208 -2.1281 -0.2880
 4713SOL    HW225599   2.801   1.619   5.828 -0.8215  0.4831  0.7474
 4714SOL     OW25600   1.727   0.080   4.427 -0.1178 -0.3060  0.0405
 4714SOL    HW125601   1.708   0.124   4.344  0.0757 -1.4884 -0.6266
 4714SOL    HW225602   1.702   0.147   4.491 -2.4001  0.8758 -2.1122
 4715SOL     OW25603   0.138   4.355  12.641  0.5467 -0.1072 -0.2512
 4715SOL    HW125604   0.155   4.445  12.612  0.4773  0.2806  0.8876
 4715SOL    HW225605   0.086   4.317  12.571 -0.9540 -1.5354  1.6520
 4716SOL     OW25606   1.899   0.887  12.043  0.7126 -0.1836 -0.3677
 4716SOL    HW125607   1.809   0.869  12.073 -0.5146  2.0091 -2.7466
 4716SOL    HW225608   1.879   0.885  11.950 -0.9374 -0.3397 -0.0130
 4717SOL     OW25609   3.229   1.119   2.850 -0.3030 -0.5726 -0.5029
 4717SOL    HW125610   3.273   1.195   2.812  0.2760 -0.2855  0.7165
 4717SOL    HW225611   3.165   1.095   2.784 -2.0048  0.0502  0.9272
 4718SOL     OW25612   3.021   3.180   6.597  0.0365  0.0496  0.2666
 4718SOL    HW125613   2.982   3.250   6.649 -0.7095  2.0498 -2.9411
 4718SOL    HW225614   2.970   3.185   6.515  2.8129  0.2396 -1.4455
 4719SOL     OW25615   4.475   2.083   6.602 -0.3046  0.4076  0.1310
 4719SOL    HW125616   4.440   2.052   6.685  0.3545  2.0034  1.0074
 4719SOL    HW225617   4.547   2.020   6.589  0.2322  0.8511  0.9578
 4720SOL     OW25618   0.405   2.547   3.522 -0.5650 -0.2107 -0.4962
 4720SOL    HW125619   0.373   2.550   3.612 -1.0351  1.9614 -0.7364
 4720SOL    HW225620   0.375   2.626   3.477  0.6233  0.9341  0.7214
 4721SOL     OW25621   0.462   3.308   5.256 -0.8450  0.7260 -0.4224
 4721SOL    HW125622   0.545   3.345   5.226 -0.4403  0.8485  0.8420
 4721SOL    HW225623   0.475   3.218   5.226  0.9902  0.6871  0.5210
 4722SOL     OW25624   4.075   4.655   7.233 -0.6506  0.1527 -0.2246
 4722SOL    HW125625   4.094   4.567   7.266  4.1905  0.9441 -0.9675
 4722SOL    HW225626   4.103   4.645   7.142 -0.4203  0.2928 -0.1678
 4723SOL     OW25627   3.058   2.512   6.327  0.0159 -0.0541  0.1714
 4723SOL    HW125628   2.971   2.551   6.331  0.6647  1.5394 -0.8700
 4723SOL    HW225629   3.046   2.420   6.348  0.1589 -0.1987 -0.3701
 4724SOL     OW25630   0.458   1.791   2.577  0.6419 -0.1242  0.2122
 4724SOL    HW125631   0.549   1.808   2.602  0.4025  1.3688  0.0342
 4724SOL    HW225632   0.450   1.696   2.567  1.2250 -0.4977  3.2241
 4725SOL     OW25633   3.721   4.437   9.096  0.1463 -0.7604  0.3010
 4725SOL    HW125634   3.628   4.440   9.119 -0.8896 -2.2685 -3.7676
 4725SOL    HW225635   3.744   4.491   9.171  0.3206 -0.0041 -0.2985
 4726SOL     OW25636   1.725   0.181   2.482 -0.3299 -0.0150  0.1998
 4726SOL    HW125637   1.647   0.183   2.427 -1.5662 -0.4908  1.9415
 4726SOL    HW225638   1.682   0.215   2.561 -1.4403 -2.2198  0.5446
 4727SOL     OW25639   1.490   4.115   3.120  0.2464 -0.6332 -0.3005
 4727SOL    HW125640   1.557   4.058   3.081 -0.8008 -0.8028 -1.8711
 4727SOL    HW225641   1.526   4.203   3.107  0.4320 -0.5094  1.1203
 4728SOL     OW25642   0.936   2.235   6.370 -0.3753  0.3079  0.5241
 4728SOL    HW125643   1.027   2.206   6.366 -0.4851  0.2779 -1.5141
 4728SOL    HW225644   0.882   2.163   6.337 -1.3963  1.1312  0.3805
 4729SOL     OW25645   4.356   3.296   6.417 -0.2556  0.3703  0.2352
 4729SOL    HW125646   4.268   3.289   6.453 -0.7142 -2.0175 -1.3707
 4729SOL    HW225647   4.408   3.340   6.485 -2.1182  0.9009  1.3330
 4730SOL     OW25648   0.708   2.303   7.299  0.4599  0.0576  0.0201
 4730SOL    HW125649   0.631   2.306   7.242 -0.6277  0.6036  1.5335
 4730SOL    HW225650   0.774   2.352   7.249  0.4176 -0.8062 -0.8976
 4731SOL     OW25651   0.840   0.004  11.419 -0.2135  0.4013 -0.0029
 4731SOL    HW125652   0.910   0.057  11.455  0.4628  0.2686 -1.1261
 4731SOL    HW225653   0.891   4.680  11.355 -0.1769  1.4551 -0.7808
 4732SOL     OW25654   3.566   0.096   9.417 -0.3932 -0.0864 -0.7282
 4732SOL    HW125655   3.529   0.180   9.443 -0.0927  0.0140 -0.6292
 4732SOL    HW225656   3.585   0.051   9.500  0.0959  0.1739 -0.7017
 4733SOL     OW25657   1.744   2.054   6.814 -0.4189  0.1660 -0.3322
 4733SOL    HW125658   1.696   2.135   6.832  0.3619  1.0441 -2.1496
 4733SOL    HW225659   1.737   2.009   6.898  1.5820  0.4664 -0.0147
 4734SOL     OW25660   2.471   2.686  11.687 -0.1610  0.0765  0.0573
 4734SOL    HW125661   2.499   2.630  11.614  1.7296  1.9616 -0.6630
 4734SOL    HW225662   2.415   2.620  11.729 -0.6752  0.0715 -0.6509
 4735SOL     OW25663   0.556   1.754   0.153 -0.7425 -0.3147 -0.1547
 4735SOL    HW125664   0.497   1.688   0.117  1.4536 -0.9972 -2.4978
 4735SOL    HW225665   0.517   1.762   0.240  2.5851 -0.7166  1.3537
 4736SOL     OW25666   3.676   3.086   0.267 -0.5338  0.2739  0.0663
 4736SOL    HW125667   3.704   3.177   0.255  2.1876 -0.5271  0.4361
 4736SOL    HW225668   3.699   3.053   0.180 -0.1614 -0.0237  0.2838
 4737SOL     OW25669   0.143   1.257  11.778 -0.1374 -0.8206 -0.8364
 4737SOL    HW125670   0.161   1.174  11.735  0.4763 -0.0741 -2.0029
 4737SOL    HW225671   0.081   1.240  11.849 -0.0466  0.4870 -0.4435
 4738SOL     OW25672   3.342   4.625   0.988  0.2803  0.5101 -0.2026
 4738SOL    HW125673   3.260   4.601   0.945 -1.2523 -1.3959  3.7740
 4738SOL    HW225674   3.384   4.682   0.924 -0.5490  3.9952  2.3543
 4739SOL     OW25675   3.886   1.661   4.003  0.0322 -0.1346  0.1616
 4739SOL    HW125676   3.868   1.744   4.048  2.1440  1.3141 -1.6727
 4739SOL    HW225677   3.795   1.644   3.977 -0.6547  1.4278  1.5617
 4740SOL     OW25678   3.749   1.454   7.777  0.1762  0.7732 -0.3288
 4740SOL    HW125679   3.776   1.470   7.867 -1.3223 -1.9529  0.6024
 4740SOL    HW225680   3.699   1.533   7.756  1.4094  1.4686 -0.6396
 4741SOL     OW25681   4.626   2.895   4.071  0.1430  0.6191  0.0067
 4741SOL    HW125682   4.565   2.846   4.127  1.6059  0.9697  1.9210
 4741SOL    HW225683   4.654   2.965   4.130  0.0913  0.3738  0.3220
 4742SOL     OW25684   1.532   3.504   2.229  0.0041  0.0215 -0.1031
 4742SOL    HW125685   1.485   3.506   2.145 -2.4364 -1.3380  1.2349
 4742SOL    HW225686   1.549   3.597   2.243  0.8159 -0.2128  0.4221
 4743SOL     OW25687   1.445   0.634   2.505  0.3340  0.0560 -0.4042
 4743SOL    HW125688   1.357   0.602   2.525 -0.6048  2.5464 -0.4735
 4743SOL    HW225689   1.434   0.723   2.539 -1.2204 -1.0740  2.0466
 4744SOL     OW25690   2.509   3.781   4.716  0.1939  0.1391 -0.0994
 4744SOL    HW125691   2.526   3.850   4.652 -0.5455 -0.2610 -0.7221
 4744SOL    HW225692   2.498   3.700   4.667  0.9027  0.5663 -0.9586
 4745SOL     OW25693   1.465   4.031   0.835 -0.1704  0.3245 -0.2412
 4745SOL    HW125694   1.426   3.948   0.811 -1.2564  0.9441 -0.5891
 4745SOL    HW225695   1.463   4.082   0.754 -0.5176  0.0671 -0.3935
 4746SOL     OW25696   0.552   1.922   2.214  0.4547  0.1337  0.3827
 4746SOL    HW125697   0.605   1.843   2.223  1.5241  1.0375  1.9785
 4746SOL    HW225698   0.526   1.926   2.122 -1.2676  1.7556  0.9371
 4747SOL     OW25699   3.218   1.905   4.086  0.3182  0.2565 -0.6970
 4747SOL    HW125700   3.312   1.897   4.099  0.2783  0.9531  0.0614
 4747SOL    HW225701   3.182   1.817   4.087 -1.0015  0.7890 -0.3449
 4748SOL     OW25702   2.942   2.731  14.379  0.0950  0.6541 -0.5919
 4748SOL    HW125703   2.987   2.794  14.435 -0.3381 -3.4674  4.3812
 4748SOL    HW225704   2.851   2.759  14.368 -0.3877 -1.1790 -1.3527
 4749SOL     OW25705   0.295   3.304   1.921  0.5361  0.0503 -0.1976
 4749SOL    HW125706   0.241   3.369   1.967 -0.5839  1.2065 -3.1829
 4749SOL    HW225707   0.340   3.269   1.998 -2.7488 -0.7881  1.3176
 4750SOL     OW25708   3.322   2.148   7.207 -0.1342 -0.2756 -0.2922
 4750SOL    HW125709   3.344   2.069   7.158  1.3606  0.5252 -0.9305
 4750SOL    HW225710   3.348   2.131   7.298 -0.5324 -2.3261 -0.5637
 4751SOL     OW25711   4.458   2.639   1.876 -0.1810  0.3325  0.5469
 4751SOL    HW125712   4.520   2.712   1.874  0.5768 -0.3702 -1.5626
 4751SOL    HW225713   4.437   2.629   1.783  2.0016  1.0466 -0.0446
 4752SOL     OW25714   3.645   2.607   3.475  0.1331 -0.6420 -0.1517
 4752SOL    HW125715   3.573   2.666   3.453 -1.2408 -1.9145  0.9488
 4752SOL    HW225716   3.676   2.662   3.547 -0.2096 -2.0109  1.0393
 4753SOL     OW25717   3.281   4.203   3.905 -0.2244  0.2317 -0.0242
 4753SOL    HW125718   3.374   4.215   3.920  0.4532 -2.1033 -2.3275
 4753SOL    HW225719   3.253   4.174   3.992  0.6719 -0.2109  0.1104
 4754SOL     OW25720   1.681   0.050  11.873  0.0666 -0.3510 -0.0786
 4754SOL    HW125721   1.602   0.016  11.831 -0.2878 -0.4536  0.6537
 4754SOL    HW225722   1.687   0.142  11.850 -1.6817 -0.1507  0.2845
 4755SOL     OW25723   3.062   1.744  14.211 -0.3431  0.5543 -0.5352
 4755SOL    HW125724   3.028   1.660  14.181  1.9072 -0.0867 -1.3003
 4755SOL    HW225725   2.985   1.769  14.263 -0.7889 -2.3233  0.2108
 4756SOL     OW25726   1.611   4.352   0.097 -0.3543 -0.1389 -0.4007
 4756SOL    HW125727   1.625   4.259   0.080 -0.5700  0.3185 -3.0984
 4756SOL    HW225728   1.516   4.369   0.094 -0.0744  1.5192 -0.1114
 4757SOL     OW25729   2.262   3.193   2.277  0.5676 -0.6219  0.0842
 4757SOL    HW125730   2.251   3.176   2.183 -0.0116 -1.0856  0.2393
 4757SOL    HW225731   2.293   3.283   2.274 -2.7801  0.4574 -3.3255
 4758SOL     OW25732   3.010   3.072  11.451 -0.4206 -0.4376 -0.3137
 4758SOL    HW125733   3.059   3.054  11.371  2.4573  2.5201  0.7998
 4758SOL    HW225734   3.041   3.162  11.462  1.2296 -1.1376  0.8132
 4759SOL     OW25735   0.116   3.962  10.695 -0.2222 -0.0475  0.4339
 4759SOL    HW125736   0.025   3.952  10.724  0.3758 -2.2498  1.5943
 4759SOL    HW225737   0.106   3.934  10.604  1.4454  2.5891 -0.5263
 4760SOL     OW25738   3.152   2.537   7.963 -0.0334  0.0842 -0.2831
 4760SOL    HW125739   3.085   2.495   8.018  0.0685  0.5814  0.2184
 4760SOL    HW225740   3.120   2.626   7.967 -1.5906 -0.4984  0.1064
 4761SOL     OW25741   0.179   3.795   6.997 -0.2436  0.2067  0.4943
 4761SOL    HW125742   0.255   3.823   7.048  0.6592 -2.6488  0.7258
 4761SOL    HW225743   0.221   3.770   6.915  1.1281 -1.7745  1.8055
 4762SOL     OW25744   3.393   3.247   1.643 -0.4895 -0.2686  0.4286
 4762SOL    HW125745   3.396   3.286   1.730 -1.2145 -1.5866  1.0472
 4762SOL    HW225746   3.408   3.158   1.675  2.8467  0.0374 -0.2631
 4763SOL     OW25747   0.828   0.455   8.817  0.5282 -0.3496 -0.2731
 4763SOL    HW125748   0.852   0.547   8.818  0.1398 -0.2813  2.9281
 4763SOL    HW225749   0.828   0.432   8.724 -1.3126 -1.2347 -0.0605
 4764SOL     OW25750   1.589   0.118   7.719  0.1260  0.3514 -0.0661
 4764SOL    HW125751   1.603   0.125   7.624  0.8017  0.5305  0.0545
 4764SOL    HW225752   1.571   0.024   7.726  0.0766  0.2934 -0.9153
 4765SOL     OW25753   3.128   3.828   7.626 -0.1757  0.2065  0.4929
 4765SOL    HW125754   3.159   3.892   7.562 -0.9372 -0.5559 -0.6345
 4765SOL    HW225755   3.037   3.855   7.641 -0.3907 -0.6214  0.6862
 4766SOL     OW25756   0.837   4.681   1.958  0.3743 -0.1389  0.3677
 4766SOL    HW125757   0.747   4.679   1.926  0.5429 -0.9292 -0.0579
 4766SOL    HW225758   0.884   0.007   1.892  0.4269 -0.4000  0.2060
 4767SOL     OW25759   3.138   3.955   2.800 -0.3226  0.1363  0.0909
 4767SOL    HW125760   3.143   4.017   2.873 -0.8409 -1.0164  1.1036
 4767SOL    HW225761   3.091   4.003   2.733  0.9544  3.6171  1.6953
 4768SOL     OW25762   2.510   3.793   2.086  0.1558 -0.1751 -0.0852
 4768SOL    HW125763   2.427   3.773   2.042 -0.5306  0.2489  1.0063
 4768SOL    HW225764   2.543   3.847   2.015 -0.2701  4.4232  3.2211
 4769SOL     OW25765   2.815   3.724   8.321  0.1320 -0.7801  0.3626
 4769SOL    HW125766   2.750   3.653   8.317  0.2737 -0.9086  0.3542
 4769SOL    HW225767   2.756   3.799   8.315  0.3992 -0.5244  0.9520
 4770SOL     OW25768   0.595   4.383   7.829  0.4172  0.0695  0.0196
 4770SOL    HW125769   0.643   4.363   7.909 -2.4801 -1.7706  1.2770
 4770SOL    HW225770   0.504   4.366   7.852  0.2653  2.0969  0.9021
 4771SOL     OW25771   1.013   0.240   3.520 -0.3834 -0.1264 -0.5336
 4771SOL    HW125772   0.960   0.313   3.551 -1.1083 -0.6480 -0.5392
 4771SOL    HW225773   0.980   0.164   3.567 -0.5425 -0.6698 -1.5160
 4772SOL     OW25774   3.442   0.969   1.378  0.1826  0.0437  0.0960
 4772SOL    HW125775   3.363   0.974   1.432  0.7272  0.9229  0.7974
 4772SOL    HW225776   3.403   0.995   1.294 -1.0088 -0.0547  0.6223
 4773SOL     OW25777   2.040   2.507   3.209  0.3103  1.2590 -0.2987
 4773SOL    HW125778   1.982   2.577   3.239  0.2267  0.7355  0.7227
 4773SOL    HW225779   1.983   2.434   3.231  1.2002  0.5618 -0.3247
 4774SOL     OW25780   2.334   3.107   6.609 -0.2311  0.1657 -0.0362
 4774SOL    HW125781   2.327   3.107   6.704  0.2882 -2.4346 -0.0121
 4774SOL    HW225782   2.301   3.194   6.586 -1.2468 -1.1546 -3.6762
 4775SOL     OW25783   0.012   3.372  13.346  0.3573 -0.4344 -0.7066
 4775SOL    HW125784   4.660   3.344  13.297 -1.0888  1.4986  0.4598
 4775SOL    HW225785   4.701   3.361  13.434  1.1594 -0.4586 -0.3825
 4776SOL     OW25786   4.153   3.552   3.738  0.5224 -0.5916  0.0166
 4776SOL    HW125787   4.176   3.594   3.821  1.0263  0.2414 -0.5520
 4776SOL    HW225788   4.113   3.469   3.763  1.1365 -0.5373  1.1845
 4777SOL     OW25789   2.702   0.959  14.179  0.1158 -0.1665 -0.1627
 4777SOL    HW125790   2.722   0.946  14.086  0.3031  2.2306 -0.4573
 4777SOL    HW225791   2.609   0.941  14.190  0.7176 -2.5766  1.0593
 4778SOL     OW25792   1.706   4.077   1.984  0.0799 -0.0803  0.1589
 4778SOL    HW125793   1.782   4.073   2.042  0.0606 -0.3821  0.1654
 4778SOL    HW225794   1.669   3.989   1.980 -0.2506  0.1815 -2.5892
 4779SOL     OW25795   0.830   3.424   7.808  0.0273 -0.0301  0.3008
 4779SOL    HW125796   0.808   3.402   7.717 -1.0086  1.2268  0.2471
 4779SOL    HW225797   0.920   3.456   7.799 -0.3873  1.1046  0.1090
 4780SOL     OW25798   4.323   1.780   8.275  0.0193  0.3746 -0.1233
 4780SOL    HW125799   4.318   1.807   8.367  0.3372 -0.1809  0.0649
 4780SOL    HW225800   4.356   1.690   8.280 -1.5582 -0.1218  1.3288
 4781SOL     OW25801   4.479   0.684   6.096 -0.2476 -0.1985  0.4137
 4781SOL    HW125802   4.447   0.637   6.019  1.1340 -0.0534 -0.2604
 4781SOL    HW225803   4.568   0.648   6.101  1.2031  3.2727 -0.3599
 4782SOL     OW25804   0.606   4.722   1.802 -0.3722  0.4050 -0.1066
 4782SOL    HW125805   0.569   0.061   1.864 -2.1104 -1.8260  1.1198
 4782SOL    HW225806   0.578   0.038   1.719  0.6379 -1.0946 -1.1715
 4783SOL     OW25807   0.533   0.899   1.728 -0.4973 -0.1612  0.0967
 4783SOL    HW125808   0.546   0.902   1.823 -0.1168 -1.3640  0.0845
 4783SOL    HW225809   0.447   0.859   1.718 -0.0509 -0.6462 -1.8379
 4784SOL     OW25810   3.572   4.017   7.848  0.6349  0.4122  0.2636
 4784SOL    HW125811   3.656   4.055   7.824  1.5680 -1.5470  0.4388
 4784SOL    HW225812   3.594   3.954   7.917  1.7662  0.5527  0.0174
 4785SOL     OW25813   4.156   4.268   8.759  0.2284 -0.1259 -0.2526
 4785SOL    HW125814   4.085   4.307   8.708  1.8644  0.9895 -1.6522
 4785SOL    HW225815   4.107   4.196   8.799  0.5433  0.0488  0.4394
 4786SOL     OW25816   0.858   3.583   2.233  0.1037 -0.1384  0.1285
 4786SOL    HW125817   0.839   3.561   2.142 -0.6342 -0.3316  0.3353
 4786SOL    HW225818   0.901   3.500   2.253 -1.4027 -0.0398  3.7934
 4787SOL     OW25819   3.892   2.145  15.974 -0.2289 -0.7200  0.4634
 4787SOL    HW125820   3.903   2.057  16.009  0.8439 -0.6564  0.2805
 4787SOL    HW225821   3.825   2.130  15.907  0.5610 -0.6367 -0.3460
 4788SOL     OW25822   3.291   1.807   8.323 -0.1348  0.0557  0.6529
 4788SOL    HW125823   3.382   1.777   8.325  0.2793  1.1785 -1.0537
 4788SOL    HW225824   3.301   1.885   8.268 -1.5136 -0.1138  0.1640
 4789SOL     OW25825   3.746   0.521   4.987 -0.5722 -0.0774  0.0031
 4789SOL    HW125826   3.731   0.427   4.988  0.1702 -0.2086 -0.8233
 4789SOL    HW225827   3.675   0.541   4.927 -1.1278 -1.3216  0.2513
 4790SOL     OW25828   3.330   2.393   6.642 -0.1868  0.1122 -0.0462
 4790SOL    HW125829   3.264   2.404   6.711  0.1320 -1.6605  0.5293
 4790SOL    HW225830   3.309   2.469   6.587  1.4848  0.3870 -0.2814
 4791SOL     OW25831   1.436   2.835   5.061 -0.6194 -0.8983  0.0188
 4791SOL    HW125832   1.523   2.847   5.099 -1.4443  2.2829  0.8957
 4791SOL    HW225833   1.437   2.899   4.990 -1.6053 -1.0544 -0.1366
 4792SOL     OW25834   0.608   3.615  10.517 -0.1241  0.4391 -0.2632
 4792SOL    HW125835   0.579   3.701  10.487  2.4671  1.7546  1.1164
 4792SOL    HW225836   0.696   3.609  10.480 -0.1633  1.2360 -0.4818
 4793SOL     OW25837   4.087   2.805  11.428  0.0554 -0.6670  0.0066
 4793SOL    HW125838   4.173   2.824  11.389 -0.1218  2.2329  1.0241
 4793SOL    HW225839   4.064   2.726  11.379 -0.7538 -1.8211  2.2434
 4794SOL     OW25840   3.931   0.954  10.266  0.4599 -0.4383  0.0388
 4794SOL    HW125841   3.896   1.020  10.327  1.5131  1.0021 -0.9377
 4794SOL    HW225842   3.979   1.019  10.215  0.7805 -2.6733 -2.4778
 4795SOL     OW25843   3.944   3.303   5.871 -0.1171  0.4459 -0.3090
 4795SOL    HW125844   3.895   3.226   5.902 -0.2110  1.6519  2.5309
 4795SOL    HW225845   4.036   3.275   5.870 -0.1695  0.1281  3.2058
 4796SOL     OW25846   0.849   1.253   5.720  0.3867  0.2214 -0.1043
 4796SOL    HW125847   0.930   1.304   5.723  0.8643 -0.5890  0.5865
 4796SOL    HW225848   0.892   1.168   5.715 -0.3685 -0.1387 -0.5686
 4797SOL     OW25849   0.578   0.033  15.081  0.8319 -0.2089  0.1592
 4797SOL    HW125850   0.519   0.021  15.006  1.3085 -0.9647 -0.0801
 4797SOL    HW225851   0.653   0.062  15.029 -0.1721 -0.7063 -1.5643
 4798SOL     OW25852   4.273   0.177  14.035 -0.3350 -0.3669  0.0438
 4798SOL    HW125853   4.268   0.090  13.996  1.4464  0.3878 -1.8742
 4798SOL    HW225854   4.281   0.231  13.956 -1.9160 -0.3378 -0.0840
 4799SOL     OW25855   0.754   1.782  11.967  0.0426 -0.1389  0.0557
 4799SOL    HW125856   0.686   1.715  11.971  0.1464 -0.3412 -1.6624
 4799SOL    HW225857   0.742   1.794  11.873 -1.0542  2.7413  0.5571
 4800SOL     OW25858   1.330   3.740   7.857  0.4741  0.2090  0.3236
 4800SOL    HW125859   1.270   3.680   7.902  2.5915 -0.8260  1.7579
 4800SOL    HW225860   1.266   3.810   7.844  0.7428  0.2711 -0.7053
 4801SOL     OW25861   1.249   0.062   2.527  0.7441  0.9364 -0.0184
 4801SOL    HW125862   1.216   4.702   2.498 -0.6950  0.9519  1.5899
 4801SOL    HW225863   1.283   0.094   2.443  0.8549 -1.2138 -0.7838
 4802SOL     OW25864   1.769   1.954   6.085 -0.6843  0.5068 -0.2440
 4802SOL    HW125865   1.853   1.910   6.097 -1.4316 -1.1508 -1.0250
 4802SOL    HW225866   1.794   2.042   6.111 -0.2735  0.3910 -0.2502
 4803SOL     OW25867   2.228   0.939   6.385 -0.1656 -0.4203  0.4330
 4803SOL    HW125868   2.254   0.912   6.473  0.1979  0.9625  0.7596
 4803SOL    HW225869   2.136   0.913   6.388 -0.4716  0.6214 -0.0450
 4804SOL     OW25870   2.465   2.957  14.509  0.5823 -0.2927  0.1292
 4804SOL    HW125871   2.454   3.050  14.492 -0.0602 -0.3239  0.3865
 4804SOL    HW225872   2.553   2.955  14.547  0.4368 -0.7694  0.4529
 4805SOL     OW25873   4.319   1.175   4.938  0.0450 -0.2564  0.0371
 4805SOL    HW125874   4.227   1.147   4.945  0.6847 -2.0017  1.4702
 4805SOL    HW225875   4.370   1.094   4.935  0.0822 -0.0968 -4.0635
 4806SOL     OW25876   0.797   1.761   5.201 -0.6511  0.3011  0.2033
 4806SOL    HW125877   0.853   1.836   5.180  1.5930 -1.1804  0.9360
 4806SOL    HW225878   0.852   1.714   5.265  0.7757  1.7373  0.0426
 4807SOL     OW25879   4.412   4.038  17.544 -0.2057 -0.6224  0.1305
 4807SOL    HW125880   4.383   4.120  17.585  1.8377  0.4646 -0.6017
 4807SOL    HW225881   4.327   3.996  17.528  0.3575 -1.5667 -0.3389
 4808SOL     OW25882   0.213   1.914   5.214 -0.1248 -0.1538  0.0605
 4808SOL    HW125883   0.307   1.929   5.221 -0.0568 -0.3313 -0.4555
 4808SOL    HW225884   0.190   1.867   5.294 -1.0967  1.5720  0.7897
 4809SOL     OW25885   0.548   4.511   3.109  0.2823 -0.2793 -0.2474
 4809SOL    HW125886   0.574   4.603   3.116  0.9700 -0.8214  3.9446
 4809SOL    HW225887   0.516   4.511   3.019  0.1413  0.2399 -0.1961
 4810SOL     OW25888   1.094   1.075   8.519 -0.1165 -0.0838  0.2055
 4810SOL    HW125889   1.024   1.105   8.462 -1.3745 -0.1616  1.7189
 4810SOL    HW225890   1.041   1.043   8.592 -0.2083  1.6822  0.9050
 4811SOL     OW25891   0.433   4.402   2.520 -0.2326  0.2639 -0.2674
 4811SOL    HW125892   0.356   4.409   2.464  0.3716 -0.7282 -1.2170
 4811SOL    HW225893   0.392   4.386   2.605 -0.7073 -0.2129 -0.5839
 4812SOL     OW25894   1.323   4.283   8.888  0.0824  1.1617 -0.3224
 4812SOL    HW125895   1.264   4.351   8.853 -1.7920 -1.9413 -3.1793
 4812SOL    HW225896   1.292   4.289   8.978 -0.5446  1.4360 -0.5509
 4813SOL     OW25897   2.439   4.221   3.077  0.5608  0.4440 -0.5626
 4813SOL    HW125898   2.519   4.267   3.103  0.0743  0.5467  0.7654
 4813SOL    HW225899   2.417   4.275   3.001 -0.8149  0.6130 -0.0414
 4814SOL     OW25900   0.149   4.306   4.261  0.0509  0.3191  0.3349
 4814SOL    HW125901   0.244   4.318   4.249  0.3027 -3.8023 -2.0523
 4814SOL    HW225902   0.106   4.336   4.181  1.7412  1.1652 -0.2499
 4815SOL     OW25903   1.097   4.556   2.566 -0.2004 -0.1144  0.3939
 4815SOL    HW125904   1.046   4.634   2.586  1.8726  1.3833 -0.1370
 4815SOL    HW225905   1.044   4.513   2.499 -0.8385  1.8322 -0.3230
 4816SOL     OW25906   0.684   1.183   1.845 -0.4294 -0.3360 -0.1473
 4816SOL    HW125907   0.724   1.144   1.766 -0.4291  1.7916 -1.1826
 4816SOL    HW225908   0.597   1.194   1.806 -0.4608 -1.9246 -0.5465
 4817SOL     OW25909   0.312   0.389  16.732  0.1843  0.1312 -0.0959
 4817SOL    HW125910   0.378   0.348  16.676  0.7212 -1.6149  1.8091
 4817SOL    HW225911   0.328   0.344  16.815 -0.3955 -1.3032 -0.7516
 4818SOL     OW25912   2.936   1.665   1.048 -0.4937 -0.2228  0.5201
 4818SOL    HW125913   2.964   1.750   1.084 -1.3814 -0.5804  2.0578
 4818SOL    HW225914   2.874   1.692   0.981  1.1517 -2.3622 -1.8613
 4819SOL     OW25915   4.681   0.316  10.157 -0.1284 -0.3479  0.0876
 4819SOL    HW125916   4.661   0.292  10.248 -0.2862 -0.7261 -0.0453
 4819SOL    HW225917   0.006   0.396  10.173 -1.7160  0.6587 -0.1285
 4820SOL     OW25918   1.261   3.378  14.685 -0.2229  0.2732  0.0513
 4820SOL    HW125919   1.322   3.378  14.611  0.9450 -0.1140  1.0172
 4820SOL    HW225920   1.192   3.322  14.650  0.5770  0.1318 -1.3061
 4821SOL     OW25921   3.901   3.881   7.092  0.2489 -0.0215 -0.3500
 4821SOL    HW125922   3.844   3.957   7.085  2.3483  1.5805 -0.0940
 4821SOL    HW225923   3.990   3.914   7.101 -0.4321  2.5758 -3.3805
 4822SOL     OW25924   3.017   1.966   3.902  0.1971 -0.6588 -0.6948
 4822SOL    HW125925   2.987   2.051   3.934  1.0014 -0.1149 -1.3524
 4822SOL    HW225926   3.082   1.939   3.967 -0.0895  1.7714  0.6083
 4823SOL     OW25927   2.899   0.012  10.569  0.0950 -0.1074  0.1172
 4823SOL    HW125928   2.977   4.702  10.526 -1.2373 -0.1847 -2.2323
 4823SOL    HW225929   2.934   0.005  10.657  1.4635  0.8353 -0.3482
 4824SOL     OW25930   4.223   1.184   3.416 -0.2687 -0.6588  0.1557
 4824SOL    HW125931   4.307   1.213   3.453  0.0475  0.2911 -1.2935
 4824SOL    HW225932   4.171   1.246   3.468 -0.1394 -0.0339 -0.4634
 4825SOL     OW25933   0.480   0.191   6.239 -0.3536 -0.0294  0.1944
 4825SOL    HW125934   0.470   0.096   6.237 -0.7216  0.0266 -0.9831
 4825SOL    HW225935   0.547   0.201   6.171 -0.7818 -0.5649 -0.3094
 4826SOL     OW25936   0.661   3.132   4.776 -0.1364  0.1399  0.1312
 4826SOL    HW125937   0.603   3.188   4.826  0.4612  1.5543 -0.7726
 4826SOL    HW225938   0.599   3.092   4.714  1.9431  0.2532 -2.0329
 4827SOL     OW25939   3.552   3.855   4.847 -0.6980  0.1595 -0.2527
 4827SOL    HW125940   3.481   3.819   4.901  1.1634 -1.4584  1.1151
 4827SOL    HW225941   3.543   3.802   4.767  0.8725  0.8999 -0.9225
 4828SOL     OW25942   2.403   0.680   2.979 -0.0237 -0.4029 -0.4995
 4828SOL    HW125943   2.484   0.642   3.013  0.0586  0.8079  0.6301
 4828SOL    HW225944   2.356   0.607   2.938  1.6088 -1.1495 -1.0470
 4829SOL     OW25945   2.154   2.078   7.585  0.0536 -0.1043 -0.1803
 4829SOL    HW125946   2.197   2.095   7.501  1.8137 -0.2637  0.6847
 4829SOL    HW225947   2.083   2.015   7.571  0.1705 -0.9548  3.0133
 4830SOL     OW25948   0.869   1.320   4.270  0.1493 -0.0838 -0.4799
 4830SOL    HW125949   0.784   1.309   4.313  0.8682 -2.2104  0.4180
 4830SOL    HW225950   0.906   1.397   4.313  0.5318 -0.2272 -0.5514
 4831SOL     OW25951   4.688   3.948   3.306 -0.9618  0.2298  0.2846
 4831SOL    HW125952   4.652   3.897   3.379 -2.3847  2.7477  1.3137
 4831SOL    HW225953   0.042   3.894   3.296 -1.6210 -0.9560  1.5453
 4832SOL     OW25954   1.700   1.147   6.936  0.1291 -0.7218  0.2945
 4832SOL    HW125955   1.773   1.153   6.875 -0.0625 -0.7324  0.0626
 4832SOL    HW225956   1.659   1.233   6.936 -2.3290 -1.8882 -1.0325
 4833SOL     OW25957   3.479   1.678   4.859 -0.4627  0.1995  0.2794
 4833SOL    HW125958   3.463   1.711   4.771 -0.4654  0.8883  0.5401
 4833SOL    HW225959   3.486   1.583   4.846 -1.2308 -0.0926  1.9869
 4834SOL     OW25960   1.288   1.176   4.009 -0.4770 -0.1690 -0.2165
 4834SOL    HW125961   1.192   1.177   4.011 -0.4087  2.3942  0.8501
 4834SOL    HW225962   1.291   1.247   3.945  1.4917  0.0046  0.0590
 4835SOL     OW25963   0.198   0.603  16.614 -0.2165  0.3323 -0.2524
 4835SOL    HW125964   0.256   0.613  16.538  1.5376 -0.8888  0.9338
 4835SOL    HW225965   0.241   0.540  16.672 -0.7003  0.9569  0.7738
 4836SOL     OW25966   0.281   0.208  15.956 -0.2478 -0.9902  0.4936
 4836SOL    HW125967   0.260   0.280  15.897 -0.4878 -1.8535 -0.4625
 4836SOL    HW225968   0.319   0.138  15.904  0.2369  1.2786 -2.1954
 4837SOL     OW25969   3.099   1.031   7.271 -0.4185 -0.1505  0.4472
 4837SOL    HW125970   3.105   0.984   7.187 -1.5945  1.5666 -0.5786
 4837SOL    HW225971   3.193   1.049   7.279 -0.6745  1.3926  0.0208
 4838SOL     OW25972   1.946   3.314   2.935 -0.5673  0.4158  0.0846
 4838SOL    HW125973   1.913   3.396   2.972  1.3919  1.6873 -0.9629
 4838SOL    HW225974   1.942   3.259   3.013  0.3279  1.2754  0.7308
 4839SOL     OW25975   4.695   0.699  14.178  0.1087  0.0360  0.0548
 4839SOL    HW125976   4.658   0.781  14.144 -1.4353 -1.2704 -1.4276
 4839SOL    HW225977   4.610   0.654  14.185 -0.9362  2.1374  0.9187
 4840SOL     OW25978   3.491   2.872   2.407 -0.2921 -0.2477 -0.3657
 4840SOL    HW125979   3.422   2.808   2.423 -1.4472  1.2889  0.8705
 4840SOL    HW225980   3.464   2.947   2.460  0.0837 -0.6950  0.4604
 4841SOL     OW25981   1.535   1.622   3.419  0.2759  0.1327  0.1145
 4841SOL    HW125982   1.588   1.701   3.421  0.2951  0.1000  0.9619
 4841SOL    HW225983   1.474   1.653   3.352  0.2360 -0.6568 -0.2279
 4842SOL     OW25984   1.386   3.974   4.673  0.2983  0.0788  0.7039
 4842SOL    HW125985   1.455   3.912   4.697  0.0938 -0.1314  0.7377
 4842SOL    HW225986   1.350   4.001   4.757 -0.3026 -2.6442  1.3087
 4843SOL     OW25987   3.121   3.645  16.548 -0.4858 -0.1161 -0.0105
 4843SOL    HW125988   3.147   3.591  16.474  0.6902  0.4938 -0.0330
 4843SOL    HW225989   3.100   3.726  16.503  1.8242  0.4660 -0.0599
 4844SOL     OW25990   3.553   3.457   0.162  0.0046 -0.0132 -0.1191
 4844SOL    HW125991   3.506   3.448   0.079  1.7000  0.8118 -1.1890
 4844SOL    HW225992   3.524   3.538   0.203  1.5539  0.4178  0.1470
 4845SOL     OW25993   1.290   4.103   7.758 -0.0655  0.0486  0.6531
 4845SOL    HW125994   1.286   4.089   7.852  1.6162 -1.2811  0.5264
 4845SOL    HW225995   1.376   4.144   7.753  0.5103 -1.0670  1.5007
 4846SOL     OW25996   0.847   2.673  10.458 -0.8172 -0.3729  0.2404
 4846SOL    HW125997   0.807   2.758  10.444  1.0994  0.5169  0.1974
 4846SOL    HW225998   0.817   2.652  10.547  0.3055  0.6298  0.8506
 4847SOL     OW25999   4.710   4.678   5.079  0.4151 -0.2441 -0.3207
 4847SOL    HW126000   0.006   0.011   5.006  0.6251 -0.3285 -0.3264
 4847SOL    HW226001   4.625   4.716   5.101  1.4755  2.6518 -1.2675
 4848SOL     OW26002   0.145   1.263   1.825 -0.0765 -0.2111 -0.0144
 4848SOL    HW126003   0.075   1.286   1.764  1.2255 -2.1299 -2.2560
 4848SOL    HW226004   0.122   1.318   1.901 -3.0488 -1.9598  0.3417
 4849SOL     OW26005   0.246   4.210   0.976  0.1752 -0.0317 -0.3894
 4849SOL    HW126006   0.154   4.194   0.953  0.2284  0.2475 -0.7727
 4849SOL    HW226007   0.238   4.226   1.070 -2.1065 -2.5134 -0.1468
 4850SOL     OW26008   1.720   3.974  12.541  0.3036  0.5415 -0.2915
 4850SOL    HW126009   1.787   3.983  12.474  1.1073  0.1498  0.4615
 4850SOL    HW226010   1.777   3.969  12.617  0.3102 -2.3526 -0.4635
 4851SOL     OW26011   1.339   0.513   7.693  0.0064 -0.1837  0.1007
 4851SOL    HW126012   1.348   0.432   7.742 -1.6637 -0.3586  0.1345
 4851SOL    HW226013   1.405   0.516   7.624  0.1417  1.3842  0.3004
 4852SOL     OW26014   1.118   1.481   4.940  0.2239 -0.5186  0.2773
 4852SOL    HW126015   1.028   1.459   4.918 -0.1202  1.2746 -0.0788
 4852SOL    HW226016   1.119   1.474   5.035 -1.0858 -1.1492  0.2433
 4853SOL     OW26017   0.898   0.423  10.390  0.0828  0.1240 -0.6805
 4853SOL    HW126018   0.977   0.470  10.363 -1.5338  3.1843 -0.0990
 4853SOL    HW226019   0.922   0.402  10.481 -0.6937 -2.0485 -0.9645
 4854SOL     OW26020   0.041   2.578   7.404 -0.0717 -0.0815 -0.1176
 4854SOL    HW126021   4.695   2.643   7.399 -1.9021 -2.1469 -1.0152
 4854SOL    HW226022   0.021   2.538   7.488 -1.1029 -1.1441 -0.8762
 4855SOL     OW26023   4.369   3.172   2.125 -0.4828  0.6185 -1.0028
 4855SOL    HW126024   4.396   3.215   2.205  1.8932 -1.5634 -0.6090
 4855SOL    HW226025   4.418   3.090   2.119  1.8376  1.9078  0.6199
 4856SOL     OW26026   1.360   1.484   8.707 -0.1958 -0.0320 -0.0626
 4856SOL    HW126027   1.441   1.515   8.667 -0.1362 -1.8669 -1.3537
 4856SOL    HW226028   1.392   1.407   8.753 -1.3248 -0.9202 -0.7581
 4857SOL     OW26029   1.675   4.370  16.048 -0.1621 -0.4521  0.0081
 4857SOL    HW126030   1.618   4.446  16.043  0.4973  0.0477  0.0457
 4857SOL    HW226031   1.624   4.312  16.104  2.3515  0.3032  3.0907
 4858SOL     OW26032   4.394   1.882   4.519  0.0156  0.5158 -0.3195
 4858SOL    HW126033   4.379   1.807   4.577  1.3575 -2.6038 -4.0102
 4858SOL    HW226034   4.308   1.922   4.515 -0.2887 -0.0642  0.3568
 4859SOL     OW26035   2.742   2.840   7.910 -0.1455 -1.1052 -0.9473
 4859SOL    HW126036   2.766   2.847   7.818 -1.3192 -0.4782 -1.2089
 4859SOL    HW226037   2.703   2.753   7.914 -0.5551 -0.9584 -1.7777
 4860SOL     OW26038   3.180   1.162   4.949  0.0601  0.2507 -0.2878
 4860SOL    HW126039   3.184   1.122   4.862  2.2009 -0.7541  0.2612
 4860SOL    HW226040   3.270   1.178   4.978  0.4345 -1.5960 -0.4612
 4861SOL     OW26041   1.403   3.218   1.995  0.5388 -0.4740 -0.0310
 4861SOL    HW126042   1.392   3.178   1.909  0.3683 -0.3847 -0.0495
 4861SOL    HW226043   1.324   3.221   2.047  1.0172  1.9116  0.5843
 4862SOL     OW26044   3.482   4.229  17.330 -0.0642  0.0724 -0.3616
 4862SOL    HW126045   3.408   4.169  17.338  0.8900 -1.2773 -1.6968
 4862SOL    HW226046   3.484   4.278  17.413  0.3047  2.3094 -1.6686
 4863SOL     OW26047   4.346   3.229   6.146 -0.2008  0.1531 -0.1428
 4863SOL    HW126048   4.328   3.317   6.115  1.8624  0.6676  0.1004
 4863SOL    HW226049   4.372   3.233   6.239 -2.4470  0.5366  0.4570
 4864SOL     OW26050   3.170   1.527   7.366  0.2921  0.0009 -0.1472
 4864SOL    HW126051   3.165   1.506   7.459  3.2308  3.3121  0.7768
 4864SOL    HW226052   3.113   1.458   7.334 -0.5473  0.3053  0.6830
 4865SOL     OW26053   1.943   2.941   9.273 -0.2677  0.0250 -0.1007
 4865SOL    HW126054   1.876   2.993   9.229  0.1840  0.6488 -0.0426
 4865SOL    HW226055   1.999   2.923   9.197  0.6102  1.5268  0.1941
 4866SOL     OW26056   3.590   1.428   4.370  0.2977 -0.4210  0.0247
 4866SOL    HW126057   3.671   1.416   4.420  0.1731 -0.9820  0.0908
 4866SOL    HW226058   3.522   1.412   4.436  0.3902  0.7188  0.4049
 4867SOL     OW26059   3.689   0.444   5.771  0.2359  0.0720 -0.3037
 4867SOL    HW126060   3.608   0.393   5.777  0.0239  0.5398  0.7110
 4867SOL    HW226061   3.754   0.395   5.821 -1.9354 -0.7004  1.7397
 4868SOL     OW26062   1.027   0.383  16.624 -0.5696  0.0921  0.2212
 4868SOL    HW126063   1.019   0.294  16.658  1.9015  1.5540  4.6188
 4868SOL    HW226064   0.935   0.411  16.620 -0.2877  1.0274  0.1451
 4869SOL     OW26065   4.463   2.436   6.379  0.2170 -0.6843 -0.3258
 4869SOL    HW126066   4.408   2.514   6.386  4.7108  2.3611  1.2464
 4869SOL    HW226067   4.534   2.461   6.320 -0.2863  0.7185 -0.3409
 4870SOL     OW26068   1.651   4.253  11.328 -0.1420 -0.1904  0.1763
 4870SOL    HW126069   1.730   4.210  11.361  0.8729 -0.0996 -2.1548
 4870SOL    HW226070   1.695   4.322  11.278 -1.3337 -1.2428 -2.3249
 4871SOL     OW26071   4.530   1.176  11.661  0.5966 -0.1307  0.1479
 4871SOL    HW126072   4.622   1.148  11.670  0.5647 -0.8687 -1.8015
 4871SOL    HW226073   4.522   1.239  11.732  1.8394  1.9029 -1.5295
 4872SOL     OW26074   2.458   0.182   1.892 -0.3759  0.3491  0.1227
 4872SOL    HW126075   2.532   0.138   1.850 -0.8973  0.7722 -1.2596
 4872SOL    HW226076   2.437   0.252   1.830 -3.3091 -0.7643 -0.1608
 4873SOL     OW26077   0.904   3.876   3.920 -0.1546 -0.4923 -0.3334
 4873SOL    HW126078   0.984   3.896   3.968 -0.6388 -0.1607  0.3442
 4873SOL    HW226079   0.889   3.964   3.886 -1.1183 -0.5720 -0.1273
 4874SOL     OW26080   3.044   3.374   5.094  1.0442 -0.3376  0.5485
 4874SOL    HW126081   3.101   3.351   5.021 -1.6047 -0.0238 -1.6500
 4874SOL    HW226082   2.965   3.386   5.042  1.4196  0.3502  0.1347
 4875SOL     OW26083   1.209   3.989  15.372 -0.3142  0.0322 -0.3019
 4875SOL    HW126084   1.241   4.071  15.411  0.9798 -1.0534  0.9356
 4875SOL    HW226085   1.288   3.966  15.322  0.2085  0.3010  0.4097
 4876SOL     OW26086   2.337   1.729   0.257  0.5630 -0.0842 -0.6885
 4876SOL    HW126087   2.352   1.694   0.169  2.1189  3.1690 -1.7538
 4876SOL    HW226088   2.380   1.814   0.252  0.2927  0.1308  0.5972
 4877SOL     OW26089   2.043   2.573   5.762 -0.7955  0.2374  0.1995
 4877SOL    HW126090   2.077   2.493   5.720 -0.3649  0.6898 -0.3209
 4877SOL    HW226091   2.123   2.626   5.765 -1.0905  0.5967  1.6725
 4878SOL     OW26092   0.936   1.784   0.733  0.8544  0.7300  0.1332
 4878SOL    HW126093   0.941   1.811   0.642  3.7397  0.4255  0.2015
 4878SOL    HW226094   0.867   1.846   0.756 -1.6851 -2.8852  2.1935
 4879SOL     OW26095   0.752   0.150   6.104 -0.5261 -0.2537 -0.1513
 4879SOL    HW126096   0.835   0.172   6.146 -0.4595 -2.4083  0.8403
 4879SOL    HW226097   0.742   0.059   6.133 -0.2644 -0.0094  0.7052
 4880SOL     OW26098   0.734   0.341  12.636  0.1460 -0.2787 -0.1549
 4880SOL    HW126099   0.801   0.329  12.702  0.4583  2.8011  0.0924
 4880SOL    HW226100   0.657   0.304  12.679 -0.5343  1.4292  0.0809
 4881SOL     OW26101   0.831   2.552   7.155 -0.6514 -0.5502 -0.3582
 4881SOL    HW126102   0.753   2.605   7.140  1.2516  2.4586  0.5060
 4881SOL    HW226103   0.858   2.524   7.067 -1.2419  0.4231 -0.8504
 4882SOL     OW26104   1.710   3.317   5.492 -0.2476  0.0457  0.5422
 4882SOL    HW126105   1.671   3.312   5.580  2.0023 -0.5398  1.5129
 4882SOL    HW226106   1.803   3.303   5.513 -0.1158  1.5092  0.9082
 4883SOL     OW26107   1.805   1.295   5.309  0.0513 -0.3232 -0.3260
 4883SOL    HW126108   1.762   1.247   5.380 -0.4804  0.5102 -0.0838
 4883SOL    HW226109   1.766   1.382   5.317  1.9989  0.6732 -1.6472
 4884SOL     OW26110   2.226   1.479   5.072  0.7866  0.5617 -0.0057
 4884SOL    HW126111   2.205   1.530   4.994  1.8774  0.7797 -0.1461
 4884SOL    HW226112   2.144   1.430   5.081  0.6638  0.7821  0.0621
 4885SOL     OW26113   1.821   0.425   3.603  0.8833  0.4042 -0.1825
 4885SOL    HW126114   1.843   0.374   3.681 -0.5995  1.6281  1.0558
 4885SOL    HW226115   1.846   0.367   3.531  0.4154 -0.9837  0.7679
 4886SOL     OW26116   0.290   0.539   5.058 -0.7751  0.4014  0.2759
 4886SOL    HW126117   0.200   0.522   5.030 -1.2753 -0.2730  2.2505
 4886SOL    HW226118   0.343   0.460   5.045 -1.5180  0.0150 -0.3646
 4887SOL     OW26119   4.038   1.739   0.550  0.5423  0.1614 -0.4893
 4887SOL    HW126120   3.960   1.683   0.550 -0.4906  1.5772  0.2094
 4887SOL    HW226121   4.107   1.675   0.534  0.7082  0.3125 -0.3728
 4888SOL     OW26122   2.196   0.807  15.750  0.3606  0.0246 -0.4919
 4888SOL    HW126123   2.103   0.789  15.767  0.5289  0.2520  0.6780
 4888SOL    HW226124   2.251   0.729  15.744  0.7936  0.3734 -1.0031
 4889SOL     OW26125   0.819   3.596   6.618 -0.0197 -0.2990  0.1174
 4889SOL    HW126126   0.808   3.504   6.645 -0.9601  0.8978  3.8877
 4889SOL    HW226127   0.734   3.630   6.645 -0.5075 -1.9646  0.6916
 4890SOL     OW26128   2.208   1.047   3.193 -0.4260 -0.6224 -0.4910
 4890SOL    HW126129   2.151   1.033   3.269 -0.6705 -0.5653 -0.6625
 4890SOL    HW226130   2.247   1.131   3.216 -1.1601 -0.8556  1.6904
 4891SOL     OW26131   4.583   3.767   1.897 -0.1816  0.0236 -0.0747
 4891SOL    HW126132   4.519   3.733   1.960 -1.9470 -0.0208 -1.8890
 4891SOL    HW226133   4.523   3.811   1.837  1.1959  0.7071 -0.9511
 4892SOL     OW26134   4.446   4.278   7.219 -0.2938  0.8484  0.8528
 4892SOL    HW126135   4.449   4.351   7.281 -0.4158  0.8523  0.8540
 4892SOL    HW226136   4.443   4.222   7.296 -1.2020 -2.5925 -1.6876
 4893SOL     OW26137   3.083   1.509   9.671 -0.1618 -0.6266  0.2049
 4893SOL    HW126138   3.129   1.544   9.747 -1.6017 -0.6514  1.0930
 4893SOL    HW226139   3.073   1.589   9.620 -0.5204 -0.0447  1.1772
 4894SOL     OW26140   0.212   3.041   1.370 -0.3337  0.5838 -0.5060
 4894SOL    HW126141   0.181   2.994   1.448  0.7916  1.2183  0.3340
 4894SOL    HW226142   0.134   3.057   1.318  0.0584  0.4958 -1.1218
 4895SOL     OW26143   0.277   0.281  15.440 -0.3021 -0.0283 -0.0202
 4895SOL    HW126144   0.208   0.324  15.390 -1.4986 -3.3505 -1.2429
 4895SOL    HW226145   0.350   0.282  15.378  0.1552 -2.6796  0.4398
 4896SOL     OW26146   4.625   0.864   2.209  0.0268  0.2020  0.1460
 4896SOL    HW126147   4.572   0.809   2.267  1.2195  0.2030  1.2279
 4896SOL    HW226148   4.714   0.831   2.225 -0.6240 -0.4073  2.3931
 4897SOL     OW26149   0.960   1.337   4.727 -0.4585 -0.4308 -0.0114
 4897SOL    HW126150   0.932   1.250   4.756  0.7317 -0.3566  1.4006
 4897SOL    HW226151   1.031   1.306   4.670 -1.6767 -2.6166 -0.3184
 4898SOL     OW26152   3.149   0.877   9.003 -0.2669 -0.1388 -0.0818
 4898SOL    HW126153   3.097   0.939   8.952  0.7018  0.2043 -0.6522
 4898SOL    HW226154   3.160   0.809   8.936  1.5905  1.5475 -1.5034
 4899SOL     OW26155   2.093   3.026  15.482  0.0782  0.1066 -0.0134
 4899SOL    HW126156   2.011   2.978  15.475 -0.8844  2.0369 -1.9140
 4899SOL    HW226157   2.098   3.077  15.401 -2.5175 -0.0491 -0.2541
 4900SOL     OW26158   1.185   0.685   7.018 -0.5817 -0.3433 -0.0068
 4900SOL    HW126159   1.248   0.676   7.090 -1.4879 -2.3390  0.5586
 4900SOL    HW226160   1.211   0.609   6.965 -1.5039 -0.4467 -0.3106
 4901SOL     OW26161   1.281   0.323   7.421 -0.2396  0.6870 -0.1245
 4901SOL    HW126162   1.367   0.351   7.452 -0.3170  0.7628  0.0218
 4901SOL    HW226163   1.265   0.374   7.342 -1.0835 -0.8106 -0.9197
 4902SOL     OW26164   2.049   3.963   1.333 -0.2150  0.0795  0.1717
 4902SOL    HW126165   2.075   3.959   1.241  0.5280  3.3078  0.2490
 4902SOL    HW226166   2.019   4.054   1.340  4.6665  1.9000 -2.2093
 4903SOL     OW26167   3.084   1.672   8.428  0.4055 -0.4339  0.1231
 4903SOL    HW126168   3.146   1.733   8.386  0.8622 -1.2639 -0.4172
 4903SOL    HW226169   3.033   1.743   8.467 -0.3064 -0.2923 -1.0678
 4904SOL     OW26170   1.231   0.900   6.839  0.3204 -0.3246 -0.1008
 4904SOL    HW126171   1.210   0.958   6.912  0.4572 -1.2359  0.6609
 4904SOL    HW226172   1.192   0.818   6.866  0.9071 -0.1335  1.3862
 4905SOL     OW26173   2.094   0.559   9.439 -0.0794 -0.1082 -0.1216
 4905SOL    HW126174   2.141   0.622   9.384 -1.4363  0.0486 -1.1070
 4905SOL    HW226175   2.010   0.543   9.397 -0.4190  0.0195  0.5129
 4906SOL     OW26176   2.620   3.812   6.983  0.4952  0.4000  0.5522
 4906SOL    HW126177   2.606   3.731   7.032  2.1629  0.2871  0.8301
 4906SOL    HW226178   2.636   3.781   6.894  1.1353  0.2720  0.7090
 4907SOL     OW26179   2.802   4.224  11.445  0.3013  0.1293  0.0548
 4907SOL    HW126180   2.800   4.285  11.372  3.7121 -2.1145 -1.9078
 4907SOL    HW226181   2.851   4.151  11.407 -0.2232  0.0411 -0.4552
 4908SOL     OW26182   0.546   2.745  14.278 -0.2596  0.1872 -0.3249
 4908SOL    HW126183   0.637   2.730  14.300 -1.2947 -1.2065  2.9534
 4908SOL    HW226184   0.555   2.836  14.249  2.3404  0.1352  0.3431
 4909SOL     OW26185   3.779   2.636   6.227 -0.1361  0.4642  0.3898
 4909SOL    HW126186   3.837   2.562   6.209 -1.6689 -1.1830  2.1982
 4909SOL    HW226187   3.695   2.593   6.210  0.0883  0.4680 -0.7353
 4910SOL     OW26188   4.307   1.459   2.441 -0.3067  0.6580 -0.1458
 4910SOL    HW126189   4.247   1.432   2.371  0.7974 -0.9568 -0.4773
 4910SOL    HW226190   4.354   1.540   2.421 -1.8086  0.7425 -3.3245
 4911SOL     OW26191   0.478   2.683   4.719 -0.0597 -0.8245  0.0227
 4911SOL    HW126192   0.452   2.591   4.726 -2.9966 -0.0781 -1.2936
 4911SOL    HW226193   0.565   2.678   4.678 -0.1422  0.6948 -0.3598
 4912SOL     OW26194   4.552   3.399   1.867  0.2386  0.0309 -0.3124
 4912SOL    HW126195   4.506   3.483   1.865 -3.7005 -2.1890 -1.3661
 4912SOL    HW226196   4.477   3.341   1.876  1.4571 -1.2047  1.9897
 4913SOL     OW26197   0.166   3.941   6.584 -0.3924 -0.3712  0.0350
 4913SOL    HW126198   0.235   3.967   6.522 -1.6363  1.1168 -0.7296
 4913SOL    HW226199   0.134   4.028   6.608  1.6097  0.5352 -0.5932
 4914SOL     OW26200   3.746   0.213   4.139 -0.1926  0.1151  0.2152
 4914SOL    HW126201   3.718   0.303   4.127 -0.2197 -0.5132 -4.4682
 4914SOL    HW226202   3.818   0.221   4.077 -1.5357  0.3722 -1.2782
 4915SOL     OW26203   4.686   4.505   8.605 -0.1077  0.0935 -0.2706
 4915SOL    HW126204   4.597   4.473   8.591 -0.4959  0.7369  0.7578
 4915SOL    HW226205   4.682   4.504   8.701 -0.0705  1.8557 -0.2505
 4916SOL     OW26206   2.024   2.876   2.603 -0.0657  0.6540 -0.1636
 4916SOL    HW126207   2.051   2.950   2.549 -1.4502  0.9279 -0.4907
 4916SOL    HW226208   1.929   2.884   2.604  0.0396  1.8155  0.8370
 4917SOL     OW26209   2.020   0.397  12.067 -0.3901 -0.1864  0.3533
 4917SOL    HW126210   2.013   0.489  12.093 -1.4156 -0.4284  0.9271
 4917SOL    HW226211   2.069   0.417  11.987 -1.2169  1.4537  0.2729
 4918SOL     OW26212   3.774   0.431  12.932  0.1227  0.4991  0.6617
 4918SOL    HW126213   3.704   0.495  12.927 -0.7584 -0.5419 -0.2988
 4918SOL    HW226214   3.802   0.434  13.024  0.8752  0.6166  0.4338
 4919SOL     OW26215   2.935   3.637   0.709 -0.5795  0.0417  0.2193
 4919SOL    HW126216   2.862   3.670   0.762 -2.7159 -1.2226 -1.8938
 4919SOL    HW226217   2.894   3.555   0.681 -2.4846  1.0364  0.0337
 4920SOL     OW26218   4.175   1.967   8.506  0.8618 -0.4033  0.4910
 4920SOL    HW126219   4.159   1.975   8.412 -2.2941  0.8997  1.1406
 4920SOL    HW226220   4.253   1.912   8.516  1.7003  0.8369  0.7635
 4921SOL     OW26221   2.570   4.351   5.631 -0.0878  0.0843  0.4550
 4921SOL    HW126222   2.630   4.277   5.629  1.1736  1.1950 -2.5818
 4921SOL    HW226223   2.595   4.393   5.714  2.2298 -0.9906  0.2798
 4922SOL     OW26224   1.169   4.244  16.035 -0.0582 -0.0061 -0.6382
 4922SOL    HW126225   1.254   4.212  16.001 -0.3520 -0.9481 -0.4993
 4922SOL    HW226226   1.117   4.217  15.959  0.7084 -0.0799 -1.1372
 4923SOL     OW26227   3.044   4.004  14.480 -0.0087 -1.2081 -0.6265
 4923SOL    HW126228   3.097   4.080  14.504 -0.1095 -1.6028  0.8454
 4923SOL    HW226229   2.962   4.020  14.526  0.0178  0.9591 -1.3592
 4924SOL     OW26230   0.355   2.065   7.948 -0.0610  0.1468 -0.8781
 4924SOL    HW126231   0.387   2.012   7.875 -1.5000 -3.1555  0.9526
 4924SOL    HW226232   0.378   2.006   8.019  0.3431  0.8051 -0.4525
 4925SOL     OW26233   2.098   1.483   8.411  0.2441  0.8289 -0.1904
 4925SOL    HW126234   2.148   1.558   8.442  0.1552  0.9003 -0.2184
 4925SOL    HW226235   2.155   1.411   8.439  0.2740  0.9718  0.1144
 4926SOL     OW26236   4.177   2.433   9.155  0.0352 -0.4527 -0.1779
 4926SOL    HW126237   4.247   2.494   9.177  0.0828 -1.4424  2.3511
 4926SOL    HW226238   4.185   2.416   9.061  2.1103  1.1046 -0.2998
 4927SOL     OW26239   0.305   4.410  11.536  0.6616  0.1295 -0.4650
 4927SOL    HW126240   0.378   4.354  11.510 -0.0713 -0.9882 -0.1060
 4927SOL    HW226241   0.341   4.498  11.547  0.6121  0.3210 -1.8866
 4928SOL     OW26242   3.620   1.386   3.911  0.2122 -0.0658 -0.0343
 4928SOL    HW126243   3.580   1.463   3.952  1.7468  0.5593  0.3021
 4928SOL    HW226244   3.635   1.414   3.820  0.9415  0.9899  0.4067
 4929SOL     OW26245   4.023   1.849  13.557 -0.3862  0.0901 -0.2936
 4929SOL    HW126246   3.989   1.830  13.470  0.6748  1.0201 -0.9127
 4929SOL    HW226247   3.989   1.770  13.600  0.0317  0.4734  0.7480
 4930SOL     OW26248   4.551   2.829  10.835  0.2722 -0.3477  0.1743
 4930SOL    HW126249   4.626   2.844  10.777  1.0638 -1.7608  0.8443
 4930SOL    HW226250   4.527   2.921  10.847  0.7139 -0.0314 -1.3782
 4931SOL     OW26251   4.326   3.508   4.325 -0.2589 -0.4923 -0.1946
 4931SOL    HW126252   4.252   3.474   4.275  1.1111 -0.4606 -2.2815
 4931SOL    HW226253   4.295   3.528   4.413 -0.4674  1.3930 -0.6863
 4932SOL     OW26254   1.970   3.747   1.995 -0.4509 -0.3569 -1.0751
 4932SOL    HW126255   1.926   3.790   1.922  0.3416  0.0171 -1.3299
 4932SOL    HW226256   1.919   3.668   2.011  1.5591 -1.4469 -0.0325
 4933SOL     OW26257   1.980   2.361   6.023 -0.8235 -0.0185 -0.2460
 4933SOL    HW126258   1.903   2.339   5.971  0.0308 -0.3064 -1.3850
 4933SOL    HW226259   2.010   2.272   6.040 -1.4380 -0.3246 -0.7512
 4934SOL     OW26260   1.868   1.546   8.281  0.0337 -0.0965  0.3883
 4934SOL    HW126261   1.892   1.476   8.220 -0.3507 -0.6350  0.8592
 4934SOL    HW226262   1.945   1.544   8.337  1.2783  1.7136 -1.2666
 4935SOL     OW26263   3.854   0.331   8.832 -0.0819  0.6575  0.1754
 4935SOL    HW126264   3.884   0.420   8.852 -1.7695  1.4368 -0.8020
 4935SOL    HW226265   3.831   0.299   8.920 -0.3884  1.3116  0.3272
 4936SOL     OW26266   0.179   4.180   2.170  0.1916  0.4246  0.1672
 4936SOL    HW126267   0.090   4.151   2.149 -0.1943  2.5197 -1.1143
 4936SOL    HW226268   0.226   4.159   2.089  1.5222 -1.7814  1.5251
 4937SOL     OW26269   0.285   3.785   7.597  0.4687  0.7915  0.4165
 4937SOL    HW126270   0.356   3.804   7.535  0.0957 -0.2066 -0.3226
 4937SOL    HW226271   0.276   3.867   7.645  3.2405  0.7822  0.9701
 4938SOL     OW26272   2.269   2.362   8.817  0.3848 -0.0512  0.1445
 4938SOL    HW126273   2.212   2.430   8.854  0.9569 -0.9173  2.6282
 4938SOL    HW226274   2.352   2.388   8.858  0.4661 -2.6321  1.5971
 4939SOL     OW26275   1.082   2.432   6.971  0.2807 -0.6110 -0.0109
 4939SOL    HW126276   1.070   2.349   7.018  1.0673  0.3390  1.8905
 4939SOL    HW226277   0.989   2.440   6.950  0.3156  0.7337  0.3223
 4940SOL     OW26278   2.818   2.450  10.089  0.3623  0.3543  0.1969
 4940SOL    HW126279   2.836   2.386  10.021  1.7179 -0.2808  1.1612
 4940SOL    HW226280   2.908   2.470  10.115  0.4092 -0.5947  0.7346
 4941SOL     OW26281   4.079   4.209   5.969  0.4934 -0.1342  0.2814
 4941SOL    HW126282   4.148   4.213   6.035  0.9739  1.4520 -0.3265
 4941SOL    HW226283   4.004   4.172   6.016  0.3630 -0.7786 -0.4291
 4942SOL     OW26284   3.094   3.189   9.667  0.1545 -0.1569 -0.3837
 4942SOL    HW126285   3.062   3.199   9.578 -1.0309  1.0879  0.1933
 4942SOL    HW226286   3.179   3.145   9.655  0.3362  0.1909 -0.3783
 4943SOL     OW26287   3.208   2.808   4.697 -0.6567 -0.8429  0.1948
 4943SOL    HW126288   3.206   2.808   4.792 -0.3660  0.9775  0.2130
 4943SOL    HW226289   3.256   2.727   4.678  0.8337  0.5498 -1.9547
 4944SOL     OW26290   1.151   4.504  16.543  0.2102  0.2193 -0.0295
 4944SOL    HW126291   1.161   4.424  16.490  1.5917  1.0270 -0.9911
 4944SOL    HW226292   1.094   4.476  16.614 -1.3982  0.2317 -1.3013
 4945SOL     OW26293   1.818   4.070   4.262 -0.2001 -0.5074  0.5758
 4945SOL    HW126294   1.906   4.084   4.298 -0.8090  1.6828  1.1874
 4945SOL    HW226295   1.786   4.160   4.258  0.7652 -0.2495 -1.2254
 4946SOL     OW26296   0.201   3.682   8.432  0.0483  0.2888  0.4296
 4946SOL    HW126297   0.283   3.669   8.479  1.2149  3.2910 -0.8081
 4946SOL    HW226298   0.176   3.590   8.440  0.0659  0.3683  1.4208
 4947SOL     OW26299   2.671   0.527   2.710 -0.2941 -0.2430  0.0052
 4947SOL    HW126300   2.635   0.453   2.661  2.3953 -1.5741  0.0740
 4947SOL    HW226301   2.593   0.583   2.707 -0.2916 -0.2186  0.4021
 4948SOL     OW26302   4.178   3.710  10.103  0.8190  0.3062  0.5536
 4948SOL    HW126303   4.240   3.648  10.142 -0.4699  0.2230  2.4758
 4948SOL    HW226304   4.181   3.675  10.014  2.5244  0.2386  0.6366
 4949SOL     OW26305   2.329   1.020   6.144  0.1399 -0.2372 -0.1774
 4949SOL    HW126306   2.401   1.062   6.192  0.9192 -1.5980 -0.1530
 4949SOL    HW226307   2.267   1.016   6.217 -0.6832 -0.1794 -0.8823
 4950SOL     OW26308   0.454   1.898   7.048  0.4331 -0.3758 -0.0624
 4950SOL    HW126309   0.515   1.875   7.118  1.0119 -0.1541 -0.4991
 4950SOL    HW226310   0.509   1.887   6.970  0.6622 -2.7012  0.4107
 4951SOL     OW26311   4.360   3.123   8.209  0.1143  0.6043  0.0874
 4951SOL    HW126312   4.426   3.106   8.142 -0.9662  1.5796 -1.2419
 4951SOL    HW226313   4.406   3.198   8.247  2.0084 -0.5118  0.0054
 4952SOL     OW26314   3.938   3.465   0.531  0.2542  0.2218  0.6319
 4952SOL    HW126315   4.030   3.470   0.557  0.1045  0.8766  1.0330
 4952SOL    HW226316   3.899   3.427   0.609  1.3298 -0.7301  0.7052
 4953SOL     OW26317   2.147   3.558   4.316  0.6219 -0.0686 -0.2914
 4953SOL    HW126318   2.163   3.469   4.284  1.0168  0.1920 -0.8156
 4953SOL    HW226319   2.127   3.599   4.232  0.2331 -1.5553 -0.9365
 4954SOL     OW26320   0.455   4.139   6.907  0.3806  0.0410  0.1938
 4954SOL    HW126321   0.374   4.181   6.935 -0.2297 -0.2122 -1.1655
 4954SOL    HW226322   0.471   4.186   6.825 -0.4644  0.9092  0.5403
 4955SOL     OW26323   2.804   0.787  13.276  0.3687 -0.8671  0.3177
 4955SOL    HW126324   2.887   0.788  13.324  0.4126  1.2334  0.1845
 4955SOL    HW226325   2.813   0.848  13.203  0.6311  0.1281  1.1764
 4956SOL     OW26326   2.055   1.110  10.217 -0.2119  0.4847  0.6632
 4956SOL    HW126327   2.141   1.076  10.243 -0.3664 -1.2639 -1.1127
 4956SOL    HW226328   2.008   1.031  10.192 -0.0958  1.5075 -2.7281
 4957SOL     OW26329   3.940   3.162   4.980  0.0550  0.1805  0.5397
 4957SOL    HW126330   3.960   3.069   4.971 -1.8416 -0.2112  0.3368
 4957SOL    HW226331   3.922   3.182   4.888 -1.3569  0.3487  0.8469
 4958SOL     OW26332   3.623   2.039  13.057  0.8069  0.2194 -0.6603
 4958SOL    HW126333   3.658   2.026  12.969 -1.8671 -0.8394 -1.5675
 4958SOL    HW226334   3.698   2.084  13.095  0.1472  1.3673 -0.7331
 4959SOL     OW26335   4.683   1.810  12.641  0.2539 -0.2257  0.1157
 4959SOL    HW126336   4.662   1.771  12.726  0.3348  0.2426  0.3524
 4959SOL    HW226337   4.596   1.811  12.601 -0.6332  0.2769  2.0480
 4960SOL     OW26338   3.721   3.793   1.044 -0.3611  0.0225 -0.1551
 4960SOL    HW126339   3.781   3.841   1.100  1.0943 -0.4386 -1.3194
 4960SOL    HW226340   3.785   3.749   0.989  0.9980  2.1365 -0.2663
 4961SOL     OW26341   2.803   3.404   7.372  0.1811  0.4112 -0.3800
 4961SOL    HW126342   2.855   3.344   7.318 -1.0164 -1.3166  0.3718
 4961SOL    HW226343   2.883   3.441   7.411 -0.3712  1.9967 -0.7713
 4962SOL     OW26344   3.454   3.750   5.406  0.3854 -0.3768  0.1820
 4962SOL    HW126345   3.409   3.742   5.490  1.7000 -0.6481  0.8504
 4962SOL    HW226346   3.513   3.675   5.412  1.2429  0.2857 -0.1047
 4963SOL     OW26347   4.109   1.782  11.946  0.5518 -0.1417 -0.2703
 4963SOL    HW126348   4.168   1.746  12.012 -0.6082 -1.3197  0.1365
 4963SOL    HW226349   4.044   1.814  12.008  0.8311  1.0098 -0.5757
 4964SOL     OW26350   0.491   2.797   7.243  0.1325 -0.0874 -0.2217
 4964SOL    HW126351   0.406   2.781   7.202 -0.2669  3.5058 -0.7927
 4964SOL    HW226352   0.466   2.810   7.334  1.0179  0.8662 -0.1143
 4965SOL     OW26353   2.750   2.117  17.038  0.1796  0.4999 -0.4357
 4965SOL    HW126354   2.670   2.105  16.986  0.7445 -0.0983 -1.1621
 4965SOL    HW226355   2.786   2.201  17.007 -2.4044  1.9685  0.5196
 4966SOL     OW26356   3.918   2.723  10.406 -0.3419  0.2099 -0.1954
 4966SOL    HW126357   3.971   2.803  10.397 -0.0943  0.1392  0.6825
 4966SOL    HW226358   3.960   2.675  10.335 -2.8188 -2.8843  0.4698
 4967SOL     OW26359   4.100   4.185  13.349 -0.5631 -0.0031 -0.0096
 4967SOL    HW126360   4.071   4.094  13.351 -1.0982  0.1992  1.1084
 4967SOL    HW226361   4.174   4.193  13.409 -1.1902  0.0428  0.7574
 4968SOL     OW26362   4.376   4.433  13.515  0.5411  0.9042  0.0521
 4968SOL    HW126363   4.466   4.452  13.545  0.8565 -3.2582  1.7165
 4968SOL    HW226364   4.342   4.523  13.517  1.9645  1.4042  2.4971
 4969SOL     OW26365   4.572   1.978  15.930 -0.2778 -0.3608 -0.5943
 4969SOL    HW126366   4.643   1.959  15.992  0.7354  0.0541 -1.6201
 4969SOL    HW226367   4.499   1.941  15.979 -1.2656  3.0221  0.4751
 4970SOL     OW26368   2.813   2.085   3.178  0.8097 -0.0346 -0.0306
 4970SOL    HW126369   2.801   1.990   3.177 -2.1127  0.3419  0.4618
 4970SOL    HW226370   2.732   2.124   3.145  1.8002  2.3589  0.4130
 4971SOL     OW26371   4.417   0.084   5.660 -0.1148  0.1195  0.1290
 4971SOL    HW126372   4.454   0.131   5.585  0.3056 -0.8786 -0.2950
 4971SOL    HW226373   4.344   0.032   5.626 -0.3601  0.1548  0.6054
 4972SOL     OW26374   3.969   4.092   7.672  0.2102 -0.5214  0.2974
 4972SOL    HW126375   3.940   4.003   7.651  0.2616 -0.6107  0.6205
 4972SOL    HW226376   3.879   4.126   7.670  0.3138 -0.1761  1.6107
 4973SOL     OW26377   4.126   0.703   6.845 -0.0817 -0.0865 -0.6972
 4973SOL    HW126378   4.166   0.675   6.927 -0.5591  2.3986  0.3884
 4973SOL    HW226379   4.073   0.628   6.817 -0.6318  0.0413 -0.0013
 4974SOL     OW26380   1.674   1.396   4.337  0.5217  0.0371  0.2384
 4974SOL    HW126381   1.696   1.486   4.312  0.0303  0.9773  3.2318
 4974SOL    HW226382   1.581   1.382   4.323  0.2731  0.4369  1.4440
 4975SOL     OW26383   1.945   4.265   2.728 -0.0515  0.1045 -0.5624
 4975SOL    HW126384   1.949   4.361   2.722 -0.5039  0.0311 -2.0602
 4975SOL    HW226385   1.988   4.246   2.645 -1.4159 -2.3134 -0.7286
 4976SOL     OW26386   0.801   0.960   2.424  0.2642  0.2918 -0.4082
 4976SOL    HW126387   0.841   0.908   2.494  1.4323  1.3130 -0.2957
 4976SOL    HW226388   0.866   1.031   2.431 -0.3998  0.9324 -0.7262
 4977SOL     OW26389   1.088   2.466  13.602 -0.3637 -0.0804  0.1356
 4977SOL    HW126390   1.125   2.480  13.515  2.0852 -1.2371  0.9777
 4977SOL    HW226391   1.161   2.440  13.658  0.9795 -1.2562 -2.1421
 4978SOL     OW26392   3.991   1.250   1.013  0.2929  0.4676 -0.1854
 4978SOL    HW126393   3.980   1.158   0.989 -1.7702  0.8444 -0.6847
 4978SOL    HW226394   3.907   1.287   0.986 -0.5029  0.5579  2.4597
 4979SOL     OW26395   2.620   1.325  13.002 -0.0939  0.3295  0.2963
 4979SOL    HW126396   2.556   1.348  13.070 -2.0729 -1.2153 -1.0492
 4979SOL    HW226397   2.644   1.411  12.967  1.8329 -0.5039 -0.4229
 4980SOL     OW26398   4.046   3.284   7.611 -0.4440 -0.5029  0.2713
 4980SOL    HW126399   3.964   3.237   7.630 -0.4728 -1.6174 -2.5660
 4980SOL    HW226400   4.039   3.285   7.515 -2.8907 -1.7288  0.4332
 4981SOL     OW26401   0.401   4.364   9.919 -1.0070  0.0656 -0.0837
 4981SOL    HW126402   0.495   4.346   9.927 -0.8262  1.2043  0.2410
 4981SOL    HW226403   0.367   4.278   9.894 -0.4792 -0.3469  0.6167
 4982SOL     OW26404   3.887   1.628  17.183  0.1438 -0.7587  0.1620
 4982SOL    HW126405   3.816   1.604  17.242  2.3420 -0.6000  2.8879
 4982SOL    HW226406   3.952   1.562  17.207  0.5387 -0.8026 -0.9962
 4983SOL     OW26407   2.188   4.283   7.605 -0.3403 -0.2051 -0.1546
 4983SOL    HW126408   2.264   4.270   7.548 -0.0525  0.4787  0.0802
 4983SOL    HW226409   2.205   4.374   7.628 -3.4858  0.3171  0.0859
 4984SOL     OW26410   0.148   4.249   4.837 -0.4809 -0.0517 -0.4666
 4984SOL    HW126411   0.232   4.290   4.818 -0.5707 -1.3127 -3.6673
 4984SOL    HW226412   0.184   4.160   4.840 -2.6503 -0.8832  0.9572
 4985SOL     OW26413   3.831   3.756   8.179  0.6701 -0.1888 -0.3122
 4985SOL    HW126414   3.876   3.805   8.247 -1.2502 -1.2614  1.6957
 4985SOL    HW226415   3.840   3.670   8.221  4.8621  0.2263 -0.3199
 4986SOL     OW26416   1.720   3.101   1.265  0.2244 -0.3679  0.0369
 4986SOL    HW126417   1.693   3.191   1.281 -0.1920 -0.5006  0.0858
 4986SOL    HW226418   1.729   3.103   1.170 -0.2194  1.9209  0.0399
 4987SOL     OW26419   2.083   2.099   6.037  0.5725 -0.0786 -0.8391
 4987SOL    HW126420   2.066   2.034   5.969  0.6660 -2.2993  1.2480
 4987SOL    HW226421   2.115   2.046   6.110  0.2311 -1.1174 -1.4508
 4988SOL     OW26422   2.509   3.073  10.474 -0.0852 -0.1611 -0.2192
 4988SOL    HW126423   2.508   3.097  10.567 -3.2506 -0.4167 -0.2096
 4988SOL    HW226424   2.543   2.984  10.474 -0.1315 -0.1720  2.9276
 4989SOL     OW26425   2.350   1.552  15.648 -0.1066 -0.3069  0.3720
 4989SOL    HW126426   2.430   1.603  15.648 -0.4426  0.2167  0.9585
 4989SOL    HW226427   2.275   1.611  15.635  1.3862  1.5665  0.3338
 4990SOL     OW26428   1.339   3.955  11.686  0.6985  0.5697 -0.8405
 4990SOL    HW126429   1.383   3.953  11.601 -1.9825 -2.4489 -2.1402
 4990SOL    HW226430   1.356   3.862  11.698 -1.3832  0.3114  0.1404
 4991SOL     OW26431   2.791   0.308   5.650 -0.1394  0.3201  0.2396
 4991SOL    HW126432   2.730   0.365   5.603  2.7432  1.2440 -2.4120
 4991SOL    HW226433   2.741   0.286   5.729 -0.7874  0.1548 -0.2199
 4992SOL     OW26434   3.783   2.352   6.396  0.1906  0.0685 -0.1118
 4992SOL    HW126435   3.862   2.401   6.418  0.4190 -0.6334  0.6210
 4992SOL    HW226436   3.717   2.408   6.438  0.7131  0.9247 -0.4398
 4993SOL     OW26437   1.481   0.722   5.866  0.4583  0.3555  0.3860
 4993SOL    HW126438   1.547   0.768   5.918  0.5781 -3.2116  3.4041
 4993SOL    HW226439   1.496   0.632   5.894  0.3545  1.0795  2.7855
 4994SOL     OW26440   1.823   4.210   2.447  0.2992  0.1321 -0.2554
 4994SOL    HW126441   1.811   4.299   2.414  1.3293  0.5320  0.4595
 4994SOL    HW226442   1.916   4.202   2.424 -0.2868 -1.8731 -1.8822
 4995SOL     OW26443   3.231   1.744   3.639  0.5789 -0.0137  0.1950
 4995SOL    HW126444   3.282   1.815   3.678  0.3478 -0.2843  0.9876
 4995SOL    HW226445   3.221   1.761   3.545 -0.9992 -0.7929  0.2307
 4996SOL     OW26446   0.406   2.642   8.024  0.8006 -0.1308  0.4714
 4996SOL    HW126447   0.486   2.594   8.003  0.6835 -0.6364  1.1859
 4996SOL    HW226448   0.333   2.593   7.985  1.3242  0.5379 -1.3191
 4997SOL     OW26449   3.183   4.277   1.175 -0.2665  0.1080 -0.2341
 4997SOL    HW126450   3.171   4.305   1.084  0.4331  0.2256 -0.2932
 4997SOL    HW226451   3.243   4.202   1.173  0.1075  0.3827  0.5854
 4998SOL     OW26452   3.163   3.356   2.519 -0.1795 -0.4159 -0.0687
 4998SOL    HW126453   3.153   3.376   2.612  1.7755 -1.4449  0.3806
 4998SOL    HW226454   3.075   3.365   2.484  0.5567  1.5683 -1.4742
 4999SOL     OW26455   2.210   2.527  13.308  0.0477 -0.2841  0.3042
 4999SOL    HW126456   2.217   2.578  13.227 -0.9065 -1.0417 -0.2472
 4999SOL    HW226457   2.159   2.592  13.356  0.8565 -0.5341  1.5109
 5000SOL     OW26458   1.340   3.691   8.191 -0.0530 -0.1348  0.3340
 5000SOL    HW126459   1.324   3.723   8.279 -1.0557 -0.0652  0.1252
 5000SOL    HW226460   1.432   3.715   8.181 -0.4542  0.3313 -2.3508
 5001SOL     OW26461   1.266   4.530  10.074 -0.0404 -1.0450 -0.1282
 5001SOL    HW126462   1.305   4.519   9.987  0.3494 -1.7114  0.1297
 5001SOL    HW226463   1.287   4.447  10.116  0.6881  0.1384  1.8513
 5002SOL     OW26464   4.075   2.510   2.199  0.6554  0.0641  0.1682
 5002SOL    HW126465   4.119   2.590   2.172 -0.5845  0.7239  0.0938
 5002SOL    HW226466   3.984   2.540   2.193  0.0518 -1.5504  1.3416
 5003SOL     OW26467   0.967   4.170   9.456  0.0099 -0.3642 -0.3308
 5003SOL    HW126468   0.878   4.144   9.478 -0.8785  1.6099 -1.5372
 5003SOL    HW226469   0.994   4.225   9.530 -0.0095 -2.4097  1.1771
 5004SOL     OW26470   0.005   3.176   4.292  0.2999  0.1666 -0.3301
 5004SOL    HW126471   0.014   3.211   4.204  2.1029 -0.8833 -0.5758
 5004SOL    HW226472   0.068   3.103   4.286 -0.9597 -0.8909 -0.7177
 5005SOL     OW26473   2.879   3.811   2.748 -0.0144 -0.1796 -0.0282
 5005SOL    HW126474   2.851   3.879   2.809 -1.8311 -0.0205 -1.0229
 5005SOL    HW226475   2.971   3.831   2.730 -0.0793 -1.9088 -2.2702
 5006SOL     OW26476   3.399   0.965   7.630  0.5006  0.0771  0.4888
 5006SOL    HW126477   3.379   0.879   7.594 -1.5052  0.1927  1.3767
 5006SOL    HW226478   3.489   0.975   7.597 -0.3268 -0.3255 -1.8995
 5007SOL     OW26479   0.876   4.381   4.734 -0.2768 -0.0638  0.1232
 5007SOL    HW126480   0.927   4.426   4.801  0.3901  0.2991 -0.6209
 5007SOL    HW226481   0.903   4.430   4.656  0.9124  0.0489  0.6053
 5008SOL     OW26482   2.821   4.014  12.081 -0.0387 -0.1455  0.3682
 5008SOL    HW126483   2.781   3.989  11.998  4.4270  2.6491 -2.6025
 5008SOL    HW226484   2.831   4.104  12.051 -0.1670 -0.4519 -0.5874
 5009SOL     OW26485   0.964   0.656   3.222  0.4179  0.5707  0.4904
 5009SOL    HW126486   1.021   0.627   3.152 -2.2727 -0.4113 -1.2912
 5009SOL    HW226487   0.879   0.660   3.179  0.2768 -0.6452  0.6406
 5010SOL     OW26488   2.786   0.345   3.121 -0.2082 -0.1782 -0.0239
 5010SOL    HW126489   2.764   0.311   3.034  1.0474  2.0900 -1.2259
 5010SOL    HW226490   2.789   0.438   3.099  0.9525 -0.1553  0.2412
 5011SOL     OW26491   4.351   3.494  10.202 -0.1710  0.2881 -0.5136
 5011SOL    HW126492   4.410   3.424  10.174  0.0848  0.3574 -0.1470
 5011SOL    HW226493   4.318   3.474  10.289 -2.4564  2.5443 -0.8430
 5012SOL     OW26494   0.954   0.643  10.736  0.3480 -0.2895  0.3645
 5012SOL    HW126495   1.005   0.674  10.811 -1.7660 -0.5434  1.9115
 5012SOL    HW226496   0.944   0.720  10.680 -0.3797  0.3858  1.4056
 5013SOL     OW26497   1.014   3.599   1.746 -0.0923 -0.2615  0.1239
 5013SOL    HW126498   0.933   3.647   1.729 -0.3050 -0.1495  1.4325
 5013SOL    HW226499   1.066   3.665   1.792  0.3216  0.6411 -1.6742
 5014SOL     OW26500   2.651   4.183  12.866  0.0553 -0.7057  0.6445
 5014SOL    HW126501   2.599   4.262  12.853  0.4457 -0.5450  0.0260
 5014SOL    HW226502   2.706   4.204  12.941 -1.2329 -0.8383  1.6172
 5015SOL     OW26503   2.696   0.255  17.135 -0.2210 -0.4312  0.2170
 5015SOL    HW126504   2.689   0.219  17.223  1.2900 -0.2090  0.4329
 5015SOL    HW226505   2.689   0.176  17.081  1.0151 -0.6682  0.4045
 5016SOL     OW26506   0.488   0.743   4.013 -0.1622  0.0372  0.0971
 5016SOL    HW126507   0.551   0.813   4.026 -0.7477  0.3511  1.2084
 5016SOL    HW226508   0.413   0.793   3.982 -0.0914 -0.4428 -0.8586
 5017SOL     OW26509   3.990   2.450   7.833 -0.0063  0.5180 -0.1880
 5017SOL    HW126510   4.049   2.523   7.854  1.5926 -0.8978  0.2302
 5017SOL    HW226511   3.959   2.436   7.923  1.4702 -3.5054 -0.3158
 5018SOL     OW26512   0.009   4.574   7.222 -0.3918  0.2831  0.1753
 5018SOL    HW126513   4.658   4.540   7.269  1.0866 -0.4964  1.9782
 5018SOL    HW226514   0.028   4.650   7.279  2.8224 -1.3555  1.2922
 5019SOL     OW26515   1.477   4.404   6.652  0.8645 -0.3177 -0.3925
 5019SOL    HW126516   1.504   4.484   6.608  0.2519  0.9761  1.5739
 5019SOL    HW226517   1.551   4.370   6.702  0.5867 -1.6938 -0.9194
 5020SOL     OW26518   4.117   3.074   5.308 -0.2162 -0.2937  0.0543
 5020SOL    HW126519   4.207   3.041   5.315 -1.1779 -2.5366  1.7989
 5020SOL    HW226520   4.133   3.165   5.332  1.9755 -0.6027 -0.1435
 5021SOL     OW26521   3.447   4.389   7.142  0.1443 -0.6904 -0.7804
 5021SOL    HW126522   3.351   4.383   7.145  0.0874  0.7107  0.3874
 5021SOL    HW226523   3.456   4.479   7.174  1.0422 -1.8458  2.2812
 5022SOL     OW26524   3.772   0.328   1.401 -0.1187 -0.6103 -0.1257
 5022SOL    HW126525   3.830   0.315   1.475 -0.0969  0.8831  0.1161
 5022SOL    HW226526   3.808   0.410   1.366 -0.4003 -0.5699 -0.3241
 5023SOL     OW26527   3.564   1.188   5.948 -0.5258 -0.5761  0.1995
 5023SOL    HW126528   3.594   1.169   6.037 -0.2516  1.8322  0.6125
 5023SOL    HW226529   3.490   1.128   5.940  0.2422 -1.7055  1.5395
 5024SOL     OW26530   3.370   0.363  11.113 -0.0323 -0.5456  0.7942
 5024SOL    HW126531   3.456   0.346  11.075 -0.3645  1.5387 -0.8838
 5024SOL    HW226532   3.312   0.352  11.037  1.6611 -0.4186 -0.5130
 5025SOL     OW26533   3.147   4.500  15.107 -0.5667 -0.1847 -0.7856
 5025SOL    HW126534   3.228   4.500  15.056  1.1509  1.0849  1.9373
 5025SOL    HW226535   3.149   4.595  15.122  0.2002 -0.1002 -1.4382
 5026SOL     OW26536   4.649   3.110  11.569 -0.2802  0.6251 -0.0344
 5026SOL    HW126537   4.579   3.174  11.555 -0.3785  1.1385  2.8078
 5026SOL    HW226538   4.714   3.127  11.500  2.7896  0.8486  2.9518
 5027SOL     OW26539   4.554   3.618   4.666 -0.4251  0.7893 -0.0944
 5027SOL    HW126540   4.632   3.592   4.714  1.0961  1.9388 -1.9778
 5027SOL    HW226541   4.572   3.570   4.585  0.3283  1.8413 -0.5457
 5028SOL     OW26542   2.017   1.763   2.860  0.4453 -0.0871 -0.1855
 5028SOL    HW126543   1.991   1.715   2.939  1.2556 -1.1778 -0.5867
 5028SOL    HW226544   2.069   1.693   2.821 -0.3858  0.2947 -1.9788
 5029SOL     OW26545   1.352   1.751   0.680 -0.4923  0.4584 -0.0780
 5029SOL    HW126546   1.311   1.764   0.765 -1.4645  0.6928 -0.5906
 5029SOL    HW226547   1.362   1.656   0.677  3.8546  0.8418  1.3218
 5030SOL     OW26548   3.086   4.515   5.057  0.4493 -0.0503  0.3084
 5030SOL    HW126549   3.034   4.533   4.979  0.5414  0.8135  0.4483
 5030SOL    HW226550   3.043   4.438   5.094 -1.3682  0.1867 -1.3396
 5031SOL     OW26551   1.264   3.762   3.647 -0.2857  0.2666 -0.0717
 5031SOL    HW126552   1.217   3.785   3.567  0.5911 -0.7633 -0.8821
 5031SOL    HW226553   1.306   3.847   3.663 -3.0103  1.5070  0.3440
 5032SOL     OW26554   1.453   0.141   6.068 -0.1262 -0.1185 -0.4784
 5032SOL    HW126555   1.533   0.148   6.017 -0.3035  1.6299 -0.5278
 5032SOL    HW226556   1.482   0.063   6.115 -0.5374 -0.5500 -0.9377
 5033SOL     OW26557   3.808   4.100   1.211  0.0913 -0.1186 -0.4241
 5033SOL    HW126558   3.855   4.067   1.134  0.9317 -1.1386  0.5261
 5033SOL    HW226559   3.873   4.132   1.273 -0.8140  0.2830  0.3108
 5034SOL     OW26560   2.814   4.404  11.658  0.3265  0.2255 -0.3227
 5034SOL    HW126561   2.722   4.431  11.652  0.8254  2.7388  3.0745
 5034SOL    HW226562   2.813   4.358  11.574 -1.0232  0.6174 -0.5315
 5035SOL     OW26563   2.553   4.654   4.303 -0.2336 -0.0374 -0.1087
 5035SOL    HW126564   2.575   4.597   4.376 -0.2916 -2.0604 -1.6702
 5035SOL    HW226565   2.539   4.595   4.229  2.4707  0.0982 -0.7305
 5036SOL     OW26566   3.974   3.292   6.717 -0.7424 -0.3503 -0.1928
 5036SOL    HW126567   3.899   3.323   6.768  0.0619 -1.7079  1.8411
 5036SOL    HW226568   4.042   3.334   6.769 -1.0912  1.7666 -1.4550
 5037SOL     OW26569   2.564   0.953  14.488 -0.4055 -0.4818  0.4426
 5037SOL    HW126570   2.536   0.953  14.397  0.4932 -0.0655  0.1666
 5037SOL    HW226571   2.639   0.894  14.477 -0.3121 -0.4905  1.1417
 5038SOL     OW26572   3.854   3.720   3.616 -0.3048 -0.1807  0.1902
 5038SOL    HW126573   3.907   3.748   3.542 -1.0762  0.5294 -0.0921
 5038SOL    HW226574   3.836   3.630   3.586  0.8904 -0.4637  0.3118
 5039SOL     OW26575   1.871   3.547   7.404 -0.2053 -0.0435 -0.0766
 5039SOL    HW126576   1.831   3.558   7.318  3.0148  3.0166 -1.1994
 5039SOL    HW226577   1.857   3.624   7.459 -0.8874 -0.3721  0.2145
 5040SOL     OW26578   3.435   4.209   9.267 -0.1049  0.5825  0.2942
 5040SOL    HW126579   3.455   4.171   9.352  0.6930  1.1461  0.3684
 5040SOL    HW226580   3.479   4.146   9.210 -0.8926  0.6237 -0.3599
 5041SOL     OW26581   1.600   0.594  16.020 -0.2972  0.4840 -0.5164
 5041SOL    HW126582   1.669   0.586  16.086 -0.9666 -1.6397 -0.0706
 5041SOL    HW226583   1.562   0.680  16.041 -3.0486 -1.0800  0.9326
 5042SOL     OW26584   4.712   3.218   8.561 -0.4793 -0.4665  0.6580
 5042SOL    HW126585   4.621   3.247   8.555 -0.5045 -0.8362 -0.7443
 5042SOL    HW226586   0.025   3.292   8.513 -0.3750 -1.7990 -1.3132
 5043SOL     OW26587   1.997   1.863   7.582  0.6038  0.2654 -0.2791
 5043SOL    HW126588   1.978   1.832   7.670 -0.0974 -1.0309 -0.8835
 5043SOL    HW226589   2.018   1.780   7.539 -1.3905  0.4266 -1.6095
 5044SOL     OW26590   1.624   1.928  11.278  0.3609  0.0172  0.0131
 5044SOL    HW126591   1.634   1.837  11.304  2.4370  0.4123  0.6041
 5044SOL    HW226592   1.530   1.944  11.287  0.7854  1.4390  1.8955
 5045SOL     OW26593   0.825   3.876  16.249 -0.0381 -0.4140  0.3243
 5045SOL    HW126594   0.806   3.782  16.259 -1.2832 -0.1083  0.7585
 5045SOL    HW226595   0.767   3.910  16.181  2.2334  2.4468 -0.1578
 5046SOL     OW26596   3.461   0.509   5.437  0.3432  0.4104  0.1626
 5046SOL    HW126597   3.378   0.522   5.392 -0.6932  0.8219  2.1934
 5046SOL    HW226598   3.466   0.600   5.466 -0.3173  0.2339  0.8429
 5047SOL     OW26599   3.051   2.387   2.113  0.4624  0.0551 -0.4707
 5047SOL    HW126600   3.105   2.397   2.034 -1.0846  1.3363 -1.3692
 5047SOL    HW226601   2.971   2.427   2.079  0.6881  0.3099 -0.7006
 5048SOL     OW26602   3.855   2.183   7.164 -0.6822  0.2634  0.2737
 5048SOL    HW126603   3.791   2.119   7.131  0.3205 -0.1515 -0.8664
 5048SOL    HW226604   3.923   2.127   7.202 -0.5060  0.8159  0.7841
 5049SOL     OW26605   2.730   4.547   5.824  0.5478  0.3216 -0.2936
 5049SOL    HW126606   2.735   4.641   5.839 -1.0880  0.2503  0.7074
 5049SOL    HW226607   2.821   4.531   5.798  0.0154  0.5145 -2.3256
 5050SOL     OW26608   2.754   3.783  15.693  0.3670  0.0291  0.5969
 5050SOL    HW126609   2.848   3.799  15.693 -0.0879  2.6926 -0.5764
 5050SOL    HW226610   2.723   3.850  15.632  2.4165 -0.9834 -1.5444
 5051SOL     OW26611   0.816   2.944   1.430  0.1370  0.3923  0.3717
 5051SOL    HW126612   0.736   2.934   1.378 -0.5754 -0.9632  1.7194
 5051SOL    HW226613   0.870   2.997   1.371  2.5150 -0.3627  1.9066
 5052SOL     OW26614   2.526   3.434   3.227 -0.4341  0.1824 -0.0929
 5052SOL    HW126615   2.611   3.392   3.215 -0.5900  0.4019 -2.0004
 5052SOL    HW226616   2.486   3.356   3.265 -0.6815  1.1370  1.6152
 5053SOL     OW26617   2.016   1.052  10.507  0.3910 -0.7555 -0.2455
 5053SOL    HW126618   2.025   1.096  10.422  0.4700  0.9036  0.6165
 5053SOL    HW226619   2.053   1.113  10.570 -2.8202  1.6268 -0.7118
 5054SOL     OW26620   2.202   0.531   2.153 -0.1301 -0.0192 -0.0800
 5054SOL    HW126621   2.264   0.468   2.118  1.1618  1.4610 -0.4655
 5054SOL    HW226622   2.251   0.614   2.156 -0.8059  0.4325 -1.6105
 5055SOL     OW26623   3.557   3.262  17.294 -0.5764  0.4098 -0.0675
 5055SOL    HW126624   3.472   3.284  17.332 -1.4914 -0.6348 -1.4658
 5055SOL    HW226625   3.620   3.267  17.365  0.4660 -5.0398 -0.5727
 5056SOL     OW26626   2.315   2.617   8.921 -0.6498 -0.4011  0.6587
 5056SOL    HW126627   2.329   2.615   9.016 -0.6270 -0.5351  0.6525
 5056SOL    HW226628   2.228   2.658   8.914 -2.1650 -3.0066  3.9196
 5057SOL     OW26629   2.748   1.906   5.132 -0.3297 -0.7179  0.0091
 5057SOL    HW126630   2.753   1.832   5.191  5.1261  0.1375  0.5851
 5057SOL    HW226631   2.804   1.974   5.168  0.4173 -0.6484 -1.2689
 5058SOL     OW26632   2.277   2.482   7.669  0.1032 -0.5998 -0.3066
 5058SOL    HW126633   2.302   2.484   7.761  0.3133  0.0417 -0.3810
 5058SOL    HW226634   2.206   2.418   7.678 -0.1248 -0.6814 -2.7785
 5059SOL     OW26635   4.289   1.959   5.241 -0.6863  0.1690 -0.1130
 5059SOL    HW126636   4.234   1.916   5.306 -1.0796  0.7591 -0.0474
 5059SOL    HW226637   4.231   2.015   5.189  0.2036  1.3162  0.1133
 5060SOL     OW26638   0.544   1.347  10.563  0.2257 -0.0541  0.3912
 5060SOL    HW126639   0.600   1.424  10.546  1.3148 -0.7691  0.7073
 5060SOL    HW226640   0.488   1.361  10.487 -2.6348  1.9782  2.9280
 5061SOL     OW26641   2.771   0.375   8.517  0.1787 -0.4690  0.0831
 5061SOL    HW126642   2.796   0.283   8.520 -0.8215 -0.7900 -1.6217
 5061SOL    HW226643   2.856   0.416   8.499  0.4986 -0.8554  0.6913
 5062SOL     OW26644   2.653   4.605   6.729  0.4535  0.3319  0.3390
 5062SOL    HW126645   2.747   4.588   6.719  0.1115 -2.9020  2.6865
 5062SOL    HW226646   2.623   4.528   6.681  3.2937  0.4566 -1.7141
 5063SOL     OW26647   0.576   1.172   0.740  0.1452  0.1088 -0.0856
 5063SOL    HW126648   0.487   1.207   0.751  0.2288  0.5956 -0.9302
 5063SOL    HW226649   0.629   1.215   0.807  1.5684  1.2873 -1.9749
 5064SOL     OW26650   3.692   1.482  17.300 -0.6681 -0.0998  0.2200
 5064SOL    HW126651   3.649   1.417  17.245 -0.3589 -0.6468  0.6216
 5064SOL    HW226652   3.613   1.527  17.329  0.8270  2.3851  0.4607
 5065SOL     OW26653   4.324   2.649   6.455 -0.3984  0.0551  0.1946
 5065SOL    HW126654   4.360   2.687   6.535  1.8635 -1.5305 -0.0656
 5065SOL    HW226655   4.272   2.722   6.422 -2.9319 -1.8818 -0.1524
 5066SOL     OW26656   0.276   4.102   1.944 -0.0163 -0.0581  0.1842
 5066SOL    HW126657   0.324   4.161   1.886 -1.2271  0.7549  0.0104
 5066SOL    HW226658   0.222   4.051   1.884 -0.4751 -0.2126  0.7267
 5067SOL     OW26659   3.754   4.203  17.252 -0.4469  0.4345  0.4385
 5067SOL    HW126660   3.659   4.195  17.266 -0.6767 -1.0179 -1.9550
 5067SOL    HW226661   3.757   4.298  17.253 -0.3582  0.4365 -0.0836
 5068SOL     OW26662   0.155   1.802   7.874 -0.3590 -0.3591  0.3051
 5068SOL    HW126663   0.128   1.874   7.931 -0.0038  2.0438 -2.5452
 5068SOL    HW226664   0.225   1.844   7.823  0.8266  0.2416  2.4033
 5069SOL     OW26665   2.527   4.396   6.601  0.1508 -0.3236  0.5546
 5069SOL    HW126666   2.617   4.367   6.584 -0.6285 -1.4602 -1.5923
 5069SOL    HW226667   2.489   4.309   6.609 -1.0657  0.2402  0.9214
 5070SOL     OW26668   4.617   1.720  10.786  0.1657  0.3899 -0.4711
 5070SOL    HW126669   4.566   1.641  10.770  1.7453 -0.1749 -2.8202
 5070SOL    HW226670   4.693   1.702  10.731  1.2854  3.1541  0.1861
 5071SOL     OW26671   3.245   4.604   4.275 -0.2537  0.0896  0.4709
 5071SOL    HW126672   3.170   4.624   4.219 -0.6382  1.0751  1.3409
 5071SOL    HW226673   3.320   4.638   4.225 -0.4745 -0.9616 -0.5894
 5072SOL     OW26674   0.747   2.051  16.860 -0.7930  0.0327  0.3537
 5072SOL    HW126675   0.728   2.076  16.950 -0.8863 -0.3767  0.4470
 5072SOL    HW226676   0.668   2.005  16.831  0.3142 -2.4897  1.3131
 5073SOL     OW26677   3.100   0.216   1.706 -0.0026 -0.1074  0.4145
 5073SOL    HW126678   3.127   0.173   1.625 -2.1029 -0.3119 -0.1763
 5073SOL    HW226679   3.025   0.161   1.730  0.7041 -0.2940  2.2304
 5074SOL     OW26680   3.218   0.684   2.064  0.0839 -0.5862 -0.4193
 5074SOL    HW126681   3.193   0.614   2.124 -1.3554  1.1128  0.9503
 5074SOL    HW226682   3.236   0.760   2.118 -1.1142 -0.6161 -0.0033
 5075SOL     OW26683   4.401   1.697   6.720  0.1387 -0.0188 -0.4949
 5075SOL    HW126684   4.446   1.620   6.753 -0.0728  0.0480 -0.0460
 5075SOL    HW226685   4.421   1.696   6.627 -1.1000  1.3194 -0.7786
 5076SOL     OW26686   3.513   0.090   4.217  0.7379 -0.0353 -0.2726
 5076SOL    HW126687   3.454   0.118   4.148 -1.6039 -0.7962  1.4209
 5076SOL    HW226688   3.590   0.147   4.208 -0.2946  0.9089 -2.8298
 5077SOL     OW26689   0.758   4.181   7.237  0.3040 -0.2173 -0.2927
 5077SOL    HW126690   0.803   4.223   7.310  0.0612 -1.6260  0.6685
 5077SOL    HW226691   0.831   4.136   7.195  0.1966 -1.0567  0.4085
 5078SOL     OW26692   1.952   1.171   6.541  0.3415 -0.6935  0.2140
 5078SOL    HW126693   2.006   1.239   6.582  0.5027  0.2620 -1.6077
 5078SOL    HW226694   1.919   1.118   6.614  1.6278 -1.2051  0.4235
 5079SOL     OW26695   0.606   2.937  16.825  0.3896 -0.1898  0.2482
 5079SOL    HW126696   0.573   3.024  16.801  0.2495 -0.2186  0.3355
 5079SOL    HW226697   0.525   2.886  16.835  0.7544 -0.7008  0.5775
 5080SOL     OW26698   1.032   2.341   8.696  0.6397 -0.7612 -0.2258
 5080SOL    HW126699   1.075   2.414   8.740 -1.2117 -1.8848  3.4295
 5080SOL    HW226700   0.941   2.368   8.682  1.4004  2.0479  0.2348
 5081SOL     OW26701   3.472   0.307  11.354  0.4403 -0.3145  0.0262
 5081SOL    HW126702   3.441   0.335  11.268 -0.5627 -3.3697 -0.6055
 5081SOL    HW226703   3.548   0.261  11.317  0.9171  0.7601 -0.3261
 5082SOL     OW26704   1.691   4.626   6.865  0.5183  0.1568 -0.3746
 5082SOL    HW126705   1.622   4.561   6.860  0.3135  0.3339  0.1413
 5082SOL    HW226706   1.651   4.702   6.822  1.5523  1.0752  0.2650
 5083SOL     OW26707   3.817   0.175   1.824  0.7337 -0.1880  0.2334
 5083SOL    HW126708   3.812   0.261   1.783 -0.2465 -1.0266 -1.3970
 5083SOL    HW226709   3.776   0.118   1.760  0.7248  0.1128 -0.0285
 5084SOL     OW26710   3.746   4.630   2.164  0.5447 -0.8143 -0.1838
 5084SOL    HW126711   3.661   4.592   2.183  0.3210 -0.1892  0.0620
 5084SOL    HW226712   3.756   4.706   2.221 -2.0033 -0.0353 -0.7918
 5085SOL     OW26713   4.252   0.621   2.813  0.1187 -0.0574  1.0169
 5085SOL    HW126714   4.317   0.680   2.774 -0.8884  0.8854  0.7516
 5085SOL    HW226715   4.184   0.601   2.748 -0.1286 -1.1692  1.6350
 5086SOL     OW26716   1.942   3.741  15.328 -0.0799  0.1392 -0.0421
 5086SOL    HW126717   1.927   3.730  15.235  0.2191  0.5712 -0.1406
 5086SOL    HW226718   2.028   3.701  15.344 -0.7825 -1.2606  0.3067
 5087SOL     OW26719   1.345   1.121  10.825 -0.0772 -0.2643  0.0715
 5087SOL    HW126720   1.432   1.104  10.789  0.4220 -1.2608  1.7689
 5087SOL    HW226721   1.325   1.209  10.796 -0.4498 -0.9687 -1.8004
 5088SOL     OW26722   3.362   3.091   7.469  0.0792 -0.2593  0.6452
 5088SOL    HW126723   3.394   3.056   7.386 -0.4341  2.6406 -0.7982
 5088SOL    HW226724   3.284   3.138   7.438  0.3602  2.2202  3.6845
 5089SOL     OW26725   0.740   1.233  15.495 -0.0391 -0.4930 -0.3694
 5089SOL    HW126726   0.655   1.196  15.519 -0.4648  0.1251 -0.8969
 5089SOL    HW226727   0.722   1.326  15.513 -0.8282 -0.8335  0.6211
 5090SOL     OW26728   3.187   1.415   4.672 -0.1272  0.0807  0.4097
 5090SOL    HW126729   3.241   1.380   4.744  1.2624 -0.4271 -0.8761
 5090SOL    HW226730   3.101   1.414   4.715 -0.8566 -3.9934 -1.1174
 5091SOL     OW26731   1.140   3.712   2.134  0.5518  0.1510 -0.2082
 5091SOL    HW126732   1.176   3.757   2.058  0.7213  1.5541  0.7099
 5091SOL    HW226733   1.108   3.792   2.176 -2.1145 -1.2414  0.4016
 5092SOL     OW26734   0.022   4.237   8.177  0.6331 -0.8710  0.7990
 5092SOL    HW126735   4.652   4.232   8.162  0.4570 -2.8580  2.4769
 5092SOL    HW226736   0.049   4.150   8.147 -1.1986 -1.2542  0.2263
 5093SOL     OW26737   2.538   1.133   5.836  0.2155 -0.3303  0.5832
 5093SOL    HW126738   2.460   1.165   5.879 -0.5416 -2.4811  0.7977
 5093SOL    HW226739   2.526   1.158   5.744  2.4330  1.4445  0.7769
 5094SOL     OW26740   1.810   4.397   3.609  0.1783  0.0443  0.1207
 5094SOL    HW126741   1.872   4.459   3.572  0.1255  0.8773  1.4487
 5094SOL    HW226742   1.812   4.322   3.549 -1.8530  1.0565 -1.1980
 5095SOL     OW26743   1.734   1.192  12.524  0.6937  0.4205 -0.4688
 5095SOL    HW126744   1.652   1.211  12.568  1.3465  1.4445  0.2929
 5095SOL    HW226745   1.696   1.175  12.438 -1.5767 -1.1818  0.8410
 5096SOL     OW26746   4.104   0.214  13.117  0.7366 -0.3196 -0.0095
 5096SOL    HW126747   4.130   0.127  13.088 -1.4780 -0.8027 -0.5767
 5096SOL    HW226748   4.155   0.209  13.198  2.0640  0.7290 -0.7952
 5097SOL     OW26749   2.655   2.342   2.381 -0.2871  0.4780  0.3630
 5097SOL    HW126750   2.590   2.279   2.411 -0.5616  0.3927 -0.4143
 5097SOL    HW226751   2.623   2.369   2.295  1.3689  0.9044 -0.1315
 5098SOL     OW26752   1.657   0.867  10.031  0.2775 -0.0202 -0.3408
 5098SOL    HW126753   1.563   0.856  10.044  0.4181 -2.1882 -1.1803
 5098SOL    HW226754   1.692   0.833  10.114  0.1505  0.0324 -0.2665
 5099SOL     OW26755   0.666   2.455  14.403  0.2894  0.2128 -0.0817
 5099SOL    HW126756   0.737   2.391  14.403 -0.4665 -0.6344 -0.8789
 5099SOL    HW226757   0.717   2.524  14.362  0.4524  1.6397  2.5024
 5100SOL     OW26758   4.649   1.178   5.382 -0.0359 -0.2449 -0.1233
 5100SOL    HW126759   4.659   1.096   5.335 -0.8065 -1.0909  1.1819
 5100SOL    HW226760   4.555   1.183   5.400  0.1137  0.5208  0.4723
 5101SOL     OW26761   1.833   3.784   8.754  0.7919 -0.1990 -0.1556
 5101SOL    HW126762   1.912   3.806   8.804 -0.6575  1.2408  1.5045
 5101SOL    HW226763   1.832   3.850   8.684  2.3463  0.0469  0.0481
 5102SOL     OW26764   1.596   4.500   0.343 -0.1727 -0.1214 -0.4144
 5102SOL    HW126765   1.604   4.426   0.282 -1.5733 -2.7773  2.6648
 5102SOL    HW226766   1.528   4.465   0.400  1.1373 -1.1167  0.5392
 5103SOL     OW26767   2.753   3.634  16.783  0.1820 -0.3281  0.3555
 5103SOL    HW126768   2.773   3.551  16.741 -0.4203 -1.1713  1.7191
 5103SOL    HW226769   2.811   3.696  16.738 -0.3666 -0.4204 -0.4681
 5104SOL     OW26770   0.546   3.229   3.069  0.4559  0.2598 -0.8422
 5104SOL    HW126771   0.614   3.176   3.111 -1.1734 -1.6606 -0.6451
 5104SOL    HW226772   0.487   3.235   3.144 -1.0076 -2.8685 -1.7315
 5105SOL     OW26773   0.663   3.329  15.267 -0.3050  0.4694  0.4521
 5105SOL    HW126774   0.741   3.306  15.318 -0.8363 -0.6534  0.7617
 5105SOL    HW226775   0.656   3.252  15.212  1.1804  0.1062  0.7563
 5106SOL     OW26776   3.536   2.556   7.202  0.0657  0.1395  0.0808
 5106SOL    HW126777   3.442   2.540   7.209 -0.0342  1.0414  0.8456
 5106SOL    HW226778   3.571   2.472   7.231  0.0651  0.3403  0.6703
 5107SOL     OW26779   2.144   3.768   3.015  0.1802 -0.9015  0.2222
 5107SOL    HW126780   2.189   3.847   3.045 -0.9896 -0.1431 -0.0217
 5107SOL    HW226781   2.161   3.697   3.077 -2.0024 -1.8734 -0.2883
 5108SOL     OW26782   4.216   3.724   8.517  0.0492 -0.4559 -0.2675
 5108SOL    HW126783   4.233   3.695   8.427  1.8524 -1.5293  0.4249
 5108SOL    HW226784   4.304   3.706   8.549 -0.2174  0.2683  0.8757
 5109SOL     OW26785   2.539   1.967   0.295  0.5181  0.0906 -0.5715
 5109SOL    HW126786   2.581   2.010   0.369 -0.3658 -1.1789  0.6702
 5109SOL    HW226787   2.617   1.920   0.264 -1.2536 -0.1201 -4.6635
 5110SOL     OW26788   3.161   4.512   6.269  0.1953  0.0169  0.0772
 5110SOL    HW126789   3.130   4.422   6.274 -0.4722  0.2338 -0.0139
 5110SOL    HW226790   3.221   4.537   6.339  0.0741 -0.3772  0.3172
 5111SOL     OW26791   1.202   3.891   8.723 -0.4546 -0.2061  0.2707
 5111SOL    HW126792   1.277   3.929   8.768  0.2009 -0.5019 -0.5811
 5111SOL    HW226793   1.242   3.868   8.639  1.3668  0.9133  0.8529
 5112SOL     OW26794   0.888   2.185  14.129  0.2923 -0.0261  0.0133
 5112SOL    HW126795   0.796   2.160  14.136  1.0794 -2.8681  0.1495
 5112SOL    HW226796   0.902   2.244  14.203  1.1431  0.2738 -0.3814
 5113SOL     OW26797   1.046   3.098   4.096 -0.1657  0.3076 -0.1337
 5113SOL    HW126798   0.983   3.028   4.079  0.1184  0.1262 -0.4217
 5113SOL    HW226799   1.113   3.044   4.138 -1.1158 -0.1026  0.8648
 5114SOL     OW26800   0.536   3.218   5.644  0.2360  0.2476  0.9023
 5114SOL    HW126801   0.568   3.303   5.674  0.1083 -0.0162  1.7794
 5114SOL    HW226802   0.621   3.189   5.611 -0.4934 -0.4385 -0.3454
 5115SOL     OW26803   3.781   0.039   1.000 -0.8721 -0.1764  0.1232
 5115SOL    HW126804   3.776   0.022   1.094  0.2526 -2.7225 -0.2569
 5115SOL    HW226805   3.763   4.683   0.952  0.1467 -0.1909 -0.2399
 5116SOL     OW26806   2.291   0.917   3.522  0.0956  0.1309 -0.5774
 5116SOL    HW126807   2.241   0.840   3.495  0.1877 -0.3145  0.5281
 5116SOL    HW226808   2.256   0.943   3.607  1.0239  0.1282 -0.1884
 5117SOL     OW26809   3.808   3.919   4.804 -0.4873  0.3874  0.0230
 5117SOL    HW126810   3.714   3.904   4.813 -0.8959  1.0423 -3.0792
 5117SOL    HW226811   3.822   4.002   4.850  1.2516  0.1005  0.0202
 5118SOL     OW26812   0.887   4.481   3.063  0.0643  0.4974  0.2728
 5118SOL    HW126813   0.902   4.492   2.969 -1.7782  3.1946  0.3025
 5118SOL    HW226814   0.810   4.538   3.065  0.1404  0.6362 -0.6920
 5119SOL     OW26815   1.490   4.180   4.480  0.3868 -0.2615  0.3909
 5119SOL    HW126816   1.562   4.133   4.522  0.0752 -0.8887  0.2192
 5119SOL    HW226817   1.426   4.150   4.545  1.8397  0.2484  2.0688
 5120SOL     OW26818   3.380   3.796   3.366  0.2353  0.3672 -0.2500
 5120SOL    HW126819   3.386   3.889   3.348  2.0492  0.4942  1.0109
 5120SOL    HW226820   3.472   3.774   3.353  0.2448  0.2775 -0.0398
 5121SOL     OW26821   1.248   2.631   7.936 -0.0592  0.6188 -0.1584
 5121SOL    HW126822   1.249   2.669   7.848  0.4211  1.3174  0.1421
 5121SOL    HW226823   1.170   2.577   7.937  0.9189 -0.7618  0.8969
 5122SOL     OW26824   3.524   1.079   2.107 -0.1502  0.2745 -0.3837
 5122SOL    HW126825   3.602   1.023   2.116  0.6811  0.7479 -4.6851
 5122SOL    HW226826   3.495   1.071   2.198 -0.2522 -3.5966 -0.7442
 5123SOL     OW26827   2.446   2.941   4.916 -0.1499  0.6107 -0.1549
 5123SOL    HW126828   2.383   2.880   4.954  0.8246  0.5025  1.3069
 5123SOL    HW226829   2.437   2.918   4.824  1.7991  1.8712 -0.6539
 5124SOL     OW26830   2.151   3.872   3.759 -0.3110 -0.1813  0.0118
 5124SOL    HW126831   2.188   3.821   3.687  2.2341  2.0715 -0.2378
 5124SOL    HW226832   2.194   3.955   3.743 -0.2981 -0.2673 -0.4013
 5125SOL     OW26833   1.318   3.994   3.318  0.2526 -0.1177 -0.1778
 5125SOL    HW126834   1.236   4.028   3.283  0.9245  1.0164 -0.6507
 5125SOL    HW226835   1.389   4.021   3.260  1.7899 -3.0549  0.3602
 5126SOL     OW26836   2.054   2.647   9.446 -0.3611  0.0055  0.7140
 5126SOL    HW126837   2.040   2.622   9.537 -2.5721  0.0201  0.3676
 5126SOL    HW226838   2.070   2.740   9.461 -0.6567 -0.1043  1.6949
 5127SOL     OW26839   0.754   3.481   8.278 -0.0517 -0.1956 -0.2240
 5127SOL    HW126840   0.765   3.443   8.191 -2.1765 -0.8411 -0.2010
 5127SOL    HW226841   0.739   3.400   8.328 -0.7495  0.7701  1.1159
 5128SOL     OW26842   4.324   3.227   1.869  0.1784  1.1712  0.3411
 5128SOL    HW126843   4.306   3.220   1.963  2.7572  0.2933  0.7715
 5128SOL    HW226844   4.368   3.144   1.849  0.5993  1.1015  1.5497
 5129SOL     OW26845   4.636   3.823   7.633 -0.1724  0.2208  0.6836
 5129SOL    HW126846   4.560   3.781   7.671 -1.2437  0.8929 -0.6953
 5129SOL    HW226847   4.652   3.767   7.557 -1.5041 -0.0016  0.5787
 5130SOL     OW26848   3.198   4.099   3.018  0.1750  0.5500 -0.6453
 5130SOL    HW126849   3.250   4.175   2.991  1.1618  0.1361  0.0814
 5130SOL    HW226850   3.138   4.139   3.081  1.4120 -0.6650  1.3076
 5131SOL     OW26851   4.670   2.585   2.366  0.1380  0.3851  0.6249
 5131SOL    HW126852   4.671   2.592   2.271 -0.4513  3.7049  0.8803
 5131SOL    HW226853   4.627   2.665   2.397  0.4887  1.1140 -0.7793
 5132SOL     OW26854   3.823   4.431   7.921  1.1162  0.2459  0.5677
 5132SOL    HW126855   3.880   4.495   7.965 -0.1506 -0.3322  3.0633
 5132SOL    HW226856   3.824   4.371   7.996  0.5996  2.9147  2.7210
 5133SOL     OW26857   2.793   1.367  12.228  0.2823 -0.2184  0.2567
 5133SOL    HW126858   2.859   1.298  12.241  0.3447  0.1048  1.6651
 5133SOL    HW226859   2.852   1.429  12.184 -0.5150  1.1642  1.1496
 5134SOL     OW26860   2.988   1.263   2.276 -0.4305  0.4296  0.0451
 5134SOL    HW126861   2.957   1.287   2.364  0.4253 -0.1162  0.4923
 5134SOL    HW226862   2.904   1.274   2.232  0.4202  0.9319 -1.4591
 5135SOL     OW26863   1.757   3.217   3.400 -0.2140  0.1488 -0.0598
 5135SOL    HW126864   1.728   3.245   3.314  1.0165 -2.2751 -1.2575
 5135SOL    HW226865   1.672   3.220   3.444 -0.1548  1.0165 -0.0126
 5136SOL     OW26866   1.511   2.138   3.573  0.6805 -0.0850  0.1866
 5136SOL    HW126867   1.574   2.068   3.592  0.3506 -0.7835 -1.2878
 5136SOL    HW226868   1.430   2.086   3.577  1.7222 -1.8367 -1.3420
 5137SOL     OW26869   1.393   4.370   2.872 -0.1168 -0.2234 -0.0040
 5137SOL    HW126870   1.482   4.340   2.854 -0.3523 -1.6247  1.1413
 5137SOL    HW226871   1.371   4.382   2.780 -0.0762 -2.9122 -0.3451
 5138SOL     OW26872   3.544   3.998   7.031  0.1853  0.0260  0.2955
 5138SOL    HW126873   3.494   4.034   6.958  1.8957  2.1550  0.1642
 5138SOL    HW226874   3.628   4.040   7.015  0.2717 -0.0674  0.5137
 5139SOL     OW26875   0.728   3.504  17.110  0.4472 -0.1976 -0.4464
 5139SOL    HW126876   0.657   3.566  17.098  0.2097  0.0566  2.2337
 5139SOL    HW226877   0.706   3.437  17.045 -1.5318 -0.7649  0.8210
 5140SOL     OW26878   2.149   0.263   8.265  0.0433  0.0154 -0.2416
 5140SOL    HW126879   2.205   0.189   8.244 -1.4265 -1.2656  0.2987
 5140SOL    HW226880   2.165   0.278   8.358  1.4392 -0.0842 -0.4674
 5141SOL     OW26881   2.806   0.849  17.477  0.5824 -0.4650 -0.4670
 5141SOL    HW126882   2.793   0.826  17.385  0.1514  0.5442 -0.6556
 5141SOL    HW226883   2.718   0.836  17.512  0.6035  1.1407  0.1910
 5142SOL     OW26884   0.672   4.703   2.676  0.5198 -0.0168  0.1534
 5142SOL    HW126885   0.711   4.644   2.611  0.4031  1.0662 -0.9105
 5142SOL    HW226886   0.748   0.020   2.716  0.2091  0.1078  0.6120
 5143SOL     OW26887   1.702   0.757  17.257  0.5291 -0.1645  0.2488
 5143SOL    HW126888   1.741   0.843  17.245 -1.0069  0.2661 -1.6460
 5143SOL    HW226889   1.773   0.700  17.288  2.4979  1.6547 -0.9464
 5144SOL     OW26890   4.696   4.502   1.811 -0.3612  0.3929 -0.0060
 5144SOL    HW126891   4.616   4.554   1.798  1.3991  3.1146  0.1564
 5144SOL    HW226892   4.662   4.429   1.863 -0.9891  0.2136 -0.6566
 5145SOL     OW26893   0.392   3.925   4.931 -0.4200  0.0852  0.3848
 5145SOL    HW126894   0.484   3.915   4.952 -0.0886 -1.2616 -1.7045
 5145SOL    HW226895   0.404   3.937   4.837 -0.6660  1.2498  0.5013
 5146SOL     OW26896   0.020   3.277   3.065  0.0000  0.2976  0.0389
 5146SOL    HW126897   4.714   3.203   3.012  1.3994 -1.4462  1.6544
 5146SOL    HW226898   4.665   3.307   3.108 -0.3770 -2.3044  1.1633
 5147SOL     OW26899   2.154   1.954   6.504  0.0024  0.1281 -0.0568
 5147SOL    HW126900   2.136   1.949   6.410 -0.4529 -0.0806  0.0431
 5147SOL    HW226901   2.121   1.869   6.532 -0.7086  0.6011  0.5432
 5148SOL     OW26902   4.483   2.764   8.263  0.5190  0.6688  0.2165
 5148SOL    HW126903   4.476   2.843   8.316  0.0316  1.3608 -0.8817
 5148SOL    HW226904   4.465   2.798   8.176 -0.1445  0.3438  0.2266
 5149SOL     OW26905   3.695   3.605  15.712  0.3758 -0.7479 -0.3605
 5149SOL    HW126906   3.671   3.556  15.791 -0.7962 -0.2752 -0.4192
 5149SOL    HW226907   3.790   3.617  15.718  0.1207  0.6765  1.0967
 5150SOL     OW26908   3.530   3.019   7.263  0.1897  0.6704 -0.4777
 5150SOL    HW126909   3.560   2.937   7.301 -0.1114  1.4393  1.4267
 5150SOL    HW226910   3.523   2.998   7.169 -0.2842 -3.3022  0.4418
 5151SOL     OW26911   3.405   0.331  16.628 -0.2497  0.7130 -0.2666
 5151SOL    HW126912   3.387   0.364  16.539 -1.5076 -0.7514 -0.5712
 5151SOL    HW226913   3.407   0.235  16.617 -0.3613  0.4008  2.5412
 5152SOL     OW26914   2.515   1.932   4.225  0.5537 -0.4391 -0.1718
 5152SOL    HW126915   2.498   2.012   4.275  2.7327  0.3218 -0.6436
 5152SOL    HW226916   2.451   1.874   4.267 -0.4924  0.0521 -1.1009
 5153SOL     OW26917   0.637   2.506   6.565 -0.2139  0.3281  0.4075
 5153SOL    HW126918   0.597   2.548   6.489 -0.3271  0.3887  0.5014
 5153SOL    HW226919   0.638   2.570   6.636 -0.1810 -0.0313  0.7309
 5154SOL     OW26920   1.873   4.088   3.206  0.2198 -0.1300  0.1905
 5154SOL    HW126921   1.959   4.084   3.247 -0.3696 -0.6114  1.3643
 5154SOL    HW226922   1.908   4.091   3.117 -1.0214 -1.1457 -0.3338
 5155SOL     OW26923   1.666   1.273  11.902 -0.1223 -0.1663 -0.1185
 5155SOL    HW126924   1.740   1.310  11.854 -1.1438  1.4266 -0.4406
 5155SOL    HW226925   1.617   1.241  11.826 -0.3554  0.0120 -0.0400
 5156SOL     OW26926   4.448   1.030   3.935  0.5673 -0.1256  0.5003
 5156SOL    HW126927   4.530   1.070   3.908  2.1699 -2.2317  2.2270
 5156SOL    HW226928   4.404   1.034   3.850  0.8480  0.9601  0.4109
 5157SOL     OW26929   2.055   3.776   0.922 -0.2677 -0.5580 -0.0267
 5157SOL    HW126930   2.005   3.724   0.986  0.9779  1.1878  2.3554
 5157SOL    HW226931   2.121   3.805   0.985 -0.3944 -0.4894  0.0736
 5158SOL     OW26932   3.870   0.929  17.050  0.5088 -0.3720  0.4349
 5158SOL    HW126933   3.777   0.912  17.039  0.4866 -1.0376  1.7171
 5158SOL    HW226934   3.912   0.862  16.995  0.3989  1.4564 -1.8724
 5159SOL     OW26935   3.012   1.151   0.302  0.3149  0.0065 -0.4435
 5159SOL    HW126936   3.068   1.073   0.301 -0.3758 -0.5406  1.3244
 5159SOL    HW226937   2.968   1.130   0.220  1.1769 -0.6066 -0.7493
 5160SOL     OW26938   3.536   0.274   3.531  0.0849  0.7870 -0.3305
 5160SOL    HW126939   3.610   0.265   3.591  1.3537  1.1302 -1.8482
 5160SOL    HW226940   3.462   0.295   3.587  2.0135  1.7462  1.8243
 5161SOL     OW26941   0.209   3.358   6.328 -0.0129  0.0929 -0.3637
 5161SOL    HW126942   0.196   3.360   6.423 -2.4091 -3.1588 -0.6019
 5161SOL    HW226943   0.142   3.418   6.297  1.3356  0.5076 -2.4553
 5162SOL     OW26944   0.355   3.557   8.671  0.3558  0.3319  0.3467
 5162SOL    HW126945   0.292   3.550   8.742  1.7936  0.8982  1.6858
 5162SOL    HW226946   0.414   3.625   8.704 -0.0522 -0.2273  2.2069
 5163SOL     OW26947   0.259   0.763   1.991  0.8544  0.5389 -0.3705
 5163SOL    HW126948   0.276   0.857   2.003 -2.1748  1.2053 -1.2882
 5163SOL    HW226949   0.302   0.728   2.069  0.5921 -0.7651 -0.8214
 5164SOL     OW26950   0.252   4.513   4.668 -0.1271 -0.1477 -0.5208
 5164SOL    HW126951   0.308   4.587   4.646 -1.4319  0.2942 -2.4130
 5164SOL    HW226952   0.316   4.443   4.656  1.9141  1.1291  2.9665
 5165SOL     OW26953   2.274   0.088   7.222  0.1390  0.0075 -0.1164
 5165SOL    HW126954   2.351   0.146   7.226  0.9731 -1.3163  2.4683
 5165SOL    HW226955   2.245   0.095   7.313 -0.7394  0.0400 -0.3981
 5166SOL     OW26956   3.200   2.551   3.936  0.6346  0.1540  0.4714
 5166SOL    HW126957   3.286   2.577   3.906  1.1916 -1.1794  0.9041
 5166SOL    HW226958   3.205   2.530   4.029 -0.7329 -0.2667  0.4535
 5167SOL     OW26959   1.767   1.847   4.130 -0.6065 -0.0832 -0.4529
 5167SOL    HW126960   1.756   1.798   4.211  1.2332 -0.8588 -0.6834
 5167SOL    HW226961   1.743   1.782   4.064 -0.4946  1.1107 -1.6711
 5168SOL     OW26962   4.434   3.085  10.800  0.0897 -0.6752  0.3570
 5168SOL    HW126963   4.502   3.150  10.812 -0.5780 -0.4207  2.6418
 5168SOL    HW226964   4.416   3.103  10.707 -1.3878 -1.2137  0.5361
 5169SOL     OW26965   3.547   1.863   2.317  0.0879  0.1367  0.3819
 5169SOL    HW126966   3.572   1.832   2.404  0.2830  0.0787  0.3057
 5169SOL    HW226967   3.526   1.789   2.261  0.1123  0.8699 -0.5954
 5170SOL     OW26968   0.258   0.977   4.737  0.2530  0.2493 -0.1022
 5170SOL    HW126969   0.259   0.888   4.771 -0.8251  0.0592 -0.5731
 5170SOL    HW226970   0.254   1.028   4.817  0.4765 -0.1824  0.1832
 5171SOL     OW26971   3.702   0.467   3.251  0.2871 -0.3395  0.1788
 5171SOL    HW126972   3.781   0.451   3.303  0.8099 -0.8852 -0.7986
 5171SOL    HW226973   3.736   0.532   3.190  0.9421 -1.6548 -0.8573
 5172SOL     OW26974   1.551   0.453   7.532 -0.1380  0.1437  0.2316
 5172SOL    HW126975   1.561   0.452   7.437  0.3808 -0.9092  0.3027
 5172SOL    HW226976   1.619   0.394   7.563  1.8617  1.7035 -1.1777
 5173SOL     OW26977   0.196   2.166  16.809  0.3957 -0.6222  1.1799
 5173SOL    HW126978   0.138   2.107  16.858  0.0170 -1.0214  0.2521
 5173SOL    HW226979   0.285   2.142  16.834  1.2741 -0.4147 -1.7199
 5174SOL     OW26980   1.929   0.523   2.329 -0.1869  0.3445  0.0719
 5174SOL    HW126981   1.934   0.616   2.308  1.1684 -0.3358 -2.6912
 5174SOL    HW226982   1.850   0.519   2.383 -1.2113  2.4425 -1.2691
 5175SOL     OW26983   2.909   0.906   4.275  0.0722 -0.4757  0.1272
 5175SOL    HW126984   2.996   0.944   4.259 -0.8394  1.9314  0.8600
 5175SOL    HW226985   2.869   0.921   4.189 -0.1459 -0.4346  0.2359
 5176SOL     OW26986   3.412   3.542   8.362  0.3760 -0.0113 -0.0183
 5176SOL    HW126987   3.352   3.469   8.377  0.5961  0.2867  2.3385
 5176SOL    HW226988   3.358   3.609   8.405 -0.8454 -1.1080  0.1556
 5177SOL     OW26989   1.281   2.292  10.771  0.1327 -0.4880  0.6199
 5177SOL    HW126990   1.326   2.208  10.779 -2.0015 -1.6793  0.1701
 5177SOL    HW226991   1.337   2.334  10.706  0.8402 -2.7549 -0.2459
 5178SOL     OW26992   1.959   2.305   4.287 -0.2733  0.2938  0.4655
 5178SOL    HW126993   1.867   2.304   4.311 -0.7023  1.9355 -1.1627
 5178SOL    HW226994   1.980   2.213   4.305 -0.9813 -0.0108 -0.2569
 5179SOL     OW26995   0.437   0.339   4.492 -0.0031  0.0441  0.0105
 5179SOL    HW126996   0.488   0.380   4.422  0.6465  0.1072  0.5205
 5179SOL    HW226997   0.345   0.342   4.464  0.0897 -0.1819 -0.3114
 5180SOL     OW26998   3.174   3.279   0.846  0.4374  0.1075  0.0720
 5180SOL    HW126999   3.173   3.337   0.770 -0.7649  1.2022  0.9249
 5180SOL    HW227000   3.263   3.244   0.836  0.0820 -0.1299 -2.2572
 5181SOL     OW27001   1.064   1.141   5.086  0.1109 -0.2149 -0.1685
 5181SOL    HW127002   1.112   1.211   5.131  0.9731 -1.1082  0.3189
 5181SOL    HW227003   0.983   1.191   5.079  0.4152  0.6200  1.9605
 5182SOL     OW27004   2.479   3.401   2.507  0.2950 -0.1649 -0.0550
 5182SOL    HW127005   2.401   3.432   2.461 -0.4232  1.6118  2.3784
 5182SOL    HW227006   2.442   3.343   2.573 -0.5737 -0.4127 -0.7559
 5183SOL     OW27007   3.741   3.089   4.386  0.1111  0.1346 -0.0312
 5183SOL    HW127008   3.753   3.177   4.350 -0.1264 -0.1247 -0.7572
 5183SOL    HW227009   3.823   3.045   4.363 -0.7705 -1.9025  0.7261
 5184SOL     OW27010   4.594   0.494   0.485  0.6575 -0.3031  0.1603
 5184SOL    HW127011   4.665   0.448   0.530 -0.1908 -0.2474  1.5330
 5184SOL    HW227012   4.538   0.521   0.558 -1.6747  0.3602 -1.8846
 5185SOL     OW27013   0.352   2.989   8.594  0.3979 -0.2696 -0.1472
 5185SOL    HW127014   0.366   3.047   8.669 -0.1652  1.7216 -1.5973
 5185SOL    HW227015   0.359   3.046   8.517 -0.4732 -0.8420 -0.6429
 5186SOL     OW27016   0.597   2.483   4.974 -0.0207 -0.3045 -0.3428
 5186SOL    HW127017   0.530   2.465   4.909 -2.1485  0.1170  1.7180
 5186SOL    HW227018   0.630   2.565   4.938  0.3581 -0.2288  0.1678
 5187SOL     OW27019   1.761   3.953   6.615  0.2876 -0.3259  0.0333
 5187SOL    HW127020   1.777   3.933   6.523 -0.3275  2.6533 -0.7058
 5187SOL    HW227021   1.712   3.874   6.636  2.2503 -1.4187  0.5361
 5188SOL     OW27022   1.136   3.428   6.020  0.1574  0.3322  0.6412
 5188SOL    HW127023   1.160   3.423   6.113 -1.8179 -2.5922  1.0108
 5188SOL    HW227024   1.184   3.350   5.990 -0.1413  0.2076  0.4862
 5189SOL     OW27025   0.986   4.095   0.240 -0.3391 -0.0716 -0.3113
 5189SOL    HW127026   0.949   4.120   0.325 -0.4819  0.2517 -0.4680
 5189SOL    HW227027   0.983   4.000   0.250 -0.5410 -0.0588 -0.2395
 5190SOL     OW27028   0.840   2.388   7.548 -0.4160 -0.8018  0.0797
 5190SOL    HW127029   0.884   2.442   7.482  0.3493 -1.9654 -0.3511
 5190SOL    HW227030   0.766   2.352   7.500  0.0567  0.0243 -1.2785
 5191SOL     OW27031   2.336   0.459   2.602  0.2861  0.4817 -0.4704
 5191SOL    HW127032   2.285   0.433   2.525 -1.7610  0.7653  0.7918
 5191SOL    HW227033   2.311   0.551   2.611 -0.7172  0.2485 -0.8104
 5192SOL     OW27034   1.341   1.880   6.873  0.3533 -0.1935  0.2456
 5192SOL    HW127035   1.311   1.863   6.783 -2.6796 -0.9493  1.3917
 5192SOL    HW227036   1.434   1.862   6.861  0.5073 -1.1877  3.0244
 5193SOL     OW27037   3.501   0.608  14.624  0.0989 -0.2413 -0.3624
 5193SOL    HW127038   3.497   0.537  14.687  2.1962 -0.4853 -0.5213
 5193SOL    HW227039   3.408   0.624  14.607 -0.0136  1.4248  1.7613
 5194SOL     OW27040   3.353   1.080   7.226 -0.7460  0.1952  0.1324
 5194SOL    HW127041   3.416   1.095   7.296 -0.8936  1.4055  0.0002
 5194SOL    HW227042   3.364   1.157   7.170 -0.7657  0.2816  0.2471
 5195SOL     OW27043   4.240   1.824  12.856  0.3991  0.1489  0.5614
 5195SOL    HW127044   4.203   1.740  12.827  0.3224 -0.7487  3.1656
 5195SOL    HW227045   4.213   1.839  12.947  1.5303 -1.1893  1.1258
 5196SOL     OW27046   0.493   1.938   6.323  0.0235 -0.0627  1.0793
 5196SOL    HW127047   0.433   2.006   6.352 -1.3180 -0.5490 -0.5765
 5196SOL    HW227048   0.550   1.950   6.400 -0.1224  0.9603  1.0261
 5197SOL     OW27049   3.274   3.733   5.625  0.4421  0.3068 -0.3159
 5197SOL    HW127050   3.246   3.815   5.665  1.6963  0.8867 -0.6175
 5197SOL    HW227051   3.193   3.710   5.580 -2.3574 -0.8459  5.3001
 5198SOL     OW27052   3.132   0.399  14.389 -0.4860  0.1164 -0.2099
 5198SOL    HW127053   3.041   0.389  14.417 -0.2667  0.6906  0.6834
 5198SOL    HW227054   3.157   0.307  14.394 -1.4713 -0.1772 -0.4946
 5199SOL     OW27055   0.549   4.680   8.687 -0.2358 -0.2912 -0.2657
 5199SOL    HW127056   0.467   4.665   8.642 -1.4539 -2.1641  2.5725
 5199SOL    HW227057   0.591   0.025   8.636 -0.2278  0.5537  0.8949
 5200SOL     OW27058   0.548   0.387   8.322 -0.2423 -0.2287  0.3644
 5200SOL    HW127059   0.636   0.351   8.322 -0.0573  0.2184  0.8722
 5200SOL    HW227060   0.516   0.342   8.244 -2.2469 -0.3182  1.2318
 5201SOL     OW27061   0.231   2.893   8.881 -0.1732  0.5569  0.1888
 5201SOL    HW127062   0.142   2.921   8.902 -0.1701  0.2899  0.5647
 5201SOL    HW227063   0.280   2.973   8.899  0.7299  0.0428  0.0034
 5202SOL     OW27064   3.660   3.630  17.068 -0.5554 -0.4392 -0.1816
 5202SOL    HW127065   3.708   3.695  17.017 -0.5118  1.4588  2.2753
 5202SOL    HW227066   3.661   3.679  17.150  0.0525 -1.7964  0.6144
 5203SOL     OW27067   3.526   0.264   6.935  0.4869  0.0318 -0.3373
 5203SOL    HW127068   3.435   0.235   6.947  1.3772 -1.7155  2.0922
 5203SOL    HW227069   3.545   0.205   6.862 -2.5336  1.1210 -2.0222
 5204SOL     OW27070   4.657   4.373   7.037 -0.1335 -0.5358 -1.0777
 5204SOL    HW127071   4.670   4.459   7.074 -1.2491 -0.3852 -1.0345
 5204SOL    HW227072   4.578   4.341   7.081 -1.9665  2.9744 -1.8573
 5205SOL     OW27073   1.099   3.633   6.556 -0.1273 -0.7284 -0.6359
 5205SOL    HW127074   1.029   3.616   6.620  1.9772 -1.3104  1.5341
 5205SOL    HW227075   1.134   3.548   6.528 -0.3260  0.3459 -4.1190
 5206SOL     OW27076   3.947   0.503   7.280  0.6595  0.3516 -0.5396
 5206SOL    HW127077   3.939   0.589   7.239 -0.1205 -0.8884 -3.0381
 5206SOL    HW227078   3.883   0.455   7.226  1.0839 -0.4446 -0.3410
 5207SOL     OW27079   2.460   1.335   5.105  0.5589  0.0136  0.4277
 5207SOL    HW127080   2.445   1.241   5.096  0.4886 -0.0174  0.8739
 5207SOL    HW227081   2.372   1.371   5.091  1.8259  1.7951 -2.7778
 5208SOL     OW27082   0.877   1.222   5.430 -0.2348  0.3948  0.0468
 5208SOL    HW127083   0.826   1.224   5.350  1.0201  0.5658 -0.7545
 5208SOL    HW227084   0.815   1.241   5.500 -0.2795  0.7908 -0.1041
 5209SOL     OW27085   2.520   1.415   9.055  1.2376 -0.9495 -0.6436
 5209SOL    HW127086   2.592   1.466   9.094  1.1183 -1.8504  0.7644
 5209SOL    HW227087   2.465   1.388   9.129  2.5648  2.6819  1.6841
 5210SOL     OW27088   0.588   3.729  17.049 -0.1827 -0.3223  0.4807
 5210SOL    HW127089   0.510   3.694  17.006  0.3291 -2.7677  1.5088
 5210SOL    HW227090   0.644   3.774  16.986 -1.7730 -0.7047 -1.2000
 5211SOL     OW27091   0.517   3.711  13.652 -0.4053  0.1603  0.6906
 5211SOL    HW127092   0.477   3.632  13.690 -3.0097  0.8767 -0.6377
 5211SOL    HW227093   0.453   3.773  13.687  0.9222  1.3033  1.0998
 5212SOL     OW27094   3.910   2.700   1.140 -0.0419 -0.6180  0.2255
 5212SOL    HW127095   3.942   2.786   1.114  0.7877 -0.4847  1.6896
 5212SOL    HW227096   3.823   2.703   1.100 -0.9224 -0.9068  2.1444
 5213SOL     OW27097   0.017   0.235   6.872 -0.9358  0.5167  0.1364
 5213SOL    HW127098   4.676   0.187   6.923 -0.0305 -1.5563 -0.6689
 5213SOL    HW227099   0.072   0.274   6.941  2.3257 -0.7949 -1.7329
 5214SOL     OW27100   0.920   4.009   2.380  0.1041  0.0371 -0.0142
 5214SOL    HW127101   0.856   3.999   2.310 -0.6626 -1.4112  0.9061
 5214SOL    HW227102   0.940   3.920   2.408 -0.5302  0.3686  1.5111
 5215SOL     OW27103   1.439   3.860  15.249  0.3635 -0.0948 -0.2522
 5215SOL    HW127104   1.515   3.880  15.195 -0.1562 -1.1590 -1.3742
 5215SOL    HW227105   1.474   3.885  15.334 -1.1746 -1.0001  0.6550
 5216SOL     OW27106   3.021   4.000   3.318  0.3942 -0.5047  0.3502
 5216SOL    HW127107   2.968   4.054   3.258 -1.1953  1.8518  3.8664
 5216SOL    HW227108   3.077   4.067   3.358  0.2426 -0.9400  1.2795
 5217SOL     OW27109   4.110   4.124   7.396  0.0985 -0.1918 -0.1288
 5217SOL    HW127110   4.067   4.165   7.471  0.8867 -1.4699  1.0179
 5217SOL    HW227111   4.113   4.029   7.408 -1.4995 -0.0470  1.5027
 5218SOL     OW27112   2.958   1.716   3.820  0.4377  0.0896  0.1358
 5218SOL    HW127113   2.970   1.806   3.850 -0.7960  0.1603  0.4465
 5218SOL    HW227114   3.033   1.704   3.762 -0.1923 -2.8780 -0.0878
 5219SOL     OW27115   3.134   2.851   7.441 -0.4462 -0.2458 -0.2571
 5219SOL    HW127116   3.175   2.935   7.419  0.2449 -0.3234  0.7332
 5219SOL    HW227117   3.074   2.835   7.368 -1.4189 -1.1988  0.7394
 5220SOL     OW27118   3.744   0.963   2.405 -0.1887  0.6604 -0.1706
 5220SOL    HW127119   3.788   0.960   2.321  2.8542  0.9050  1.4100
 5220SOL    HW227120   3.659   0.920   2.396  0.7646 -0.8042 -1.8962
 5221SOL     OW27121   2.171   4.007   2.260 -0.0356 -0.4897  0.0487
 5221SOL    HW127122   2.209   4.049   2.337 -1.6418  0.3883  0.3656
 5221SOL    HW227123   2.230   4.046   2.196  0.2949  1.7472  1.7403
 5222SOL     OW27124   2.992   3.961   4.005  0.1917 -0.0115  0.5083
 5222SOL    HW127125   2.946   3.967   3.921  1.3462 -0.6461 -0.1797
 5222SOL    HW227126   3.082   3.939   3.980  0.0485 -1.2946  1.1119
 5223SOL     OW27127   3.565   2.982   9.055 -0.1188  0.1939 -0.4260
 5223SOL    HW127128   3.537   3.044   9.122  0.4099 -2.1674  1.9844
 5223SOL    HW227129   3.545   3.035   8.978  0.9371  1.3607  0.0899
 5224SOL     OW27130   1.755   2.757   4.025 -0.1547  0.0685 -1.0242
 5224SOL    HW127131   1.709   2.764   3.942 -1.3187 -0.8506 -0.4729
 5224SOL    HW227132   1.837   2.714   3.999  1.1368  0.4299  2.4041
 5225SOL     OW27133   2.781   0.571  14.084 -0.6769 -0.3553 -0.1648
 5225SOL    HW127134   2.741   0.491  14.048  1.1656 -1.0773 -0.6026
 5225SOL    HW227135   2.748   0.647  14.037  1.8981 -0.0070 -1.3785
 5226SOL     OW27136   3.534   1.455   6.163 -0.4704 -0.0274 -0.0512
 5226SOL    HW127137   3.542   1.474   6.069  0.2073  1.4099  0.2837
 5226SOL    HW227138   3.607   1.394   6.171  1.2132  1.5532 -2.9394
 5227SOL     OW27139   0.079   1.243   7.371  0.4450 -0.4178 -0.2023
 5227SOL    HW127140   0.089   1.292   7.452  2.3648  1.0347 -1.3039
 5227SOL    HW227141   0.001   1.193   7.394  0.6586 -0.2394  0.8893
 5228SOL     OW27142   0.869   3.384   8.889 -0.0444 -0.2838  0.1091
 5228SOL    HW127143   0.962   3.375   8.908  0.2091 -0.9394 -1.4364
 5228SOL    HW227144   0.850   3.477   8.905  1.7248  0.5311 -2.4630
 5229SOL     OW27145   2.115   3.153  13.891  0.1871 -0.1930 -0.0697
 5229SOL    HW127146   2.190   3.156  13.951  0.2790 -0.6036 -0.1684
 5229SOL    HW227147   2.161   3.187  13.813  2.7590 -2.8446  0.2773
 5230SOL     OW27148   1.542   3.747   8.656  0.3202 -0.1068 -0.1191
 5230SOL    HW127149   1.516   3.656   8.644  1.3330 -0.3854 -0.1651
 5230SOL    HW227150   1.563   3.752   8.749  0.7431 -2.1230 -0.1285
 5231SOL     OW27151   4.653   1.670   5.435 -0.1952 -0.1844 -0.4932
 5231SOL    HW127152   4.645   1.594   5.492 -0.3470  1.8464  2.1880
 5231SOL    HW227153   4.611   1.647   5.352 -0.0492 -1.3268 -0.2469
 5232SOL     OW27154   3.567   1.598   0.394  0.7687  0.3700  0.3332
 5232SOL    HW127155   3.505   1.668   0.374 -2.0719 -1.5998  2.3049
 5232SOL    HW227156   3.553   1.536   0.322 -1.2669  1.6580 -0.3759
 5233SOL     OW27157   4.487   1.050   7.244 -1.0317 -0.1166  0.1921
 5233SOL    HW127158   4.437   0.993   7.186 -0.2976 -0.1843 -0.3745
 5233SOL    HW227159   4.465   1.137   7.213 -1.6306  0.0778  1.1735
 5234SOL     OW27160   1.173   3.891   5.049  1.1340  0.5551 -0.5074
 5234SOL    HW127161   1.194   3.974   5.006  0.8712  1.0225  0.2733
 5234SOL    HW227162   1.263   3.858   5.062  0.6188 -0.5864  0.2211
 5235SOL     OW27163   1.638   2.518   9.375  0.6552 -0.5320  0.1720
 5235SOL    HW127164   1.653   2.610   9.397  0.0369 -0.5511  0.6442
 5235SOL    HW227165   1.583   2.497   9.450 -0.4109 -0.9000 -0.7139
 5236SOL     OW27166   0.060   1.024   3.642  0.5976  0.0990 -0.7725
 5236SOL    HW127167   4.705   0.993   3.600 -0.4353 -1.4098  2.3075
 5236SOL    HW227168   0.054   1.112   3.604 -1.3632  1.1533  1.9541
 5237SOL     OW27169   4.670   4.608  10.262  0.8163  0.3985 -0.4207
 5237SOL    HW127170   4.686   4.662  10.184  1.2775  1.8124  0.6460
 5237SOL    HW227171   4.613   4.672  10.305  0.6820 -0.7727  1.1078
 5238SOL     OW27172   1.114   0.588   6.646 -0.7292 -0.3599 -0.1036
 5238SOL    HW127173   1.045   0.609   6.583  0.3085 -1.3527 -1.5958
 5238SOL    HW227174   1.061   0.550   6.716 -0.9775 -1.6539 -0.9833
 5239SOL     OW27175   4.021   1.992  14.801  0.5490  0.0371  0.4334
 5239SOL    HW127176   4.003   1.964  14.711 -2.3670 -1.4448  1.4559
 5239SOL    HW227177   4.013   2.087  14.797  0.3345 -0.0273 -0.7592
 5240SOL     OW27178   4.434   1.182   7.625 -0.2873  0.4358 -0.1946
 5240SOL    HW127179   4.430   1.166   7.719 -1.2606  1.5797 -0.0306
 5240SOL    HW227180   4.434   1.278   7.629 -0.1028  0.4154  0.2770
 5241SOL     OW27181   0.199   0.710  13.265  0.3242 -0.0222 -0.5513
 5241SOL    HW127182   0.209   0.715  13.170  0.3070 -0.2637 -0.5675
 5241SOL    HW227183   0.189   0.800  13.295 -0.5240 -0.4417  0.4418
 5242SOL     OW27184   1.983   0.571   8.364  0.1844  0.3964  0.2681
 5242SOL    HW127185   2.004   0.604   8.452  0.1977  2.0438 -0.3553
 5242SOL    HW227186   2.060   0.591   8.312 -1.9048  2.3696 -2.0607
 5243SOL     OW27187   4.338   3.299   5.251 -0.3723  0.7234 -0.2184
 5243SOL    HW127188   4.397   3.237   5.294 -0.1192 -0.4301 -2.2266
 5243SOL    HW227189   4.364   3.282   5.160  2.9413  1.1036  0.6690
 5244SOL     OW27190   1.577   3.501   1.545 -0.2423  0.5713  0.5401
 5244SOL    HW127191   1.549   3.410   1.555 -1.1835  0.9599  1.4573
 5244SOL    HW227192   1.612   3.504   1.456  1.7194  2.4033  1.3675
 5245SOL     OW27193   1.087   1.263   2.158  0.3565  0.2339  0.0482
 5245SOL    HW127194   1.166   1.260   2.104 -0.1528  1.4758 -0.7557
 5245SOL    HW227195   1.088   1.356   2.179  1.3500  0.3219 -0.4265
 5246SOL     OW27196   2.053   3.961  15.856  0.1581 -0.4892 -0.5438
 5246SOL    HW127197   2.015   3.906  15.787 -1.1711 -0.6180  0.2946
 5246SOL    HW227198   2.101   3.895  15.907 -2.3544 -0.1123  2.2946
 5247SOL     OW27199   1.020   4.704   6.724  0.0326 -0.0010 -0.3433
 5247SOL    HW127200   1.026   4.620   6.680 -0.8330 -0.0094 -0.4290
 5247SOL    HW227201   1.058   0.044   6.664  0.2996 -0.0485 -0.2291
 5248SOL     OW27202   1.764   4.342   7.831 -0.3433 -0.3503 -0.0170
 5248SOL    HW127203   1.724   4.263   7.867 -0.0787 -1.9241 -3.1246
 5248SOL    HW227204   1.800   4.304   7.750  1.3157  1.8990 -0.3276
 5249SOL     OW27205   1.200   2.292   6.079 -0.8419 -0.0067  0.2779
 5249SOL    HW127206   1.242   2.244   6.151 -3.3570 -1.5062  0.7455
 5249SOL    HW227207   1.242   2.377   6.086  2.4430 -1.6421  0.5500
 5250SOL     OW27208   4.689   0.004  11.982  0.2647 -0.4761 -0.2203
 5250SOL    HW127209   4.614   4.671  11.998  1.9467 -2.1309  1.7950
 5250SOL    HW227210   4.652   0.078  12.029  0.5148  0.4612 -1.5126
 5251SOL     OW27211   0.558   2.030   4.429 -0.1231  0.0925 -0.2517
 5251SOL    HW127212   0.567   1.999   4.339 -1.7668 -2.2737  0.4253
 5251SOL    HW227213   0.596   1.954   4.471 -4.4276 -3.1624 -2.2251
 5252SOL     OW27214   1.093   4.202   1.072 -0.4411 -0.0543 -0.1927
 5252SOL    HW127215   1.023   4.183   1.134  0.6729 -0.9223  0.8071
 5252SOL    HW227216   1.094   4.122   1.020  0.9330  0.3755 -0.8406
 5253SOL     OW27217   1.348   3.466   8.029 -0.0329  0.0387 -0.2080
 5253SOL    HW127218   1.434   3.425   8.043 -0.0064 -0.5543 -2.0459
 5253SOL    HW227219   1.363   3.544   8.082  2.2260 -1.0317  0.7154
 5254SOL     OW27220   1.786   2.920   8.633  0.3637 -0.2675  0.3946
 5254SOL    HW127221   1.824   2.958   8.712  3.0298 -1.4682 -0.3090
 5254SOL    HW227222   1.798   2.994   8.574  2.0635  0.6159  1.8853
 5255SOL     OW27223   2.708   3.935   2.924  0.3470  0.5763 -0.0886
 5255SOL    HW127224   2.645   3.868   2.895  2.6020 -1.3601 -0.5129
 5255SOL    HW227225   2.646   4.007   2.911 -2.5053 -1.3541  2.6690
 5256SOL     OW27226   3.864   2.923   6.456 -0.2073 -0.7218  0.1621
 5256SOL    HW127227   3.935   2.884   6.405 -0.2144 -0.8968  0.2870
 5256SOL    HW227228   3.900   2.925   6.544  0.3822 -0.4861 -0.0845
 5257SOL     OW27229   0.967   1.533   4.397 -0.1564  0.2508 -0.0101
 5257SOL    HW127230   0.976   1.554   4.490 -2.0508  1.6570 -0.1307
 5257SOL    HW227231   0.893   1.585   4.364  0.7280  1.5232 -0.0137
 5258SOL     OW27232   2.387   1.300   2.943  0.2489  0.8524  0.0870
 5258SOL    HW127233   2.362   1.223   2.892  1.1823  0.5217  0.1310
 5258SOL    HW227234   2.304   1.311   2.990 -0.5266 -0.1708 -1.0394
 5259SOL     OW27235   3.336   2.952  15.883  0.4617  0.3418  0.2355
 5259SOL    HW127236   3.387   3.015  15.832  0.6162 -0.1464 -0.2071
 5259SOL    HW227237   3.339   2.875  15.826 -0.9223  0.8380 -0.4977
 5260SOL     OW27238   3.480   4.551  11.431 -0.1637 -0.1078  0.0272
 5260SOL    HW127239   3.520   4.587  11.509  0.0112 -0.8268  0.2724
 5260SOL    HW227240   3.440   4.466  11.452 -2.2396  0.6255 -0.9757
 5261SOL     OW27241   2.174   4.704   3.894  0.0158  0.0158  0.5929
 5261SOL    HW127242   2.199   4.612   3.889  1.8397  0.5574 -0.2621
 5261SOL    HW227243   2.262   0.016   3.880  0.5859 -2.1501 -1.4581
 5262SOL     OW27244   3.550   2.840   9.674 -0.2220  0.3989  0.1257
 5262SOL    HW127245   3.548   2.768   9.611 -0.4032 -1.0670  1.7972
 5262SOL    HW227246   3.528   2.784   9.749 -1.8850 -0.5234 -1.0689
 5263SOL     OW27247   3.158   4.102   4.563  0.0027  0.4453 -0.1509
 5263SOL    HW127248   3.158   4.006   4.558  1.4782  0.3889  0.9551
 5263SOL    HW227249   3.219   4.114   4.636 -1.7609  0.6505  1.2823
 5264SOL     OW27250   3.395   4.295  11.883  0.3538 -0.0151 -0.2248
 5264SOL    HW127251   3.303   4.300  11.859  1.3276  2.6669 -3.3995
 5264SOL    HW227252   3.398   4.383  11.921  0.6601 -0.6392  1.2091
 5265SOL     OW27253   1.996   2.979   1.035 -0.1677 -0.2451 -0.3830
 5265SOL    HW127254   2.028   3.063   1.068 -2.0312  0.0975  0.5673
 5265SOL    HW227255   2.000   2.928   1.116 -1.1130 -1.8102 -1.3284
 5266SOL     OW27256   3.131   1.786   2.928 -0.4414  0.4941 -0.0340
 5266SOL    HW127257   3.068   1.800   2.858  0.7314  1.2201 -0.9480
 5266SOL    HW227258   3.210   1.783   2.874  1.1757 -1.6003  2.4314
 5267SOL     OW27259   1.652   3.096   6.662 -0.3526  0.3909  0.0258
 5267SOL    HW127260   1.693   3.021   6.619 -0.5294 -1.7390  3.6262
 5267SOL    HW227261   1.679   3.165   6.601  0.1325  1.1336  1.0908
 5268SOL     OW27262   0.382   4.724  13.379 -0.0427  0.0186 -0.4612
 5268SOL    HW127263   0.431   0.080  13.361 -0.5525  0.0695 -1.6272
 5268SOL    HW227264   0.426   4.659  13.325  0.8152 -0.1483  0.4426
 5269SOL     OW27265   1.808   0.819  15.124 -0.0371  0.0526  1.1322
 5269SOL    HW127266   1.903   0.808  15.111 -0.7529 -2.4861 -1.9889
 5269SOL    HW227267   1.772   0.731  15.110 -1.0095  0.5619  0.4934
 5270SOL     OW27268   3.496   0.233   2.600  0.6346  0.4622 -0.1486
 5270SOL    HW127269   3.513   0.296   2.530 -0.5963 -0.8992 -1.6597
 5270SOL    HW227270   3.453   0.163   2.551  2.8645 -1.1170  0.1452
 5271SOL     OW27271   2.800   0.250  13.552  0.0986 -0.1419  0.0096
 5271SOL    HW127272   2.852   0.244  13.631 -1.5278 -0.1320  1.0882
 5271SOL    HW227273   2.856   0.299  13.492 -0.0197 -1.9905 -1.6261
 5272SOL     OW27274   0.520   1.878  17.615 -0.0223  0.2968 -0.3467
 5272SOL    HW127275   0.515   1.836   0.002 -0.2598 -0.4462 -0.7197
 5272SOL    HW227276   0.512   1.809  17.549 -3.0488  1.0152 -0.7207
 5273SOL     OW27277   3.020   1.333   3.852 -0.3207  0.6887  0.5701
 5273SOL    HW127278   3.101   1.316   3.901  1.1756 -0.1645 -2.1932
 5273SOL    HW227279   3.054   1.385   3.779  0.7761 -0.7132  0.0817
 5274SOL     OW27280   2.428   1.250   4.224  0.2174  0.1910 -0.1890
 5274SOL    HW127281   2.453   1.216   4.309 -0.1329 -0.4466 -0.3429
 5274SOL    HW227282   2.497   1.312   4.198  0.2821 -0.3132 -1.2480
 5275SOL     OW27283   3.520   2.228   3.123  0.3451 -0.2719 -0.1921
 5275SOL    HW127284   3.594   2.283   3.147 -2.2015  3.3833 -0.7209
 5275SOL    HW227285   3.489   2.182   3.201 -0.3025 -0.4573 -0.5607
 5276SOL     OW27286   0.747   2.161   1.980 -0.2107  0.1674 -0.1672
 5276SOL    HW127287   0.712   2.249   1.971 -0.4244  0.2101  1.1473
 5276SOL    HW227288   0.760   2.152   2.074  0.7526  0.3907 -0.2754
 5277SOL     OW27289   3.866   2.834   4.001 -0.3347 -0.1221  0.2520
 5277SOL    HW127290   3.820   2.917   4.018  2.0130  1.3882 -0.7140
 5277SOL    HW227291   3.790   2.776   3.995 -0.6067  0.4467 -1.9432
 5278SOL     OW27292   4.477   0.810   0.989 -0.0510  0.1719 -0.0425
 5278SOL    HW127293   4.384   0.786   0.989 -0.3528  1.3551 -2.3158
 5278SOL    HW227294   4.515   0.723   1.004 -1.6372 -0.8115 -1.6433
 5279SOL     OW27295   2.539   1.469  12.245 -0.2612  0.4389  0.1931
 5279SOL    HW127296   2.625   1.432  12.224 -0.2522 -0.0685  1.1021
 5279SOL    HW227297   2.564   1.558  12.267  1.4251 -0.0614  0.2655
 5280SOL     OW27298   3.038   0.245   7.456 -0.7716 -0.4086 -0.5776
 5280SOL    HW127299   2.968   0.310   7.446  0.5063  1.1727  0.6616
 5280SOL    HW227300   3.114   0.298   7.433 -1.0868 -0.6550 -2.1789
 5281SOL     OW27301   1.985   4.680   7.811  0.1397  0.3320 -0.0883
 5281SOL    HW127302   1.982   4.631   7.893 -2.4959 -0.9902 -0.9735
 5281SOL    HW227303   1.965   0.045   7.841 -0.6099  0.0107  0.3645
 5282SOL     OW27304   4.012   0.644  17.686  0.3302 -0.0729  0.3746
 5282SOL    HW127305   3.983   0.575   0.046 -1.8594 -0.0360 -0.6729
 5282SOL    HW227306   4.091   0.604  17.649  0.4408 -1.4183  2.0571
 5283SOL     OW27307   1.504   2.229  11.022  0.9293  0.1120 -0.1565
 5283SOL    HW127308   1.423   2.218  11.071  1.6924  1.0814  1.2960
 5283SOL    HW227309   1.528   2.320  11.039 -1.0592  0.2945  1.6330
 5284SOL     OW27310   1.506   1.652   4.995  0.1888  0.0472 -0.4831
 5284SOL    HW127311   1.412   1.664   4.986  0.0242  0.4210  1.7679
 5284SOL    HW227312   1.520   1.746   4.982  1.2189  0.0304  0.4840
 5285SOL     OW27313   1.760   2.926   2.607 -0.5462  0.3728 -0.1888
 5285SOL    HW127314   1.744   2.882   2.690  1.7160  0.2980  0.1889
 5285SOL    HW227315   1.682   2.981   2.591  0.1798  1.7386  1.0167
 5286SOL     OW27316   4.298   2.102   3.063 -0.2160 -0.8409  0.1211
 5286SOL    HW127317   4.296   2.051   2.982  2.6615  0.7036 -0.9304
 5286SOL    HW227318   4.224   2.159   3.041  0.6571  0.4158  0.4592
 5287SOL     OW27319   1.725   0.014   7.252  0.2436  0.0792 -0.4781
 5287SOL    HW127320   1.791   0.018   7.321 -1.9071  0.2762  1.5457
 5287SOL    HW227321   1.775   0.056   7.181  0.0135 -0.0379 -0.7109
 5288SOL     OW27322   0.082   0.189   4.895 -0.0865  1.3873  0.0477
 5288SOL    HW127323   0.079   0.253   4.966 -0.8455 -0.7842  1.9600
 5288SOL    HW227324   0.176   0.192   4.879 -0.1245 -1.1990 -0.6301
 5289SOL     OW27325   4.620   0.923  12.269 -0.0382  0.1271  0.5447
 5289SOL    HW127326   4.630   0.853  12.204 -1.0796  2.4027 -2.0524
 5289SOL    HW227327   4.664   0.876  12.340  0.3151 -1.9970 -1.0732
 5290SOL     OW27328   4.476   1.465   7.933  0.0438  0.1816 -0.8004
 5290SOL    HW127329   4.438   1.383   7.902  0.6470 -0.5480  0.4064
 5290SOL    HW227330   4.560   1.458   7.888  0.5349  1.4269 -0.0621
 5291SOL     OW27331   2.577   0.929   8.894  0.0019 -1.0822  0.1990
 5291SOL    HW127332   2.653   0.973   8.857 -0.1839 -0.5991  0.3962
 5291SOL    HW227333   2.520   1.000   8.924  1.3712 -0.5297  1.4964
 5292SOL     OW27334   4.635   4.063  12.655 -0.3265  0.1498 -0.3516
 5292SOL    HW127335   4.561   4.002  12.655  1.3568 -1.9124 -1.2706
 5292SOL    HW227336   4.692   4.026  12.588 -0.7514 -5.3318  2.2527
 5293SOL     OW27337   2.017   1.116  12.184  0.1333 -0.5376  0.1317
 5293SOL    HW127338   1.988   1.037  12.139 -1.9939  0.7882 -0.8614
 5293SOL    HW227339   1.948   1.175  12.152  0.9838  0.5453  0.3141
 5294SOL     OW27340   1.720   1.310   6.143  0.2210 -0.2344  0.1455
 5294SOL    HW127341   1.755   1.227   6.174  1.1371 -0.6448 -1.9552
 5294SOL    HW227342   1.790   1.351   6.092 -2.1800  0.2841 -2.7448
 5295SOL     OW27343   0.838   1.552   6.975  0.0748  0.1476  0.1196
 5295SOL    HW127344   0.823   1.559   7.070 -2.0511  1.3835 -0.3148
 5295SOL    HW227345   0.815   1.462   6.952  0.1981 -0.2529  1.5132
 5296SOL     OW27346   0.603   3.247   8.459 -0.0520 -0.0681  0.6035
 5296SOL    HW127347   0.675   3.193   8.425  0.1064 -0.0949  0.9843
 5296SOL    HW227348   0.530   3.212   8.406 -0.7998  1.0815  0.8819
 5297SOL     OW27349   0.176   3.092   5.245 -0.4228  0.4487 -0.3944
 5297SOL    HW127350   0.248   3.097   5.183 -0.6034 -0.3663 -0.6620
 5297SOL    HW227351   0.205   3.005   5.272 -0.7931  0.1879 -0.8431
 5298SOL     OW27352   4.720   4.293  14.449  0.1547  0.2157 -0.4109
 5298SOL    HW127353   0.047   4.268  14.372 -0.3253  0.6826 -0.8792
 5298SOL    HW227354   0.039   4.247  14.521  0.3944  1.2295  0.0967
 5299SOL     OW27355   2.146   4.612   8.583  0.5811  0.0754  0.0955
 5299SOL    HW127356   2.067   4.569   8.616 -0.4429  1.7281 -0.2120
 5299SOL    HW227357   2.192   4.615   8.667  0.5383  0.4955  0.0996
 5300SOL     OW27358   1.009   1.157   3.994  0.5550 -0.2639  0.2631
 5300SOL    HW127359   0.932   1.147   4.049  0.5374 -0.6230  0.1787
 5300SOL    HW227360   1.009   1.251   3.977  0.7806 -0.4872 -1.0009
 5301SOL     OW27361   4.540   4.103   5.427 -0.5676 -0.3142  0.3232
 5301SOL    HW127362   4.491   4.149   5.360  1.8690  3.6900  1.2723
 5301SOL    HW227363   4.461   4.058   5.458 -0.3177 -1.7564 -1.1365
 5302SOL     OW27364   4.498   2.813   5.889 -0.3850  0.5486 -0.2439
 5302SOL    HW127365   4.545   2.877   5.835 -0.3678 -0.8404 -1.8866
 5302SOL    HW227366   4.419   2.796   5.838 -0.9679 -0.1901  0.8960
 5303SOL     OW27367   1.414   4.658   3.418  0.2899 -0.5473  0.7110
 5303SOL    HW127368   1.350   4.720   3.385  0.5896  0.2188  1.5850
 5303SOL    HW227369   1.494   4.705   3.394  0.0598  0.9422  2.9339
 5304SOL     OW27370   0.095   3.535   3.051  0.6732  0.1530  0.2833
 5304SOL    HW127371   0.003   3.560   3.058 -0.2971 -2.3692 -3.5774
 5304SOL    HW227372   0.096   3.445   3.086  1.1104 -0.1125 -0.4093
 5305SOL     OW27373   0.118   3.457   7.601  0.0099 -0.1971  0.1659
 5305SOL    HW127374   0.026   3.432   7.592  0.2370 -1.3947  1.1380
 5305SOL    HW227375   0.168   3.378   7.580 -2.3364 -2.2666  2.3278
 5306SOL     OW27376   4.642   2.437   8.558 -0.3496 -0.2741  0.6060
 5306SOL    HW127377   4.593   2.419   8.478 -0.9681 -1.3032  1.2241
 5306SOL    HW227378   4.681   2.522   8.535  0.7511  0.0467  3.6817
 5307SOL     OW27379   2.856   0.103   2.269  0.3189  0.1009 -0.0683
 5307SOL    HW127380   2.825   0.141   2.187 -0.7988 -1.0210 -0.1631
 5307SOL    HW227381   2.781   0.119   2.325  0.5153 -0.7055  0.4391
 5308SOL     OW27382   1.900   3.750   2.886  0.4096  0.1448  0.4179
 5308SOL    HW127383   1.948   3.789   2.812  0.3336  0.3005  0.4491
 5308SOL    HW227384   1.980   3.755   2.939  0.0442 -1.0153  1.0546
 5309SOL     OW27385   2.121   3.126   3.766  0.1522  0.5564  0.0716
 5309SOL    HW127386   2.083   3.116   3.678  1.0838  1.3182 -0.4131
 5309SOL    HW227387   2.120   3.035   3.795  0.2428  0.5684  0.1131
 5310SOL     OW27388   4.236   3.510   6.627 -0.1720 -0.0919  0.7255
 5310SOL    HW127389   4.283   3.460   6.693  0.2055  1.1831  1.4195
 5310SOL    HW227390   4.151   3.535   6.664  0.7777  0.0406  2.8124
 5311SOL     OW27391   3.520   2.563   6.168  0.3886 -0.2036 -0.2458
 5311SOL    HW127392   3.492   2.626   6.235 -0.8089 -0.0955 -0.8404
 5311SOL    HW227393   3.466   2.491   6.201  0.2610  0.7632  1.6775
 5312SOL     OW27394   0.673   2.776   9.043  0.4383 -0.5709  0.2017
 5312SOL    HW127395   0.668   2.703   9.104 -0.7483 -0.5971  0.0600
 5312SOL    HW227396   0.582   2.803   9.050  0.9787  1.6578 -1.2742
 5313SOL     OW27397   1.352   3.991   6.148 -0.7318  0.2814 -0.0503
 5313SOL    HW127398   1.342   3.965   6.056  0.7192  0.0951 -0.1464
 5313SOL    HW227399   1.269   3.965   6.189 -0.0187 -0.1520  1.1441
 5314SOL     OW27400   2.864   1.021   9.281 -0.6106 -0.5654  0.2877
 5314SOL    HW127401   2.856   0.936   9.237  1.0619 -0.8371  0.5278
 5314SOL    HW227402   2.884   1.079   9.207 -1.2553 -1.1238 -0.3352
 5315SOL     OW27403   3.578   2.343   3.519 -0.0832  0.4445  0.3511
 5315SOL    HW127404   3.660   2.299   3.543 -1.3888 -2.4898 -0.5455
 5315SOL    HW227405   3.619   2.427   3.498  1.8826 -0.5053  0.3527
 5316SOL     OW27406   3.914   3.663   0.899  0.8060  0.3269  0.5103
 5316SOL    HW127407   3.930   3.587   0.843  2.7637  0.9526  0.2134
 5316SOL    HW227408   3.972   3.725   0.855 -0.6633 -1.1565 -3.5354
 5317SOL     OW27409   0.923   2.761  15.072 -0.3569 -0.5808  0.1303
 5317SOL    HW127410   0.880   2.844  15.051 -1.9474 -1.3488  0.3436
 5317SOL    HW227411   0.924   2.765  15.167  2.6064 -0.6415  0.0927
 5318SOL     OW27412   4.487   4.474   8.284 -0.2316 -0.1874  0.4317
 5318SOL    HW127413   4.503   4.381   8.268  1.2184  0.1401 -0.0518
 5318SOL    HW227414   4.507   4.478   8.377 -2.2748 -0.3320  0.8715
 5319SOL     OW27415   4.679   0.427  13.999 -0.3399  0.6932  0.0065
 5319SOL    HW127416   0.028   0.478  14.031 -0.7329  2.2455 -1.5317
 5319SOL    HW227417   4.638   0.397  14.080 -3.4574  1.2169 -1.3698
 5320SOL     OW27418   4.552   4.537  17.001  0.2474 -0.6806 -0.4343
 5320SOL    HW127419   4.530   4.606  17.063 -1.7454  1.1056 -3.1709
 5320SOL    HW227420   4.463   4.520  16.970  0.3727 -0.9538 -0.6399
 5321SOL     OW27421   3.881   1.207   7.866  0.5732 -0.2451 -0.1659
 5321SOL    HW127422   3.971   1.232   7.886 -0.4653  4.2858 -1.1456
 5321SOL    HW227423   3.831   1.262   7.927 -1.8918 -2.3948 -0.2368
 5322SOL     OW27424   2.955   3.263  14.405 -0.7327  0.5774  0.2985
 5322SOL    HW127425   3.050   3.256  14.415 -0.6018  2.8343  0.8188
 5322SOL    HW227426   2.942   3.345  14.454 -1.1612  0.5943  0.1562
 5323SOL     OW27427   0.481   1.429   6.965  0.5144 -0.4921  0.1217
 5323SOL    HW127428   0.459   1.509   6.918 -0.0410 -1.0387 -0.5435
 5323SOL    HW227429   0.445   1.446   7.052 -1.2494  0.6230 -0.8216
 5324SOL     OW27430   1.168   2.026   8.812 -0.5169  0.1680  0.2486
 5324SOL    HW127431   1.170   2.005   8.719  1.5967 -2.1333  0.8044
 5324SOL    HW227432   1.252   2.073   8.815 -0.6999  0.5504 -0.9341
 5325SOL     OW27433   3.560   0.299   1.219 -0.1506 -0.2191 -0.3361
 5325SOL    HW127434   3.646   0.259   1.227  0.7313  1.8161  0.2890
 5325SOL    HW227435   3.593   0.388   1.212  1.1071 -0.5731  1.1595
 5326SOL     OW27436   1.634   0.886  11.622  0.5073 -0.9188 -0.3152
 5326SOL    HW127437   1.589   0.970  11.632 -2.6503 -2.7292  0.5376
 5326SOL    HW227438   1.652   0.885  11.528 -0.4762  1.5286 -0.5380
 5327SOL     OW27439   1.134   3.134   5.500  0.1844 -0.6718  0.2083
 5327SOL    HW127440   1.105   3.047   5.474  1.8217 -0.7776 -1.2501
 5327SOL    HW227441   1.164   3.111   5.588 -0.1597 -0.5111  0.3661
 5328SOL     OW27442   4.427   1.162  10.563  0.0438  0.2558 -0.2301
 5328SOL    HW127443   4.377   1.178  10.643 -0.8686 -0.4387 -0.6656
 5328SOL    HW227444   4.372   1.094  10.526  0.7896 -1.4741  1.8339
 5329SOL     OW27445   3.492   3.598   9.403  0.3017 -0.4763 -0.5677
 5329SOL    HW127446   3.575   3.585   9.357  0.8636 -1.7777  0.8368
 5329SOL    HW227447   3.433   3.570   9.333  0.1358  0.0949 -0.6520
 5330SOL     OW27448   0.481   3.620   2.210 -0.2703  0.2102 -0.7453
 5330SOL    HW127449   0.429   3.669   2.146 -1.2800 -0.2864 -0.3140
 5330SOL    HW227450   0.563   3.611   2.162  0.4324  2.5098  0.0154
 5331SOL     OW27451   0.071   3.060   4.922  0.3931 -0.0119 -0.1604
 5331SOL    HW127452   0.014   2.995   4.880 -0.2852 -1.1100  2.4967
 5331SOL    HW227453   0.046   3.037   5.011 -1.1815  1.1132 -0.3006
 5332SOL     OW27454   2.436   3.408   5.106 -0.1412 -0.3040 -0.0433
 5332SOL    HW127455   2.529   3.419   5.089 -0.7830 -0.9687 -3.9058
 5332SOL    HW227456   2.419   3.316   5.086 -1.8580 -0.5447  2.4568
 5333SOL     OW27457   2.722   1.174   7.825  0.4998 -0.2526 -0.3677
 5333SOL    HW127458   2.670   1.189   7.903 -1.3298  0.1987 -1.6756
 5333SOL    HW227459   2.777   1.099   7.846 -0.2806 -0.8197 -0.3772
 5334SOL     OW27460   2.445   3.322  15.553  0.2802 -0.4790 -0.3538
 5334SOL    HW127461   2.468   3.377  15.478 -0.5532 -0.6752 -0.7577
 5334SOL    HW227462   2.504   3.251  15.526  0.7830 -1.2867  2.8093
 5335SOL     OW27463   2.276   4.680  13.411  1.1570 -0.5889  0.2000
 5335SOL    HW127464   2.200   4.696  13.355  1.2824  1.4843  0.5986
 5335SOL    HW227465   2.243   4.711  13.496  0.1559  3.0710 -1.5291
 5336SOL     OW27466   3.790   1.473   5.928  0.3957 -0.3907  0.1355
 5336SOL    HW127467   3.704   1.495   5.891 -0.0700 -0.3728  1.2156
 5336SOL    HW227468   3.789   1.524   6.009 -1.0007 -0.2938  0.0578
 5337SOL     OW27469   1.881   2.892  14.149  0.4837 -0.0007  0.0743
 5337SOL    HW127470   1.880   2.797  14.141  0.2498 -0.0489  0.6860
 5337SOL    HW227471   1.887   2.904  14.244 -3.2547  2.4193  0.0022
 5338SOL     OW27472   1.713   2.782  13.572  0.1838  0.2601 -0.0831
 5338SOL    HW127473   1.651   2.832  13.625  1.5050 -1.2809  2.9065
 5338SOL    HW227474   1.650   2.716  13.543  0.2030 -0.0783  0.6276
 5339SOL     OW27475   4.655   4.058  11.658 -0.7939  0.3862 -0.4365
 5339SOL    HW127476   4.682   4.145  11.686 -1.3117 -0.1749  1.7883
 5339SOL    HW227477   0.001   4.002  11.692 -0.1489  1.2993 -0.2740
 5340SOL     OW27478   0.420   3.202   8.967 -0.1151 -0.2096  0.0262
 5340SOL    HW127479   0.506   3.161   8.967 -0.7258 -1.4725 -0.9988
 5340SOL    HW227480   0.402   3.212   8.874 -1.8255 -0.9556  0.2644
 5341SOL     OW27481   0.299   4.086  12.330  0.4999 -0.2572  0.3278
 5341SOL    HW127482   0.292   4.002  12.284  0.7017 -0.7406  1.1932
 5341SOL    HW227483   0.281   4.148  12.259 -2.0688 -0.0361  1.1633
 5342SOL     OW27484   2.143   2.498  17.571  0.2310 -0.1591 -0.1242
 5342SOL    HW127485   2.095   2.421  17.601  1.1474  0.0771  2.0036
 5342SOL    HW227486   2.154   2.540  17.657 -0.7854 -1.7420  0.7940
 5343SOL     OW27487   4.134   1.137   7.091 -0.4575 -0.9649 -0.1030
 5343SOL    HW127488   4.048   1.157   7.053 -0.9808  0.3042  1.7658
 5343SOL    HW227489   4.114   1.167   7.180 -0.0502 -1.2431  0.0784
 5344SOL     OW27490   1.895   0.194   4.105 -0.1944  0.1095 -0.3572
 5344SOL    HW127491   1.941   0.183   4.188 -0.0352  0.3886 -0.4101
 5344SOL    HW227492   1.897   0.106   4.067  0.9387 -0.0743  0.1356
 5345SOL     OW27493   1.467   2.551   4.276  0.1053 -0.2702 -0.0939
 5345SOL    HW127494   1.446   2.534   4.367  0.4287  1.9726  0.4061
 5345SOL    HW227495   1.538   2.615   4.287  2.8071 -3.2281 -0.4461
 5346SOL     OW27496   3.680   3.852   4.229  0.0818 -0.0040 -1.0519
 5346SOL    HW127497   3.737   3.786   4.270  0.8028  0.5816 -1.0991
 5346SOL    HW227498   3.687   3.816   4.141  2.1645 -0.0202 -0.8974
 5347SOL     OW27499   1.636   3.177   0.548  1.0616 -0.3186  0.1622
 5347SOL    HW127500   1.628   3.095   0.499 -0.9622  1.0174 -1.7295
 5347SOL    HW227501   1.617   3.237   0.476  2.1194 -0.0406  0.1034
 5348SOL     OW27502   1.913   1.169   3.075  0.3150 -0.1701 -0.4529
 5348SOL    HW127503   1.882   1.247   3.121 -2.6463 -2.5414  1.5253
 5348SOL    HW227504   2.001   1.158   3.112  0.8763  1.1558 -1.3679
 5349SOL     OW27505   0.078   0.703   2.685 -0.0440  0.7077  0.2229
 5349SOL    HW127506   0.104   0.786   2.646 -1.0979  0.4337 -1.0540
 5349SOL    HW227507   0.070   0.657   2.601  0.2225 -1.1874  1.2403
 5350SOL     OW27508   0.457   4.094   0.825 -0.7230 -0.5246  0.3566
 5350SOL    HW127509   0.389   4.129   0.883  0.8769  2.2447  0.5608
 5350SOL    HW227510   0.474   4.177   0.781  0.3753 -1.2870 -0.6603
 5351SOL     OW27511   1.984   3.897   2.621 -0.1633 -0.2350 -0.0860
 5351SOL    HW127512   2.040   3.861   2.553 -0.0479 -0.5527  0.1742
 5351SOL    HW227513   2.044   3.961   2.659  1.6225 -1.9333 -0.0556
 5352SOL     OW27514   1.615   1.520   8.609 -0.3467 -0.1568  0.0838
 5352SOL    HW127515   1.616   1.452   8.542  1.4520 -0.8380  0.7954
 5352SOL    HW227516   1.707   1.505   8.628 -0.1364 -1.2226 -1.7692
 5353SOL     OW27517   0.065   3.248  10.545 -0.3058  0.2439 -1.0776
 5353SOL    HW127518   0.049   3.228  10.453  0.5354 -1.1320 -0.9226
 5353SOL    HW227519   0.119   3.328  10.545 -1.2966  0.9289  0.3271
 5354SOL     OW27520   3.280   1.875  10.044  0.1352 -0.7626  0.0694
 5354SOL    HW127521   3.223   1.896  10.118 -1.3298 -1.2450 -0.9112
 5354SOL    HW227522   3.367   1.905  10.071 -0.9355  1.2827  1.2212
 5355SOL     OW27523   4.229   4.250   6.582  0.3359  0.3527  0.2067
 5355SOL    HW127524   4.268   4.181   6.635  0.9751 -0.8979 -1.8904
 5355SOL    HW227525   4.182   4.296   6.652  0.5500 -1.4593  1.5407
 5356SOL     OW27526   0.406   0.072   4.828 -0.3845  0.1353 -0.2742
 5356SOL    HW127527   0.416   0.116   4.912 -1.5514 -1.0102  0.4692
 5356SOL    HW227528   0.472   0.002   4.821  0.4144  0.9876 -1.2162
 5357SOL     OW27529   0.041   0.825   6.570 -0.6010  0.0800 -0.4161
 5357SOL    HW127530   4.703   0.837   6.642 -0.4103 -1.8692  0.0959
 5357SOL    HW227531   0.017   0.903   6.522 -2.5550 -0.4928 -0.3604
 5358SOL     OW27532   1.741   0.564  15.074  0.4573  0.5736 -0.2526
 5358SOL    HW127533   1.808   0.507  15.110 -0.0033 -0.5595 -1.1909
 5358SOL    HW227534   1.663   0.510  15.090  1.3704 -0.7476 -0.3543
 5359SOL     OW27535   1.123   2.660   6.599  0.0854 -0.0909  0.1507
 5359SOL    HW127536   1.052   2.600   6.622 -1.3792  1.7923  0.5715
 5359SOL    HW227537   1.190   2.597   6.570  0.8420  0.8528 -0.1491
 5360SOL     OW27538   3.064   0.576  14.600 -0.0849  0.0638  0.3698
 5360SOL    HW127539   3.030   0.547  14.685  0.2837 -0.9877  0.1581
 5360SOL    HW227540   3.099   0.497  14.558  2.1692  0.2904  1.8435
 5361SOL     OW27541   3.787   0.009  17.470 -0.3755 -0.4150  0.6767
 5361SOL    HW127542   3.750   0.076  17.411  2.9313  1.7852  1.0716
 5361SOL    HW227543   3.791   0.054  17.554  1.5470  3.2050 -1.3235
 5362SOL     OW27544   3.688   0.011   7.486  0.0095 -0.1242  0.0344
 5362SOL    HW127545   3.622   4.690   7.538  0.7823 -3.7210 -2.1258
 5362SOL    HW227546   3.765   4.703   7.533  0.0059 -1.4837 -0.8811
 5363SOL     OW27547   0.063   2.665   4.937 -0.1068 -0.1549 -0.3271
 5363SOL    HW127548   0.051   2.639   4.846  0.3448  1.3856 -0.8312
 5363SOL    HW227549   4.715   2.728   4.939 -0.1387 -0.1957 -0.2007
 5364SOL     OW27550   0.998   4.464   2.067 -0.2424  0.0852  0.2051
 5364SOL    HW127551   0.976   4.544   2.021  0.1655  2.2356  3.7614
 5364SOL    HW227552   0.917   4.414   2.053 -0.0198 -0.0093 -0.7101
 5365SOL     OW27553   4.663   1.281   1.120  0.1275 -0.2716 -0.0609
 5365SOL    HW127554   4.663   1.193   1.082  2.8728 -0.2233 -0.1970
 5365SOL    HW227555   4.631   1.331   1.044  0.6228  0.2098  0.0437
 5366SOL     OW27556   2.370   0.286  13.415  0.1909 -0.2864  0.2611
 5366SOL    HW127557   2.300   0.267  13.477  0.5120 -1.7877  0.1735
 5366SOL    HW227558   2.351   0.227  13.342 -1.5904  0.2563  0.3077
 5367SOL     OW27559   1.106   4.654   4.001  0.3837  0.0718  0.3141
 5367SOL    HW127560   1.023   4.618   4.033 -0.0153  0.4763 -0.2494
 5367SOL    HW227561   1.174   4.598   4.039  0.8923  1.0807  0.8635
 5368SOL     OW27562   0.561   4.029  12.999 -0.2871  0.4809 -0.2024
 5368SOL    HW127563   0.628   4.020  13.066 -2.5473 -1.2199  1.7957
 5368SOL    HW227564   0.489   4.039  13.060  0.5783  2.2623  0.5427
 5369SOL     OW27565   3.413   4.030  15.025 -0.4235 -0.3003  0.1093
 5369SOL    HW127566   3.393   4.019  15.118  0.3791 -2.6876 -0.0038
 5369SOL    HW227567   3.331   3.995  14.991 -0.6589  0.0309  0.3372
 5370SOL     OW27568   1.172   2.909  12.651 -0.7258  0.4539  0.1275
 5370SOL    HW127569   1.091   2.898  12.702 -0.2099  1.9724  1.2756
 5370SOL    HW227570   1.144   2.947  12.568  1.7377  0.1157 -0.8411
 5371SOL     OW27571   2.306   3.021   6.358  0.0968  0.0662 -0.2417
 5371SOL    HW127572   2.289   3.063   6.442  2.1732 -0.8238  0.6242
 5371SOL    HW227573   2.300   3.088   6.291  0.1128 -1.0226 -1.3350
 5372SOL     OW27574   1.644   1.351   3.824 -0.0718 -0.4583 -0.4859
 5372SOL    HW127575   1.564   1.402   3.834 -0.5699 -1.4397  0.4875
 5372SOL    HW227576   1.602   1.266   3.832  3.5463 -2.3478 -1.5722
 5373SOL     OW27577   2.451   0.402   4.517 -0.6074  0.0240 -0.1960
 5373SOL    HW127578   2.473   0.474   4.458 -1.0187  0.1555 -0.1888
 5373SOL    HW227579   2.384   0.438   4.576  0.3364 -0.1055  0.9392
 5374SOL     OW27580   2.151   1.693   6.710  0.1020  0.2211 -0.9220
 5374SOL    HW127581   2.206   1.753   6.761 -0.0551 -0.1172 -0.3520
 5374SOL    HW227582   2.091   1.682   6.784  0.9759 -1.2673 -0.4471
 5375SOL     OW27583   3.986   3.663   8.661 -0.2698  0.2901  0.6037
 5375SOL    HW127584   4.067   3.687   8.617 -0.2087 -0.0973  0.5023
 5375SOL    HW227585   4.010   3.628   8.746  0.3743  1.2509  0.8121
 5376SOL     OW27586   1.126   4.077   5.573 -0.0683  0.6252 -0.2494
 5376SOL    HW127587   1.116   3.995   5.524  2.0221  0.2164  0.0136
 5376SOL    HW227588   1.083   4.050   5.654 -1.0218 -2.9434 -1.9232
 5377SOL     OW27589   2.348   2.784   6.846  0.6302 -0.5300  0.4817
 5377SOL    HW127590   2.278   2.763   6.784 -0.6575 -1.2525  2.1814
 5377SOL    HW227591   2.361   2.698   6.885 -1.1285 -0.8553  0.3265
 5378SOL     OW27592   4.577   2.562  14.702 -0.0343 -0.3358 -0.0727
 5378SOL    HW127593   4.499   2.607  14.670  1.5055  2.4482  0.1080
 5378SOL    HW227594   4.532   2.478  14.713 -0.3294 -0.6531 -3.8644
 5379SOL     OW27595   2.408   0.129   2.466  0.2212 -0.1454  0.0466
 5379SOL    HW127596   2.433   0.190   2.535 -3.4366  0.6342  0.7093
 5379SOL    HW227597   2.449   0.173   2.392 -0.5357 -3.5213 -2.3959
 5380SOL     OW27598   1.848   4.573   0.257 -0.6599 -0.6086  0.3546
 5380SOL    HW127599   1.874   4.578   0.349 -0.0195 -0.8851  0.1882
 5380SOL    HW227600   1.759   4.542   0.270 -0.3884 -1.0995  1.0119
 5381SOL     OW27601   4.178   3.422   1.733  0.1363 -0.4128 -0.1001
 5381SOL    HW127602   4.252   3.483   1.735 -0.2128 -0.0230  0.8555
 5381SOL    HW227603   4.216   3.342   1.770  1.5699  0.1046 -0.4705
 5382SOL     OW27604   0.062   0.253   1.640 -0.0693 -0.7566 -0.0727
 5382SOL    HW127605   0.044   0.316   1.570  0.8097  0.3574  0.6941
 5382SOL    HW227606   0.158   0.260   1.642 -0.1297 -0.8668  2.9127
 5383SOL     OW27607   3.246   2.448   4.844  0.0459  0.2400 -0.3003
 5383SOL    HW127608   3.285   2.418   4.762 -0.1809 -2.8856  0.7283
 5383SOL    HW227609   3.169   2.492   4.807  0.3211 -0.6192 -1.9035
 5384SOL     OW27610   3.850   3.106   8.853 -0.1159  0.2162  0.7554
 5384SOL    HW127611   3.804   3.074   8.775  0.3508  0.3976  0.4053
 5384SOL    HW227612   3.780   3.150   8.902 -1.8565 -1.4103 -0.2411
 5385SOL     OW27613   2.706   4.327   3.197  0.2620 -0.1589 -0.5447
 5385SOL    HW127614   2.789   4.370   3.217 -0.5401  0.8803  0.5880
 5385SOL    HW227615   2.742   4.242   3.171  0.0531 -0.9117  1.5900
 5386SOL     OW27616   2.216   0.901   2.958  0.1567  0.0936 -0.0969
 5386SOL    HW127617   2.303   0.865   2.978 -0.7792 -1.1937  1.6613
 5386SOL    HW227618   2.199   0.960   3.032  0.7754  0.8331 -0.5399
 5387SOL     OW27619   1.801   3.492   4.519  0.6380 -0.6361 -0.0396
 5387SOL    HW127620   1.833   3.438   4.447  1.6308  2.4791 -1.9723
 5387SOL    HW227621   1.727   3.530   4.472  0.0493 -1.9541 -0.1583
 5388SOL     OW27622   3.125   2.937   6.738  0.0711 -0.7706  0.1419
 5388SOL    HW127623   3.084   3.011   6.693  1.3766 -1.5756 -2.3658
 5388SOL    HW227624   3.054   2.898   6.790 -0.1385  1.3001  1.3999
 5389SOL     OW27625   1.143   2.762  14.889  0.2953  0.3453  0.0980
 5389SOL    HW127626   1.076   2.796  14.947  1.6233  1.7024  0.8259
 5389SOL    HW227627   1.166   2.678  14.930 -1.4383 -0.5114 -0.6754
 5390SOL     OW27628   3.205   3.838  14.337 -0.0096  0.4083  0.4101
 5390SOL    HW127629   3.152   3.899  14.387 -0.6918  0.1455  0.0098
 5390SOL    HW227630   3.199   3.760  14.392  2.8627 -3.3485 -4.5761
 5391SOL     OW27631   4.091   4.419   8.402  0.5736 -0.3867 -0.1277
 5391SOL    HW127632   4.164   4.364   8.375 -1.7824 -2.5501 -2.1935
 5391SOL    HW227633   4.135   4.487   8.452  0.4297 -0.1493 -0.3266
 5392SOL     OW27634   3.552   1.336   2.915  0.1212  0.2977 -0.2747
 5392SOL    HW127635   3.646   1.325   2.903 -0.0966  0.8792 -2.4695
 5392SOL    HW227636   3.540   1.393   2.839 -0.3310  0.0426 -0.3943
 5393SOL     OW27637   0.315   2.693   8.709 -0.1154 -0.8007  0.3328
 5393SOL    HW127638   0.262   2.760   8.752  0.3142 -1.7236  2.3314
 5393SOL    HW227639   0.262   2.614   8.709 -0.7267 -0.3795 -1.6261
 5394SOL     OW27640   3.881   2.639  14.928 -0.4308 -0.6541 -0.2106
 5394SOL    HW127641   3.973   2.613  14.923 -0.8199 -1.8023 -1.4697
 5394SOL    HW227642   3.884   2.733  14.912 -3.1407 -0.4525  0.6395
 5395SOL     OW27643   1.673   0.184   5.918  0.0598  0.2508  0.0218
 5395SOL    HW127644   1.716   0.256   5.871  0.2893  0.8388  1.1229
 5395SOL    HW227645   1.663   0.120   5.847  2.1350 -0.6951  0.5897
 5396SOL     OW27646   4.436   2.377   3.990  0.6984 -0.5205  0.0858
 5396SOL    HW127647   4.449   2.395   4.083  1.5238 -1.5552  0.1784
 5396SOL    HW227648   4.471   2.287   3.984 -0.1269 -0.9399  1.8137
 5397SOL     OW27649   1.271   2.230   3.751 -0.5720  0.5029  0.1231
 5397SOL    HW127650   1.317   2.149   3.769  1.3201  1.5256 -0.1209
 5397SOL    HW227651   1.183   2.202   3.725 -1.7360  3.4970  0.7802
 5398SOL     OW27652   2.836   1.340   9.291  0.0242  0.1897 -0.6302
 5398SOL    HW127653   2.918   1.305   9.325 -0.2449 -0.5005 -0.6814
 5398SOL    HW227654   2.837   1.435   9.302  0.1269  0.5139 -3.3646
 5399SOL     OW27655   2.855   2.881   5.253 -0.1425 -0.1428  0.3704
 5399SOL    HW127656   2.788   2.926   5.305 -0.6338  3.5080 -3.3902
 5399SOL    HW227657   2.914   2.953   5.227 -0.3374 -0.0181  0.2769
 5400SOL     OW27658   4.117   3.975  11.407  0.1777  0.0247 -0.1448
 5400SOL    HW127659   4.044   3.972  11.345  0.3319  0.5460 -0.3555
 5400SOL    HW227660   4.096   4.044  11.470  0.0877 -0.0881 -0.0525
 5401SOL     OW27661   4.263   3.998   8.180 -0.3275 -0.3016 -0.1359
 5401SOL    HW127662   4.220   3.939   8.118 -1.2836 -1.4345  1.6049
 5401SOL    HW227663   4.347   3.953   8.184  0.4367  1.2541  1.3373
 5402SOL     OW27664   0.852   4.291   7.453  0.2219  0.1803 -0.3871
 5402SOL    HW127665   0.947   4.288   7.445  0.2333 -0.4337 -0.0297
 5402SOL    HW227666   0.843   4.359   7.519  2.5922  0.4482 -0.3420
 5403SOL     OW27667   2.134   3.065   5.259 -0.2732 -0.0713  0.3862
 5403SOL    HW127668   2.126   3.160   5.262  1.4465  0.0083  2.2056
 5403SOL    HW227669   2.048   3.040   5.295  0.8513 -1.1286  2.3327
 5404SOL     OW27670   0.868   4.565   0.321 -0.0114 -0.2139 -0.0368
 5404SOL    HW127671   0.826   4.480   0.317  1.1321 -0.7365 -1.0613
 5404SOL    HW227672   0.905   4.564   0.409 -1.1207 -1.3711  0.4094
 5405SOL     OW27673   1.840   3.266   6.271  0.1846 -0.4015  0.1034
 5405SOL    HW127674   1.873   3.216   6.346  0.2121  2.5795  2.0568
 5405SOL    HW227675   1.844   3.354   6.308  2.8785 -0.1309 -0.8129
 5406SOL     OW27676   2.202   0.367   4.905 -0.2546  0.2406 -0.1392
 5406SOL    HW127677   2.147   0.341   4.831 -0.0516  1.1982 -0.6342
 5406SOL    HW227678   2.239   0.280   4.923 -2.6444 -0.8581 -0.6347
 5407SOL     OW27679   1.995   0.167   8.024 -0.1564 -0.0340  0.0908
 5407SOL    HW127680   2.011   0.172   8.118 -1.7066  2.9462  0.1949
 5407SOL    HW227681   1.900   0.162   8.021  0.0398 -2.5923 -1.6735
 5408SOL     OW27682   0.795   4.068   7.972 -0.1840 -0.2809 -0.8055
 5408SOL    HW127683   0.877   4.025   7.996  0.0124  1.8342  2.3755
 5408SOL    HW227684   0.768   4.010   7.901 -2.0314 -0.3259 -0.0820
 5409SOL     OW27685   3.623   2.634  11.570  0.5380 -0.2993  0.6354
 5409SOL    HW127686   3.714   2.618  11.594  0.8007 -0.0905 -0.2139
 5409SOL    HW227687   3.575   2.581  11.633 -0.2975 -1.2551 -0.8126
 5410SOL     OW27688   3.942   2.930   5.193  0.0945 -0.0658  0.0821
 5410SOL    HW127689   3.863   2.956   5.241  0.8980  1.0666  0.7938
 5410SOL    HW227690   4.008   2.990   5.227 -0.4025  0.7067 -0.2928
 5411SOL     OW27691   3.625   2.429   6.653 -0.3063 -0.3077 -0.4325
 5411SOL    HW127692   3.609   2.425   6.748 -0.2098  0.5550 -0.3795
 5411SOL    HW227693   3.533   2.415   6.630 -0.1126 -0.9888 -0.7819
 5412SOL     OW27694   1.240   2.495  13.370 -0.2753 -0.0666  0.7337
 5412SOL    HW127695   1.311   2.544  13.412 -0.8451  1.8019 -0.5091
 5412SOL    HW227696   1.283   2.463  13.291  2.0450 -0.4696  2.1552
 5413SOL     OW27697   1.172   4.302   7.523 -0.0070  0.3047 -0.5208
 5413SOL    HW127698   1.112   4.337   7.589  1.2746 -0.0836  0.8623
 5413SOL    HW227699   1.252   4.317   7.575 -0.7887 -2.3639  1.4851
 5414SOL     OW27700   2.311   1.602   5.944 -0.2552 -0.2446  0.2767
 5414SOL    HW127701   2.315   1.625   6.036 -1.2387  1.3611 -0.0896
 5414SOL    HW227702   2.384   1.541   5.955  0.0488  0.0025 -0.3276
 5415SOL     OW27703   2.203   1.447  17.263  0.1207 -0.3011 -0.0324
 5415SOL    HW127704   2.190   1.434  17.169  2.3399  1.7352 -0.6106
 5415SOL    HW227705   2.260   1.370  17.273 -0.2434 -0.5214  0.3401
 5416SOL     OW27706   3.618   1.002   5.503 -0.2279 -0.2372  0.2377
 5416SOL    HW127707   3.668   1.019   5.583 -2.4652  0.4808  1.4856
 5416SOL    HW227708   3.559   1.076   5.515  0.8866  0.7852 -0.5801
 5417SOL     OW27709   0.586   3.615   5.371  0.5563  0.3604 -0.4902
 5417SOL    HW127710   0.602   3.539   5.316  1.5226  0.9244 -0.9989
 5417SOL    HW227711   0.627   3.596   5.455  0.5889 -1.5497 -0.9342
 5418SOL     OW27712   2.572   4.372  11.490 -0.1818 -0.5703 -0.1020
 5418SOL    HW127713   2.627   4.358  11.414  0.0053  1.4568 -0.3595
 5418SOL    HW227714   2.506   4.429  11.449 -0.4288 -0.6905  0.1319
 5419SOL     OW27715   4.345   0.530  15.537  0.1798 -0.1825  0.4104
 5419SOL    HW127716   4.282   0.542  15.608 -0.0992 -1.4231  0.3654
 5419SOL    HW227717   4.430   0.514  15.579  0.3538 -0.2940  0.0131
 5420SOL     OW27718   3.327   4.322  11.522 -0.0128 -0.0186  0.0594
 5420SOL    HW127719   3.363   4.262  11.457 -2.2115  0.3631 -1.5191
 5420SOL    HW227720   3.240   4.283  11.534  0.7768 -2.1023 -1.0399
 5421SOL     OW27721   1.060   1.859   1.715 -0.0371  0.1052 -0.0823
 5421SOL    HW127722   1.085   1.841   1.624 -0.7125 -1.9466  0.1254
 5421SOL    HW227723   1.115   1.787   1.746 -0.1905 -0.4099 -0.9974
 5422SOL     OW27724   0.173   2.838   7.399  0.3935 -0.7706 -0.6984
 5422SOL    HW127725   0.092   2.808   7.440  0.1850 -0.0912 -0.6003
 5422SOL    HW227726   0.206   2.768   7.343  1.6227 -0.2284 -0.6534
 5423SOL     OW27727   1.374   0.701   7.249 -0.4701 -0.5300 -0.0118
 5423SOL    HW127728   1.452   0.731   7.296 -1.3621 -1.4298  2.0380
 5423SOL    HW227729   1.417   0.702   7.163  0.3111 -0.4954  0.3752
 5424SOL     OW27730   4.074   1.525  13.477 -1.1836  0.7197  0.8541
 5424SOL    HW127731   4.030   1.609  13.475 -1.3802  0.5823 -1.2521
 5424SOL    HW227732   4.008   1.457  13.492  0.4024 -0.3739  2.8970
 5425SOL     OW27733   1.289   1.218   5.574  0.2427 -0.0946  0.9929
 5425SOL    HW127734   1.228   1.170   5.630 -0.1096  1.0433  1.5790
 5425SOL    HW227735   1.274   1.188   5.484  1.8293  1.1239  0.3220
 5426SOL     OW27736   4.291   2.520   2.979 -0.1553  0.3693 -0.2348
 5426SOL    HW127737   4.329   2.495   2.895  1.9164 -0.4890  0.9786
 5426SOL    HW227738   4.203   2.542   2.950  0.1800 -0.1566 -1.6508
 5427SOL     OW27739   3.643   0.642  10.811 -0.1776  0.0588 -0.1969
 5427SOL    HW127740   3.609   0.579  10.747 -0.9550 -1.3353  1.5654
 5427SOL    HW227741   3.568   0.681  10.857 -1.4107 -2.3435 -0.1372
 5428SOL     OW27742   1.168   1.641   7.167 -0.0491  0.2152  0.2175
 5428SOL    HW127743   1.134   1.623   7.079  2.2242  0.3652 -0.6821
 5428SOL    HW227744   1.249   1.688   7.146 -0.9852  0.7529 -2.2617
 5429SOL     OW27745   1.425   1.464  17.685  0.0178  0.2210 -0.2854
 5429SOL    HW127746   1.504   1.411  17.672 -1.4831 -2.0699 -0.0124
 5429SOL    HW227747   1.468   1.547  17.662  0.1834  0.3815  0.5866
 5430SOL     OW27748   0.849   4.412  10.394 -0.0598 -0.4001  0.2677
 5430SOL    HW127749   0.847   4.338  10.454  1.1213  0.5041  1.4230
 5430SOL    HW227750   0.933   4.448  10.422 -0.5750  1.6751 -0.8852
 5431SOL     OW27751   1.586   1.749   6.807 -0.1918  0.0324 -0.4659
 5431SOL    HW127752   1.653   1.742   6.739 -0.8273  0.7674 -1.1670
 5431SOL    HW227753   1.631   1.795   6.877 -2.1669  2.5291 -0.8363
 5432SOL     OW27754   3.615   2.781   7.363  0.0345  0.1622 -0.2169
 5432SOL    HW127755   3.599   2.692   7.330 -0.0342 -0.5373  1.6772
 5432SOL    HW227756   3.611   2.769   7.458  2.3069  1.5215  0.0467
 5433SOL     OW27757   0.771   0.899   7.450 -0.0775  0.5168 -0.4996
 5433SOL    HW127758   0.725   0.933   7.527  0.7654  0.8792 -0.1667
 5433SOL    HW227759   0.857   0.886   7.488 -0.5128  0.8752  0.6033
 5434SOL     OW27760   2.108   3.108   1.823 -0.0229  0.5244 -0.5171
 5434SOL    HW127761   2.046   3.165   1.778 -0.5238  0.6442  0.3020
 5434SOL    HW227762   2.041   3.078   1.885  0.0528 -1.8909 -1.6090
 5435SOL     OW27763   2.591   1.892   5.713 -0.2776  0.3900 -0.0924
 5435SOL    HW127764   2.656   1.948   5.671 -0.4204  0.7700  0.1952
 5435SOL    HW227765   2.583   1.827   5.643  1.1065  0.0280  0.0871
 5436SOL     OW27766   1.030   4.523   6.276  0.8795  0.3624  0.5552
 5436SOL    HW127767   0.974   4.507   6.352 -0.0876 -0.3338 -0.3029
 5436SOL    HW227768   0.962   4.521   6.209 -0.1481 -0.1149  1.6021
 5437SOL     OW27769   0.670   1.718   8.757  0.7222 -0.4881 -0.2666
 5437SOL    HW127770   0.586   1.690   8.795  0.7020 -1.3817 -0.9744
 5437SOL    HW227771   0.642   1.776   8.687  1.6651  1.4779  0.9675
 5438SOL     OW27772   2.014   2.923  15.096  0.3134 -0.0857 -0.0427
 5438SOL    HW127773   1.938   2.980  15.089  0.6503  0.6612  2.2658
 5438SOL    HW227774   1.985   2.884  15.179  0.8672 -0.0063  0.1870
 5439SOL     OW27775   4.474   1.687   5.884 -0.0079  0.3519 -0.1117
 5439SOL    HW127776   4.446   1.618   5.944  0.7360 -0.4195 -0.6534
 5439SOL    HW227777   4.468   1.631   5.807 -0.8099  1.3704 -0.7878
 5440SOL     OW27778   2.734   0.752   5.409  0.5336  0.3748  0.3222
 5440SOL    HW127779   2.734   0.755   5.314 -1.5852 -4.3849  0.1778
 5440SOL    HW227780   2.824   0.783   5.420 -0.1842  1.9967  1.6751
 5441SOL     OW27781   3.249   2.475   5.663  0.8014 -0.2524 -0.4630
 5441SOL    HW127782   3.278   2.394   5.706 -1.6955  0.2901  2.3037
 5441SOL    HW227783   3.333   2.515   5.640  0.8184 -0.0731 -0.0999
 5442SOL     OW27784   3.246   1.361   6.164  0.5277 -0.0207 -0.0137
 5442SOL    HW127785   3.323   1.417   6.152  0.3357 -0.1148 -1.7243
 5442SOL    HW227786   3.255   1.345   6.258 -0.6890 -3.5003 -0.4902
 5443SOL     OW27787   0.711   3.573   2.462  0.2665 -0.1128  0.0287
 5443SOL    HW127788   0.731   3.576   2.369  0.4531  1.5255  0.1220
 5443SOL    HW227789   0.621   3.607   2.464  1.6097  3.3175  1.6358
 5444SOL     OW27790   2.303   0.543   4.704 -0.1026  0.0167  0.4319
 5444SOL    HW127791   2.326   0.631   4.732  0.8696  0.2232 -1.0413
 5444SOL    HW227792   2.269   0.498   4.782 -2.1677  2.3134  0.8866
 5445SOL     OW27793   0.114   0.509  15.920 -0.2612  0.8502 -0.0577
 5445SOL    HW127794   0.071   0.593  15.903  1.3073  1.7689  0.5827
 5445SOL    HW227795   0.088   0.458  15.844 -0.5760  1.6506 -0.4859
 5446SOL     OW27796   2.273   1.536   1.164  0.2738 -0.0426  0.0338
 5446SOL    HW127797   2.245   1.601   1.099 -0.1356 -0.7893 -0.5448
 5446SOL    HW227798   2.248   1.576   1.247 -1.4290  1.6785 -1.3195
 5447SOL     OW27799   3.339   3.072   2.538  0.4970  0.2739  1.0102
 5447SOL    HW127800   3.259   3.049   2.585 -0.0364  1.9363  0.9243
 5447SOL    HW227801   3.389   3.118   2.606 -0.8283  0.5769  1.7833
 5448SOL     OW27802   4.630   2.829  17.685  0.2506 -0.0960  0.4520
 5448SOL    HW127803   4.607   2.747   0.029  1.7261 -0.9218 -0.3194
 5448SOL    HW227804   4.593   2.891   0.047 -0.8819  0.4346 -0.7605
 5449SOL     OW27805   2.171   3.451  14.165  0.4009  0.4112  0.4238
 5449SOL    HW127806   2.124   3.511  14.106  2.7409 -0.7864 -2.6219
 5449SOL    HW227807   2.164   3.501  14.247  2.4513  0.5034  0.5237
 5450SOL     OW27808   3.641   2.543  14.968 -0.6631 -0.1515 -0.4919
 5450SOL    HW127809   3.722   2.590  14.949  0.4130 -1.7230  0.1510
 5450SOL    HW227810   3.662   2.454  14.938  1.4793  0.5750 -1.1700
 5451SOL     OW27811   1.338   2.400  15.138 -0.3747  0.1186 -0.3624
 5451SOL    HW127812   1.368   2.398  15.047 -2.7982  0.9317 -1.1787
 5451SOL    HW227813   1.424   2.396  15.180 -1.2395 -2.3460  1.1348
 5452SOL     OW27814   3.843   1.666   2.420  0.4306 -0.0025 -0.4704
 5452SOL    HW127815   3.787   1.592   2.399  1.0119 -0.4795 -0.3339
 5452SOL    HW227816   3.777   1.719   2.466  1.4019 -1.4235  2.5969
 5453SOL     OW27817   1.754   3.550   7.106  0.4796 -0.0407  0.4857
 5453SOL    HW127818   1.689   3.582   7.169 -1.2881 -0.1244 -1.3073
 5453SOL    HW227819   1.696   3.490   7.060 -1.5490  2.0586  0.3300
 5454SOL     OW27820   3.890   0.645   3.164  0.3474 -0.1325  0.2499
 5454SOL    HW127821   3.950   0.572   3.146 -0.7190 -0.4936 -1.8265
 5454SOL    HW227822   3.942   0.691   3.230 -0.9647  0.5082  0.8239
 5455SOL     OW27823   2.986   1.217  15.687  0.0965  0.6521 -0.0881
 5455SOL    HW127824   2.923   1.198  15.757  3.4202 -0.9664  2.4495
 5455SOL    HW227825   3.070   1.213  15.732 -1.2204  0.8584  2.4571
 5456SOL     OW27826   0.670   2.791  12.929  0.2074 -0.5007  0.1849
 5456SOL    HW127827   0.628   2.759  12.849 -0.9505 -1.7597  1.2920
 5456SOL    HW227828   0.622   2.738  12.992  0.3283 -2.3051 -1.2325
 5457SOL     OW27829   0.391   4.300   4.730  0.1848 -0.1616 -0.1016
 5457SOL    HW127830   0.404   4.240   4.657 -2.1493  0.0444 -0.6813
 5457SOL    HW227831   0.458   4.270   4.792  1.6309 -0.4151 -1.7745
 5458SOL     OW27832   2.058   0.006  13.801  0.2946  0.4960  0.0121
 5458SOL    HW127833   2.058   4.638  13.777 -0.3353  0.2110  1.0782
 5458SOL    HW227834   1.967   0.021  13.828 -0.2489  0.6942 -1.9253
 5459SOL     OW27835   0.700   0.124   8.864  0.0109 -0.0431 -0.6483
 5459SOL    HW127836   0.630   0.186   8.842  0.3431  0.8006  0.6593
 5459SOL    HW227837   0.662   0.060   8.803 -0.4886  0.0015 -0.3883
 5460SOL     OW27838   4.557   1.490   6.764  0.2261 -0.0386  0.1878
 5460SOL    HW127839   4.644   1.522   6.789 -0.1050  0.1031  1.1726
 5460SOL    HW227840   4.558   1.403   6.803 -0.6617  0.0989  0.5029
 5461SOL     OW27841   3.765   1.415   4.591 -0.3879  0.8489 -0.7597
 5461SOL    HW127842   3.788   1.504   4.566  3.3924  0.2478  0.5926
 5461SOL    HW227843   3.851   1.374   4.588 -1.4762 -1.3392 -2.4115
 5462SOL     OW27844   4.094   1.341   5.130 -0.1222 -0.1589 -0.1667
 5462SOL    HW127845   4.002   1.355   5.153  0.1562 -1.1422  1.5400
 5462SOL    HW227846   4.085   1.256   5.087  0.7257 -0.1221 -0.4159
 5463SOL     OW27847   4.116   0.469   8.401 -0.3909  0.0835  0.2507
 5463SOL    HW127848   4.206   0.454   8.374  0.7103  2.6977  2.4293
 5463SOL    HW227849   4.068   0.507   8.327  1.2093  0.0257 -0.8081
 5464SOL     OW27850   3.875   2.613   7.106  0.0157  0.0357 -0.2277
 5464SOL    HW127851   3.831   2.645   7.027 -0.1754 -0.5882 -0.3704
 5464SOL    HW227852   3.805   2.616   7.171 -1.4392 -0.8501 -1.7677
 5465SOL     OW27853   4.327   3.715  10.538 -0.3237  0.0884 -0.0364
 5465SOL    HW127854   4.254   3.760  10.580  0.2443  0.1890  0.8270
 5465SOL    HW227855   4.326   3.634  10.589  0.2393  0.0242 -0.1328
 5466SOL     OW27856   1.753   3.267   2.740 -0.2217  0.0826  0.0374
 5466SOL    HW127857   1.796   3.319   2.672 -0.4455  2.1608  1.4841
 5466SOL    HW227858   1.819   3.265   2.809  0.4984  4.5647 -0.5606
 5467SOL     OW27859   1.536   2.350   2.503 -0.3571  0.0839  0.2511
 5467SOL    HW127860   1.545   2.410   2.577  2.4804 -0.4053  0.3054
 5467SOL    HW227861   1.625   2.360   2.469 -0.1882 -0.9242  0.3839
 5468SOL     OW27862   0.421   0.429   8.974  0.0595 -0.0703 -0.0419
 5468SOL    HW127863   0.505   0.427   9.019 -0.2816 -1.4074  0.5375
 5468SOL    HW227864   0.438   0.378   8.895 -1.4631 -1.4925  0.5312
 5469SOL     OW27865   3.121   1.168   1.659 -0.2209 -0.1150  0.3634
 5469SOL    HW127866   3.050   1.125   1.611  0.2470  0.4164 -0.8071
 5469SOL    HW227867   3.141   1.102   1.726 -2.7156 -1.2553 -0.0216
 5470SOL     OW27868   3.132   1.973  15.045  0.0352 -0.2943 -0.7347
 5470SOL    HW127869   3.155   2.061  15.075  1.0619 -0.1523 -1.9393
 5470SOL    HW227870   3.184   1.918  15.104 -0.7501 -0.7632 -0.4844
 5471SOL     OW27871   1.262   0.867   5.079  0.0247 -0.4926 -0.2561
 5471SOL    HW127872   1.178   0.889   5.038  0.2093 -2.2990 -1.6450
 5471SOL    HW227873   1.317   0.926   5.028 -0.4187 -0.9984 -1.3183
 5472SOL     OW27874   1.848   1.258  16.409 -0.3447 -0.2356 -0.0496
 5472SOL    HW127875   1.784   1.196  16.444 -0.3026 -0.2062  0.0812
 5472SOL    HW227876   1.790   1.331  16.389 -1.3442 -0.9272  0.3139
 5473SOL     OW27877   1.746   0.219   7.915 -0.0307  0.0722 -0.0231
 5473SOL    HW127878   1.690   0.230   7.992 -1.1180  0.8602 -0.9437
 5473SOL    HW227879   1.686   0.186   7.848  1.5597  0.6163 -1.6916
 5474SOL     OW27880   3.110   3.559   9.371  0.1698 -0.6825 -0.6352
 5474SOL    HW127881   3.026   3.568   9.325  0.9153  1.0961 -1.6338
 5474SOL    HW227882   3.098   3.622   9.442  0.6925 -1.6058  0.2637
 5475SOL     OW27883   1.940   0.855   7.145  0.0920 -0.0689 -0.5570
 5475SOL    HW127884   1.957   0.922   7.079 -1.4744  0.7839 -0.0807
 5475SOL    HW227885   1.963   0.913   7.219 -2.7575 -0.3428  0.5322
 5476SOL     OW27886   0.034   4.030   7.421  0.1120 -0.4550  0.3640
 5476SOL    HW127887   0.076   4.104   7.464 -0.4705  1.8149 -2.9969
 5476SOL    HW227888   0.022   3.968   7.493 -0.7314  0.2004  0.7905
 5477SOL     OW27889   2.535   3.355   8.673  0.2447 -0.3240 -0.7476
 5477SOL    HW127890   2.469   3.310   8.621 -0.3981 -1.0875  0.7140
 5477SOL    HW227891   2.495   3.384   8.755 -1.0392 -1.3474 -1.0159
 5478SOL     OW27892   2.126   0.194   1.721  0.2492  0.2900 -0.4534
 5478SOL    HW127893   2.194   0.252   1.755 -1.8411  1.8580  1.0462
 5478SOL    HW227894   2.054   0.232   1.770  1.6547  2.7896 -0.3484
 5479SOL     OW27895   3.265   2.595  10.956  0.4181 -0.2979 -1.1240
 5479SOL    HW127896   3.342   2.646  10.932  0.5573 -1.0058 -2.1927
 5479SOL    HW227897   3.271   2.517  10.901  2.7482  0.2064 -1.5824
 5480SOL     OW27898   3.273   4.382   2.571  0.3402 -0.0504 -0.1878
 5480SOL    HW127899   3.284   4.468   2.612 -2.9690 -0.7027  2.0735
 5480SOL    HW227900   3.306   4.327   2.642 -1.4659  0.0756  0.7550
 5481SOL     OW27901   2.661   2.192  10.802  0.0620  0.1222 -0.1396
 5481SOL    HW127902   2.657   2.113  10.748 -0.5078 -0.2047  0.3831
 5481SOL    HW227903   2.598   2.249  10.757  0.3757 -1.2412 -2.3146
 5482SOL     OW27904   2.696   0.232   2.894 -0.1625 -0.6900  0.0930
 5482SOL    HW127905   2.610   0.230   2.850 -0.0932  1.6292 -0.1631
 5482SOL    HW227906   2.723   0.142   2.880 -1.7955 -0.8840 -1.9416
 5483SOL     OW27907   3.904   4.393   7.592  0.2242  0.1789  0.0407
 5483SOL    HW127908   3.871   4.468   7.640 -1.1758  0.2876 -1.0728
 5483SOL    HW227909   3.894   4.406   7.498  0.3771 -1.7284 -0.2543
 5484SOL     OW27910   1.425   0.835   1.738 -0.1703  0.1062 -0.5314
 5484SOL    HW127911   1.495   0.899   1.753  0.9014 -1.4924  1.3603
 5484SOL    HW227912   1.432   0.785   1.820  0.9001 -0.1987 -0.8152
 5485SOL     OW27913   0.185   4.378   0.489 -0.2095  0.1953 -0.1011
 5485SOL    HW127914   0.245   4.328   0.435  0.3485 -0.0570  0.7566
 5485SOL    HW227915   0.151   4.438   0.423 -1.0507 -0.2878 -0.1123
 5486SOL     OW27916   2.605   2.347  11.016  0.1030 -0.2296 -0.0622
 5486SOL    HW127917   2.547   2.352  10.940 -0.9984  0.1268  0.8044
 5486SOL    HW227918   2.674   2.290  10.981  0.5618 -1.5006  2.9184
 5487SOL     OW27919   2.457   1.743   4.822 -0.5734 -0.5334 -0.0349
 5487SOL    HW127920   2.368   1.708   4.827 -0.5387 -0.8665 -1.7988
 5487SOL    HW227921   2.504   1.669   4.784 -0.1090  1.1124 -2.7497
 5488SOL     OW27922   1.091   0.523  13.398  0.4261 -0.4801  0.1320
 5488SOL    HW127923   1.157   0.580  13.358 -1.8723  1.3009 -1.0994
 5488SOL    HW227924   1.110   0.506  13.490  0.4707  0.5763  0.3276
 5489SOL     OW27925   2.606   3.243   1.065  0.7054 -0.0918  0.1669
 5489SOL    HW127926   2.658   3.281   1.135 -1.1021  1.6161  0.5821
 5489SOL    HW227927   2.595   3.314   1.002  1.1893 -0.8035 -0.7160
 5490SOL     OW27928   3.542   0.362   2.359  1.0979 -0.0628 -0.3295
 5490SOL    HW127929   3.493   0.328   2.284  1.1242  1.4708 -1.0375
 5490SOL    HW227930   3.484   0.434   2.383 -1.0056 -1.1871 -1.9776
 5491SOL     OW27931   3.629   2.699   4.250 -0.1254  0.6634 -0.5446
 5491SOL    HW127932   3.599   2.783   4.285 -0.0688  2.9185 -5.9469
 5491SOL    HW227933   3.649   2.722   4.160  0.6943 -1.6697 -0.9696
 5492SOL     OW27934   4.599   3.354   7.677 -0.5900  0.1889  0.0519
 5492SOL    HW127935   4.568   3.280   7.625  0.3061 -0.4519  0.4320
 5492SOL    HW227936   4.652   3.305   7.739 -0.4293 -0.9724 -1.0055
 5493SOL     OW27937   2.450   1.191   7.419  0.1355 -0.0308 -0.5069
 5493SOL    HW127938   2.420   1.262   7.362  0.1723  0.8221  0.5360
 5493SOL    HW227939   2.533   1.176   7.375  1.4086  1.6689  1.3459
 5494SOL     OW27940   1.198   1.234   4.618 -0.0902  0.1435  0.3883
 5494SOL    HW127941   1.285   1.196   4.604 -0.6905 -0.2822 -2.1743
 5494SOL    HW227942   1.153   1.200   4.540 -2.2072 -1.6503  2.3585
 5495SOL     OW27943   1.569   0.922   2.809 -0.1296 -0.1633  0.2843
 5495SOL    HW127944   1.608   0.835   2.800  1.5852  0.7513 -1.1272
 5495SOL    HW227945   1.631   0.956   2.873  1.2009  2.4714 -2.4049
 5496SOL     OW27946   4.325   3.018  12.478 -0.3381 -0.2544  0.3520
 5496SOL    HW127947   4.399   3.077  12.467  0.0026 -1.1827 -2.3121
 5496SOL    HW227948   4.265   3.080  12.519 -1.4732  0.1284 -1.8914
 5497SOL     OW27949   0.365   1.353  11.924 -0.3818 -0.4184 -0.1045
 5497SOL    HW127950   0.374   1.258  11.938  1.4200 -0.2622 -0.2305
 5497SOL    HW227951   0.292   1.358  11.862  1.6022 -1.6444 -2.5292
 5498SOL     OW27952   3.446   2.451   8.472  0.1243  0.4219  0.5358
 5498SOL    HW127953   3.496   2.469   8.551  0.8449  0.6443  0.0348
 5498SOL    HW227954   3.509   2.400   8.421 -2.1362 -1.3528 -0.4749
 5499SOL     OW27955   1.461   2.035   3.301 -0.0627 -0.1258 -0.1682
 5499SOL    HW127956   1.450   2.082   3.383  0.4951  0.7042 -0.5631
 5499SOL    HW227957   1.370   2.012   3.286 -0.2159  0.6505 -0.4621
 5500SOL     OW27958   1.944   2.288   8.748  0.0963  0.1159 -0.2420
 5500SOL    HW127959   1.994   2.344   8.688 -0.2101  1.5049  0.8054
 5500SOL    HW227960   2.019   2.239   8.783  0.5602  1.3133  0.4375
 5501SOL     OW27961   1.889   4.009  15.242 -0.1548  0.0317 -0.4528
 5501SOL    HW127962   1.970   4.060  15.238  0.4708 -0.8939  0.4397
 5501SOL    HW227963   1.932   3.927  15.265  0.6574  1.5181  3.4416
 5502SOL     OW27964   3.219   1.191   5.924 -0.2637 -0.5425 -0.0078
 5502SOL    HW127965   3.216   1.245   6.003  0.9334  0.4469 -0.6302
 5502SOL    HW227966   3.167   1.114   5.945 -2.0071  0.4940 -0.5362
 5503SOL     OW27967   1.623   4.293   5.842 -0.1217 -0.4200  0.1048
 5503SOL    HW127968   1.642   4.214   5.792  1.2839  1.1326 -1.8400
 5503SOL    HW227969   1.550   4.331   5.793 -0.3126  1.1006  1.5710
 5504SOL     OW27970   1.300   0.886   2.812 -0.2180  0.1367  0.0437
 5504SOL    HW127971   1.390   0.917   2.815  0.4321 -1.9441  1.4179
 5504SOL    HW227972   1.296   0.854   2.722  2.2501 -1.2918  0.4632
 5505SOL     OW27973   0.932   1.530   2.520 -0.3297  0.0494  0.0112
 5505SOL    HW127974   1.016   1.543   2.477 -0.6237  0.4456 -0.4431
 5505SOL    HW227975   0.931   1.559   2.611  0.5902 -0.9174  0.3341
 5506SOL     OW27976   3.620   2.895   8.083  0.1290  1.0156 -0.2311
 5506SOL    HW127977   3.636   2.986   8.106 -0.5750  1.6347 -2.2034
 5506SOL    HW227978   3.603   2.853   8.168  3.4272  0.7829  0.3034
 5507SOL     OW27979   1.851   4.270   0.519 -0.6635 -0.1286 -0.1886
 5507SOL    HW127980   1.902   4.249   0.598 -1.9250 -1.2146  0.3401
 5507SOL    HW227981   1.879   4.361   0.509 -0.0768  0.1039  3.2989
 5508SOL     OW27982   3.040   2.504  17.556  0.0266 -0.0290  0.3199
 5508SOL    HW127983   3.107   2.438  17.575  1.8187  0.8351 -3.0808
 5508SOL    HW227984   3.095   2.579  17.581  1.6348 -1.1541  0.1627
 5509SOL     OW27985   4.090   2.782   7.220  0.2530 -0.3760 -0.0090
 5509SOL    HW127986   4.028   2.710   7.206  0.2494 -0.1769 -1.0350
 5509SOL    HW227987   4.041   2.836   7.282 -0.2325 -0.4907 -0.2827
 5510SOL     OW27988   2.139   4.123  16.747 -0.0584 -0.0007 -0.3423
 5510SOL    HW127989   2.204   4.053  16.744 -0.3840 -0.3682  1.2814
 5510SOL    HW227990   2.059   4.080  16.717  0.3955 -0.1677 -1.3258
 5511SOL     OW27991   4.265   4.603   5.546 -0.4457 -0.0559 -0.0824
 5511SOL    HW127992   4.285   4.532   5.485 -0.7393  0.6472 -0.9947
 5511SOL    HW227993   4.179   4.575   5.578 -1.3840  0.7385 -1.8755
 5512SOL     OW27994   1.643   3.196   6.916 -0.0620 -0.0459  0.6684
 5512SOL    HW127995   1.655   3.158   6.829  0.0574 -1.2987  1.2454
 5512SOL    HW227996   1.729   3.185   6.957 -0.3026  1.6883  1.6294
 5513SOL     OW27997   2.216   1.439   3.722 -0.0629 -0.1997  0.0784
 5513SOL    HW127998   2.284   1.449   3.789  0.6567  2.5558 -1.0708
 5513SOL    HW227999   2.164   1.519   3.733 -0.1715 -0.3123  0.4060
 5514SOL     OW28000   3.006   3.811   0.176 -0.2992  0.7892 -0.1956
 5514SOL    HW128001   3.067   3.751   0.219 -3.6237 -0.5350  2.7448
 5514SOL    HW228002   3.069   3.875   0.143  1.7511 -0.4639  1.2881
 5515SOL     OW28003   1.119   0.707   1.748  0.0446 -0.4481  0.0563
 5515SOL    HW128004   1.072   0.736   1.826  0.9059 -1.2491  0.8590
 5515SOL    HW228005   1.165   0.784   1.716  0.6479 -0.5636  0.6570
 5516SOL     OW28006   3.518   0.881   6.385  0.2620  0.6097  0.2237
 5516SOL    HW128007   3.595   0.930   6.412  0.2669 -0.0837  1.4640
 5516SOL    HW228008   3.546   0.795   6.416 -1.5232  0.4076  1.3070
 5517SOL     OW28009   0.563   1.241   5.602  0.2827  0.1021  0.3267
 5517SOL    HW128010   0.643   1.224   5.652  1.7388  0.5996 -1.8624
 5517SOL    HW228011   0.579   1.332   5.578  1.6523 -0.1124  0.4318
 5518SOL     OW28012   3.832   1.483   3.160  0.0456 -0.0352  0.5458
 5518SOL    HW128013   3.882   1.429   3.099 -1.6952 -2.9950  1.7611
 5518SOL    HW228014   3.866   1.572   3.157  2.1823 -0.8321  1.3515
 5519SOL     OW28015   4.058   3.635  10.676 -0.1083 -0.7188 -0.3800
 5519SOL    HW128016   3.988   3.671  10.621  0.1868  0.1718 -0.1756
 5519SOL    HW228017   4.035   3.693  10.749  0.3766  0.3918 -1.0995
 5520SOL     OW28018   1.887   3.515   6.345 -0.3195  0.0481  0.3471
 5520SOL    HW128019   1.798   3.543   6.364  0.1485  0.5994  1.7652
 5520SOL    HW228020   1.937   3.591   6.376 -0.7409  0.6159 -0.3624
 5521SOL     OW28021   2.444   4.555   6.926  0.0914 -0.2473  0.4977
 5521SOL    HW128022   2.378   4.563   6.856 -0.5961 -2.0238  0.9350
 5521SOL    HW228023   2.523   4.592   6.888 -0.5566  0.0477 -0.5759
 5522SOL     OW28024   1.405   3.473  11.214  0.2503  0.4616  0.7625
 5522SOL    HW128025   1.374   3.449  11.126  0.7671  2.2000  0.0935
 5522SOL    HW228026   1.416   3.385  11.250 -0.8794 -1.3209 -3.1571
 5523SOL     OW28027   3.607   3.792   2.725 -0.2919 -0.1031  0.0423
 5523SOL    HW128028   3.528   3.846   2.732  0.8657  1.4045  1.1890
 5523SOL    HW228029   3.605   3.780   2.630 -2.5630  2.1035 -0.1894
 5524SOL     OW28030   4.632   2.782   7.814 -0.1831  0.3312  0.0375
 5524SOL    HW128031   4.572   2.785   7.888  2.2432 -1.1303  2.0677
 5524SOL    HW228032   4.594   2.703   7.778 -1.9910  1.4023 -0.3940
 5525SOL     OW28033   3.100   1.532   2.543 -0.5639 -0.0314 -0.5260
 5525SOL    HW128034   3.135   1.621   2.540  0.7251 -0.5691 -1.6402
 5525SOL    HW228035   3.031   1.530   2.477 -0.2938  2.0467 -0.8530
 5526SOL     OW28036   0.481   1.086   1.518 -0.3141  0.7338  0.3852
 5526SOL    HW128037   0.461   1.070   1.610  1.6878  2.1052  1.0661
 5526SOL    HW228038   0.434   1.024   1.462 -0.3647  0.1561  1.0670
 5527SOL     OW28039   3.935   2.035   1.898 -0.1126 -0.3172  0.7469
 5527SOL    HW128040   3.927   1.988   1.981  1.9318  1.0711  1.7034
 5527SOL    HW228041   4.030   2.031   1.889 -0.2890 -2.3349 -0.3886
 5528SOL     OW28042   3.053   4.505  11.724 -0.5012 -0.5737 -0.0584
 5528SOL    HW128043   2.985   4.467  11.669 -0.6492 -2.8191  1.6905
 5528SOL    HW228044   3.085   4.434  11.778 -0.4172  0.3455  1.0922
 5529SOL     OW28045   2.797   1.203  12.793  0.4621 -0.6286 -0.0972
 5529SOL    HW128046   2.706   1.230  12.780 -0.0330 -2.0031  0.4376
 5529SOL    HW228047   2.817   1.209  12.700 -2.2219  0.1955 -0.6244
 5530SOL     OW28048   0.146   3.708  15.212  0.0767 -0.0079  0.2873
 5530SOL    HW128049   0.061   3.745  15.190  1.1392  0.6003 -2.8624
 5530SOL    HW228050   0.183   3.708  15.124 -2.1297 -0.3285 -0.6210
 5531SOL     OW28051   3.051   1.939  15.578 -0.0619  0.2058 -0.3124
 5531SOL    HW128052   3.059   1.939  15.674 -0.0739  0.1811 -0.3115
 5531SOL    HW228053   2.971   1.889  15.567 -0.9077  1.5560 -0.3018
 5532SOL     OW28054   2.842   0.286   4.573  0.3101  0.4229  0.5110
 5532SOL    HW128055   2.893   0.269   4.495 -0.5799  1.4743 -0.2996
 5532SOL    HW228056   2.753   0.280   4.537  0.2635  1.6317  0.4346
 5533SOL     OW28057   4.566   0.529   7.742 -0.6049 -0.3955  0.0411
 5533SOL    HW128058   4.492   0.481   7.706 -1.2176 -0.2142  1.0448
 5533SOL    HW228059   4.577   0.482   7.825  1.2844 -0.1641 -0.0661
 5534SOL     OW28060   3.548   3.354   1.425 -0.4918  0.0958  0.1776
 5534SOL    HW128061   3.529   3.329   1.515  0.1858  0.4192  0.4142
 5534SOL    HW228062   3.608   3.429   1.430 -0.7887  0.3893 -0.6283
 5535SOL     OW28063   1.239   1.255   7.412  0.0138 -0.1063 -0.1379
 5535SOL    HW128064   1.276   1.174   7.445  0.0177  1.2477  3.1424
 5535SOL    HW228065   1.233   1.246   7.317  0.4241  0.2044 -0.1945
 5536SOL     OW28066   2.354   2.895  17.644  0.0366  0.5159 -0.7337
 5536SOL    HW128067   2.411   2.846  17.586  0.6819  2.5538 -1.8087
 5536SOL    HW228068   2.298   2.830  17.688 -0.3492  1.2114 -0.1825
 5537SOL     OW28069   2.965   3.657   6.558  0.1327 -0.0704 -0.5018
 5537SOL    HW128070   3.059   3.643   6.542  0.6527  0.5832  1.9272
 5537SOL    HW228071   2.927   3.650   6.471  2.5401 -2.9101 -1.3407
 5538SOL     OW28072   1.471   0.269  15.277 -0.3313 -0.0096  0.0435
 5538SOL    HW128073   1.501   0.181  15.300  0.1212 -0.8524 -3.6294
 5538SOL    HW228074   1.550   0.321  15.291  0.5055 -0.8863 -1.3938
 5539SOL     OW28075   1.338   2.858   2.945  0.2711 -0.6510  0.1581
 5539SOL    HW128076   1.286   2.866   3.025 -0.9374 -1.0582 -0.5941
 5539SOL    HW228077   1.354   2.764   2.954 -0.0600 -0.6136  1.1288
 5540SOL     OW28078   1.478   3.421   5.042 -0.3805 -0.2635  0.2445
 5540SOL    HW128079   1.386   3.397   5.035 -0.1766 -0.2332 -2.4882
 5540SOL    HW228080   1.521   3.336   5.040  2.1979  1.0292  1.1773
 5541SOL     OW28081   1.146   2.082  11.108  0.0221 -0.0985  0.0260
 5541SOL    HW128082   1.186   2.029  11.040  0.3278  1.8398 -1.3188
 5541SOL    HW228083   1.061   2.038  11.107 -0.4249  0.7661 -0.4495
 5542SOL     OW28084   3.257   1.859   4.709 -0.7330 -0.0571  0.2484
 5542SOL    HW128085   3.176   1.809   4.717  0.2972 -2.0722 -1.9961
 5542SOL    HW228086   3.249   1.921   4.781  2.8698  1.7370 -0.8680
 5543SOL     OW28087   3.822   0.487   4.413  0.3016 -0.3550 -0.5426
 5543SOL    HW128088   3.839   0.516   4.503 -1.1675  0.7571 -0.6221
 5543SOL    HW228089   3.904   0.438   4.406 -0.4878 -1.5467 -1.2657
 5544SOL     OW28090   4.024   3.380   9.686 -0.9092 -0.2415 -0.0922
 5544SOL    HW128091   4.070   3.328   9.620 -0.1683 -0.5711  0.6902
 5544SOL    HW228092   3.945   3.404   9.638 -0.8417 -0.1997 -0.1819
 5545SOL     OW28093   1.071   0.421  14.796  0.5065 -0.0429  0.7205
 5545SOL    HW128094   1.061   0.422  14.701  1.6530 -3.3799  0.5589
 5545SOL    HW228095   0.981   0.424  14.828  0.3162 -1.0977  0.2874
 5546SOL     OW28096   2.604   1.608   6.578  0.8986  0.3067  0.3771
 5546SOL    HW128097   2.595   1.517   6.607 -0.8059 -0.3178 -2.1136
 5546SOL    HW228098   2.613   1.650   6.664 -0.7770  2.2033 -0.3702
 5547SOL     OW28099   4.312   4.080  14.375 -0.1009 -0.3767 -0.4181
 5547SOL    HW128100   4.226   4.043  14.391 -0.3722  0.1197 -0.7378
 5547SOL    HW228101   4.330   4.071  14.281  1.6637 -1.1804 -0.0101
 5548SOL     OW28102   3.416   2.697   3.803  0.0720 -0.6164  0.4596
 5548SOL    HW128103   3.379   2.753   3.871 -0.6515  1.4670 -1.6484
 5548SOL    HW228104   3.376   2.735   3.724  2.4453  0.5845 -0.1595
 5549SOL     OW28105   3.398   0.738  15.855  0.8398 -0.2402 -0.2190
 5549SOL    HW128106   3.476   0.793  15.850  0.6081  0.2606  1.7838
 5549SOL    HW228107   3.405   0.711  15.946  2.0845 -1.8687 -0.7885
 5550SOL     OW28108   4.073   1.109   4.986 -0.2384  0.2326  0.0763
 5550SOL    HW128109   4.023   1.157   4.920 -0.2846 -2.0697 -1.5562
 5550SOL    HW228110   4.016   1.034   4.999 -0.1667 -0.1119 -1.6821
 5551SOL     OW28111   0.751   0.959   5.490 -0.3728 -0.5499  0.6123
 5551SOL    HW128112   0.713   0.926   5.571  0.0221 -1.2264  0.5230
 5551SOL    HW228113   0.838   0.977   5.526  0.1345 -2.4089  0.2973
 5552SOL     OW28114   1.922   2.661   8.264 -0.1524 -0.0374 -0.4731
 5552SOL    HW128115   1.841   2.694   8.226  0.2250  0.6899 -0.6465
 5552SOL    HW228116   1.946   2.735   8.319  1.9782  0.1628 -1.6836
 5553SOL     OW28117   2.219   0.358   3.697 -0.5392  0.2063 -0.2998
 5553SOL    HW128118   2.210   0.429   3.635  0.1122  0.7197  0.1913
 5553SOL    HW228119   2.130   0.355   3.733 -0.1689 -1.0314  0.5268
 5554SOL     OW28120   3.669   2.569  17.259 -0.2162  0.0595  0.2479
 5554SOL    HW128121   3.722   2.648  17.247  0.0892 -0.3465 -1.0492
 5554SOL    HW228122   3.673   2.552  17.354 -0.8181 -1.2598  0.0416
 5555SOL     OW28123   0.423   1.374  14.245  0.0690  0.0954  0.0585
 5555SOL    HW128124   0.518   1.374  14.258 -0.0078  3.1392  0.5298
 5555SOL    HW228125   0.410   1.290  14.290 -0.7836  0.2735  0.1363
 5556SOL     OW28126   1.841   3.880   4.867  0.0581 -0.2682 -0.4918
 5556SOL    HW128127   1.928   3.906   4.897  0.0179 -1.2751  0.4884
 5556SOL    HW228128   1.861   3.807   4.807 -0.6051 -0.6296 -0.2751
 5557SOL     OW28129   3.331   3.138   3.587  0.2486  0.2026 -0.2304
 5557SOL    HW128130   3.418   3.105   3.563  0.1199  0.1963 -0.6891
 5557SOL    HW228131   3.339   3.131   3.682 -0.4011  0.8713 -0.1320
 5558SOL     OW28132   4.404   3.994   3.687  0.0070  0.4401  0.2537
 5558SOL    HW128133   4.381   3.954   3.771  2.9659 -0.2765  0.7475
 5558SOL    HW228134   4.318   4.025   3.661 -0.7100 -0.5044  1.5176
 5559SOL     OW28135   3.787   1.703   9.161 -0.9568  0.1422 -0.3562
 5559SOL    HW128136   3.786   1.795   9.137 -1.2084 -0.8677 -4.2011
 5559SOL    HW228137   3.819   1.711   9.251  0.7609 -4.6473 -0.5010
 5560SOL     OW28138   1.451   1.619   3.858  0.1090  0.1761  0.3473
 5560SOL    HW128139   1.430   1.633   3.766  1.3145  2.9834  0.5074
 5560SOL    HW228140   1.409   1.697   3.892  0.5094  0.9556 -0.9523
 5561SOL     OW28141   2.873   3.307   1.475 -0.4241 -0.2452 -0.0888
 5561SOL    HW128142   2.895   3.391   1.515 -1.1642 -0.1979  0.2161
 5561SOL    HW228143   2.822   3.335   1.399  1.0807  2.7823  0.0379
 5562SOL     OW28144   4.470   1.124  12.113 -0.1674  0.4041  0.0774
 5562SOL    HW128145   4.525   1.046  12.113 -0.1639  0.4067 -0.3333
 5562SOL    HW228146   4.389   1.079  12.136 -0.6031  1.6938  1.0560
 5563SOL     OW28147   4.213   0.492  17.640 -0.1528 -0.2300  1.0050
 5563SOL    HW128148   4.236   0.425  17.575 -2.7816  0.9842 -1.1949
 5563SOL    HW228149   4.303   0.513  17.664 -0.0378  0.1000  0.2938
 5564SOL     OW28150   2.620   1.948  15.060  0.0252  0.3799 -0.3461
 5564SOL    HW128151   2.580   1.894  14.992  1.5721 -2.5346  1.0947
 5564SOL    HW228152   2.712   1.930  15.043  0.0504 -2.5923  3.0485
 5565SOL     OW28153   1.432   0.243   5.533  0.5171 -0.7909 -0.0785
 5565SOL    HW128154   1.518   0.283   5.548 -0.3286  0.3308  1.7456
 5565SOL    HW228155   1.409   0.277   5.446 -0.9359  0.0563  0.6374
 5566SOL     OW28156   4.051   3.465   2.617 -0.1872 -0.3931 -0.3020
 5566SOL    HW128157   4.071   3.394   2.679 -1.4290 -0.0837  0.4520
 5566SOL    HW228158   3.999   3.411   2.558 -1.2743 -0.8454  1.0621
 5567SOL     OW28159   3.549   2.904  11.833  0.5130  0.2750  0.9439
 5567SOL    HW128160   3.639   2.904  11.866  1.4713 -0.3581 -1.7215
 5567SOL    HW228161   3.544   2.997  11.811  1.0290  0.3284  1.0640
 5568SOL     OW28162   4.272   0.108  11.380  0.0273 -0.4467  0.6963
 5568SOL    HW128163   4.307   0.197  11.379  0.8851 -0.7457  3.0669
 5568SOL    HW228164   4.316   0.059  11.311 -1.0852  0.3467 -0.5618
 5569SOL     OW28165   3.554   0.981   5.216  0.6559  0.4078 -0.4087
 5569SOL    HW128166   3.619   0.919   5.183 -1.2917 -2.1432  0.5834
 5569SOL    HW228167   3.591   1.030   5.290  0.8290 -0.8706  0.3470
 5570SOL     OW28168   1.623   3.667  16.648  0.2373  0.7614  0.3822
 5570SOL    HW128169   1.667   3.694  16.567 -1.7717  2.2215 -0.2048
 5570SOL    HW228170   1.679   3.590  16.655  0.5411  0.9866  0.4566
 5571SOL     OW28171   3.730   4.229   8.903 -0.0359 -0.6693 -0.7757
 5571SOL    HW128172   3.749   4.286   8.977 -0.1747 -0.7289 -0.6935
 5571SOL    HW228173   3.634   4.233   8.899 -0.0147  0.9237  0.4706
 5572SOL     OW28174   0.188   4.077   7.173 -0.5098  0.3962  0.3068
 5572SOL    HW128175   0.126   4.058   7.243 -1.3977 -0.0605 -0.6110
 5572SOL    HW228176   0.269   4.096   7.221 -0.5980  1.0043  0.2202
 5573SOL     OW28177   2.980   2.952   4.912 -1.1269 -0.6260  0.1638
 5573SOL    HW128178   2.953   2.978   5.000  0.4482  0.7749  0.2474
 5573SOL    HW228179   3.075   2.960   4.922 -1.4433  1.4151  1.5215
 5574SOL     OW28180   2.807   0.982   4.517 -0.0242 -0.6158 -0.3696
 5574SOL    HW128181   2.749   0.908   4.530  0.6875 -1.0894  0.0906
 5574SOL    HW228182   2.856   0.956   4.438 -0.7372  0.0167 -1.0205
 5575SOL     OW28183   1.942   4.001   2.125 -0.4345 -0.3086  0.5612
 5575SOL    HW128184   2.014   4.016   2.187  0.0104  0.0540 -0.0436
 5575SOL    HW228185   1.948   3.906   2.120 -0.6354 -0.4438  2.5734
 5576SOL     OW28186   0.189   3.308   4.887 -0.1220  0.0121  0.6127
 5576SOL    HW128187   0.164   3.316   4.979 -0.4865 -2.5785  0.7336
 5576SOL    HW228188   0.149   3.222   4.873 -1.5237  0.8549 -0.4966
 5577SOL     OW28189   3.976   0.768   7.232  0.1640  0.3616 -0.3324
 5577SOL    HW128190   3.928   0.832   7.285  0.2281  0.6854 -0.6631
 5577SOL    HW228191   4.065   0.797   7.250  0.7347 -1.3493 -0.4118
 5578SOL     OW28192   0.582   2.321  12.601 -0.4158 -0.4475 -0.4915
 5578SOL    HW128193   0.633   2.241  12.612 -0.4470 -0.3036  0.6211
 5578SOL    HW228194   0.492   2.294  12.584 -0.7253  1.6089 -2.1997
 5579SOL     OW28195   4.262   2.320   0.076 -0.4376  0.4265 -0.0724
 5579SOL    HW128196   4.208   2.383   0.123 -0.8536 -0.3982  0.5690
 5579SOL    HW228197   4.193   2.264   0.039  0.3763  0.9742 -2.4454
 5580SOL     OW28198   1.325   4.635   5.485  0.9468 -0.2666  0.3362
 5580SOL    HW128199   1.356   0.000   5.497  0.7918 -0.2278  0.4391
 5580SOL    HW228200   1.389   4.606   5.420  1.6720  0.1618  0.8620
 5581SOL     OW28201   2.858   4.413   2.025  0.4874  0.3469  0.7644
 5581SOL    HW128202   2.892   4.328   2.051 -1.4254 -0.1569  1.5429
 5581SOL    HW228203   2.906   4.477   2.078  1.0706 -0.2387  0.9522
 5582SOL     OW28204   0.501   0.616  13.932 -0.7008 -0.8826 -0.1617
 5582SOL    HW128205   0.515   0.633  14.026  0.1459 -0.0177 -0.4398
 5582SOL    HW228206   0.558   0.542  13.910  1.7736  0.9224  0.1271
 5583SOL     OW28207   2.385   3.664  15.937 -0.7895 -0.1168 -0.1505
 5583SOL    HW128208   2.461   3.721  15.921  0.1564 -0.4645  3.2322
 5583SOL    HW228209   2.402   3.601  15.866 -1.7025  1.3137 -1.6557
 5584SOL     OW28210   2.439   1.365  13.203  0.0494  0.4059  0.4014
 5584SOL    HW128211   2.466   1.307  13.274 -0.7771 -2.3975 -1.5967
 5584SOL    HW228212   2.369   1.420  13.237 -1.0386  0.6203 -2.1500
 5585SOL     OW28213   0.868   0.774  12.368  0.4200 -0.2659 -0.0313
 5585SOL    HW128214   0.811   0.843  12.403 -1.9464 -1.6343 -1.1575
 5585SOL    HW228215   0.890   0.710  12.436 -3.9827  0.8578  2.4341
 5586SOL     OW28216   4.551   4.260   6.825  0.0096  0.8044 -0.7750
 5586SOL    HW128217   4.621   4.293   6.881  0.7325  1.7052 -2.1803
 5586SOL    HW228218   4.499   4.340   6.810  0.2403  1.1129  0.0857
 5587SOL     OW28219   1.747   0.706   6.561 -0.0250  0.3952 -0.4341
 5587SOL    HW128220   1.740   0.622   6.607 -0.0343  0.1114 -0.9543
 5587SOL    HW228221   1.674   0.691   6.500 -1.9833 -1.5433  2.3819
 5588SOL     OW28222   2.067   1.026   4.676  0.0670 -0.1693 -0.1333
 5588SOL    HW128223   1.977   0.999   4.692  0.3308 -0.6192  0.5861
 5588SOL    HW228224   2.043   1.057   4.588 -2.7761 -0.6459  0.4659
 5589SOL     OW28225   0.092   2.896   0.843  0.1185 -0.3059  0.0740
 5589SOL    HW128226   0.013   2.879   0.893 -0.9963  0.6733 -1.3449
 5589SOL    HW228227   0.077   2.986   0.813  0.3746 -0.7241 -1.3128
 5590SOL     OW28228   4.202   1.224   6.023 -0.0967 -0.2351 -0.0666
 5590SOL    HW128229   4.198   1.131   6.044  1.7149 -0.4188 -0.6316
 5590SOL    HW228230   4.123   1.229   5.968  0.2433 -2.0921 -0.7356
 5591SOL     OW28231   2.295   3.799   5.988  0.1919  0.2381  0.7881
 5591SOL    HW128232   2.307   3.818   5.895  0.2376  2.6728  1.2758
 5591SOL    HW228233   2.331   3.879   6.026  3.9516 -0.2155 -1.6822
 5592SOL     OW28234   3.123   0.279   8.114  0.0695  0.3161  0.1139
 5592SOL    HW128235   3.073   0.198   8.122 -0.4446  0.8305  2.1076
 5592SOL    HW228236   3.054   0.344   8.115  0.8106  1.1321 -2.1565
 5593SOL     OW28237   0.387   2.868   5.465 -0.1084 -0.4472  0.4291
 5593SOL    HW128238   0.361   2.871   5.373 -0.8819 -2.1562  0.5967
 5593SOL    HW228239   0.417   2.777   5.474 -0.2231 -0.3025  2.1751
 5594SOL     OW28240   3.973   0.801  17.257  0.5387 -0.1428 -0.0689
 5594SOL    HW128241   4.057   0.847  17.263  0.6185 -0.5574  2.0630
 5594SOL    HW228242   3.932   0.855  17.190  0.4998 -1.5935 -1.2028
 5595SOL     OW28243   0.678   0.971   3.665 -0.2659 -0.8099 -0.2405
 5595SOL    HW128244   0.717   0.926   3.590  2.4172  0.8954  0.1529
 5595SOL    HW228245   0.597   0.921   3.677 -1.1603  0.7213  0.0709
 5596SOL     OW28246   1.338   0.980   7.478  0.3356 -0.2612  0.0314
 5596SOL    HW128247   1.311   0.889   7.490 -0.5208 -0.0531 -0.3441
 5596SOL    HW228248   1.399   0.979   7.552  0.7708  0.4351 -0.3080
 5597SOL     OW28249   2.890   4.189  13.372 -0.0746 -0.0588 -0.3441
 5597SOL    HW128250   2.924   4.192  13.461 -0.3007 -0.1163 -0.2538
 5597SOL    HW228251   2.968   4.184  13.318  0.7851 -0.0965  0.9127
 5598SOL     OW28252   0.885   1.832   7.985  0.3996 -0.0285  0.4799
 5598SOL    HW128253   0.884   1.766   7.916  0.6133 -1.2552  1.6402
 5598SOL    HW228254   0.968   1.878   7.969 -0.8356  0.7338 -3.6753
 5599SOL     OW28255   2.554   1.617   8.226 -0.0750 -0.0598 -0.1158
 5599SOL    HW128256   2.623   1.552   8.232  0.2494  0.2933 -0.0374
 5599SOL    HW228257   2.602   1.696   8.250 -0.7715  0.5087 -0.5835
 5600SOL     OW28258   1.654   1.495   0.344 -0.1116  0.3466  0.1920
 5600SOL    HW128259   1.696   1.411   0.324  0.6118  1.0054 -1.0384
 5600SOL    HW228260   1.567   1.467   0.372  0.1880  0.2420  1.0231
 5601SOL     OW28261   4.248   1.526   4.997 -0.2593 -0.2638  0.0994
 5601SOL    HW128262   4.219   1.451   5.047 -1.1304  0.8487  1.2602
 5601SOL    HW228263   4.309   1.492   4.931 -1.6268  1.5827 -2.1310
 5602SOL     OW28264   4.448   4.403   8.544  0.0503 -0.4378 -0.2121
 5602SOL    HW128265   4.406   4.331   8.498  0.1382 -1.2258  0.9397
 5602SOL    HW228266   4.371   4.446   8.583  1.2259  1.0905  0.4132
 5603SOL     OW28267   0.449   1.430  10.282 -0.4840  0.1930 -0.4322
 5603SOL    HW128268   0.360   1.435  10.248 -0.6364 -0.3085 -0.1004
 5603SOL    HW228269   0.504   1.455  10.208  0.4312  2.0195  0.8529
 5604SOL     OW28270   1.565   4.442  11.535  0.0181 -0.0884 -0.3328
 5604SOL    HW128271   1.501   4.371  11.542 -0.6443  0.6813  1.2654
 5604SOL    HW228272   1.643   4.400  11.570  0.4419  0.8040 -0.2035
 5605SOL     OW28273   3.688   2.975   4.795 -0.2353  0.3503 -0.1347
 5605SOL    HW128274   3.660   3.005   4.709 -1.7474  2.4124  1.0633
 5605SOL    HW228275   3.608   2.989   4.846 -0.0213 -0.3737  0.3987
 5606SOL     OW28276   3.460   1.375  16.912  0.3721 -0.1742 -0.7823
 5606SOL    HW128277   3.472   1.354  17.004  0.4863  0.3451 -0.6765
 5606SOL    HW228278   3.554   1.374  16.894  0.5089 -0.6357 -0.0236
 5607SOL     OW28279   2.318   4.609   8.806  0.5032 -0.7759 -0.0426
 5607SOL    HW128280   2.357   4.540   8.859 -1.7502  1.4918  4.5102
 5607SOL    HW228281   2.331   4.687   8.859 -0.8306 -0.2201 -0.5139
 5608SOL     OW28282   0.459   4.439   5.823 -0.5269  0.4094  0.0944
 5608SOL    HW128283   0.381   4.422   5.770 -1.0103 -2.4869  1.7134
 5608SOL    HW228284   0.516   4.490   5.765 -1.0743 -1.1052 -1.7396
 5609SOL     OW28285   0.309   3.379   1.662 -0.2478  0.1257  0.4687
 5609SOL    HW128286   0.404   3.382   1.651  0.1012 -0.0526  3.3234
 5609SOL    HW228287   0.304   3.372   1.758 -1.6599 -0.6521  0.3389
 5610SOL     OW28288   0.436   1.072   3.092  0.1774  0.1566  0.1476
 5610SOL    HW128289   0.466   1.035   3.175  1.9550 -0.2215 -0.6657
 5610SOL    HW228290   0.455   1.002   3.030 -0.0958  0.5451 -0.3770
 5611SOL     OW28291   0.956   1.769   3.619  0.0554  0.3247 -1.1865
 5611SOL    HW128292   0.881   1.787   3.676 -0.6085 -1.6599 -1.4301
 5611SOL    HW228293   0.965   1.674   3.631  1.8451  0.4952 -1.1579
 5612SOL     OW28294   0.829   0.889  17.385 -0.6201  0.0392  0.3443
 5612SOL    HW128295   0.891   0.935  17.442 -1.9835  0.9569  1.0927
 5612SOL    HW228296   0.893   0.854  17.323 -1.6065 -2.0717  0.5151
 5613SOL     OW28297   4.710   1.609   4.106  0.9993 -0.6199 -0.3002
 5613SOL    HW128298   4.635   1.635   4.158 -0.9159 -1.9275 -2.3935
 5613SOL    HW228299   4.670   1.563   4.032  0.6009 -0.7984  0.0245
 5614SOL     OW28300   4.309   1.763  13.575 -0.2531  0.6061  0.1269
 5614SOL    HW128301   4.227   1.764  13.526 -0.9194  2.4741  1.2800
 5614SOL    HW228302   4.375   1.763  13.505 -0.5529 -0.6816 -0.1583
 5615SOL     OW28303   2.899   3.427   2.186  0.1953  0.2147 -0.1963
 5615SOL    HW128304   2.807   3.424   2.214  0.5893 -0.8667  0.9647
 5615SOL    HW228305   2.932   3.338   2.199 -2.4184 -0.8605 -0.9275
 5616SOL     OW28306   0.417   4.139  17.380 -0.2095 -0.1801  0.5218
 5616SOL    HW128307   0.342   4.160  17.324 -0.3767  0.5066  0.9986
 5616SOL    HW228308   0.466   4.221  17.374 -0.2639 -0.1225  0.8842
 5617SOL     OW28309   0.789   3.849   4.363  0.3222  0.2615  0.0677
 5617SOL    HW128310   0.783   3.800   4.281 -1.3033  0.1856  0.2286
 5617SOL    HW228311   0.883   3.835   4.373  0.0493 -2.8593 -1.9075
 5618SOL     OW28312   3.881   3.870  14.921  0.0912 -0.1687 -0.2788
 5618SOL    HW128313   3.876   3.785  14.965 -1.0758  0.0657  0.0260
 5618SOL    HW228314   3.862   3.849  14.829  0.3207  0.9992 -0.5956
 5619SOL     OW28315   0.203   2.039   4.750 -0.1627 -0.5821  0.3416
 5619SOL    HW128316   0.267   2.075   4.811  0.1800 -0.9078  0.1803
 5619SOL    HW228317   0.121   2.030   4.797 -2.4579  2.0601 -3.1599
 5620SOL     OW28318   4.595   0.405   7.984  0.3085  0.1813  0.3343
 5620SOL    HW128319   4.671   0.436   8.033  1.6176  0.0851 -1.6303
 5620SOL    HW228320   4.603   0.310   7.996 -1.5377 -0.0599 -0.4133
 5621SOL     OW28321   1.905   3.573   5.893  0.1176  0.0313  0.5715
 5621SOL    HW128322   1.841   3.609   5.831  0.7185 -1.6015 -0.9953
 5621SOL    HW228323   1.949   3.651   5.925 -1.0264 -0.3116  2.9615
 5622SOL     OW28324   0.206   0.304  13.451  0.3154  0.3962  0.0687
 5622SOL    HW128325   0.270   0.236  13.471 -1.4537 -1.0567  0.8308
 5622SOL    HW228326   0.175   0.332  13.537 -0.0178 -0.4555  0.2218
 5623SOL     OW28327   0.199   1.063   9.123 -0.1575  0.8614 -0.0529
 5623SOL    HW128328   0.179   1.156   9.114 -2.6940  0.2761 -0.5497
 5623SOL    HW228329   0.295   1.063   9.119 -0.1926 -2.5693 -0.7693
 5624SOL     OW28330   4.535   3.472  16.266  0.7588 -0.1929  0.2557
 5624SOL    HW128331   4.523   3.392  16.317  2.4137 -0.1355  0.7480
 5624SOL    HW228332   4.603   3.512  16.321  2.0964  0.1143 -1.6315
 5625SOL     OW28333   0.640   2.726   2.424 -0.3831 -0.4906 -0.4024
 5625SOL    HW128334   0.649   2.766   2.338 -1.5616 -1.2749 -0.8881
 5625SOL    HW228335   0.632   2.631   2.416 -0.7918 -0.6645  1.9755
 5626SOL     OW28336   0.883   4.564   4.510 -0.2173  0.0799  0.2089
 5626SOL    HW128337   0.960   4.621   4.513  2.1182 -2.9910 -1.1631
 5626SOL    HW228338   0.890   4.530   4.421 -2.3423 -1.0333  0.4601
 5627SOL     OW28339   4.320   3.389  12.894 -0.8074 -0.5465  0.1067
 5627SOL    HW128340   4.378   3.314  12.884  1.1007  0.9967 -0.4939
 5627SOL    HW228341   4.274   3.365  12.975  2.3262  0.0505  2.0770
 5628SOL     OW28342   1.988   4.351  10.387 -0.4870 -0.1263 -0.0783
 5628SOL    HW128343   2.083   4.355  10.388 -0.4999  0.3316 -0.6164
 5628SOL    HW228344   1.980   4.384  10.298  2.3749  3.6195  1.0672
 5629SOL     OW28345   3.533   4.427   5.063 -0.1622  0.2893  0.1622
 5629SOL    HW128346   3.561   4.417   4.972 -3.0439  1.0080 -0.7944
 5629SOL    HW228347   3.613   4.427   5.115 -0.1674 -0.4092  0.1746
 5630SOL     OW28348   1.380   3.206   3.279  0.1046 -0.4819 -0.8998
 5630SOL    HW128349   1.382   3.232   3.371  4.6147  0.5471 -1.3011
 5630SOL    HW228350   1.299   3.248   3.252  0.2663  0.7973  0.5609
 5631SOL     OW28351   1.039   0.155  11.573 -0.2940 -0.4646 -0.2365
 5631SOL    HW128352   1.023   0.235  11.523 -1.3709 -0.3585  0.2942
 5631SOL    HW228353   1.078   0.196  11.650  1.2104 -1.1041 -0.6653
 5632SOL     OW28354   4.168   1.342   7.597  0.0570  0.4465 -0.0437
 5632SOL    HW128355   4.084   1.381   7.572  0.4151  1.9568  1.1494
 5632SOL    HW228356   4.145   1.310   7.685 -1.8928  0.7801 -0.4419
 5633SOL     OW28357   0.969   3.798   9.061 -0.2880 -0.7367 -0.3839
 5633SOL    HW128358   0.929   3.742   9.127 -1.8099 -1.6156 -2.0667
 5633SOL    HW228359   1.030   3.850   9.114 -1.7073 -0.8720  1.3567
 5634SOL     OW28360   3.269   0.435   7.930 -0.2761  0.3059 -0.0208
 5634SOL    HW128361   3.221   0.374   7.986 -0.4883  1.5242  1.1083
 5634SOL    HW228362   3.353   0.432   7.976 -2.7579  0.1935  4.5026
 5635SOL     OW28363   4.279   0.986   6.104  0.1881  0.3381  0.4146
 5635SOL    HW128364   4.195   0.968   6.146  0.6320  1.2920  1.7091
 5635SOL    HW228365   4.337   0.979   6.180  0.0210  2.0770  0.7020
 5636SOL     OW28366   1.118   0.031   3.370  0.2765  0.1879  0.3180
 5636SOL    HW128367   1.099   4.672   3.411  2.6374 -1.5055 -2.0197
 5636SOL    HW228368   1.056   0.094   3.407  0.8403  1.1975 -0.4437
 5637SOL     OW28369   3.966   1.716   1.829  0.6462  0.5812 -0.0231
 5637SOL    HW128370   3.889   1.773   1.839  0.3874  0.4671 -1.2478
 5637SOL    HW228371   4.030   1.765   1.778  0.7319 -0.3031 -0.7741
 5638SOL     OW28372   0.040   1.942   8.078 -0.0989 -0.0833 -0.3911
 5638SOL    HW128373   0.013   1.865   8.128  0.9261  0.9876  1.8416
 5638SOL    HW228374   4.682   1.988   8.062  0.2534  0.9123  0.5674
 5639SOL     OW28375   4.343   3.750   2.459  0.3339  0.0478 -0.1362
 5639SOL    HW128376   4.380   3.785   2.377  0.1501 -1.3471 -0.8259
 5639SOL    HW228377   4.422   3.726   2.506 -0.2499 -1.5777  0.0079
 5640SOL     OW28378   0.128   0.441   3.364  0.3974 -0.3539  0.6192
 5640SOL    HW128379   0.067   0.510   3.390  1.1745  0.5737 -0.0370
 5640SOL    HW228380   0.100   0.425   3.274  1.1148 -1.3394  0.5745
 5641SOL     OW28381   1.432   2.350  11.917  0.3744 -0.8228 -0.1147
 5641SOL    HW128382   1.467   2.300  11.843  0.8242 -0.5432 -0.0905
 5641SOL    HW228383   1.439   2.285  11.987  0.5789  1.4956  1.9858
 5642SOL     OW28384   2.485   2.567   7.525  0.1293 -0.1451  0.1604
 5642SOL    HW128385   2.544   2.598   7.594 -1.3977  1.0527  0.9187
 5642SOL    HW228386   2.402   2.548   7.569 -1.0075  1.3924 -1.3465
 5643SOL     OW28387   4.373   0.252  16.468  0.6979  0.5999  0.5380
 5643SOL    HW128388   4.349   0.161  16.480  1.3487  0.1550 -1.4969
 5643SOL    HW228389   4.375   0.264  16.373 -1.7908  0.6670  0.5123
 5644SOL     OW28390   0.354   4.006  15.240  0.1441 -0.3766  0.2955
 5644SOL    HW128391   0.437   3.967  15.213  0.2144  1.6301 -2.3202
 5644SOL    HW228392   0.344   4.082  15.184 -1.0312  0.1556  1.2217
 5645SOL     OW28393   0.005   3.848   4.419  0.4882 -0.4647  0.0285
 5645SOL    HW128394   0.082   3.802   4.451 -0.1582 -1.5617  0.0103
 5645SOL    HW228395   4.668   3.776   4.404  2.8637 -2.5463  0.1812
 5646SOL     OW28396   3.764   0.264  17.041 -0.5444 -0.6895 -0.4404
 5646SOL    HW128397   3.780   0.276  16.948  2.2052  1.7686  0.3739
 5646SOL    HW228398   3.671   0.287  17.041 -0.8977 -2.0254  2.3794
 5647SOL     OW28399   0.959   0.224   8.830  0.3515 -0.1613  0.2871
 5647SOL    HW128400   0.963   0.301   8.886 -1.6716  0.3821 -0.3264
 5647SOL    HW228401   0.865   0.208   8.834  0.6784 -2.3237 -0.4246
 5648SOL     OW28402   0.938   1.388  15.316 -0.0138  0.3602 -0.4589
 5648SOL    HW128403   0.890   1.360  15.239  0.1309  0.6296 -0.6471
 5648SOL    HW228404   0.951   1.302  15.356  2.3388  1.3789  1.0084
 5649SOL     OW28405   2.718   0.957   6.965 -0.1806  0.6023 -0.5583
 5649SOL    HW128406   2.792   0.991   6.914  0.0459  2.5019  1.0283
 5649SOL    HW228407   2.648   0.927   6.907  0.7552 -2.4125 -0.1543
 5650SOL     OW28408   1.840   1.306  13.706  0.2491 -0.2087  0.2241
 5650SOL    HW128409   1.808   1.387  13.745 -0.9972  0.1812 -1.5954
 5650SOL    HW228410   1.849   1.259  13.789  0.7767  1.4330  1.0956
 5651SOL     OW28411   3.770   1.100  12.010 -0.2385 -0.0206 -0.8474
 5651SOL    HW128412   3.765   1.005  12.008 -0.5874 -0.0161 -0.2548
 5651SOL    HW228413   3.753   1.123  12.101 -2.5475  3.2748 -2.1072
 5652SOL     OW28414   0.136   1.415   6.633 -0.1410  0.1908  0.5521
 5652SOL    HW128415   0.100   1.428   6.720 -1.2189 -1.2914  0.3250
 5652SOL    HW228416   0.221   1.379   6.658 -0.4936 -0.7424  0.3817
 5653SOL     OW28417   1.663   1.180   8.967  0.7213  0.1715  0.4552
 5653SOL    HW128418   1.571   1.197   8.947 -0.2147 -2.4748  2.4990
 5653SOL    HW228419   1.664   1.085   8.972 -1.6850  0.1776  1.4287
 5654SOL     OW28420   4.563   1.833   4.866  0.3735 -0.0647  0.3898
 5654SOL    HW128421   4.641   1.798   4.907  0.2912 -0.3544  0.3011
 5654SOL    HW228422   4.487   1.816   4.922 -1.3860  3.3193 -0.8996
 5655SOL     OW28423   2.960   4.696  12.212  0.3689 -0.5661  0.5165
 5655SOL    HW128424   3.021   0.026  12.260  0.8036  0.8725 -1.6828
 5655SOL    HW228425   3.018   4.670  12.140 -1.5845 -0.6234 -1.0378
 5656SOL     OW28426   4.144   3.312   9.226  0.7798 -0.3312  0.1932
 5656SOL    HW128427   4.130   3.280   9.137 -2.4290 -0.7639  0.8162
 5656SOL    HW228428   4.052   3.313   9.253  0.5242  1.8666 -0.8343
 5657SOL     OW28429   2.622   3.878   9.881  0.1379 -0.0034  0.0452
 5657SOL    HW128430   2.562   3.917   9.818 -1.7862 -0.3914  1.6365
 5657SOL    HW228431   2.705   3.908   9.843  0.5168 -0.3162  0.6304
 5658SOL     OW28432   2.796   4.348   6.519  0.3180  0.0408  0.0639
 5658SOL    HW128433   2.874   4.294   6.523  1.4617  1.7464  0.6819
 5658SOL    HW228434   2.824   4.440   6.523 -1.9109  0.7579 -0.4675
 5659SOL     OW28435   0.834   0.600  12.600  0.0111 -0.0389 -0.0580
 5659SOL    HW128436   0.800   0.511  12.589  0.5814 -0.0478 -1.6808
 5659SOL    HW228437   0.800   0.612  12.689  2.5137  1.9153  0.6381
 5660SOL     OW28438   1.544   4.660   2.325  1.2079 -0.2735 -0.5317
 5660SOL    HW128439   1.482   0.008   2.328  0.3892 -0.9332 -1.9601
 5660SOL    HW228440   1.526   4.630   2.236  1.0215 -0.1335 -0.5397
 5661SOL     OW28441   0.899   1.661  11.559 -0.0176 -0.0758 -0.3995
 5661SOL    HW128442   0.929   1.571  11.551 -0.9172 -0.4041 -0.0513
 5661SOL    HW228443   0.964   1.710  11.508 -2.6967  4.4558  0.5298
 5662SOL     OW28444   1.100   4.616   9.409  0.5358 -0.0545 -0.1373
 5662SOL    HW128445   1.082   4.661   9.491 -2.5411 -0.5657 -0.4949
 5662SOL    HW228446   1.083   4.671   9.332 -1.3024  0.5810  0.7144
 5663SOL     OW28447   0.045   1.762  13.575 -0.4458 -0.0949 -0.4769
 5663SOL    HW128448   0.047   1.857  13.573 -0.8610 -0.1484 -3.1491
 5663SOL    HW228449   0.081   1.737  13.490  1.5872  1.2719 -0.0194
 5664SOL     OW28450   1.994   1.073   7.350 -0.4696 -0.4210  0.0380
 5664SOL    HW128451   1.926   1.131   7.315 -0.2400  0.6372  1.3408
 5664SOL    HW228452   2.076   1.093   7.305  0.0398  1.5202  1.8052
 5665SOL     OW28453   4.457   3.136   7.088  0.4815  0.0017 -0.0829
 5665SOL    HW128454   4.489   3.048   7.104 -0.7373 -0.8731 -2.3570
 5665SOL    HW228455   4.522   3.160   7.022 -0.6827  0.1141 -1.1850
 5666SOL     OW28456   4.715   0.744  15.782  0.3718  0.0387 -0.5459
 5666SOL    HW128457   4.650   0.684  15.745  0.1591  0.1557 -0.3601
 5666SOL    HW228458   4.659   0.797  15.839  2.5818  2.2184 -0.3900
 5667SOL     OW28459   4.612   3.287  10.847 -0.2917 -0.3333 -0.2091
 5667SOL    HW128460   4.628   3.346  10.774 -1.1696  0.4182  0.1999
 5667SOL    HW228461   4.673   3.309  10.917  0.3867 -0.0393 -0.8917
 5668SOL     OW28462   0.570   4.490   1.572 -0.0111 -0.0557  0.6694
 5668SOL    HW128463   0.641   4.425   1.565 -1.3979 -1.4258 -0.5978
 5668SOL    HW228464   0.612   4.573   1.596  2.1170 -0.6156 -1.0725
 5669SOL     OW28465   3.336   2.400  16.324 -1.1033  0.0203 -0.2717
 5669SOL    HW128466   3.283   2.324  16.349 -1.1318 -0.4992 -1.8752
 5669SOL    HW228467   3.285   2.462  16.376  1.1243  1.3798  0.3067
 5670SOL     OW28468   4.038   0.825   5.884  0.0289  0.0076 -0.3898
 5670SOL    HW128469   4.059   0.733   5.899  1.8137  0.4682 -0.0361
 5670SOL    HW228470   4.124   0.866   5.874 -0.1904  0.7271  0.6752
 5671SOL     OW28471   3.217   2.986   8.790 -0.1612 -0.1255 -0.0306
 5671SOL    HW128472   3.215   2.921   8.861  1.3148  1.2413  1.2740
 5671SOL    HW228473   3.301   3.025   8.813 -0.7014  1.1028 -0.1244
 5672SOL     OW28474   2.766   2.919   2.630 -0.0212  0.5697  0.0627
 5672SOL    HW128475   2.801   3.002   2.662  1.5452 -1.2251  3.0036
 5672SOL    HW228476   2.738   2.878   2.712  0.0871 -2.2755 -1.3474
 5673SOL     OW28477   0.259   1.651   0.963  0.5949  0.4895 -0.3007
 5673SOL    HW128478   0.187   1.627   0.905 -1.6509  2.8599  1.4915
 5673SOL    HW228479   0.317   1.580   0.936 -0.7994 -1.0122  0.6754
 5674SOL     OW28480   1.234   3.362   4.853  0.3879 -0.2794  0.2133
 5674SOL    HW128481   1.296   3.404   4.794 -0.3018  0.1055 -0.2454
 5674SOL    HW228482   1.220   3.274   4.819 -0.4215 -0.0473 -0.0596
 5675SOL     OW28483   2.263   3.178   6.901 -0.7381 -0.4910 -0.0688
 5675SOL    HW128484   2.269   3.264   6.942 -3.0529 -0.4218  0.1635
 5675SOL    HW228485   2.181   3.179   6.852  0.0997  1.1437 -1.3969
 5676SOL     OW28486   1.169   4.270   0.500 -0.2921 -0.6021  0.3445
 5676SOL    HW128487   1.233   4.244   0.434 -0.2341 -0.8138  0.4820
 5676SOL    HW228488   1.113   4.332   0.454  1.2040  0.2491 -0.3271
 5677SOL     OW28489   0.936   0.590   7.556 -0.0011  0.2875  0.0999
 5677SOL    HW128490   0.955   0.497   7.566  0.2723  0.2282 -0.9826
 5677SOL    HW228491   0.939   0.614   7.464  0.3469 -0.6751 -0.1292
 5678SOL     OW28492   0.089   3.097   6.295  0.6318 -0.1599  0.1669
 5678SOL    HW128493   0.107   3.182   6.334  0.1195 -0.0860  0.2352
 5678SOL    HW228494   0.052   3.127   6.212  1.0903  0.0677  0.0443
 5679SOL     OW28495   2.785   0.988   1.667 -0.3824  0.9599  0.4161
 5679SOL    HW128496   2.816   1.072   1.699  2.1833  0.6677 -1.3331
 5679SOL    HW228497   2.702   0.984   1.715 -0.6987  0.6872 -0.1466
 5680SOL     OW28498   2.407   0.107   9.866 -0.4285  0.0878  0.2837
 5680SOL    HW128499   2.394   0.038   9.931  1.8148 -0.8512 -0.2700
 5680SOL    HW228500   2.337   0.097   9.801 -0.2258 -1.0243  0.2455
 5681SOL     OW28501   1.946   4.074   4.587  0.0502  0.1928 -0.5209
 5681SOL    HW128502   2.036   4.106   4.591  0.1304  0.0245 -0.9388
 5681SOL    HW228503   1.970   3.992   4.543 -2.6607  0.1011 -1.8444
 5682SOL     OW28504   3.808   1.884   6.637  0.4930  0.0383 -0.2496
 5682SOL    HW128505   3.884   1.943   6.632  0.9645 -0.3158  2.6561
 5682SOL    HW228506   3.796   1.892   6.732 -0.4134 -1.5324 -0.2257
 5683SOL     OW28507   1.851   3.394   8.847  0.3063  0.1233 -0.1430
 5683SOL    HW128508   1.767   3.411   8.891 -0.2531 -1.2715 -0.6612
 5683SOL    HW228509   1.840   3.446   8.768 -2.6859  0.7772  0.7041
 5684SOL     OW28510   4.348   4.341  15.834  0.3086 -0.4668  0.3949
 5684SOL    HW128511   4.280   4.274  15.827  0.3087 -0.3505 -0.7121
 5684SOL    HW228512   4.424   4.289  15.810  0.0836 -0.2168 -0.8450
 5685SOL     OW28513   3.005   4.285  15.188  0.7260 -0.1445  0.4202
 5685SOL    HW128514   2.979   4.283  15.280 -2.2539 -1.8562 -0.4532
 5685SOL    HW228515   3.058   4.364  15.183 -1.6295  1.6627  4.1213
 5686SOL     OW28516   0.567   2.193   3.777 -0.4621 -0.4161 -0.4690
 5686SOL    HW128517   0.634   2.211   3.711 -0.3691  0.1620 -0.2183
 5686SOL    HW228518   0.488   2.220   3.731  1.1635  0.9918 -2.4186
 5687SOL     OW28519   1.247   2.171   4.174  0.0641  0.2969  0.3616
 5687SOL    HW128520   1.169   2.223   4.153  1.1485  1.7927  0.0395
 5687SOL    HW228521   1.224   2.157   4.266 -0.3603 -0.6830  0.1062
 5688SOL     OW28522   1.780   1.326   3.382  0.2143  0.0832 -0.0620
 5688SOL    HW128523   1.686   1.323   3.398  0.6224  0.6809  2.5198
 5688SOL    HW228524   1.810   1.334   3.473  0.2187  0.8765 -0.1264
 5689SOL     OW28525   2.878   4.412   4.412 -0.5279  0.1390  0.2111
 5689SOL    HW128526   2.911   4.501   4.425 -2.8815  1.7036 -4.6291
 5689SOL    HW228527   2.787   4.429   4.438 -0.7059 -2.5533  1.2887
 5690SOL     OW28528   3.342   2.049  13.307 -0.3420 -0.0674  0.1222
 5690SOL    HW128529   3.294   2.132  13.297  0.6912  0.3968 -0.9825
 5690SOL    HW228530   3.365   2.024  13.218 -0.8663  2.4976 -0.7402
 5691SOL     OW28531   3.237   1.805   3.388  0.3142  0.4564  0.2432
 5691SOL    HW128532   3.247   1.873   3.321 -1.5545  1.0919  0.6189
 5691SOL    HW228533   3.279   1.729   3.347  0.7484  0.7683  0.1105
 5692SOL     OW28534   4.349   0.424   4.269 -0.5513 -0.8693  0.4575
 5692SOL    HW128535   4.429   0.454   4.312  0.7536 -0.2544 -2.4231
 5692SOL    HW228536   4.296   0.503   4.263 -0.2847 -0.9373 -2.7086
 5693SOL     OW28537   0.313   3.122   0.782  0.0704  0.1402  0.4587
 5693SOL    HW128538   0.272   3.108   0.697  2.2014 -0.0808 -0.5513
 5693SOL    HW228539   0.389   3.171   0.752  1.2916  0.2608  3.7456
 5694SOL     OW28540   1.513   4.644   2.597  0.6488 -0.0001  0.1586
 5694SOL    HW128541   1.531   4.641   2.503 -1.6794 -0.2827 -0.2820
 5694SOL    HW228542   1.458   4.722   2.609 -1.9679 -1.9171  0.6888
 5695SOL     OW28543   2.478   3.941   4.475 -0.3162 -0.3830 -0.3971
 5695SOL    HW128544   2.420   3.866   4.461 -0.2648 -0.1519 -1.8623
 5695SOL    HW228545   2.498   3.971   4.386  0.2685 -1.3889 -0.6053
 5696SOL     OW28546   2.493   1.622   8.862  0.3475  0.2429  0.4098
 5696SOL    HW128547   2.449   1.694   8.907 -3.5362 -1.8354 -0.0682
 5696SOL    HW228548   2.494   1.548   8.922 -0.6490 -0.2183 -0.1341
 5697SOL     OW28549   1.975   1.704   0.748 -0.3924  0.0116  0.0622
 5697SOL    HW128550   1.901   1.685   0.691  0.2260 -1.7548 -0.1643
 5697SOL    HW228551   2.052   1.686   0.693  0.3929 -0.7457  1.4048
 5698SOL     OW28552   3.643   2.392  13.232 -0.2537  0.0878 -0.3614
 5698SOL    HW128553   3.602   2.439  13.304 -0.5151 -0.6258 -0.0423
 5698SOL    HW228554   3.723   2.442  13.216  0.5030 -0.8381  0.5098
 5699SOL     OW28555   1.278   3.239   4.284  0.0671 -0.5955 -0.4092
 5699SOL    HW128556   1.225   3.318   4.271 -0.2655 -0.8327 -0.4835
 5699SOL    HW228557   1.237   3.178   4.223  0.6659 -0.3929 -1.0164
 5700SOL     OW28558   0.030   2.151   5.166  0.2131 -0.0607 -0.1409
 5700SOL    HW128559   0.061   2.072   5.210  0.8733  1.6101  2.3736
 5700SOL    HW228560   4.663   2.148   5.194 -0.0510  3.1799 -0.5966
 5701SOL     OW28561   2.428   0.600  17.015  0.9161 -0.2128 -0.6412
 5701SOL    HW128562   2.410   0.687  17.049  0.7581 -1.0150  1.3553
 5701SOL    HW228563   2.397   0.563  17.098  0.6430  0.5092 -0.4205
 5702SOL     OW28564   1.106   2.420   2.556  0.1553 -0.3981 -0.2405
 5702SOL    HW128565   1.045   2.447   2.625  2.5247  1.5382  1.0936
 5702SOL    HW228566   1.196   2.420   2.587  0.8950  0.2948 -2.3531
 5703SOL     OW28567   3.170   4.036   0.094  0.5572  0.3886  0.5178
 5703SOL    HW128568   3.254   4.016   0.136  0.0646 -1.3325  0.6531
 5703SOL    HW228569   3.186   4.077   0.009 -1.7954  0.4465  0.0946
 5704SOL     OW28570   1.059   2.543   0.522 -0.0469  0.0624  0.1092
 5704SOL    HW128571   1.107   2.540   0.439 -0.2957 -0.6678 -0.0111
 5704SOL    HW228572   1.070   2.453   0.550  2.3900 -0.3875 -2.2355
 5705SOL     OW28573   4.634   0.735   3.189 -0.3857  0.1693 -0.4086
 5705SOL    HW128574   4.617   0.661   3.130 -0.6337 -0.1421  0.0595
 5705SOL    HW228575   4.724   0.754   3.161 -0.2600 -0.5449 -0.4906
 5706SOL     OW28576   1.713   0.702  17.691  0.5948 -0.2580  0.6551
 5706SOL    HW128577   1.699   0.675   0.082  1.6555 -1.2080  0.5361
 5706SOL    HW228578   1.750   0.789   0.005  0.3336 -0.4152  2.4091
 5707SOL     OW28579   3.716   2.585  10.546  0.2690  0.8998  0.4973
 5707SOL    HW128580   3.755   2.514  10.597 -1.2768 -0.6153 -0.4043
 5707SOL    HW228581   3.785   2.623  10.491 -1.3921  0.4347 -1.9304
 5708SOL     OW28582   1.482   4.409   4.349 -0.1146  0.1960  0.2396
 5708SOL    HW128583   1.553   4.461   4.387  0.3239  1.3683 -2.1317
 5708SOL    HW228584   1.474   4.337   4.411  0.4497  1.3308  1.6169
 5709SOL     OW28585   0.994   3.320   6.847 -0.2729  0.0299 -0.0292
 5709SOL    HW128586   1.070   3.268   6.872  0.2095  0.3368 -0.8461
 5709SOL    HW228587   1.004   3.369   6.928 -2.7021 -1.2876  1.0710
 5710SOL     OW28588   0.810   1.501   2.908 -0.2528  0.0788 -0.1661
 5710SOL    HW128589   0.811   1.543   2.822  0.9992  0.3298 -0.0319
 5710SOL    HW228590   0.723   1.528   2.938  0.2230 -0.8458  2.0354
 5711SOL     OW28591   0.241   4.055   6.131  0.1337 -0.1253  0.1985
 5711SOL    HW128592   0.314   4.010   6.088  1.2816  0.0435  1.9380
 5711SOL    HW228593   0.230   4.134   6.078 -2.7769 -0.5472  0.2112
 5712SOL     OW28594   4.711   4.584   5.657  0.5730 -0.0650  0.3731
 5712SOL    HW128595   4.666   4.590   5.742 -0.9014  0.6834 -0.4656
 5712SOL    HW228596   4.644   4.533   5.612 -0.3355  0.1612  1.4568
 5713SOL     OW28597   4.536   3.067   8.011  0.4753 -0.2521 -0.3526
 5713SOL    HW128598   4.610   3.008   8.025 -0.6447 -1.2647  1.3899
 5713SOL    HW228599   4.586   3.133   7.962  0.0983  0.0796 -0.2897
 5714SOL     OW28600   1.883   3.375   1.860 -0.5318 -0.1250  0.6255
 5714SOL    HW128601   1.890   3.415   1.774 -0.6552  0.6475  0.9729
 5714SOL    HW228602   1.800   3.328   1.854 -0.8383  0.8872 -2.8326
 5715SOL     OW28603   3.311   2.632   0.204  0.4200  0.1347  0.0720
 5715SOL    HW128604   3.254   2.683   0.261  0.3090  0.8423 -0.6718
 5715SOL    HW228605   3.252   2.557   0.194  0.4005  0.2541 -0.6822
 5716SOL     OW28606   0.204   1.483   7.648  0.0124  0.1724 -0.2947
 5716SOL    HW128607   0.194   1.558   7.706 -1.0818 -1.8269  2.0780
 5716SOL    HW228608   0.270   1.434   7.696  0.3641  1.5110  0.5881
 5717SOL     OW28609   3.371   0.962   1.759  0.0799 -0.1855 -0.4602
 5717SOL    HW128610   3.310   0.942   1.688  0.6738  0.9737 -1.3033
 5717SOL    HW228611   3.316   0.930   1.830  0.6901  1.2367  0.6519
 5718SOL     OW28612   1.157   2.382   4.936  0.2438 -0.5862 -0.4806
 5718SOL    HW128613   1.216   2.372   4.862  0.1535 -0.4117 -0.5772
 5718SOL    HW228614   1.211   2.422   5.003  0.1655 -2.3308  0.6173
 5719SOL     OW28615   0.114   1.599   5.138 -0.5926 -0.4030 -0.1342
 5719SOL    HW128616   0.027   1.586   5.176 -1.2528  0.9293 -1.2115
 5719SOL    HW228617   0.172   1.560   5.203  1.1036 -2.3669 -2.8240
 5720SOL     OW28618   4.089   3.398   5.358  0.1582  0.2777  0.3032
 5720SOL    HW128619   4.173   3.392   5.312 -1.1460  2.0453 -2.3131
 5720SOL    HW228620   4.039   3.451   5.295  0.0036  1.7409  1.6639
 5721SOL     OW28621   4.344   0.871   7.913 -0.0722  0.8862  0.5941
 5721SOL    HW128622   4.399   0.852   7.837 -3.1873 -3.9221 -0.4709
 5721SOL    HW228623   4.289   0.792   7.916  2.5224 -0.9419 -0.2326
 5722SOL     OW28624   4.491   4.285   7.611  0.0687  0.0020 -0.4659
 5722SOL    HW128625   4.499   4.225   7.537  2.8476 -2.9069  2.2228
 5722SOL    HW228626   4.441   4.230   7.671  2.1410 -0.4974  0.7827
 5723SOL     OW28627   1.335   3.882   9.148 -0.2033 -0.0055 -0.9204
 5723SOL    HW128628   1.420   3.840   9.164 -0.0862  0.1794 -1.0586
 5723SOL    HW228629   1.355   3.975   9.149 -0.4002  0.0159  1.4776
 5724SOL     OW28630   0.659   1.044  16.571 -0.0548  0.0108  0.1970
 5724SOL    HW128631   0.657   1.140  16.577  1.1854  0.1134 -1.0678
 5724SOL    HW228632   0.720   1.030  16.499 -1.8326  0.3014 -1.3597
 5725SOL     OW28633   2.134   1.704   1.006  0.7878 -0.5828 -0.5782
 5725SOL    HW128634   2.167   1.793   0.993 -2.5646  0.6987 -0.2027
 5725SOL    HW228635   2.094   1.687   0.920 -2.4546 -2.4320  1.3190
 5726SOL     OW28636   0.012   2.071   5.487 -0.3959 -0.1506 -0.0740
 5726SOL    HW128637   0.042   1.981   5.473  0.5987  0.7123 -3.4629
 5726SOL    HW228638   4.653   2.075   5.441  0.4112 -2.1677 -1.7573
 5727SOL     OW28639   0.389   2.700   9.043 -0.5322 -1.1214  0.3198
 5727SOL    HW128640   0.317   2.750   9.005  0.8229  0.1818 -0.5429
 5727SOL    HW228641   0.347   2.617   9.063  0.8466 -1.9007 -0.0018
 5728SOL     OW28642   2.597   1.527   4.697 -0.0061 -0.2507  0.6414
 5728SOL    HW128643   2.532   1.465   4.664  0.4886 -0.1184 -0.5794
 5728SOL    HW228644   2.645   1.470   4.758  1.4315 -0.6730 -0.8920
 5729SOL     OW28645   4.196   0.465  16.708  0.4219 -0.8094 -0.2432
 5729SOL    HW128646   4.220   0.479  16.616 -1.2532  0.5849 -0.4598
 5729SOL    HW228647   4.240   0.537  16.751  0.5816 -1.1210  0.1120
 5730SOL     OW28648   0.660   1.104   8.236 -0.2308  0.3352  0.2991
 5730SOL    HW128649   0.695   1.104   8.147  0.3073 -1.7699  0.5117
 5730SOL    HW228650   0.609   1.024   8.251 -1.2894  0.6953 -1.3488
 5731SOL     OW28651   0.690   2.520   7.913 -0.2066 -0.1170 -0.4513
 5731SOL    HW128652   0.668   2.440   7.865 -0.2905  1.7948 -3.5643
 5731SOL    HW228653   0.728   2.573   7.842  2.7403  0.8548  1.8342
 5732SOL     OW28654   0.237   3.143  17.144  0.3341 -0.4613 -0.6135
 5732SOL    HW128655   0.164   3.083  17.162  0.3915 -0.3970 -0.1563
 5732SOL    HW228656   0.225   3.171  17.054 -1.7128 -1.3978 -0.6171
 5733SOL     OW28657   3.827   4.336   1.829  0.0121  0.3183 -0.1669
 5733SOL    HW128658   3.802   4.411   1.883  1.0930 -0.5470  1.5753
 5733SOL    HW228659   3.806   4.359   1.739 -0.8718 -0.4859 -0.1690
 5734SOL     OW28660   2.564   0.587   5.960 -0.0428 -0.2631 -0.5656
 5734SOL    HW128661   2.562   0.682   5.951  0.8869 -0.2739 -0.8199
 5734SOL    HW228662   2.629   0.569   5.892  0.2013 -0.1982 -0.3497
 5735SOL     OW28663   4.240   2.584   8.281  0.2891  0.5954  0.0065
 5735SOL    HW128664   4.202   2.629   8.356 -2.6649 -0.6203 -0.7402
 5735SOL    HW228665   4.327   2.623   8.278  0.7472 -0.2549  2.3599
 5736SOL     OW28666   3.839   2.533  11.650  0.1812  0.3447 -0.4761
 5736SOL    HW128667   3.895   2.470  11.604 -0.7958 -1.5124  0.9022
 5736SOL    HW228668   3.840   2.487  11.733  1.9920  1.1957 -0.0259
 5737SOL     OW28669   0.801   3.233   1.846  0.4357  0.0547  0.0078
 5737SOL    HW128670   0.827   3.217   1.937 -1.2323 -3.2206 -0.0784
 5737SOL    HW228671   0.713   3.269   1.851 -0.3878 -2.0664  0.8053
 5738SOL     OW28672   1.365   1.447   2.734 -0.2390 -0.5299  0.8786
 5738SOL    HW128673   1.365   1.406   2.820  0.8845 -2.0868  0.1414
 5738SOL    HW228674   1.438   1.509   2.741 -0.4886 -0.4264  2.3905
 5739SOL     OW28675   1.538   1.068   3.388 -0.4300  0.1633  0.6972
 5739SOL    HW128676   1.598   1.048   3.461 -1.6529 -1.3800  1.2764
 5739SOL    HW228677   1.525   1.162   3.398 -0.1134  0.1784  0.9651
 5740SOL     OW28678   2.622   0.954   3.787  0.2224 -0.5699 -0.8493
 5740SOL    HW128679   2.668   0.876   3.758 -1.3526 -1.1664 -1.7750
 5740SOL    HW228680   2.695   1.013   3.806 -0.3107 -0.3459  0.4643
 5741SOL     OW28681   1.713   4.593   4.775  0.0984  0.0118  0.8486
 5741SOL    HW128682   1.712   4.503   4.806 -0.3287 -0.1734  0.3062
 5741SOL    HW228683   1.623   4.607   4.745 -0.0831  0.7932  1.7720
 5742SOL     OW28684   2.971   3.324   9.864  0.4236 -0.3517 -0.5010
 5742SOL    HW128685   3.022   3.270   9.802 -0.2634 -1.2393 -0.2962
 5742SOL    HW228686   2.902   3.261   9.885 -0.3854  0.7279  0.0375
 5743SOL     OW28687   1.822   3.289   4.333 -0.3205 -0.2157 -0.0063
 5743SOL    HW128688   1.812   3.195   4.319 -0.4847 -0.1618 -0.2458
 5743SOL    HW228689   1.821   3.321   4.243 -1.5882  0.6816  0.3174
 5744SOL     OW28690   3.740   2.793   2.740 -0.0745  0.2664  0.4780
 5744SOL    HW128691   3.678   2.720   2.749  1.7963 -1.3188  0.3786
 5744SOL    HW228692   3.714   2.826   2.826 -0.0688 -0.4622  0.7630
 5745SOL     OW28693   1.620   4.022   4.988  0.2813 -0.0186  0.0103
 5745SOL    HW128694   1.679   3.955   4.955 -0.7528 -0.7414 -0.3390
 5745SOL    HW228695   1.682   4.067   5.046 -0.9600  1.1149  0.4879
 5746SOL     OW28696   3.994   0.212   4.474 -0.2679  0.0903 -0.2129
 5746SOL    HW128697   3.985   0.134   4.529  0.1563  1.6755  2.1217
 5746SOL    HW228698   4.078   0.242   4.510  0.2728  0.0175 -1.4077
 5747SOL     OW28699   4.712   2.332  17.159 -0.1828  0.7997  0.2990
 5747SOL    HW128700   0.018   2.327  17.249  0.4703 -1.0261 -0.0264
 5747SOL    HW228701   4.712   2.427  17.146 -0.6868  0.5564 -1.5191
 5748SOL     OW28702   1.635   4.385   3.136 -0.1155  0.1811  0.0969
 5748SOL    HW128703   1.629   4.401   3.042 -1.9428  1.9207  0.5011
 5748SOL    HW228704   1.683   4.464   3.160  0.7223 -1.3691  3.4846
 5749SOL     OW28705   0.922   1.908   3.169 -0.3293  0.3821 -0.0449
 5749SOL    HW128706   0.862   1.923   3.096 -0.0904 -0.4716 -0.4130
 5749SOL    HW228707   0.956   1.820   3.152 -1.0860 -0.2970  1.9583
 5750SOL     OW28708   3.162   2.512  16.589 -0.1891 -0.2220 -0.2220
 5750SOL    HW128709   3.070   2.487  16.590 -0.6609  1.4721 -1.0586
 5750SOL    HW228710   3.201   2.504  16.676  0.2771  0.5939 -0.3512
 5751SOL     OW28711   3.255   2.194   1.610  0.1662 -0.3255  0.1350
 5751SOL    HW128712   3.281   2.283   1.585  0.3412  0.1239  1.9298
 5751SOL    HW228713   3.203   2.209   1.689  1.0806 -0.0272  0.6886
 5752SOL     OW28714   0.620   2.163  14.186 -0.3207 -0.3159 -0.4054
 5752SOL    HW128715   0.563   2.194  14.257 -0.4764  0.3016 -0.8051
 5752SOL    HW228716   0.556   2.144  14.118 -0.7963  2.3894 -0.6986
 5753SOL     OW28717   1.381   3.023   1.782  0.0070  0.1719  0.2594
 5753SOL    HW128718   1.417   3.067   1.705 -0.6073  1.0866  0.4898
 5753SOL    HW228719   1.288   3.031   1.760  0.2272 -1.4290 -1.2821
 5754SOL     OW28720   3.153   4.096   8.821  0.4935 -0.0000 -0.6547
 5754SOL    HW128721   3.233   4.056   8.787  0.0712 -1.9038  0.5867
 5754SOL    HW228722   3.121   4.136   8.740  1.3696 -1.2681 -1.6418
 5755SOL     OW28723   3.498   3.600   8.640  0.5439  0.0120  0.0804
 5755SOL    HW128724   3.583   3.578   8.678 -0.0022 -1.2021  0.6054
 5755SOL    HW228725   3.504   3.585   8.546  1.0654 -0.1268  0.1407
 5756SOL     OW28726   4.205   3.274  16.301  0.6197  0.0415 -0.1426
 5756SOL    HW128727   4.287   3.265  16.350 -0.4704  0.0847  1.7085
 5756SOL    HW228728   4.218   3.200  16.242 -0.3364  0.6280 -1.0884
 5757SOL     OW28729   3.495   1.370  10.671 -0.4883 -0.5477  0.1381
 5757SOL    HW128730   3.450   1.285  10.674 -0.2571 -0.7272 -1.5463
 5757SOL    HW228731   3.572   1.335  10.715 -0.3539  1.3009  1.3798
 5758SOL     OW28732   2.703   2.987   8.147  0.4027 -0.1040  0.1147
 5758SOL    HW128733   2.723   2.989   8.054 -1.3052  6.0074 -0.1041
 5758SOL    HW228734   2.791   2.986   8.186 -0.7226 -1.8446  2.6152
 5759SOL     OW28735   4.532   1.207   3.007 -0.2981  0.4815  0.6643
 5759SOL    HW128736   4.450   1.234   3.048 -0.9073  0.2258 -0.3737
 5759SOL    HW228737   4.557   1.134   3.063  0.8296  1.3798  1.3260
 5760SOL     OW28738   4.285   2.270   4.453 -0.5924 -0.0187 -0.3137
 5760SOL    HW128739   4.263   2.356   4.490  0.6038  0.4126 -0.5920
 5760SOL    HW228740   4.343   2.242   4.524 -2.7922 -0.9445  1.0944
 5761SOL     OW28741   0.090   4.054   0.321  0.2683  0.6197 -0.3962
 5761SOL    HW128742   0.021   3.992   0.344 -1.0466  2.3450  0.2249
 5761SOL    HW228743   0.049   4.098   0.246  0.7614 -0.2668 -1.1954
 5762SOL     OW28744   3.252   4.712   4.862  0.4807  0.3704  1.2145
 5762SOL    HW128745   3.176   4.705   4.919 -1.0519 -1.1690 -1.0341
 5762SOL    HW228746   3.199   4.709   4.783  2.7975  0.2705 -0.3545
 5763SOL     OW28747   0.226   4.653   2.732  0.1021 -0.6451  0.0569
 5763SOL    HW128748   0.273   0.009   2.712  0.1089 -0.2598  1.6806
 5763SOL    HW228749   0.226   4.608   2.647  1.6645  1.8233 -1.2633
 5764SOL     OW28750   4.625   1.882  10.239 -0.1027 -0.3530 -0.1184
 5764SOL    HW128751   4.602   1.864  10.330 -2.4655  0.0661 -0.6233
 5764SOL    HW228752   4.673   1.803  10.216  0.4074  0.1979 -0.9528
 5765SOL     OW28753   0.132   2.487   4.187  0.2811 -0.0652  0.0782
 5765SOL    HW128754   0.096   2.398   4.189  0.9597 -0.3303  0.7063
 5765SOL    HW228755   0.072   2.533   4.245 -0.2642  0.9724 -1.3076
 5766SOL     OW28756   1.063   4.681   2.233 -0.0617  0.7702  0.0307
 5766SOL    HW128757   1.048   4.591   2.204  0.0971  0.9107 -0.5003
 5766SOL    HW228758   1.153   4.693   2.203 -0.2674 -0.1281 -0.9559
 5767SOL     OW28759   2.837   1.041   5.834 -0.5308 -0.2323  0.0508
 5767SOL    HW128760   2.830   1.018   5.741 -0.3835  0.8009 -0.2236
 5767SOL    HW228761   2.879   0.962   5.868 -0.6904 -0.3381  0.0004
 5768SOL     OW28762   3.325   1.048  16.786  0.2990 -0.1220 -0.0664
 5768SOL    HW128763   3.256   1.043  16.720 -1.3854  1.7647  1.5129
 5768SOL    HW228764   3.400   1.072  16.733  1.1792 -1.9699  0.3413
 5769SOL     OW28765   3.001   1.033  10.235  0.4098  0.2309 -0.0571
 5769SOL    HW128766   3.045   1.116  10.251 -1.4002  1.0602  0.5973
 5769SOL    HW228767   2.961   1.062  10.153  0.2505 -0.1370 -0.1115
 5770SOL     OW28768   1.545   0.050  13.991 -0.0033 -0.7060 -0.0942
 5770SOL    HW128769   1.505   4.688  13.982 -0.7613 -0.5171  1.5261
 5770SOL    HW228770   1.515   0.061  14.081  0.0718 -1.1204 -0.0194
 5771SOL     OW28771   4.442   1.168  15.096 -0.4490 -0.4393 -0.1315
 5771SOL    HW128772   4.479   1.246  15.054  0.3166 -0.6457  0.1641
 5771SOL    HW228773   4.482   1.169  15.183 -0.6914  2.6546 -0.0631
 5772SOL     OW28774   3.044   1.802  12.085 -0.0156 -0.1107 -0.6289
 5772SOL    HW128775   3.015   1.889  12.059  2.3045  0.9108  0.1337
 5772SOL    HW228776   3.137   1.792  12.065  0.2407  1.0954 -0.0472
 5773SOL     OW28777   1.024   1.004  16.857 -0.3176 -0.0426 -0.0160
 5773SOL    HW128778   1.058   1.039  16.774 -0.6762 -2.3026 -1.1272
 5773SOL    HW228779   1.049   0.912  16.843 -0.4084  0.2948 -2.4817
 5774SOL     OW28780   0.984   1.427   8.026 -0.3966 -0.4155 -0.1081
 5774SOL    HW128781   1.038   1.498   8.063 -1.4217  0.7611 -0.8643
 5774SOL    HW228782   1.042   1.407   7.953 -0.2506 -2.0411  0.4660
 5775SOL     OW28783   0.616   3.218   3.669  0.3612 -0.2284  0.1800
 5775SOL    HW128784   0.649   3.137   3.629  3.8069  2.4522 -2.3837
 5775SOL    HW228785   0.633   3.276   3.595  0.6806 -0.3414  0.1616
 5776SOL     OW28786   1.966   0.865  10.150 -0.1333  0.5946 -0.2218
 5776SOL    HW128787   1.896   0.831  10.206  2.5267 -0.7023  2.3286
 5776SOL    HW228788   2.013   0.786  10.122 -2.5499 -0.6004 -0.8649
 5777SOL     OW28789   4.464   3.724  11.253 -0.1335 -0.2694 -0.0415
 5777SOL    HW128790   4.436   3.742  11.163 -2.6118 -0.2060  0.7662
 5777SOL    HW228791   4.554   3.758  11.254 -0.7896  1.3290  3.3387
 5778SOL     OW28792   1.804   4.358  11.116 -0.1772 -0.4239 -0.0160
 5778SOL    HW128793   1.866   4.323  11.052  1.1582 -1.3185  1.7752
 5778SOL    HW228794   1.858   4.421  11.162 -3.1503  2.5900 -0.6659
 5779SOL     OW28795   4.190   1.777   6.432  0.1814  0.4078 -0.0373
 5779SOL    HW128796   4.200   1.871   6.445  1.5077  0.4406 -1.3100
 5779SOL    HW228797   4.281   1.747   6.436  0.1817  0.4051 -0.0589
 5780SOL     OW28798   2.128   1.818   4.332 -0.6268 -0.0282  0.0500
 5780SOL    HW128799   2.169   1.776   4.257  0.2572  1.8957 -0.5500
 5780SOL    HW228800   2.067   1.747   4.352 -1.9675  1.0627 -0.0890
 5781SOL     OW28801   3.201   0.608   2.653  0.1936  0.4207 -0.4395
 5781SOL    HW128802   3.205   0.582   2.745 -2.6779  0.8247 -0.1745
 5781SOL    HW228803   3.121   0.660   2.645  1.5136  2.0492 -2.9482
 5782SOL     OW28804   3.130   4.651   3.866 -0.8586 -0.3382 -0.1636
 5782SOL    HW128805   3.062   4.586   3.882 -0.7427 -0.5947 -0.7342
 5782SOL    HW228806   3.183   4.658   3.945  1.3466 -0.5733 -1.6350
 5783SOL     OW28807   1.422   3.659   4.157  0.0672 -0.1550  0.3214
 5783SOL    HW128808   1.506   3.619   4.182 -0.4419 -1.0693  0.5705
 5783SOL    HW228809   1.446   3.738   4.109  2.1762 -0.4813  0.7946
 5784SOL     OW28810   3.656   4.156   3.394  0.3427 -0.1008  0.5023
 5784SOL    HW128811   3.738   4.115   3.422 -0.2597 -1.5055  0.1972
 5784SOL    HW228812   3.596   4.097   3.440  1.1100 -0.2287  1.3585
 5785SOL     OW28813   0.845   2.731  17.005 -0.1795  0.1650  0.0863
 5785SOL    HW128814   0.861   2.650  17.054  1.9465  0.4794 -0.0943
 5785SOL    HW228815   0.761   2.712  16.964 -0.9841 -4.9649  4.1418
 5786SOL     OW28816   2.880   0.417   6.085 -0.0870  0.2318 -0.0784
 5786SOL    HW128817   2.823   0.343   6.106 -1.2245  0.4022 -2.5337
 5786SOL    HW228818   2.813   0.485   6.094 -0.3253 -0.0077 -0.0437
 5787SOL     OW28819   3.634   4.541   8.828  0.2207  0.0681 -0.3116
 5787SOL    HW128820   3.634   4.630   8.862  0.1317  0.7040 -1.9419
 5787SOL    HW228821   3.640   4.495   8.912  2.4397  1.3745  0.2479
 5788SOL     OW28822   4.309   0.955   4.164 -0.3035 -0.3784  0.0624
 5788SOL    HW128823   4.372   0.971   4.094 -2.8262 -0.3796 -2.1783
 5788SOL    HW228824   4.246   1.020   4.133 -1.2328 -1.1936  0.2430
 5789SOL     OW28825   4.407   4.402   9.515  0.0992  0.3784  0.0692
 5789SOL    HW128826   4.420   4.362   9.429 -0.6247  0.2370  0.0282
 5789SOL    HW228827   4.362   4.326   9.552 -0.2154  0.8168  0.5805
 5790SOL     OW28828   0.707   3.311   4.274  0.1233  0.0086  0.0797
 5790SOL    HW128829   0.691   3.382   4.337 -1.1140 -2.0841  2.1475
 5790SOL    HW228830   0.736   3.364   4.200  0.5182  0.6123  0.6668
 5791SOL     OW28831   3.281   0.271   9.137  0.4935  0.0860  0.2080
 5791SOL    HW128832   3.203   0.236   9.180  0.7114  0.2950  0.7825
 5791SOL    HW228833   3.345   0.200   9.133 -0.5929 -0.9509  1.3877
 5792SOL     OW28834   4.461   2.622   4.893  0.5202 -0.3375 -0.0091
 5792SOL    HW128835   4.439   2.593   4.982  1.0829 -1.2624 -0.1725
 5792SOL    HW228836   4.459   2.716   4.908 -1.3081  0.1948 -3.6414
 5793SOL     OW28837   0.070   0.247   5.175  0.1037 -0.1606  0.2682
 5793SOL    HW128838   0.093   0.180   5.240  1.1204  1.1815  1.3014
 5793SOL    HW228839   0.060   0.323   5.232 -1.4836 -1.9396  2.3674
 5794SOL     OW28840   3.444   3.533  17.243 -0.3465 -0.2241  0.0403
 5794SOL    HW128841   3.393   3.579  17.176 -0.7894  3.9320  3.2552
 5794SOL    HW228842   3.375   3.497  17.299 -0.1009 -2.2883 -0.9758
 5795SOL     OW28843   0.906   4.514   3.382 -0.8202  0.8709  0.1290
 5795SOL    HW128844   0.858   4.439   3.417 -1.8452  0.8447 -1.3178
 5795SOL    HW228845   0.835   4.567   3.345 -0.5810  1.5426  0.6399
 5796SOL     OW28846   0.441   2.027   2.435  0.2215 -0.0500 -0.2284
 5796SOL    HW128847   0.462   2.014   2.342  0.3388  1.8608 -0.4759
 5796SOL    HW228848   0.474   1.946   2.471 -0.6334 -0.3622 -0.1424
 5797SOL     OW28849   3.954   2.468  10.737  0.2973  0.7761  0.0803
 5797SOL    HW128850   4.049   2.459  10.749  0.5563 -0.3352 -2.7886
 5797SOL    HW228851   3.932   2.409  10.665  1.2387  0.3391  0.1463
 5798SOL     OW28852   3.817   3.272  17.053  0.5679 -0.1437  0.2546
 5798SOL    HW128853   3.841   3.180  17.068 -2.5539 -1.1758 -1.0707
 5798SOL    HW228854   3.900   3.301  17.014  0.6588  1.1642  1.4057
 5799SOL     OW28855   0.142   2.835   6.266 -0.3479 -0.2302 -0.3529
 5799SOL    HW128856   0.237   2.846   6.258 -0.3130  0.4950  1.0527
 5799SOL    HW228857   0.116   2.927   6.270 -2.7927 -0.9088 -1.1114
 5800SOL     OW28858   0.261   3.824   8.780 -0.3027 -0.5909  0.4608
 5800SOL    HW128859   0.258   3.763   8.854  0.7095  1.9299  2.5603
 5800SOL    HW228860   0.346   3.797   8.743 -0.5971  1.9769 -2.0511
 5801SOL     OW28861   2.663   0.778   6.688 -0.0747  0.2444  0.1938
 5801SOL    HW128862   2.637   0.690   6.718  5.1125 -0.7263  1.8632
 5801SOL    HW228863   2.677   0.771   6.594 -1.9123 -0.4065 -0.0376
 5802SOL     OW28864   1.944   0.820   8.046 -0.5490 -0.3152  0.0803
 5802SOL    HW128865   2.023   0.843   7.997 -1.3927  0.6664 -0.8090
 5802SOL    HW228866   1.945   0.725   8.033  1.7383 -0.4613  1.2244
 5803SOL     OW28867   3.879   3.968   8.004 -0.4483  0.4180 -0.2550
 5803SOL    HW128868   3.871   3.891   8.060  2.3956  0.1140 -0.2349
 5803SOL    HW228869   3.883   3.925   7.919  0.8494 -0.2720  0.1495
 5804SOL     OW28870   2.394   2.047   8.911 -0.3339 -0.3088 -0.2340
 5804SOL    HW128871   2.422   1.996   8.987 -2.0086  1.2402  1.4120
 5804SOL    HW228872   2.476   2.046   8.860 -0.2294 -0.7946 -0.0555
 5805SOL     OW28873   0.671   4.382   9.955  0.0611 -0.5713 -0.5987
 5805SOL    HW128874   0.705   4.422  10.035  1.6923  1.1476 -2.1493
 5805SOL    HW228875   0.657   4.462   9.903 -0.6250 -0.3500 -0.0705
 5806SOL     OW28876   1.135   3.987   2.190  0.1576 -0.1251  0.5066
 5806SOL    HW128877   1.061   4.002   2.249 -1.2026 -2.8966 -0.5414
 5806SOL    HW228878   1.133   4.066   2.136  2.1209  1.6544  3.0353
 5807SOL     OW28879   2.823   0.285  15.252 -0.5362 -0.4147  0.0920
 5807SOL    HW128880   2.772   0.365  15.270  0.3096 -0.1757  1.4116
 5807SOL    HW228881   2.761   0.218  15.282 -0.2704 -0.5305  0.3747
 5808SOL     OW28882   0.649   3.273  16.902 -0.2904 -0.2769  0.4814
 5808SOL    HW128883   0.675   3.245  16.815 -0.5524  0.3543  0.1971
 5808SOL    HW228884   0.695   3.221  16.968 -1.3160  0.1176  1.5253
 5809SOL     OW28885   0.989   0.525   9.627  0.1029  0.7612  0.2719
 5809SOL    HW128886   1.035   0.573   9.696  1.8305  1.1665 -1.1674
 5809SOL    HW228887   1.033   0.441   9.635 -1.8429 -0.3679 -1.0781
 5810SOL     OW28888   1.558   3.719   9.195 -0.3376  0.5371  0.7092
 5810SOL    HW128889   1.516   3.699   9.278 -0.7933 -1.0232  0.0982
 5810SOL    HW228890   1.650   3.702   9.215 -0.1949 -0.6005 -0.9036
 5811SOL     OW28891   0.348   4.319  16.266 -0.1738 -0.3734 -0.2887
 5811SOL    HW128892   0.356   4.356  16.354 -2.3605 -0.3164 -0.1214
 5811SOL    HW228893   0.329   4.401  16.220  0.6446 -0.0425 -0.0411
 5812SOL     OW28894   1.962   4.717   4.741 -0.4191  0.0937 -0.2030
 5812SOL    HW128895   1.868   0.001   4.755 -0.4982  0.7140 -1.1343
 5812SOL    HW228896   1.977   4.638   4.794  0.3431 -0.7031 -1.6156
 5813SOL     OW28897   2.546   1.216  10.527  0.3200  0.2317 -0.0454
 5813SOL    HW128898   2.577   1.256  10.608  0.2726 -0.6006  0.3747
 5813SOL    HW228899   2.617   1.153  10.516  0.6926  0.6534 -0.0853
 5814SOL     OW28900   4.029   2.439   2.764  0.1834  0.1088 -0.1365
 5814SOL    HW128901   4.038   2.534   2.771 -2.8322  0.5077 -1.7622
 5814SOL    HW228902   4.065   2.411   2.680  0.1021  0.4916 -0.2983
 5815SOL     OW28903   0.814   3.174  16.700 -0.3193 -1.1764 -0.2338
 5815SOL    HW128904   0.812   3.092  16.751 -0.9829 -0.6485  0.5895
 5815SOL    HW228905   0.897   3.219  16.713 -2.4466  1.6411  3.3662
 5816SOL     OW28906   4.307   4.170  13.524 -0.2262 -0.1614 -0.1188
 5816SOL    HW128907   4.395   4.139  13.545 -0.0190  0.4171 -0.1511
 5816SOL    HW228908   4.315   4.264  13.510 -1.3295  0.2891  2.2805
 5817SOL     OW28909   2.522   1.444   5.982  0.2214 -0.2505 -0.0676
 5817SOL    HW128910   2.612   1.476   5.995  0.0246  0.1134  0.4190
 5817SOL    HW228911   2.508   1.378   6.050 -0.7308 -0.9116 -0.9230
 5818SOL     OW28912   3.893   4.525   6.910 -0.4874 -0.1329  0.8313
 5818SOL    HW128913   3.837   4.602   6.914  0.0618  0.2208  1.7634
 5818SOL    HW228914   3.829   4.459   6.937  0.2390 -0.8752  0.7362
 5819SOL     OW28915   2.298   0.759   2.742 -0.5083  0.1013 -0.3946
 5819SOL    HW128916   2.257   0.820   2.804  1.4585  0.5372  0.4912
 5819SOL    HW228917   2.386   0.759   2.780 -0.1880 -1.0841 -1.1669
 5820SOL     OW28918   3.162   0.301  14.731  0.1467 -0.5064  0.0897
 5820SOL    HW128919   3.077   0.260  14.722  0.5672 -1.6448  1.2999
 5820SOL    HW228920   3.171   0.312  14.826  0.4064 -0.3132  0.0443
 5821SOL     OW28921   0.620   3.933  17.234 -0.0733 -0.1461 -0.6214
 5821SOL    HW128922   0.578   3.859  17.189  0.1853  0.9357 -2.6575
 5821SOL    HW228923   0.693   3.946  17.173 -0.0157  0.7573 -0.3482
 5822SOL     OW28924   1.399   4.716   5.103  0.0531 -0.0707  0.3741
 5822SOL    HW128925   1.472   0.007   5.043  0.4438 -0.5246  0.7257
 5822SOL    HW228926   1.436   4.668   5.177  0.7116  2.4798  1.7148
 5823SOL     OW28927   4.653   0.143   2.103  0.1350  0.3422 -0.1526
 5823SOL    HW128928   4.616   0.230   2.116  2.4255  0.8523  3.1007
 5823SOL    HW228929   4.577   0.089   2.124 -1.4511  3.5292  2.2098
 5824SOL     OW28930   2.953   3.956   3.713  0.4134  0.0270  0.3876
 5824SOL    HW128931   2.937   3.879   3.658  1.9044 -0.0013 -0.0202
 5824SOL    HW228932   2.885   4.018   3.686  1.6578  0.1746 -2.3953
 5825SOL     OW28933   3.634   0.967  14.395  0.8952 -0.2063 -0.0085
 5825SOL    HW128934   3.643   0.943  14.487  1.2780 -0.4879 -0.1205
 5825SOL    HW228935   3.555   0.916  14.378  0.0854  2.5076 -4.4104
 5826SOL     OW28936   4.049   1.725   2.640  0.0643  0.0655 -0.0344
 5826SOL    HW128937   4.072   1.817   2.650  0.3718  0.0882 -0.8959
 5826SOL    HW228938   4.047   1.724   2.544  1.6580 -2.2070 -0.0366
 5827SOL     OW28939   4.253   3.315   7.956 -0.6416  0.1444  0.6008
 5827SOL    HW128940   4.247   3.409   7.942 -1.4967  0.1456  0.9751
 5827SOL    HW228941   4.327   3.310   8.016  1.6130 -0.0405 -2.2088
 5828SOL     OW28942   1.863   0.495   7.249  0.7367  0.2815  1.0938
 5828SOL    HW128943   1.891   0.584   7.274  1.8635 -0.1256  1.2992
 5828SOL    HW228944   1.771   0.494   7.273  1.1472 -2.0925  2.5298
 5829SOL     OW28945   1.034   2.480   8.022 -0.1762  0.2824  0.0853
 5829SOL    HW128946   0.998   2.435   7.946  0.5692  0.6131 -0.4660
 5829SOL    HW228947   1.034   2.399   8.072  0.6658  0.1657 -0.1079
 5830SOL     OW28948   3.734   2.408   3.917  0.7161  0.4362  0.7934
 5830SOL    HW128949   3.704   2.337   3.974 -1.0270 -1.3857 -2.3751
 5830SOL    HW228950   3.813   2.426   3.969 -0.1411 -0.1415  2.2899
 5831SOL     OW28951   4.018   2.353   4.772  0.0127  0.2706  0.2454
 5831SOL    HW128952   3.945   2.362   4.834 -0.7405 -0.0358 -0.6012
 5831SOL    HW228953   4.077   2.426   4.791 -1.0380  1.0486  0.5900
 5832SOL     OW28954   4.128   3.445   3.389  0.1540  0.0893  0.7956
 5832SOL    HW128955   4.210   3.437   3.438 -0.3752  0.2467  1.7046
 5832SOL    HW228956   4.070   3.421   3.462 -1.3273 -0.7595 -0.6667
 5833SOL     OW28957   3.913   1.425   3.419 -0.2476  0.0173  0.0334
 5833SOL    HW128958   3.889   1.336   3.394 -0.2113 -0.3188  1.1910
 5833SOL    HW228959   3.878   1.473   3.344 -0.2453 -0.0554 -0.0134
 5834SOL     OW28960   3.309   4.039   1.243  0.1027 -0.6926 -0.3010
 5834SOL    HW128961   3.289   3.973   1.309 -2.1247 -0.1794 -0.4668
 5834SOL    HW228962   3.402   4.058   1.259 -0.1774 -1.3117  1.9829
 5835SOL     OW28963   3.669   3.626   6.552  0.6308  0.1006  0.4957
 5835SOL    HW128964   3.710   3.567   6.489 -0.0173 -0.0769  0.2401
 5835SOL    HW228965   3.658   3.566   6.625  0.1696 -0.3511  0.0589
 5836SOL     OW28966   1.797   3.850  11.670  0.4993 -0.2138 -1.1109
 5836SOL    HW128967   1.862   3.834  11.602 -2.3923 -1.4438 -3.6147
 5836SOL    HW228968   1.760   3.763  11.686  0.6572  0.5871  3.6540
 5837SOL     OW28969   3.274   2.528  16.830 -0.6348 -0.2032  0.2547
 5837SOL    HW128970   3.259   2.538  16.924 -0.4026  1.3328  0.1219
 5837SOL    HW228971   3.345   2.590  16.815 -0.6795  0.1949  1.6703
 5838SOL     OW28972   0.013   4.202   8.514 -0.1324  0.3853  0.3235
 5838SOL    HW128973   4.664   4.233   8.568 -0.5636 -2.1517  1.2439
 5838SOL    HW228974   4.695   4.128   8.470 -2.5012  2.7376 -1.3548
 5839SOL     OW28975   2.750   3.484   7.673  0.4487 -0.2068 -0.5266
 5839SOL    HW128976   2.720   3.399   7.641 -2.0226  0.8170 -0.9282
 5839SOL    HW228977   2.841   3.483   7.645  0.0984 -2.4152 -1.5695
 5840SOL     OW28978   0.683   2.101   3.994 -0.2370 -0.3333 -1.0497
 5840SOL    HW128979   0.626   2.128   3.922 -0.8057  0.3407 -0.3505
 5840SOL    HW228980   0.694   2.188   4.033 -1.8597 -1.0500  1.0352
 5841SOL     OW28981   0.994   3.096   6.304  0.1047 -0.0719  0.1257
 5841SOL    HW128982   0.917   3.148   6.278  1.4886  1.0142 -1.8613
 5841SOL    HW228983   0.988   3.109   6.398  0.4435 -0.6026  0.2207
 5842SOL     OW28984   4.420   4.043   0.933  0.4249 -0.1273 -0.4210
 5842SOL    HW128985   4.347   3.983   0.920  0.6395 -0.6106  0.5554
 5842SOL    HW228986   4.413   4.067   1.026 -1.0368 -0.8749 -0.3337
 5843SOL     OW28987   2.081   3.538   6.639 -0.1369  0.3367 -0.2206
 5843SOL    HW128988   2.072   3.580   6.554 -0.1575 -1.0867 -0.9140
 5843SOL    HW228989   2.124   3.611   6.684  1.1302 -0.6081  0.1035
 5844SOL     OW28990   0.405   2.453  14.280  0.1418 -0.1319 -0.0403
 5844SOL    HW128991   0.479   2.425  14.332  0.0078  0.7633  0.6306
 5844SOL    HW228992   0.453   2.469  14.199 -0.0174 -0.2890 -0.1656
 5845SOL     OW28993   0.517   0.238   3.077 -0.3794 -0.6996  0.5281
 5845SOL    HW128994   0.534   0.312   3.135 -2.3988 -0.1592  0.4242
 5845SOL    HW228995   0.427   0.261   3.055 -0.7924 -2.2058  0.5944
 5846SOL     OW28996   4.477   1.735   7.895  0.7644 -0.4455 -0.2136
 5846SOL    HW128997   4.456   1.644   7.917 -2.0129  0.2571  0.0667
 5846SOL    HW228998   4.405   1.765   7.839  0.2202 -0.1395  0.6417
 5847SOL     OW28999   0.360   4.715  15.835 -0.2126 -0.4173 -0.2738
 5847SOL    HW129000   0.422   4.677  15.772 -0.6276  1.6084 -1.8871
 5847SOL    HW229001   0.295   0.008  15.767 -2.7191 -1.5257  1.8236
 5848SOL     OW29002   3.484   0.688   3.524 -0.0112 -0.0862 -0.3826
 5848SOL    HW129003   3.535   0.745   3.467  0.3672  0.3018  0.3451
 5848SOL    HW229004   3.454   0.613   3.471  1.5458 -0.3298 -0.9194
 5849SOL     OW29005   0.689   2.497   0.521  0.4143  1.0844 -0.1641
 5849SOL    HW129006   0.701   2.519   0.429 -1.1577 -1.4215 -0.9786
 5849SOL    HW229007   0.752   2.556   0.562  1.5886  0.8496 -1.6170
 5850SOL     OW29008   1.957   4.314   6.602 -0.2347  0.1793 -0.1216
 5850SOL    HW129009   1.965   4.274   6.689  3.1188  0.5145 -0.2657
 5850SOL    HW229010   1.982   4.405   6.618 -0.1934  0.0056  0.8396
 5851SOL     OW29011   4.454   4.232   3.172  0.1686 -0.6032  0.2543
 5851SOL    HW129012   4.407   4.255   3.092 -0.0124 -0.9634  0.2552
 5851SOL    HW229013   4.435   4.307   3.227  1.9036 -0.7585  1.0804
 5852SOL     OW29014   0.140   1.031   7.109  0.4355 -0.1156 -0.1642
 5852SOL    HW129015   0.234   1.039   7.089  0.1856  0.3178 -1.1680
 5852SOL    HW229016   0.105   1.089   7.042  1.6143  1.0574  0.2350
 5853SOL     OW29017   2.514   3.668  12.724  0.0192  0.2741 -0.1634
 5853SOL    HW129018   2.568   3.616  12.665  1.0395  1.5398 -0.3219
 5853SOL    HW229019   2.554   3.754  12.716 -0.7330  0.8007  1.5614
 5854SOL     OW29020   3.316   3.751   8.748 -0.3901 -0.2941  0.5139
 5854SOL    HW129021   3.388   3.709   8.703 -0.2295  1.6575 -1.0777
 5854SOL    HW229022   3.360   3.833   8.772  0.2379 -0.4842 -0.0167
 5855SOL     OW29023   3.376   1.540   8.492  0.4801 -0.3653 -0.6882
 5855SOL    HW129024   3.292   1.555   8.449 -0.5640  0.5693  1.6633
 5855SOL    HW229025   3.437   1.586   8.435  0.7660  0.7010  0.4670
 5856SOL     OW29026   3.537   3.845  15.695  0.0422 -0.5311  0.0234
 5856SOL    HW129027   3.550   3.862  15.788 -0.1030  1.2226 -0.2834
 5856SOL    HW229028   3.587   3.765  15.680 -1.6748 -1.6699  0.2463
 5857SOL     OW29029   3.709   1.935  14.301  0.2411  0.4800 -0.4013
 5857SOL    HW129030   3.671   1.871  14.360  0.0935 -0.5456 -1.5979
 5857SOL    HW229031   3.760   1.874  14.247  0.9269 -1.1626  2.1082
 5858SOL     OW29032   3.173   0.359   8.857 -0.0154 -0.1306  0.2966
 5858SOL    HW129033   3.196   0.267   8.855 -0.2071 -0.1420 -1.1389
 5858SOL    HW229034   3.092   0.379   8.809 -0.5605  1.7028  1.9466
 5859SOL     OW29035   2.521   2.628   5.663  0.0832 -0.1723 -0.2559
 5859SOL    HW129036   2.483   2.557   5.612  1.3976  0.5888 -2.3066
 5859SOL    HW229037   2.608   2.643   5.625 -0.4946 -0.2148 -1.5888
 5860SOL     OW29038   1.181   0.460   4.717 -0.1297  0.4426 -0.0485
 5860SOL    HW129039   1.134   0.516   4.778 -0.3990  1.1998 -0.9517
 5860SOL    HW229040   1.230   0.525   4.666 -2.2168 -0.1023 -2.7768
 5861SOL     OW29041   3.663   1.713   4.499 -0.0085  0.1091  0.9995
 5861SOL    HW129042   3.647   1.781   4.565  0.5971  1.2029  0.0090
 5861SOL    HW229043   3.587   1.656   4.514  0.0408 -0.0456  0.6525
 5862SOL     OW29044   3.113   1.660   4.068 -0.3191  0.1962 -0.4831
 5862SOL    HW129045   3.104   1.665   3.973  2.4097  1.4048 -0.6973
 5862SOL    HW229046   3.041   1.599   4.085  2.9082 -3.4462  0.4120
 5863SOL     OW29047   2.086   1.987   0.643 -0.2360 -0.3387  0.3075
 5863SOL    HW129048   2.089   2.053   0.574 -1.7189  1.0730  1.6023
 5863SOL    HW229049   2.137   1.916   0.603  1.5108  0.5929  0.8554
 5864SOL     OW29050   4.341   0.698   4.721  0.3947 -0.9292 -0.2464
 5864SOL    HW129051   4.331   0.716   4.628 -1.3679 -0.4075  0.0553
 5864SOL    HW229052   4.292   0.617   4.733  1.5532 -1.6712 -0.5032
 5865SOL     OW29053   0.312   2.326   6.477  0.3678  0.5738 -0.3934
 5865SOL    HW129054   0.262   2.397   6.517 -0.9356 -1.0429  0.8526
 5865SOL    HW229055   0.375   2.318   6.548  0.2058 -0.4202 -0.3721
 5866SOL     OW29056   2.550   1.357   6.672 -0.7066  0.2074 -0.0956
 5866SOL    HW129057   2.486   1.325   6.736  1.7598 -2.4976  1.0271
 5866SOL    HW229058   2.549   1.291   6.602  0.5098  0.3039 -0.2048
 5867SOL     OW29059   3.583   2.239   1.903 -0.2172 -0.3197 -0.2211
 5867SOL    HW129060   3.587   2.149   1.874 -0.7712  0.3280 -2.2895
 5867SOL    HW229061   3.647   2.281   1.846 -0.1459  1.7169  1.3324
 5868SOL     OW29062   0.111   1.217   6.222 -0.2341 -0.4937  0.0288
 5868SOL    HW129063   0.021   1.209   6.188  0.2607 -0.9307 -1.1782
 5868SOL    HW229064   0.088   1.255   6.307 -0.6451 -0.2639 -0.1848
 5869SOL     OW29065   0.710   4.346   5.505 -0.0747  0.0800 -1.2164
 5869SOL    HW129066   0.799   4.316   5.487 -0.0933 -0.6702 -0.0685
 5869SOL    HW229067   0.673   4.259   5.519 -1.5195  0.9121  0.1997
 5870SOL     OW29068   3.634   3.236   5.105  0.2602 -0.0938  0.1351
 5870SOL    HW129069   3.633   3.238   5.009  0.5783 -0.5875  0.1222
 5870SOL    HW229070   3.545   3.269   5.118 -0.1149 -1.6507  1.5754
 5871SOL     OW29071   4.332   0.033   7.378  0.5332  0.5840  0.0590
 5871SOL    HW129072   4.261   0.009   7.318  1.0668 -0.5958 -0.0959
 5871SOL    HW229073   4.358   0.121   7.350 -0.0306  0.6232 -0.3475
 5872SOL     OW29074   0.186   2.284   4.995  0.1657  0.4797  0.1990
 5872SOL    HW129075   0.116   2.234   5.036 -1.4287  2.1346 -0.4905
 5872SOL    HW229076   0.143   2.317   4.916 -1.5198  0.6334  1.1906
 5873SOL     OW29077   2.751   1.799   1.908 -0.0699 -0.0112 -0.5147
 5873SOL    HW129078   2.702   1.791   1.990  1.8772  2.3700  0.8722
 5873SOL    HW229079   2.705   1.737   1.852 -1.0507  0.4254 -0.1988
 5874SOL     OW29080   4.292   0.144  14.453 -0.2076 -0.7040 -0.4084
 5874SOL    HW129081   4.343   0.071  14.489  0.7107  0.3817  0.5110
 5874SOL    HW229082   4.237   0.094  14.393 -2.9914 -0.7807  2.1935
 5875SOL     OW29083   4.032   4.044   9.266 -0.3710 -0.0303 -0.1738
 5875SOL    HW129084   3.996   4.009   9.185  0.2868  0.0204 -0.4871
 5875SOL    HW229085   4.119   4.057   9.229 -0.6451 -0.4837 -0.9728
 5876SOL     OW29086   4.361   0.996  16.468 -0.1395 -0.0204  0.1972
 5876SOL    HW129087   4.303   0.967  16.538 -1.0773  0.3616 -0.4184
 5876SOL    HW229088   4.382   0.912  16.427 -0.2574  0.4086 -0.7649
 5877SOL     OW29089   0.214   2.447   8.456 -0.1872 -0.5163  0.6615
 5877SOL    HW129090   0.221   2.538   8.485  0.7407 -0.4749  0.3172
 5877SOL    HW229091   0.289   2.444   8.396 -3.1850 -0.3200 -3.0540
 5878SOL     OW29092   2.211   0.402   7.036  0.0258 -0.1593  0.2161
 5878SOL    HW129093   2.190   0.468   6.970 -1.8178 -0.1383  0.8226
 5878SOL    HW229094   2.157   0.431   7.109 -2.2556 -0.9410 -1.1588
 5879SOL     OW29095   2.934   2.716   8.323  0.5443 -0.2839  0.4779
 5879SOL    HW129096   2.982   2.655   8.379 -0.0967 -1.1294  0.0994
 5879SOL    HW229097   2.843   2.693   8.341  0.8919 -2.0296 -0.0326
 5880SOL     OW29098   1.345   4.665   7.880  0.5198  0.1660 -0.7131
 5880SOL    HW129099   1.354   4.699   7.969 -2.3884  0.6147 -0.5870
 5880SOL    HW229100   1.437   4.652   7.858  0.6754  1.4761 -0.8484
 5881SOL     OW29101   4.466   2.242   2.209  0.7677 -0.1822  0.6841
 5881SOL    HW129102   4.381   2.198   2.201  0.3659  0.6954  0.1571
 5881SOL    HW229103   4.455   2.317   2.150 -1.1346 -1.4683 -0.6243
 5882SOL     OW29104   3.786   0.918   2.130 -0.2201 -0.3047  0.2035
 5882SOL    HW129105   3.878   0.909   2.104  0.6059 -0.2359  3.0885
 5882SOL    HW229106   3.746   0.840   2.094  1.1733 -0.1710 -1.6090
 5883SOL     OW29107   2.520   0.491  10.561  0.1452  0.4025 -0.3161
 5883SOL    HW129108   2.590   0.446  10.514 -0.1818 -0.5771  0.1490
 5883SOL    HW229109   2.544   0.584  10.563 -3.2660  1.2912 -1.2158
 5884SOL     OW29110   3.179   3.944   2.310 -0.0486 -0.2750 -0.0643
 5884SOL    HW129111   3.213   3.866   2.353 -1.0985 -1.6254 -1.7145
 5884SOL    HW229112   3.180   3.910   2.221  0.3316 -1.4595  0.3888
 5885SOL     OW29113   3.429   1.931   2.983  0.2848 -0.0165 -0.0205
 5885SOL    HW129114   3.472   1.951   3.066 -0.1018  0.6707  0.0103
 5885SOL    HW229115   3.342   1.921   3.022  1.1672 -1.9110  1.4890
 5886SOL     OW29116   3.461   3.984   8.796 -0.0126 -0.2214  0.0192
 5886SOL    HW129117   3.510   3.994   8.714  0.3067 -0.0467  0.2302
 5886SOL    HW229118   3.459   4.074   8.830  1.6272  0.2456 -1.0925
 5887SOL     OW29119   3.894   1.624  14.738  0.2414 -0.6635  0.7083
 5887SOL    HW129120   3.891   1.635  14.643  1.1071  1.6033  0.9465
 5887SOL    HW229121   3.978   1.663  14.761  0.8705 -3.1992  2.7032
 5888SOL     OW29122   0.255   0.740   4.847  0.2092 -0.3971  0.1703
 5888SOL    HW129123   0.281   0.659   4.803  0.0574 -1.5554  2.1787
 5888SOL    HW229124   0.263   0.704   4.936 -1.4891  1.7928  1.2009
 5889SOL     OW29125   3.514   2.668   9.893  0.0162  0.5137  0.3367
 5889SOL    HW129126   3.480   2.731   9.957  0.2171  1.1413 -0.1690
 5889SOL    HW229127   3.602   2.647   9.926 -0.4630 -1.2631  0.4556
 5890SOL     OW29128   4.272   3.881  11.135 -0.1371  0.2497  0.2055
 5890SOL    HW129129   4.329   3.859  11.061 -0.5931  2.3662 -0.7676
 5890SOL    HW229130   4.216   3.941  11.087  1.0340 -0.2231 -1.7360
 5891SOL     OW29131   2.406   2.672   4.263 -0.1143 -0.2397 -0.6030
 5891SOL    HW129132   2.500   2.669   4.245 -0.2733  1.0992 -1.6308
 5891SOL    HW229133   2.394   2.578   4.268 -0.9306 -0.1369 -0.6097
 5892SOL     OW29134   4.549   0.446   7.186 -0.0621 -0.9284 -0.0834
 5892SOL    HW129135   4.553   0.425   7.280 -0.2990 -2.8294 -0.4843
 5892SOL    HW229136   4.573   0.357   7.158  0.1681 -1.1945  0.9510
 5893SOL     OW29137   3.734   4.033  10.968 -0.2545 -1.0269 -0.2793
 5893SOL    HW129138   3.691   4.113  10.997  0.7369 -0.6801  0.2291
 5893SOL    HW229139   3.717   3.978  11.045  1.7569 -1.3568 -0.0733
 5894SOL     OW29140   1.407   4.676  17.687 -0.3258  0.6206  0.2236
 5894SOL    HW129141   1.343   4.615  17.651  2.0372 -0.8930 -1.4240
 5894SOL    HW229142   1.493   4.646  17.657  0.0754  0.4914  1.5201
 5895SOL     OW29143   2.872   0.445   3.938  0.5189  0.3365 -0.0691
 5895SOL    HW129144   2.864   0.446   3.842  0.9621 -0.7964 -0.1191
 5895SOL    HW229145   2.806   0.378   3.958  1.8060 -1.1998 -0.9107
 5896SOL     OW29146   3.431   2.411   9.809  0.1973  0.6723 -0.0609
 5896SOL    HW129147   3.523   2.391   9.823  0.1409  0.8966  0.6088
 5896SOL    HW229148   3.431   2.506   9.820  0.1388  0.7706 -0.8827
 5897SOL     OW29149   0.290   1.932   6.546  0.0785 -0.0212 -0.4943
 5897SOL    HW129150   0.195   1.931   6.560 -0.0595  0.8830 -1.3722
 5897SOL    HW229151   0.291   1.862   6.480 -0.5236 -0.8919  0.4248
 5898SOL     OW29152   1.174   3.044   2.356 -0.3670  0.5327  0.1642
 5898SOL    HW129153   1.236   2.998   2.300  0.6649  0.6391  1.2256
 5898SOL    HW229154   1.219   3.053   2.440 -0.0777  1.0398 -0.0458
 5899SOL     OW29155   2.057   0.497   1.807 -0.4809 -0.0376  0.3237
 5899SOL    HW129156   2.039   0.586   1.839  0.7691  0.0979  0.6678
 5899SOL    HW229157   1.969   0.470   1.780 -0.7046  0.5786  0.4280
 5900SOL     OW29158   1.996   3.811  11.495 -0.2109  0.1040  0.0098
 5900SOL    HW129159   1.998   3.857  11.411 -0.1397 -0.4337 -0.2894
 5900SOL    HW229160   2.005   3.721  11.461 -0.0625 -0.5883  1.9051
 5901SOL     OW29161   2.255   3.459   8.555  0.4146 -1.1753 -0.1164
 5901SOL    HW129162   2.188   3.526   8.549  0.6482 -1.0336 -1.2813
 5901SOL    HW229163   2.333   3.509   8.529  0.7957 -1.9593 -0.4948
 5902SOL     OW29164   1.914   1.656   8.961  0.4187 -0.5454 -0.3772
 5902SOL    HW129165   1.961   1.623   8.883  0.1455 -1.0270 -0.3392
 5902SOL    HW229166   1.903   1.579   9.017 -1.7541  0.2041  0.2122
 5903SOL     OW29167   2.710   1.841   9.391 -0.6017 -0.5549 -0.9041
 5903SOL    HW129168   2.626   1.812   9.428  0.5967 -2.0715  0.6427
 5903SOL    HW229169   2.688   1.934   9.392 -1.0877 -0.6560 -2.3120
 5904SOL     OW29170   1.620   3.054   7.437 -0.1670  0.9013 -0.2526
 5904SOL    HW129171   1.674   3.105   7.497 -0.1172  0.8568 -0.2602
 5904SOL    HW229172   1.604   3.122   7.372 -0.6514 -0.9421 -2.0624
 5905SOL     OW29173   1.166   1.883   5.365  0.4144 -0.0033  0.0601
 5905SOL    HW129174   1.180   1.941   5.440  0.0103 -0.0051  0.1396
 5905SOL    HW229175   1.240   1.903   5.309  1.3516 -0.7757  1.0377
 5906SOL     OW29176   0.517   3.618   4.247  0.0486 -0.1542 -0.4312
 5906SOL    HW129177   0.583   3.659   4.191  1.7508 -1.4802  0.5837
 5906SOL    HW229178   0.580   3.585   4.311 -0.2475  1.3487  0.6295
 5907SOL     OW29179   0.656   1.578   6.522  0.2874 -0.3037  0.4827
 5907SOL    HW129180   0.638   1.484   6.526 -1.0945 -0.1684 -2.4342
 5907SOL    HW229181   0.689   1.573   6.432  0.8186 -1.7433  0.7635
 5908SOL     OW29182   2.488   1.974   5.211 -0.0045  0.1573 -0.3622
 5908SOL    HW129183   2.413   1.929   5.173 -1.1403  1.1928  0.6743
 5908SOL    HW229184   2.565   1.945   5.162  0.2809  0.5764 -0.1578
 5909SOL     OW29185   3.898   1.626   7.997  0.3432 -0.0253  0.3176
 5909SOL    HW129186   3.954   1.677   8.056  1.4209  0.3473 -1.0202
 5909SOL    HW229187   3.941   1.646   7.913  2.7555 -1.6599  1.1460
 5910SOL     OW29188   1.528   2.276   3.154  0.1115  0.1646 -0.2088
 5910SOL    HW129189   1.544   2.359   3.109 -1.0403 -0.0945 -1.0827
 5910SOL    HW229190   1.578   2.276   3.236 -1.3054  0.4467  0.6535
 5911SOL     OW29191   0.786   1.840   6.158  0.1381  0.4650  0.1479
 5911SOL    HW129192   0.759   1.912   6.101  1.0025  0.0926 -0.7278
 5911SOL    HW229193   0.834   1.787   6.095 -2.0440 -1.2158 -0.0898
 5912SOL     OW29194   4.717   3.950   2.748 -0.4960 -0.7615 -0.3399
 5912SOL    HW129195   4.679   3.907   2.825 -2.4073  2.8350  0.7186
 5912SOL    HW229196   0.079   3.912   2.755  0.6853  1.8671 -0.6959
 5913SOL     OW29197   0.066   0.381   0.823  0.6528 -0.0566 -0.5889
 5913SOL    HW129198   0.158   0.388   0.850  0.7113  0.2795 -0.8744
 5913SOL    HW229199   0.070   0.367   0.728 -0.0857 -0.9471 -0.4869
 5914SOL     OW29200   2.193   0.096  11.944  0.2815  0.4022 -0.0378
 5914SOL    HW129201   2.266   0.124  11.888  0.7771  1.6429  1.2110
 5914SOL    HW229202   2.119   0.089  11.884 -2.4703  3.9083  2.9223
 5915SOL     OW29203   3.082   3.403   5.668 -0.1264 -0.2723 -0.4414
 5915SOL    HW129204   3.053   3.312   5.656  0.9415 -0.1845 -3.7014
 5915SOL    HW229205   2.997   3.443   5.649 -0.1383 -0.4556 -0.7824
 5916SOL     OW29206   3.926   0.648   5.301 -0.0861  0.2648  0.5097
 5916SOL    HW129207   3.894   0.592   5.371 -0.8340 -0.7569 -0.6339
 5916SOL    HW229208   3.962   0.723   5.347  1.4435 -0.8944  1.1727
 5917SOL     OW29209   4.473   0.796   4.487  0.2920  0.6342 -0.2347
 5917SOL    HW129210   4.541   0.862   4.473  1.7313 -0.7833  0.1085
 5917SOL    HW229211   4.517   0.723   4.531  0.3221  0.5039 -0.4800
 5918SOL     OW29212   0.910   2.740   7.942  0.4336  0.1681 -0.7680
 5918SOL    HW129213   0.933   2.654   7.978  2.5933  0.7150 -0.7946
 5918SOL    HW229214   0.826   2.766   7.979 -0.1452 -2.6163 -0.1046
 5919SOL     OW29215   1.061   1.078   6.680 -0.3827  0.3591 -0.4231
 5919SOL    HW129216   1.088   1.007   6.737  2.8830  1.3563 -0.6624
 5919SOL    HW229217   1.080   1.044   6.592  0.8141  1.6081 -0.6662
 5920SOL     OW29218   1.368   3.767   0.742 -0.0784  0.0720  0.2966
 5920SOL    HW129219   1.308   3.720   0.684  1.1875  0.6533 -1.4737
 5920SOL    HW229220   1.357   3.709   0.818  0.7172  0.0640  0.3975
 5921SOL     OW29221   0.420   0.349  12.473 -0.2164 -0.6810  0.2057
 5921SOL    HW129222   0.329   0.323  12.458 -1.0554  1.0645  2.2823
 5921SOL    HW229223   0.426   0.323  12.564 -2.2773 -1.3322  0.1482
 5922SOL     OW29224   1.897   3.865   4.110  0.2827 -0.3578  0.2411
 5922SOL    HW129225   1.850   3.943   4.141  0.7871  0.3212 -0.6640
 5922SOL    HW229226   1.824   3.823   4.065  0.4222  0.5748 -0.8783
 5923SOL     OW29227   4.465   3.484   3.667  0.6742  0.5527 -0.0993
 5923SOL    HW129228   4.492   3.542   3.739  1.4128  0.1475 -0.0491
 5923SOL    HW229229   4.443   3.550   3.601  1.7544  0.3921 -0.6170
 5924SOL     OW29230   4.689   0.583  11.236 -0.1853 -0.4735 -0.7762
 5924SOL    HW129231   4.688   0.628  11.320  0.9756  1.2258 -1.6867
 5924SOL    HW229232   0.011   0.645  11.180  0.7398 -0.4624 -0.0125
 5925SOL     OW29233   1.846   3.002   8.901 -0.4380  0.3356  0.4757
 5925SOL    HW129234   1.824   3.019   8.993 -0.1058 -1.7652  0.9459
 5925SOL    HW229235   1.940   2.992   8.915 -0.5219 -0.2879  0.5958
 5926SOL     OW29236   0.936   2.873   6.942  0.1089 -0.1215  0.6905
 5926SOL    HW129237   0.845   2.864   6.914 -0.1467  0.9089  1.2094
 5926SOL    HW229238   0.923   2.901   7.033 -1.7196  0.4960  0.2303
 5927SOL     OW29239   4.533   0.423   3.577 -0.5548 -0.0216 -0.0589
 5927SOL    HW129240   4.533   0.379   3.492 -1.7563 -0.6142  0.2497
 5927SOL    HW229241   4.502   0.511   3.555  0.1668  0.2330 -0.0614
 5928SOL     OW29242   0.551   1.132   4.575 -0.2929 -0.2714  0.0947
 5928SOL    HW129243   0.541   1.037   4.565 -3.3628 -0.2319  2.9421
 5928SOL    HW229244   0.459   1.152   4.592 -0.7439 -1.4004 -1.0235
 5929SOL     OW29245   1.954   0.868   6.726 -0.2489  0.3512  0.1229
 5929SOL    HW129246   1.952   0.785   6.679 -2.7785 -0.0844  1.0235
 5929SOL    HW229247   1.874   0.904   6.688  2.3054  2.8474 -2.9926
 5930SOL     OW29248   0.303   4.305   7.867 -0.0693 -0.6169 -0.1868
 5930SOL    HW129249   0.224   4.329   7.819 -0.1987 -3.0943 -1.1725
 5930SOL    HW229250   0.284   4.340   7.955 -1.2484 -2.0399  0.1228
 5931SOL     OW29251   3.977   3.235   3.529 -0.6062 -0.8204 -0.1538
 5931SOL    HW129252   4.008   3.181   3.602  1.7614  0.4241 -0.2281
 5931SOL    HW229253   4.028   3.204   3.454  2.1703  1.3165  0.8494
 5932SOL     OW29254   4.448   2.035   5.693  1.1644 -0.1250 -0.6846
 5932SOL    HW129255   4.428   2.129   5.695 -1.0097 -0.5998 -1.1698
 5932SOL    HW229256   4.498   2.040   5.611  2.4847  0.4945  0.1471
 5933SOL     OW29257   0.458   4.044   3.330 -0.6042 -0.1720  0.3119
 5933SOL    HW129258   0.423   3.980   3.268 -1.0819  1.1861 -0.8208
 5933SOL    HW229259   0.390   4.111   3.320  0.6060  0.9598 -0.3114
 5934SOL     OW29260   4.549   2.464   4.692 -0.3253  0.3653  0.2206
 5934SOL    HW129261   4.521   2.501   4.775 -0.7714 -0.1734  0.3099
 5934SOL    HW229262   4.493   2.520   4.638  0.4254  0.4860 -0.4383
 5935SOL     OW29263   3.454   4.057   2.551  0.0198 -0.2579  0.2995
 5935SOL    HW129264   3.435   4.028   2.641  0.8510  0.3354  0.6581
 5935SOL    HW229265   3.456   3.972   2.507  1.0584 -1.3666  2.4565
 5936SOL     OW29266   0.461   2.240  11.486 -0.4744  0.0872  0.7543
 5936SOL    HW129267   0.528   2.174  11.503 -1.2432 -0.3796  1.9742
 5936SOL    HW229268   0.381   2.188  11.498  0.8745 -1.9608  0.8756
 5937SOL     OW29269   2.038   4.551   3.120  0.0897 -0.2117 -0.1930
 5937SOL    HW129270   2.078   4.481   3.069  1.5053  0.1312  0.4430
 5937SOL    HW229271   2.033   4.499   3.200  0.7065  2.7843  1.8093
 5938SOL     OW29272   2.945   2.818  12.792 -0.3126  0.4686 -0.2449
 5938SOL    HW129273   2.861   2.809  12.836 -0.1139  0.6913  0.1760
 5938SOL    HW229274   2.963   2.908  12.819  0.0261 -0.0860  1.3280
 5939SOL     OW29275   2.356   2.783   6.530 -0.0095 -0.5995 -0.0580
 5939SOL    HW129276   2.327   2.873   6.512  2.1009 -0.0102 -0.6000
 5939SOL    HW229277   2.434   2.785   6.474  0.2945 -1.6045  0.3471
 5940SOL     OW29278   4.555   3.771   8.415  0.0316  0.5606  0.2155
 5940SOL    HW129279   4.521   3.703   8.474  0.4373  0.4467  0.3220
 5940SOL    HW229280   4.573   3.714   8.341  2.1338  0.9686  0.4135
 5941SOL     OW29281   3.166   1.488   4.987  0.3097  0.2801  0.7117
 5941SOL    HW129282   3.125   1.447   5.064  1.7624 -0.1053  1.2800
 5941SOL    HW229283   3.088   1.482   4.932  1.8437  0.3784 -1.4499
 5942SOL     OW29284   1.290   4.613  12.039  0.0873  0.0009 -0.1994
 5942SOL    HW129285   1.363   4.667  12.010 -0.5062  0.2344 -1.2678
 5942SOL    HW229286   1.297   4.537  11.981 -1.2876  0.8158 -1.4499
 5943SOL     OW29287   3.348   0.830   7.124  0.0941 -0.0572 -0.5309
 5943SOL    HW129288   3.376   0.853   7.036  1.3254 -1.3719 -0.4861
 5943SOL    HW229289   3.355   0.912   7.173 -1.7519  0.3977 -1.0422
 5944SOL     OW29290   0.411   2.846   4.933  0.0078 -0.0869 -0.2677
 5944SOL    HW129291   0.446   2.808   4.852  0.7699  1.8715 -0.8567
 5944SOL    HW229292   0.336   2.790   4.955 -0.7612  0.9001 -0.3936
 5945SOL     OW29293   1.495   2.893   5.513 -0.4013 -0.0597 -0.5128
 5945SOL    HW129294   1.424   2.952   5.537 -0.0930 -0.0092  0.2772
 5945SOL    HW229295   1.557   2.951   5.471 -2.2973  1.4784 -1.1930
 5946SOL     OW29296   4.109   0.042   3.943  0.2045  0.3942 -0.3621
 5946SOL    HW129297   4.039   4.701   3.947  1.1544 -0.6360 -0.8741
 5946SOL    HW229298   4.050   0.110   3.977 -0.9515  0.4867 -2.5327
 5947SOL     OW29299   3.226   0.875   5.884 -0.3035  0.0539  0.6271
 5947SOL    HW129300   3.234   0.795   5.936 -0.2687  1.4736  2.8301
 5947SOL    HW229301   3.317   0.904   5.898 -0.8557  2.6731 -1.2023
 5948SOL     OW29302   2.402   4.241   8.718  0.0326 -0.0662  0.3624
 5948SOL    HW129303   2.372   4.277   8.635  1.7130 -0.5164 -0.4571
 5948SOL    HW229304   2.455   4.313   8.752 -0.8606 -0.5776  2.8199
 5949SOL     OW29305   0.923   2.508   3.637  0.3903 -0.5342  0.4259
 5949SOL    HW129306   0.852   2.553   3.591  1.0341 -0.2592 -0.2900
 5949SOL    HW229307   0.974   2.577   3.678  0.3459 -0.8208  0.9728
 5950SOL     OW29308   0.195   1.991   2.209 -0.2714  0.0849  0.1498
 5950SOL    HW129309   0.266   2.000   2.146  0.8904 -0.7101  1.3433
 5950SOL    HW229310   0.120   2.024   2.160 -0.3808  0.1905  0.3876
 5951SOL     OW29311   3.096   4.658  10.408  0.2117 -0.3034 -0.2128
 5951SOL    HW129312   3.080   4.598  10.334  0.3369 -0.7477  0.1201
 5951SOL    HW229313   3.086   0.023  10.374 -0.6832 -0.5522 -0.6118
 5952SOL     OW29314   4.391   4.330  12.965  0.0514 -0.5764 -0.1514
 5952SOL    HW129315   4.328   4.386  12.920  0.6151 -0.1736 -0.4359
 5952SOL    HW229316   4.341   4.327  13.046  1.9639 -0.4342  1.0232
 5953SOL     OW29317   2.476   3.133  10.736 -0.1847 -0.2942 -0.2992
 5953SOL    HW129318   2.447   3.221  10.760 -0.9726 -0.4714 -0.5933
 5953SOL    HW229319   2.450   3.079  10.811 -0.9181 -1.9968 -1.7781
 5954SOL     OW29320   3.950   1.648  14.473  0.3652  0.3576  0.4153
 5954SOL    HW129321   3.911   1.637  14.387  2.6768 -0.3312 -0.5347
 5954SOL    HW229322   4.035   1.612  14.451  0.6919  0.8919  0.8092
 5955SOL     OW29323   2.742   2.513  10.346 -0.2557 -0.4167 -0.0240
 5955SOL    HW129324   2.816   2.570  10.366  0.0223  0.0092 -2.2640
 5955SOL    HW229325   2.754   2.491  10.254  1.4662  0.4346 -0.0066
 5956SOL     OW29326   3.201   0.891   1.563  0.0218 -0.2146  0.1344
 5956SOL    HW129327   3.113   0.915   1.532  0.4993 -0.5183 -1.4816
 5956SOL    HW229328   3.201   0.796   1.568 -1.7008 -0.1582  1.2709
 5957SOL     OW29329   1.145   2.671  16.452 -0.6455  0.1356  0.0226
 5957SOL    HW129330   1.181   2.583  16.457 -1.0769 -0.2166 -3.2895
 5957SOL    HW229331   1.221   2.707  16.407  0.2020 -2.3041 -0.4746
 5958SOL     OW29332   3.066   4.229   4.325 -0.2993 -0.1676 -0.2337
 5958SOL    HW129333   3.001   4.285   4.367  1.7551  0.0491  2.6322
 5958SOL    HW229334   3.094   4.179   4.401  0.4552  1.2730  0.4470
 5959SOL     OW29335   4.679   3.400   5.298  0.2101 -0.0206 -0.1680
 5959SOL    HW129336   4.700   3.405   5.391 -1.1912  0.9306  0.0922
 5959SOL    HW229337   0.043   3.399   5.261  0.7424 -0.3303  1.1367
 5960SOL     OW29338   0.699   3.311   2.342 -0.2933 -0.2150 -0.0530
 5960SOL    HW129339   0.757   3.273   2.408  0.1119  0.2119 -0.1641
 5960SOL    HW229340   0.659   3.383   2.391  0.7699  0.5915 -0.3610
 5961SOL     OW29341   1.469   4.272   5.397  0.2915  0.3238 -0.3696
 5961SOL    HW129342   1.563   4.290   5.402  0.0514  1.6370 -0.5250
 5961SOL    HW229343   1.444   4.301   5.485 -1.4297 -1.2525 -0.3336
 5962SOL     OW29344   0.768   1.155   6.656 -0.5629 -0.1749 -0.6809
 5962SOL    HW129345   0.861   1.134   6.657 -0.3980  0.6921  3.7416
 5962SOL    HW229346   0.759   1.203   6.739  2.8946  0.9897 -0.9648
 5963SOL     OW29347   3.480   3.674  12.858 -0.7134 -0.4203 -0.2404
 5963SOL    HW129348   3.483   3.578  12.853 -0.8954 -0.3533 -1.6472
 5963SOL    HW229349   3.539   3.701  12.928  0.5665  0.0133 -1.4877
 5964SOL     OW29350   3.292   4.593   9.350  0.4719  0.6173 -0.9782
 5964SOL    HW129351   3.300   4.660   9.418 -0.7110 -0.9758  0.7165
 5964SOL    HW229352   3.278   4.518   9.407 -0.9341  1.8731  0.3412
 5965SOL     OW29353   2.828   4.113   4.170 -0.2143 -0.3976  0.4052
 5965SOL    HW129354   2.909   4.086   4.128  0.3457  2.6352 -0.4614
 5965SOL    HW229355   2.846   4.106   4.264 -1.8139  1.0188  0.8215
 5966SOL     OW29356   3.627   1.564  16.173 -0.1984 -0.3333 -0.0194
 5966SOL    HW129357   3.566   1.522  16.234  2.0352 -0.9049  1.7997
 5966SOL    HW229358   3.586   1.650  16.163 -2.6082 -1.5312 -0.6560
 5967SOL     OW29359   0.064   2.994  12.443  0.1046  0.3590  0.5473
 5967SOL    HW129360   0.152   3.025  12.465  0.7110 -1.6934  0.9802
 5967SOL    HW229361   0.087   2.912  12.400 -1.9670 -0.8097  1.6992
 5968SOL     OW29362   0.489   3.955   7.113 -0.1723 -0.1976 -0.2341
 5968SOL    HW129363   0.582   3.937   7.097  0.3571  0.8918  1.6180
 5968SOL    HW229364   0.472   4.031   7.058 -0.1357  0.5843  0.8431
 5969SOL     OW29365   1.210   1.944   5.945  0.0263 -0.2028 -0.3849
 5969SOL    HW129366   1.232   1.964   6.036 -0.8572 -0.4593 -0.1164
 5969SOL    HW229367   1.142   1.876   5.952 -1.0418  0.7458 -1.4275
 5970SOL     OW29368   1.479   4.300   7.125 -0.0317 -0.1739 -0.5116
 5970SOL    HW129369   1.427   4.353   7.064  1.4183 -0.0937 -1.6907
 5970SOL    HW229370   1.532   4.367   7.167 -0.8259 -0.7354  1.3779
 5971SOL     OW29371   1.385   2.237   7.661 -0.5916 -0.4620  0.3925
 5971SOL    HW129372   1.440   2.310   7.632  1.0107 -0.8146  2.5665
 5971SOL    HW229373   1.295   2.269   7.661 -0.3254  0.2645 -2.4101
 5972SOL     OW29374   0.252   2.987   2.135 -0.0016 -0.2385  0.1888
 5972SOL    HW129375   0.190   3.050   2.172 -1.1985 -0.8885 -0.7283
 5972SOL    HW229376   0.328   3.046   2.138  0.7287 -1.0574 -2.8327
 5973SOL     OW29377   3.653   3.454  16.763  0.0492  0.4449  0.1002
 5973SOL    HW129378   3.621   3.426  16.848  0.4927  1.6129  0.6539
 5973SOL    HW229379   3.588   3.398  16.719 -2.6971  1.4150  2.9081
 5974SOL     OW29380   2.468   0.026   1.554 -0.1532  0.5466  0.3132
 5974SOL    HW129381   2.519   0.088   1.606 -1.3659  2.1719 -0.4109
 5974SOL    HW229382   2.407   0.084   1.507 -2.4204 -0.5110  1.9296
 5975SOL     OW29383   3.806   2.094   7.642  0.4626 -0.0691 -0.0747
 5975SOL    HW129384   3.719   2.131   7.660 -0.4586 -0.7360 -3.1930
 5975SOL    HW229385   3.790   2.031   7.572 -1.8139 -0.1763  0.5324
 5976SOL     OW29386   2.668   0.858   6.127  0.8276 -0.5270 -0.4775
 5976SOL    HW129387   2.737   0.923   6.121 -1.1137  1.8034  2.2497
 5976SOL    HW229388   2.608   0.886   6.057  1.7291 -0.0391 -1.0480
 5977SOL     OW29389   4.239   1.365   6.234 -0.1959 -0.0617 -0.3666
 5977SOL    HW129390   4.297   1.311   6.287 -0.4669 -0.5423 -0.5585
 5977SOL    HW229391   4.218   1.307   6.161  0.3473 -1.9865  1.0016
 5978SOL     OW29392   3.269   0.823   5.213 -1.0721  0.2897  0.0107
 5978SOL    HW129393   3.325   0.763   5.164  3.1692  3.1861  1.4076
 5978SOL    HW229394   3.185   0.782   5.193  0.0890 -2.4140  0.6580
 5979SOL     OW29395   2.256   4.277   5.190  0.1153 -0.0952  0.3672
 5979SOL    HW129396   2.323   4.344   5.180  0.5118 -0.5769 -0.2287
 5979SOL    HW229397   2.286   4.239   5.272  1.9680  0.6460  0.0214
 5980SOL     OW29398   2.359   1.907   7.620  0.5419 -0.1575  0.6084
 5980SOL    HW129399   2.316   1.834   7.665  0.2275 -1.6789 -2.1110
 5980SOL    HW229400   2.291   1.974   7.614  1.6230  0.9335  0.5943
 5981SOL     OW29401   2.445   1.892   3.318 -0.1880 -0.2873 -0.0602
 5981SOL    HW129402   2.473   1.801   3.317  1.7684  0.3194 -1.3303
 5981SOL    HW229403   2.524   1.931   3.355  0.4941 -0.0988 -1.7154
 5982SOL     OW29404   3.426   1.724  16.990  0.2305 -0.3304  0.3668
 5982SOL    HW129405   3.498   1.778  17.023 -0.6879  1.7826 -1.1417
 5982SOL    HW229406   3.430   1.658  17.060  0.0315 -2.6459 -1.8384
 5983SOL     OW29407   4.387   0.099   2.203 -0.1252 -0.4015 -0.6558
 5983SOL    HW129408   4.363   0.088   2.111  0.7614 -3.2704 -0.5400
 5983SOL    HW229409   4.367   0.014   2.241 -1.2692 -0.1459 -0.6769
 5984SOL     OW29410   3.449   2.521   5.022 -0.0333  0.0582  0.3447
 5984SOL    HW129411   3.389   2.501   4.951  0.5451 -4.0278  1.0285
 5984SOL    HW229412   3.528   2.554   4.978 -0.9930 -0.1919 -1.5614
 5985SOL     OW29413   4.370   3.427   3.097 -0.3412 -0.1614 -0.1830
 5985SOL    HW129414   4.430   3.424   3.171  0.9124 -0.2797 -1.2011
 5985SOL    HW229415   4.379   3.339   3.061 -1.4346  0.1061 -1.1046
 5986SOL     OW29416   4.125   4.566  14.539  0.1525  0.3808  0.6403
 5986SOL    HW129417   4.218   4.563  14.564 -0.0318  1.4587  1.4863
 5986SOL    HW229418   4.135   4.618  14.459 -1.3116 -2.1573 -1.1682
 5987SOL     OW29419   2.946   3.766  12.714  0.1123  0.4524  0.1532
 5987SOL    HW129420   2.907   3.770  12.801  0.1520 -0.0560  0.1926
 5987SOL    HW229421   2.909   3.845  12.674  0.8044  0.8655  0.3120
 5988SOL     OW29422   3.645   2.322   7.299  0.3024  0.3635  0.0028
 5988SOL    HW129423   3.729   2.294   7.263 -1.1832 -1.6469 -1.9242
 5988SOL    HW229424   3.623   2.237   7.339 -0.3983 -0.0520 -1.2550
 5989SOL     OW29425   2.973   0.458  15.827  0.4160  0.1984  0.3968
 5989SOL    HW129426   3.067   0.461  15.813  0.1570 -0.0553 -1.3586
 5989SOL    HW229427   2.962   0.547  15.859  2.7226  0.9264 -0.8488
 5990SOL     OW29428   2.631   2.938   5.493 -0.8890 -0.0079  0.5037
 5990SOL    HW129429   2.649   2.844   5.504  4.0846  1.0927  1.9611
 5990SOL    HW229430   2.537   2.931   5.482 -0.8666  0.1121  0.2520
 5991SOL     OW29431   0.437   3.253   2.153 -0.9839  0.5326 -0.1251
 5991SOL    HW129432   0.525   3.263   2.189 -1.1831  4.2904 -0.6475
 5991SOL    HW229433   0.386   3.281   2.228 -0.2338 -2.8577  1.6589
 5992SOL     OW29434   0.933   1.991   4.073  0.4640 -0.5898  0.2221
 5992SOL    HW129435   0.845   2.019   4.044  0.4510  0.7550  1.5484
 5992SOL    HW229436   0.978   2.074   4.092 -1.4520  0.8086 -1.2375
 5993SOL     OW29437   0.129   1.064   4.293  0.5332  0.2886  0.2241
 5993SOL    HW129438   0.119   1.011   4.372 -0.7316  1.2754  0.7151
 5993SOL    HW229439   0.049   1.114   4.307  0.3499 -0.5760  2.3814
 5994SOL     OW29440   2.895   0.087   5.825 -0.2436  0.4186 -0.6344
 5994SOL    HW129441   2.958   0.018   5.803 -2.4631 -2.4066  1.9499
 5994SOL    HW229442   2.897   0.138   5.744 -0.2681  0.4571 -0.6107
 5995SOL     OW29443   1.052   3.940  13.436 -0.1473  0.1924 -0.7031
 5995SOL    HW129444   0.973   3.896  13.468  1.6714 -1.6131  1.3138
 5995SOL    HW229445   1.020   4.015  13.386 -1.3812 -0.5325 -1.0056
 5996SOL     OW29446   0.708   1.321   2.143  0.1440  0.2145  0.0930
 5996SOL    HW129447   0.736   1.403   2.182  0.1836  0.8295 -1.2522
 5996SOL    HW229448   0.648   1.299   2.215  1.2220 -0.9451  0.6431
 5997SOL     OW29449   2.363   1.331   8.214  0.2122 -0.0930 -0.5889
 5997SOL    HW129450   2.435   1.362   8.158 -0.7085  2.6567 -0.2777
 5997SOL    HW229451   2.294   1.386   8.176 -1.4051 -0.5139  1.7020
 5998SOL     OW29452   0.530   0.074   2.121 -0.3502 -0.0238 -0.2282
 5998SOL    HW129453   0.576   0.035   2.195  0.6101 -2.5213 -2.1632
 5998SOL    HW229454   0.445   0.031   2.130  0.6730 -2.1326 -0.7408
 5999SOL     OW29455   1.418   2.197   8.357  0.2070  0.2104  0.2520
 5999SOL    HW129456   1.361   2.121   8.350  0.7745 -0.1149 -0.7708
 5999SOL    HW229457   1.503   2.154   8.357  0.9596  1.6684 -0.9202
 6000SOL     OW29458   1.674   0.476   2.433 -0.1304  0.2938  0.1402
 6000SOL    HW129459   1.627   0.402   2.397  1.4136  0.2161 -1.7429
 6000SOL    HW229460   1.601   0.528   2.464 -1.0437 -0.8538 -0.1041
 6001SOL     OW29461   1.631   0.922   3.167 -0.5378  0.1800  0.3865
 6001SOL    HW129462   1.596   1.007   3.193  3.4721  1.4857  1.4976
 6001SOL    HW229463   1.641   0.882   3.253  3.7080  1.3436  0.4371
 6002SOL     OW29464   2.284   0.123   6.533 -0.3134  0.3219 -0.3086
 6002SOL    HW129465   2.353   0.146   6.470 -0.6066 -1.2686 -1.1899
 6002SOL    HW229466   2.277   0.203   6.584  2.6967 -0.8956  2.0088
 6003SOL     OW29467   2.706   2.501   4.621  0.2556 -0.3221  0.3218
 6003SOL    HW129468   2.716   2.445   4.697  1.4105  1.7349  1.6631
 6003SOL    HW229469   2.621   2.542   4.639  1.5695  1.3062  2.7775
 6004SOL     OW29470   2.368   0.901   4.397 -0.0373  0.1439 -0.8280
 6004SOL    HW129471   2.339   0.961   4.328  0.4376 -0.6530 -1.7152
 6004SOL    HW229472   2.302   0.831   4.397 -0.7345  0.7989 -0.3226
 6005SOL     OW29473   4.360   4.430   3.352  0.3721  0.0115  0.8335
 6005SOL    HW129474   4.335   4.522   3.344 -0.4107 -0.2167  0.5920
 6005SOL    HW229475   4.445   4.442   3.394  0.1412  1.8868  0.7652
 6006SOL     OW29476   4.702   1.424   3.753 -0.2861  0.2612 -0.1938
 6006SOL    HW129477   0.003   1.399   3.665 -2.4294 -1.6283 -0.2679
 6006SOL    HW229478   4.687   1.517   3.737 -0.9062 -0.0174 -1.1953
 6007SOL     OW29479   2.971   1.840   6.147  0.0490 -0.1625 -0.3189
 6007SOL    HW129480   3.003   1.789   6.073  1.5333  1.7605 -0.9923
 6007SOL    HW229481   3.017   1.802   6.221  0.7772  0.5015 -0.4324
 6008SOL     OW29482   2.715   0.607   3.020 -0.0579 -0.4315  0.2190
 6008SOL    HW129483   2.711   0.585   2.928  1.5269  2.0495 -0.4705
 6008SOL    HW229484   2.795   0.660   3.026  0.3067 -0.9514 -0.0193
 6009SOL     OW29485   0.595   3.088   7.352  0.0668  0.1139 -0.4355
 6009SOL    HW129486   0.525   3.040   7.398 -0.6769  1.7065  0.1003
 6009SOL    HW229487   0.678   3.073   7.398  0.0901  0.4798 -0.3610
 6010SOL     OW29488   2.293   3.506   2.297 -0.3932 -0.2230  0.1638
 6010SOL    HW129489   2.207   3.465   2.289  0.3174 -2.2026  2.5965
 6010SOL    HW229490   2.277   3.579   2.238 -0.3725 -0.8951 -0.6720
 6011SOL     OW29491   3.042   2.701   5.350 -0.2322 -0.9330 -0.3359
 6011SOL    HW129492   2.969   2.756   5.321  0.9428  0.9684  0.3272
 6011SOL    HW229493   3.055   2.734   5.438 -1.4634  1.1507 -0.9305
 6012SOL     OW29494   3.080   2.236   6.317 -0.2164 -0.6577 -0.3452
 6012SOL    HW129495   3.052   2.169   6.379 -1.1042 -0.7003 -0.7792
 6012SOL    HW229496   3.154   2.198   6.270 -0.0008 -0.0423 -0.5124
 6013SOL     OW29497   1.481   3.489  16.456 -0.4725  0.1738 -0.3339
 6013SOL    HW129498   1.539   3.550  16.411  2.9696 -1.9815  1.1760
 6013SOL    HW229499   1.468   3.530  16.541 -3.7741  1.4814 -1.5038
 6014SOL     OW29500   1.700   1.501   0.735  0.4117  0.1561 -0.9447
 6014SOL    HW129501   1.745   1.454   0.805 -0.7601 -0.0275 -0.3034
 6014SOL    HW229502   1.743   1.470   0.656  0.6466  1.2145 -1.2306
 6015SOL     OW29503   4.458   4.304  14.405  0.3168 -0.0774 -0.6553
 6015SOL    HW129504   4.551   4.287  14.412  0.3791  1.8761  3.2268
 6015SOL    HW229505   4.416   4.220  14.422 -0.0963 -0.1164 -1.8486
 6016SOL     OW29506   4.720   0.069  10.087 -0.2659  0.2520 -0.2108
 6016SOL    HW129507   4.665   0.067  10.009 -1.7231  1.1809  0.7989
 6016SOL    HW229508   4.707   0.159  10.117 -0.1907  0.1764  0.0504
 6017SOL     OW29509   1.121   4.128   9.848  0.0825  0.4104 -0.6088
 6017SOL    HW129510   1.075   4.204   9.884 -0.2316  0.3999 -0.9789
 6017SOL    HW229511   1.059   4.056   9.857  1.0984 -0.6274 -1.8538
 6018SOL     OW29512   3.339   2.033  13.763 -0.0968  0.3553 -0.0040
 6018SOL    HW129513   3.299   1.967  13.820 -0.4485  0.8835  0.3712
 6018SOL    HW229514   3.274   2.039  13.694 -0.2537  0.4202  0.1490
 6019SOL     OW29515   4.516   2.508   8.781 -0.3403 -0.3549  0.5720
 6019SOL    HW129516   4.490   2.597   8.760 -0.1063 -0.2703  0.6331
 6019SOL    HW229517   4.546   2.463   8.702  1.5503  0.0442  1.0437
 6020SOL     OW29518   1.115   4.133  15.110  0.5309 -0.1020  0.4482
 6020SOL    HW129519   1.197   4.109  15.068 -0.3810 -1.8899 -0.2768
 6020SOL    HW229520   1.133   4.104  15.200 -0.0187  0.2630  0.6748
 6021SOL     OW29521   1.719   4.496   1.312  0.4770  0.5039  0.2214
 6021SOL    HW129522   1.708   4.461   1.223  2.5054  2.1552 -0.6842
 6021SOL    HW229523   1.694   4.589   1.306  2.0961  0.8293 -1.6404
 6022SOL     OW29524   1.533   0.857  16.050 -0.3918 -0.3369  0.2488
 6022SOL    HW129525   1.560   0.937  16.006 -2.4138  0.6326  0.8068
 6022SOL    HW229526   1.476   0.891  16.119 -0.7340  2.2023 -1.3168
 6023SOL     OW29527   4.167   0.506   0.230  0.0794 -0.0066 -0.1799
 6023SOL    HW129528   4.250   0.549   0.251 -0.0059 -0.4989  1.1731
 6023SOL    HW229529   4.174   0.504   0.135  0.9012  2.4160 -0.1661
 6024SOL     OW29530   0.940   1.066   2.726  0.0245 -0.0094 -0.0379
 6024SOL    HW129531   0.962   1.093   2.637 -0.0594 -1.5817 -0.5472
 6024SOL    HW229532   0.845   1.071   2.736 -0.0554 -0.5384 -0.5747
 6025SOL     OW29533   0.071   3.186   3.790  0.2340  0.3057 -0.0908
 6025SOL    HW129534   0.162   3.167   3.764  0.8551  1.8007  1.0358
 6025SOL    HW229535   0.039   3.096   3.795 -0.7211  0.6483 -0.1484
 6026SOL     OW29536   3.793   1.517   7.317 -0.2612  0.2347 -0.0593
 6026SOL    HW129537   3.847   1.449   7.276 -1.0392  0.1072 -0.8757
 6026SOL    HW229538   3.858   1.587   7.309 -0.9296  0.7809 -0.7577
 6027SOL     OW29539   2.147   3.515   7.791 -0.4789 -0.2620 -0.2816
 6027SOL    HW129540   2.130   3.481   7.879  0.0673  1.6040  0.5481
 6027SOL    HW229541   2.059   3.536   7.760 -0.1238  1.0333 -0.4245
 6028SOL     OW29542   1.050   2.873   5.413 -0.1519  0.5070 -0.2218
 6028SOL    HW129543   1.093   2.823   5.344 -3.5553 -3.2547  0.4034
 6028SOL    HW229544   0.986   2.917   5.358  0.5343  1.0711 -0.5773
 6029SOL     OW29545   0.016   0.157   5.532  0.1446  0.0724  0.5694
 6029SOL    HW129546   0.093   0.129   5.583  2.0627  2.4490 -0.9795
 6029SOL    HW229547   4.692   0.075   5.528 -1.5838  1.1463 -0.5235
 6030SOL     OW29548   1.714   2.414   0.225  0.2457 -0.8458 -0.1272
 6030SOL    HW129549   1.761   2.331   0.228  0.4598 -0.7576 -1.0888
 6030SOL    HW229550   1.729   2.456   0.310 -0.7036 -1.5213  0.3662
 6031SOL     OW29551   3.397   2.866  10.046 -0.0358 -0.5554  0.2584
 6031SOL    HW129552   3.459   2.935  10.021 -3.5366  2.7488  0.6126
 6031SOL    HW229553   3.377   2.888  10.137  0.6818  0.1336  0.2471
 6032SOL     OW29554   2.964   4.310  16.919  0.0263  0.1572  0.5559
 6032SOL    HW129555   2.871   4.333  16.918 -0.1274 -0.4713  0.2172
 6032SOL    HW229556   2.945   4.221  16.889  0.4199 -0.3460  1.8038
 6033SOL     OW29557   0.269   1.577   3.160 -0.1382 -0.0562 -0.0373
 6033SOL    HW129558   0.345   1.618   3.202  0.5890  1.2340 -2.6151
 6033SOL    HW229559   0.315   1.499   3.129 -1.8815 -0.1813 -2.3524
 6034SOL     OW29560   1.052   1.358   3.138 -0.1581  0.3143  0.2999
 6034SOL    HW129561   1.130   1.358   3.194  1.4421 -2.4043 -1.9314
 6034SOL    HW229562   1.063   1.286   3.076 -1.2463  0.9175 -0.5804
 6035SOL     OW29563   1.252   4.483  16.137  0.8337 -0.7312 -0.3262
 6035SOL    HW129564   1.342   4.455  16.121  1.6928  1.2107  1.1718
 6035SOL    HW229565   1.209   4.405  16.101 -2.3922 -0.3413  2.6116
 6036SOL     OW29566   3.824   0.917   8.151  0.2092 -0.1593 -0.3415
 6036SOL    HW129567   3.789   0.834   8.119  0.6994  0.1060 -1.5733
 6036SOL    HW229568   3.867   0.949   8.071  0.2454 -0.5526 -0.4814
 6037SOL     OW29569   3.040   2.597   5.091  0.3618  0.3333 -0.0613
 6037SOL    HW129570   3.068   2.505   5.091 -4.2936 -1.0964 -0.6771
 6037SOL    HW229571   3.063   2.625   5.179 -0.2859  1.5257 -0.2774
 6038SOL     OW29572   3.493   1.795  17.352  0.3001 -0.2449 -0.5739
 6038SOL    HW129573   3.431   1.734  17.312 -0.5176  0.7093 -0.7849
 6038SOL    HW229574   3.543   1.821  17.275  3.0601 -0.2140  1.2632
 6039SOL     OW29575   4.301   4.340   7.934 -0.8182  0.4683  0.5668
 6039SOL    HW129576   4.261   4.420   7.968  0.5431  1.3245  0.1633
 6039SOL    HW229577   4.230   4.305   7.880  0.1533  0.9938 -1.0295
 6040SOL     OW29578   2.894   0.611   9.021  0.7438  0.0335 -0.2550
 6040SOL    HW129579   2.964   0.658   8.975  1.6424 -0.8392  0.2085
 6040SOL    HW229580   2.838   0.591   8.946 -1.6832  1.1976  1.2401
 6041SOL     OW29581   0.702   2.723  11.892 -0.6643 -0.1953  0.6808
 6041SOL    HW129582   0.785   2.692  11.926 -1.9534 -2.9636  1.3083
 6041SOL    HW229583   0.729   2.731  11.800 -1.0601  0.3576  0.6070
 6042SOL     OW29584   3.317   2.766   6.906 -0.5488  0.1544  0.0063
 6042SOL    HW129585   3.366   2.846   6.925 -0.4318 -0.1476  0.9740
 6042SOL    HW229586   3.269   2.797   6.829  0.6836 -0.5299 -1.0346
 6043SOL     OW29587   4.715   3.918   3.747 -0.1031  0.1010 -0.4733
 6043SOL    HW129588   4.703   4.000   3.794  1.9638 -0.1070  0.4397
 6043SOL    HW229589   0.086   3.906   3.743  0.1026  1.0278  1.7312
 6044SOL     OW29590   2.296   3.188  12.465 -0.2903 -0.0425 -0.4469
 6044SOL    HW129591   2.325   3.147  12.383  3.8498  4.0785 -1.0444
 6044SOL    HW229592   2.280   3.272  12.422  0.7093  0.5714  0.4200
 6045SOL     OW29593   3.776   2.798   5.902  0.7025  0.7157  0.2774
 6045SOL    HW129594   3.794   2.889   5.880 -0.5881  0.3718 -2.2575
 6045SOL    HW229595   3.757   2.801   5.996  1.0970  2.8189  0.2740
 6046SOL     OW29596   4.069   2.765   8.421  0.0799 -0.6908  0.1926
 6046SOL    HW129597   4.011   2.740   8.493  1.7623  0.6986  2.0277
 6046SOL    HW229598   4.106   2.850   8.446 -2.3995  0.2932  0.6196
 6047SOL     OW29599   2.659   4.448   5.003 -0.1421  0.5296 -0.1008
 6047SOL    HW129600   2.603   4.512   4.959 -0.5969 -1.1560 -1.9426
 6047SOL    HW229601   2.613   4.365   4.999 -0.8876  0.8940  0.6661
 6048SOL     OW29602   1.545   1.764  16.023  0.0312 -0.2870 -0.4021
 6048SOL    HW129603   1.635   1.793  16.036 -0.0042 -2.1025  3.7688
 6048SOL    HW229604   1.556   1.702  15.950  0.5954 -0.3817 -0.2359
 6049SOL     OW29605   3.023   3.830  12.143 -0.3348  0.2675  0.2060
 6049SOL    HW129606   3.010   3.784  12.060 -0.8709 -0.0449  0.4650
 6049SOL    HW229607   2.952   3.894  12.144 -1.2122 -0.6896 -1.1050
 6050SOL     OW29608   1.197   1.996   3.300 -0.2927 -0.1727 -0.1182
 6050SOL    HW129609   1.161   2.042   3.376  0.7092  0.2434  0.1006
 6050SOL    HW229610   1.116   1.989   3.248 -0.9607 -0.9567  1.0272
 6051SOL     OW29611   1.526   1.278  11.227  0.2876  0.0438  0.2162
 6051SOL    HW129612   1.493   1.194  11.193  0.4005 -0.6742  1.8564
 6051SOL    HW229613   1.621   1.268  11.232  0.4846  1.1757 -1.2927
 6052SOL     OW29614   0.551   2.669  12.139 -0.0109 -0.0377  0.0847
 6052SOL    HW129615   0.565   2.751  12.185 -2.1340  0.0878  0.5314
 6052SOL    HW229616   0.581   2.700  12.053  1.3600 -1.9634 -0.1234
 6053SOL     OW29617   2.562   2.442   1.769 -0.0210 -0.6673 -0.1026
 6053SOL    HW129618   2.602   2.525   1.743  0.8367 -0.5186  1.7368
 6053SOL    HW229619   2.537   2.465   1.858  4.0018 -0.6589  1.0291
 6054SOL     OW29620   4.373   0.033   1.378  0.1311 -0.4098  0.1253
 6054SOL    HW129621   4.412   0.071   1.299 -0.8942 -1.4759 -0.8801
 6054SOL    HW229622   4.312   4.696   1.339  0.5644 -0.0876 -1.0492
 6055SOL     OW29623   3.217   3.038  14.469 -0.0685 -0.4357 -0.0087
 6055SOL    HW129624   3.197   3.132  14.465 -1.8045 -0.9246 -2.5623
 6055SOL    HW229625   3.245   3.028  14.378 -4.2889 -2.2479 -1.0646
 6056SOL     OW29626   4.524   1.010   3.542  0.2689  0.3478 -0.0985
 6056SOL    HW129627   4.449   1.028   3.598  2.1679  2.1497  1.8980
 6056SOL    HW229628   4.516   1.082   3.480  1.0677 -1.1013 -1.8877
 6057SOL     OW29629   3.842   3.123   2.791  0.5814  0.1765  0.5872
 6057SOL    HW129630   3.916   3.182   2.778  0.2873  0.1522 -1.1505
 6057SOL    HW229631   3.835   3.107   2.886 -1.9839  1.0590  0.5582
 6058SOL     OW29632   4.428   0.610   7.037 -0.2345  0.4978  0.3327
 6058SOL    HW129633   4.404   0.555   6.962  1.7726  0.1769 -0.0814
 6058SOL    HW229634   4.474   0.545   7.090  0.0364  0.8926  0.5871
 6059SOL     OW29635   0.282   1.527   4.007  0.2715  0.2983  0.3341
 6059SOL    HW129636   0.193   1.516   3.974  0.8156 -2.6422 -0.1088
 6059SOL    HW229637   0.314   1.437   4.001  1.0450  0.6116 -0.3525
 6060SOL     OW29638   2.895   2.001  16.326 -0.3374 -0.0962  0.2925
 6060SOL    HW129639   2.920   2.006  16.234 -2.2297  0.0781 -0.2118
 6060SOL    HW229640   2.953   2.066  16.368 -0.2501 -0.1920  0.3194
 6061SOL     OW29641   2.718   1.585   9.094 -0.2649  0.3734 -0.0139
 6061SOL    HW129642   2.773   1.616   9.166  1.7206  0.5341 -1.6054
 6061SOL    HW229643   2.784   1.587   9.025 -0.3685 -2.2773 -0.1630
 6062SOL     OW29644   4.243   0.098  13.350  0.0143 -0.7662  0.1767
 6062SOL    HW129645   4.332   0.131  13.338 -1.2279  2.1729 -1.0085
 6062SOL    HW229646   4.260   0.062  13.437 -0.4152  2.7882  1.7351
 6063SOL     OW29647   4.644   1.682   7.472  0.7916  0.0086 -0.9566
 6063SOL    HW129648   4.646   1.752   7.537  0.7776 -2.4903  1.7328
 6063SOL    HW229649   4.559   1.704   7.432  0.4931 -1.4254 -1.0881
 6064SOL     OW29650   1.893   3.363   1.396  0.3740 -0.2738  0.4695
 6064SOL    HW129651   1.917   3.403   1.480  2.2602 -1.7740  0.6272
 6064SOL    HW229652   1.799   3.380   1.388  0.5047  0.5576  0.6681
 6065SOL     OW29653   1.185   0.253  15.016 -0.4393  0.2231 -0.4236
 6065SOL    HW129654   1.172   0.298  14.932 -1.4033  0.4613 -0.1456
 6065SOL    HW229655   1.100   0.209  15.023 -0.5247  0.1161 -2.0436
 6066SOL     OW29656   3.126   0.360   5.889  0.1999 -0.6826 -0.0281
 6066SOL    HW129657   3.040   0.362   5.931 -0.9032  1.4723 -2.3799
 6066SOL    HW229658   3.106   0.360   5.795 -1.0296 -0.3371  0.2362
 6067SOL     OW29659   3.055   1.217   7.989  0.4113 -0.0485  0.9151
 6067SOL    HW129660   3.067   1.259   8.074  1.8933 -1.6810  1.4999
 6067SOL    HW229661   3.136   1.167   7.981  1.8265  2.7435 -2.3861
 6068SOL     OW29662   1.709   3.824   1.569 -0.1856  0.3691  0.2079
 6068SOL    HW129663   1.624   3.795   1.536 -0.6143  2.3845 -0.4003
 6068SOL    HW229664   1.724   3.909   1.530 -1.9589 -0.1769 -1.6254
 6069SOL     OW29665   1.945   4.640   6.037 -0.0551 -0.3229  0.1553
 6069SOL    HW129666   2.007   4.590   6.090  2.0183 -0.4956 -2.4548
 6069SOL    HW229667   1.875   4.577   6.018  0.2548 -0.7406  0.3859
 6070SOL     OW29668   2.424   3.908  11.737  0.3043  0.0415 -0.5725
 6070SOL    HW129669   2.482   3.955  11.676  1.5195 -0.9319 -0.1571
 6070SOL    HW229670   2.333   3.929  11.716  0.1706  0.8447  0.8428
 6071SOL     OW29671   1.546   2.984   8.201 -0.7129 -0.4786  0.5476
 6071SOL    HW129672   1.531   2.962   8.294  0.6936 -2.9924  0.1817
 6071SOL    HW229673   1.459   2.971   8.162 -0.8898  1.6032  0.2824
 6072SOL     OW29674   0.386   3.004  14.051 -0.4635 -0.2795 -0.7218
 6072SOL    HW129675   0.448   3.057  14.002 -1.3725  0.0823 -1.4842
 6072SOL    HW229676   0.429   3.006  14.137 -0.1877  0.4894 -0.8725
 6073SOL     OW29677   0.576   0.638   3.704 -0.1390 -0.0038 -0.1986
 6073SOL    HW129678   0.661   0.595   3.692 -0.9579 -1.2296 -1.7150
 6073SOL    HW229679   0.604   0.705   3.766  2.7202 -0.7033 -0.6989
 6074SOL     OW29680   3.602   1.901  11.282  0.2473  0.6354  0.1009
 6074SOL    HW129681   3.686   1.946  11.271  0.5551 -0.4731 -2.0678
 6074SOL    HW229682   3.630   1.831  11.342  0.0399 -0.2852 -0.8701
 6075SOL     OW29683   2.048   1.333  11.037 -0.2245 -0.0431  0.3661
 6075SOL    HW129684   2.126   1.367  10.994 -0.2740  0.8638  1.0087
 6075SOL    HW229685   2.036   1.251  10.989 -0.2010 -0.2503  0.7130
 6076SOL     OW29686   3.852   0.421   5.502  0.3438 -0.1009 -0.4714
 6076SOL    HW129687   3.809   0.426   5.587  1.9093  0.2903  0.2947
 6076SOL    HW229688   3.877   0.329   5.508 -2.1033 -0.6951  0.7393
 6077SOL     OW29689   0.825   0.482  14.934  0.1195 -0.0368 -0.1751
 6077SOL    HW129690   0.795   0.478  15.025  0.4116 -0.5799 -0.1085
 6077SOL    HW229691   0.837   0.576  14.918  2.4275 -0.6836 -2.2913
 6078SOL     OW29692   2.803   3.807  12.964  0.0028 -0.2078 -0.2556
 6078SOL    HW129693   2.764   3.720  12.969 -0.6410  0.1921  1.7490
 6078SOL    HW229694   2.739   3.849  12.906 -1.3033 -3.1339 -0.9158
 6079SOL     OW29695   1.026   4.396   6.653 -0.3872 -0.0356 -0.5938
 6079SOL    HW129696   1.110   4.391   6.699 -0.6608 -0.0821 -0.0869
 6079SOL    HW229697   0.978   4.349   6.722  0.1022 -1.1851 -1.0396
 6080SOL     OW29698   3.071   3.221   5.950 -0.5099  0.2888  0.0174
 6080SOL    HW129699   3.013   3.211   5.875  1.8317  2.6200 -2.1442
 6080SOL    HW229700   3.130   3.147   5.938 -0.1473  0.3212  1.5841
 6081SOL     OW29701   2.941   4.277   8.492  0.0511 -0.2899 -0.3292
 6081SOL    HW129702   2.920   4.183   8.489  0.2373 -0.2869 -1.7423
 6081SOL    HW229703   2.881   4.318   8.553  1.3675 -0.6690  1.2291
 6082SOL     OW29704   0.052   2.037   7.554 -0.0540  0.1298 -0.7028
 6082SOL    HW129705   4.718   2.107   7.585  1.6928  0.9033  0.8561
 6082SOL    HW229706   0.020   1.956   7.594 -0.0393  1.2873  1.6759
 6083SOL     OW29707   2.590   3.663   7.539  0.1583 -0.3768  0.3474
 6083SOL    HW129708   2.503   3.658   7.579 -0.7512  3.0177 -1.1470
 6083SOL    HW229709   2.640   3.601   7.592  2.9399  1.8889  0.3544
 6084SOL     OW29710   2.098   3.668   4.069  0.1179  0.3911 -0.2156
 6084SOL    HW129711   2.011   3.708   4.067  0.0089  0.2114  1.0803
 6084SOL    HW229712   2.125   3.713   3.989  1.6134 -0.7162 -0.3334
 6085SOL     OW29713   3.652   0.324   6.553 -0.1906 -0.2019 -0.3043
 6085SOL    HW129714   3.626   0.291   6.467  0.1206 -0.4175 -0.3165
 6085SOL    HW229715   3.590   0.391   6.581  1.8238  0.0417  3.7201
 6086SOL     OW29716   4.287   0.791   8.364 -0.4992 -0.7597 -0.0730
 6086SOL    HW129717   4.335   0.866   8.398  1.2495 -1.0934 -1.8220
 6086SOL    HW229718   4.324   0.724   8.421 -1.7282 -0.1593  1.4378
 6087SOL     OW29719   4.149   4.612   4.944  0.0218  0.2512 -0.3045
 6087SOL    HW129720   4.229   4.583   4.899 -0.2036 -2.0504  0.7439
 6087SOL    HW229721   4.092   4.589   4.870 -0.9089  1.3817  0.0702
 6088SOL     OW29722   4.427   0.456  16.957  0.0774 -0.3114 -0.0538
 6088SOL    HW129723   4.438   0.396  16.883  1.3613  0.0574 -0.1668
 6088SOL    HW229724   4.339   0.443  16.991  0.3645  1.3673  1.3833
 6089SOL     OW29725   0.424   4.327   4.163 -0.0897 -0.5829  0.0860
 6089SOL    HW129726   0.469   4.244   4.179 -0.7629 -1.0291 -0.3295
 6089SOL    HW229727   0.365   4.306   4.091  0.6882 -0.9811 -0.4323
 6090SOL     OW29728   3.429   2.535   9.103 -0.1969  0.3039  0.4314
 6090SOL    HW129729   3.498   2.571   9.048 -0.9637 -2.0937 -2.0502
 6090SOL    HW229730   3.479   2.472   9.154 -0.5330 -0.0931  0.2655
 6091SOL     OW29731   1.920   4.219   1.355 -0.2871  0.3116 -0.0133
 6091SOL    HW129732   1.845   4.171   1.390  1.2715 -1.4322  0.9136
 6091SOL    HW229733   1.915   4.299   1.407  0.8436  0.7913 -0.6380
 6092SOL     OW29734   2.246   4.298  17.238  0.0437  0.0793 -0.1909
 6092SOL    HW129735   2.222   4.388  17.214 -1.8286 -0.2557  0.4802
 6092SOL    HW229736   2.208   4.285  17.324 -0.5540 -1.2017 -0.6519
 6093SOL     OW29737   3.170   2.729  17.266  0.2450  0.5071  0.6167
 6093SOL    HW129738   3.251   2.693  17.230  0.7745  1.6045  0.7145
 6093SOL    HW229739   3.171   2.686  17.352 -0.3604 -1.1434 -0.1960
 6094SOL     OW29740   3.757   2.457   5.624 -0.3314 -0.6294 -0.1569
 6094SOL    HW129741   3.734   2.388   5.562 -1.7563  0.3180 -0.6760
 6094SOL    HW229742   3.812   2.495   5.555 -0.3974 -0.4935 -0.1346
 6095SOL     OW29743   0.653   0.199   3.996 -0.1322 -0.1406  0.3812
 6095SOL    HW129744   0.748   0.193   4.004  0.0111  1.5679 -0.0953
 6095SOL    HW229745   0.646   0.284   3.952 -0.0979 -0.7604 -0.8230
 6096SOL     OW29746   2.790   2.209   5.881  0.0926 -0.2796 -0.1328
 6096SOL    HW129747   2.707   2.168   5.903 -0.5810  1.1636 -0.0018
 6096SOL    HW229748   2.852   2.167   5.941 -1.7764 -0.3207  1.7448
 6097SOL     OW29749   4.081   1.227  17.451  0.9681  0.3025  0.0623
 6097SOL    HW129750   4.029   1.217  17.531 -0.6077 -0.2994 -1.0373
 6097SOL    HW229751   4.114   1.137  17.449 -1.8274 -0.7462  1.7280
 6098SOL     OW29752   3.185   4.396   5.521 -0.3759  0.5777  0.2910
 6098SOL    HW129753   3.172   4.313   5.476 -1.7602  0.1329  1.4838
 6098SOL    HW229754   3.170   4.456   5.447 -0.4404  0.9777  0.6244
 6099SOL     OW29755   3.392   2.704   0.934  0.0852 -0.0273 -0.2212
 6099SOL    HW129756   3.343   2.625   0.910  0.6421  0.6271 -3.4056
 6099SOL    HW229757   3.336   2.781   0.927  0.2621  0.2843  1.7161
 6100SOL     OW29758   2.971   2.467   5.672 -0.1134 -0.1994 -0.4002
 6100SOL    HW129759   2.980   2.371   5.677  1.0911 -0.0991 -0.5312
 6100SOL    HW229760   3.065   2.485   5.664  0.3071 -2.0727  0.0851
 6101SOL     OW29761   2.844   4.452   7.206 -0.6786 -0.7526 -0.3172
 6101SOL    HW129762   2.875   4.364   7.229 -1.8919 -1.3515 -0.9753
 6101SOL    HW229763   2.754   4.443   7.174 -0.9027  0.8802 -0.1446
 6102SOL     OW29764   4.410   4.154  14.754  0.0585  0.1277 -0.1254
 6102SOL    HW129765   4.403   4.227  14.816  1.8483  1.8558 -1.9045
 6102SOL    HW229766   4.475   4.181  14.688  1.2726  1.4200  1.5813
 6103SOL     OW29767   0.450   2.265   3.123 -0.1017  0.4814  0.3859
 6103SOL    HW129768   0.395   2.200   3.079  0.0840 -0.4810  1.5724
 6103SOL    HW229769   0.510   2.291   3.052 -0.3144  0.9499  0.3793
 6104SOL     OW29770   3.796   3.855   0.468  0.1640 -0.1773  0.4216
 6104SOL    HW129771   3.820   3.911   0.541  0.2156 -1.4770  1.4053
 6104SOL    HW229772   3.756   3.778   0.509 -2.5457  1.3345  0.5979
 6105SOL     OW29773   0.990   1.930   5.146 -0.3419  0.6039 -0.3154
 6105SOL    HW129774   1.043   1.899   5.220  1.4860  0.4751 -1.6913
 6105SOL    HW229775   1.024   2.018   5.130 -0.3740  0.9166  1.3465
 6106SOL     OW29776   3.594   1.735  10.003 -0.2051 -0.6148  0.1418
 6106SOL    HW129777   3.530   1.698   9.942 -0.8629  0.5539  0.1053
 6106SOL    HW229778   3.665   1.671  10.000 -0.0912 -0.4745 -0.2599
 6107SOL     OW29779   0.567   1.401  12.363  0.9515 -0.1426  0.4030
 6107SOL    HW129780   0.567   1.447  12.279 -1.0051  0.9601  0.9942
 6107SOL    HW229781   0.662   1.393  12.376  1.1213  0.7220 -0.2876
 6108SOL     OW29782   2.708   2.105   9.360 -0.7841 -0.6976 -0.1716
 6108SOL    HW129783   2.769   2.165   9.403 -0.9436  1.3941 -2.8588
 6108SOL    HW229784   2.633   2.164   9.365 -0.7831 -0.7154  0.0270
 6109SOL     OW29785   0.327   0.645   2.491  0.7985  0.2902 -0.4823
 6109SOL    HW129786   0.327   0.585   2.566 -0.8978  0.1725 -0.5681
 6109SOL    HW229787   0.333   0.735   2.520  0.6367  0.9937 -2.6357
 6110SOL     OW29788   0.753   0.994   1.618 -0.4575  0.4587 -0.2644
 6110SOL    HW129789   0.672   0.952   1.647  0.5551 -0.7941  0.7381
 6110SOL    HW229790   0.729   1.065   1.558  0.4211  0.4937 -0.5719
 6111SOL     OW29791   2.508   2.557   3.421  0.3502  0.1836 -0.1595
 6111SOL    HW129792   2.447   2.596   3.484  2.2079  0.7055  1.3222
 6111SOL    HW229793   2.460   2.579   3.341  1.2128 -0.0431 -0.7361
 6112SOL     OW29794   4.083   0.138   5.803 -0.6626  0.3421  0.1163
 6112SOL    HW129795   4.077   0.060   5.858 -0.2416  0.3425  0.1637
 6112SOL    HW229796   4.074   0.096   5.718  1.6201  0.3390 -0.1161
 6113SOL     OW29797   3.379   0.437  15.480  0.5031 -0.4359  0.6567
 6113SOL    HW129798   3.362   0.460  15.389  0.3779 -2.5058  0.1504
 6113SOL    HW229799   3.417   0.518  15.512  3.2680 -1.1202 -0.9265
 6114SOL     OW29800   1.209   4.430   1.281  0.0610 -0.1092  0.6685
 6114SOL    HW129801   1.231   4.498   1.217  4.4199 -2.5104 -0.3481
 6114SOL    HW229802   1.290   4.379   1.282  0.1703  0.0509  0.2469
 6115SOL     OW29803   1.083   1.917   6.201  0.1585 -0.4507 -0.3743
 6115SOL    HW129804   1.143   1.857   6.247 -0.8979 -1.0508  0.2468
 6115SOL    HW229805   1.003   1.874   6.231  1.3188 -1.7506  0.9289
 6116SOL     OW29806   3.575   4.586   7.944 -0.0829  0.5349  0.5595
 6116SOL    HW129807   3.527   4.541   7.876 -0.1626 -0.2953  1.1696
 6116SOL    HW229808   3.646   4.523   7.952 -1.8647 -1.8470 -2.5970
 6117SOL     OW29809   2.601   3.720   6.707 -0.3069 -0.1118 -0.6479
 6117SOL    HW129810   2.527   3.694   6.652 -1.5873 -2.0371  1.9703
 6117SOL    HW229811   2.632   3.637   6.743  1.2656 -0.0214 -1.8154
 6118SOL     OW29812   1.786   0.317   0.492  0.1836  0.1595 -0.0403
 6118SOL    HW129813   1.716   0.255   0.471  1.1770 -1.4183  1.3137
 6118SOL    HW229814   1.778   0.379   0.420 -0.1325  0.3009  0.1136
 6119SOL     OW29815   3.732   3.721  16.130 -0.1719  0.3879 -0.1412
 6119SOL    HW129816   3.731   3.630  16.101 -1.8949 -0.1844  1.7097
 6119SOL    HW229817   3.787   3.759  16.062  0.6224 -0.6775 -0.0855
 6120SOL     OW29818   4.542   2.853  14.894  0.6499  0.1802 -0.5681
 6120SOL    HW129819   4.551   2.771  14.944 -0.7820  1.2396  1.4255
 6120SOL    HW229820   4.447   2.864  14.884  0.4543 -1.1389 -0.1460
 6121SOL     OW29821   4.521   0.196   5.370  0.1211 -0.1134  0.0577
 6121SOL    HW129822   4.566   0.234   5.445  0.1832  1.1596 -0.6212
 6121SOL    HW229823   4.438   0.243   5.376 -0.4020 -0.7858 -1.9138
 6122SOL     OW29824   0.419   1.747   4.050  0.0662  0.4464  0.0058
 6122SOL    HW129825   0.352   1.815   4.060 -0.9820 -0.4878 -0.6828
 6122SOL    HW229826   0.367   1.668   4.033  2.0912 -1.2396  1.6818
 6123SOL     OW29827   3.025   0.474   5.645  0.1736  0.2600  0.2227
 6123SOL    HW129828   3.011   0.446   5.555  0.7565 -1.7538  0.7615
 6123SOL    HW229829   2.943   0.440   5.681  0.5190 -1.7889 -0.9162
 6124SOL     OW29830   1.854   2.206   3.008  0.5552 -0.4173  0.3616
 6124SOL    HW129831   1.832   2.276   2.946  1.6459  1.4079  2.0299
 6124SOL    HW229832   1.818   2.129   2.963 -0.3131  0.4700 -0.4797
 6125SOL     OW29833   2.101   2.779   7.378  0.6591  0.3071  0.0895
 6125SOL    HW129834   2.092   2.758   7.285  1.8397  0.8072 -0.1392
 6125SOL    HW229835   2.102   2.695   7.424 -1.1070  0.1695 -0.1369
 6126SOL     OW29836   2.616   0.545   8.035  0.3751  0.2805 -0.2191
 6126SOL    HW129837   2.702   0.573   8.003  0.8715 -0.1495  0.7347
 6126SOL    HW229838   2.645   0.499   8.113 -1.1632  1.2230  0.9039
 6127SOL     OW29839   0.218   2.327   3.873  0.4113 -0.1665  0.4139
 6127SOL    HW129840   0.199   2.420   3.890  0.0114 -0.0684 -0.5518
 6127SOL    HW229841   0.243   2.297   3.960 -2.9991  0.5053  1.6593
 6128SOL     OW29842   3.371   3.281   2.362  0.1992  0.2141  0.4695
 6128SOL    HW129843   3.355   3.192   2.393  0.5655 -0.0296 -0.0463
 6128SOL    HW229844   3.318   3.333   2.423  0.3274  1.1248 -0.1940
 6129SOL     OW29845   3.502   1.543   5.911  0.3865 -0.8788 -0.2435
 6129SOL    HW129846   3.437   1.477   5.887  0.9651 -1.6832  0.4273
 6129SOL    HW229847   3.497   1.614   5.846  1.7670  0.9645  1.6920
 6130SOL     OW29848   1.751   4.541  12.017 -0.0769  0.3840 -0.3683
 6130SOL    HW129849   1.670   4.522  11.969 -1.7877  1.8262  1.9258
 6130SOL    HW229850   1.764   4.632  11.991  1.5172  0.5795  1.1436
 6131SOL     OW29851   1.383   3.748   6.918  0.3896  0.3523 -0.2311
 6131SOL    HW129852   1.346   3.664   6.945  0.3715  0.8083  1.1938
 6131SOL    HW229853   1.305   3.769   6.868  0.1954  0.0331 -0.0614
 6132SOL     OW29854   2.200   1.087  12.354  0.2230  0.1583  0.4469
 6132SOL    HW129855   2.130   1.088  12.289  1.0145  0.5233 -0.3878
 6132SOL    HW229856   2.215   0.993  12.363  3.0108  0.4752 -0.8139
 6133SOL     OW29857   3.365   0.935   9.246  0.6688 -0.3262  0.1584
 6133SOL    HW129858   3.291   0.975   9.291  0.7786  1.1541 -0.9925
 6133SOL    HW229859   3.315   0.938   9.165  2.8525  1.5480 -1.1222
 6134SOL     OW29860   3.153   3.120  17.454  0.2657  0.3242 -0.0495
 6134SOL    HW129861   3.153   3.060  17.528  1.3333  0.8440  0.3719
 6134SOL    HW229862   3.210   3.079  17.390 -0.0639 -0.6869  0.2993
 6135SOL     OW29863   3.484   3.356  10.768 -0.2253 -0.2453 -0.2179
 6135SOL    HW129864   3.548   3.376  10.837  1.8247 -0.3581 -2.0930
 6135SOL    HW229865   3.477   3.437  10.718 -0.7844 -2.2656 -3.3446
 6136SOL     OW29866   2.616   1.435   5.695 -0.0284 -0.4740  0.3024
 6136SOL    HW129867   2.561   1.396   5.626  0.3329  1.8284 -1.2790
 6136SOL    HW229868   2.546   1.424   5.760 -0.4374  0.6956  0.0560
 6137SOL     OW29869   3.993   0.767  16.873 -0.3927 -0.6205 -0.5669
 6137SOL    HW129870   3.950   0.757  16.788 -1.4543  0.5256 -0.1701
 6137SOL    HW229871   4.083   0.760  16.841  0.1500  1.2653  0.5888
 6138SOL     OW29872   4.398   1.696   3.123 -0.6848  0.6810  0.2887
 6138SOL    HW129873   4.475   1.744   3.151 -0.8130 -1.7586  4.7837
 6138SOL    HW229874   4.437   1.625   3.073 -1.8129  2.7194 -3.4720
 6139SOL     OW29875   0.750   4.306   6.965 -0.5039 -0.0871  0.0771
 6139SOL    HW129876   0.691   4.375   6.934 -0.5624  0.0453  0.4719
 6139SOL    HW229877   0.698   4.277   7.040 -3.4788 -0.0876 -1.9861
 6140SOL     OW29878   0.960   3.685  10.524  0.2445  0.2502  0.2010
 6140SOL    HW129879   0.916   3.705  10.607 -0.8730  0.5018 -0.4548
 6140SOL    HW229880   0.915   3.739  10.459 -0.2753 -0.0029  0.3445
 6141SOL     OW29881   3.387   0.073  16.561 -0.4771  0.0648  0.3683
 6141SOL    HW129882   3.393   0.048  16.469 -0.2953 -1.4775  0.8129
 6141SOL    HW229883   3.372   4.714  16.604 -0.1598 -0.0508  0.2565
 6142SOL     OW29884   1.762   2.553   4.976 -0.4233  1.0206  0.7185
 6142SOL    HW129885   1.667   2.552   4.966 -0.1966  0.6753 -1.4877
 6142SOL    HW229886   1.787   2.461   4.976 -0.1372  1.0949  1.9651
 6143SOL     OW29887   2.380   4.689   5.146  0.0091 -0.1863  0.4550
 6143SOL    HW129888   2.460   4.641   5.125  0.5278  1.0416 -0.3318
 6143SOL    HW229889   2.316   4.621   5.169 -1.0529  0.4410 -0.6619
 6144SOL     OW29890   2.565   3.820   1.530 -0.1727 -0.3811  0.3357
 6144SOL    HW129891   2.602   3.734   1.551 -0.4797 -0.6802 -0.3130
 6144SOL    HW229892   2.609   3.878   1.591 -1.7442  0.4654  0.6655
 6145SOL     OW29893   2.668   1.617   2.653 -0.2914  0.2512 -0.5305
 6145SOL    HW129894   2.620   1.626   2.571 -0.0576 -1.2569 -0.8342
 6145SOL    HW229895   2.601   1.578   2.710 -1.3867 -0.3453 -2.2419
 6146SOL     OW29896   2.982   3.964   5.560  0.1639  0.3543 -0.3822
 6146SOL    HW129897   2.992   3.900   5.631 -0.9298  1.0593  0.4057
 6146SOL    HW229898   3.004   3.901   5.492  2.6703  0.6072  0.2231
 6147SOL     OW29899   3.192   2.239  15.081  0.1442  0.1835 -0.2169
 6147SOL    HW129900   3.190   2.286  14.998 -1.0414  1.7163  0.6782
 6147SOL    HW229901   3.186   2.305  15.150 -3.0177 -2.1446  1.7687
 6148SOL     OW29902   1.829   3.380   9.803  0.6090  0.7582  0.0539
 6148SOL    HW129903   1.838   3.412   9.893  0.2801  0.8649  0.0506
 6148SOL    HW229904   1.810   3.459   9.751 -1.4885 -1.5052 -2.6831
 6149SOL     OW29905   0.320   3.628   5.508  0.1653 -0.4379 -0.4865
 6149SOL    HW129906   0.373   3.629   5.588 -1.4030  1.4955  0.5330
 6149SOL    HW229907   0.394   3.639   5.447  0.0452  2.0838 -0.1844
 6150SOL     OW29908   0.738   0.262   6.631  0.3194 -0.3804 -0.4693
 6150SOL    HW129909   0.679   0.315   6.576 -0.0575  1.4249  1.6550
 6150SOL    HW229910   0.677   0.256   6.705  0.9062 -0.9288 -0.0392
 6151SOL     OW29911   2.772   1.269   3.939 -0.1823 -0.4269  0.2570
 6151SOL    HW129912   2.850   1.297   3.890 -1.1284  0.2078 -0.8870
 6151SOL    HW229913   2.727   1.351   3.919  1.6889  0.9351  1.5897
 6152SOL     OW29914   4.416   4.517   6.088 -0.1546  0.4582  0.2488
 6152SOL    HW129915   4.431   4.565   6.007 -0.3084 -2.0598 -1.2588
 6152SOL    HW229916   4.367   4.590   6.127 -1.6840 -0.3486 -0.1784
 6153SOL     OW29917   4.099   0.280   2.281  0.3633 -0.3193 -0.1359
 6153SOL    HW129918   4.007   0.299   2.301 -0.0242 -1.5970 -0.7158
 6153SOL    HW229919   4.121   0.326   2.201 -1.2254 -0.9713 -0.9415
 6154SOL     OW29920   3.873   3.689   4.338 -0.0391 -0.0571  0.8181
 6154SOL    HW129921   3.950   3.707   4.284 -0.8068 -1.8347 -0.8629
 6154SOL    HW229922   3.883   3.757   4.405 -0.5186 -1.9548  2.8390
 6155SOL     OW29923   4.491   0.204   6.719  0.0237 -0.7908  0.3261
 6155SOL    HW129924   4.585   0.197   6.707  0.2540  2.7050 -0.0803
 6155SOL    HW229925   4.479   0.269   6.789  0.0900  0.0590 -0.4509
 6156SOL     OW29926   2.745   4.366   8.659  0.1416  0.0538 -0.4561
 6156SOL    HW129927   2.658   4.372   8.620  0.1061 -0.0477 -0.3924
 6156SOL    HW229928   2.770   4.458   8.671 -0.4348  0.4762 -2.4782
 6157SOL     OW29929   1.187   4.021   1.303  0.2683  0.3297  0.3430
 6157SOL    HW129930   1.148   4.010   1.389  1.5186  2.5343  1.2089
 6157SOL    HW229931   1.126   4.085   1.264 -2.0564 -1.2590  1.4286
 6158SOL     OW29932   4.561   1.833   3.416  0.7038  0.2079 -0.5594
 6158SOL    HW129933   4.546   1.872   3.330  2.5446  0.3382 -0.8097
 6158SOL    HW229934   4.579   1.914   3.464 -1.6058 -0.5194  1.5653
 6159SOL     OW29935   2.068   1.689   1.278 -0.0119 -0.4095 -0.2054
 6159SOL    HW129936   2.013   1.611   1.282  1.7615 -1.6777 -0.3898
 6159SOL    HW229937   2.064   1.698   1.182  2.5196  0.5845 -0.2422
 6160SOL     OW29938   2.352   3.745  13.034 -0.2243 -0.2153  0.2503
 6160SOL    HW129939   2.348   3.840  13.019 -2.8926 -0.0492  1.9539
 6160SOL    HW229940   2.259   3.723  13.034  0.2177 -2.0307 -2.9019
 6161SOL     OW29941   0.196   4.073   4.425 -0.2243  0.6970  0.5253
 6161SOL    HW129942   0.115   4.033   4.458 -1.2688  0.9272 -1.7846
 6161SOL    HW229943   0.167   4.143   4.367 -0.6523 -0.6345 -0.8452
 6162SOL     OW29944   1.855   3.850   1.787  0.4957  0.1309 -0.1552
 6162SOL    HW129945   1.803   3.929   1.800 -0.0398 -0.5082  1.6446
 6162SOL    HW229946   1.805   3.804   1.721 -2.9701  0.7202  2.0613
 6163SOL     OW29947   2.896   0.426  16.517 -0.3345  0.5626  0.0715
 6163SOL    HW129948   2.954   0.358  16.484 -0.4941  0.0502  0.8445
 6163SOL    HW229949   2.919   0.432  16.610  0.6751  0.1171 -0.1570
 6164SOL     OW29950   1.399   1.512   8.323  0.2660 -0.2067  0.2844
 6164SOL    HW129951   1.467   1.579   8.320  0.7800 -0.6276  2.2269
 6164SOL    HW229952   1.369   1.509   8.232 -0.6919 -0.3547  0.6091
 6165SOL     OW29953   1.950   0.015   1.963 -0.5151 -0.9157 -0.8711
 6165SOL    HW129954   1.980   4.660   1.919 -1.4788 -0.6751 -1.9461
 6165SOL    HW229955   1.999   0.026   2.045 -0.5979 -2.7104 -0.5877
 6166SOL     OW29956   1.069   4.012   8.021 -0.1555 -0.6484 -0.4728
 6166SOL    HW129957   1.157   4.052   8.023 -0.5562  0.3667 -2.9016
 6166SOL    HW229958   1.077   3.970   8.106  0.8462 -1.7851 -1.1200
 6167SOL     OW29959   4.015   4.191  16.980  0.3661 -0.1125  0.1450
 6167SOL    HW129960   4.010   4.186  16.885 -0.5081 -0.5805  0.2103
 6167SOL    HW229961   4.023   4.283  17.005 -1.2415  0.1926 -0.4555
 6168SOL     OW29962   3.550   2.391   2.675 -0.1893 -0.5984  0.1300
 6168SOL    HW129963   3.473   2.360   2.627 -0.9516  0.7988  0.4246
 6168SOL    HW229964   3.585   2.434   2.596  0.7992 -0.5454  0.5974
 6169SOL     OW29965   3.878   3.814   7.792  0.1761 -0.3851  0.6041
 6169SOL    HW129966   3.899   3.728   7.757  0.0366  1.0317 -3.0028
 6169SOL    HW229967   3.783   3.809   7.796  0.2713 -0.8480  2.0729
 6170SOL     OW29968   1.352   1.584   6.726  0.4974 -0.2532  0.1240
 6170SOL    HW129969   1.390   1.613   6.809 -0.8756  0.4544  0.4934
 6170SOL    HW229970   1.426   1.544   6.680 -0.1966 -1.2867 -0.0831
 6171SOL     OW29971   4.351   2.245   7.496 -0.1587 -0.6737 -0.0727
 6171SOL    HW129972   4.272   2.273   7.543  0.5736  0.6818  0.3252
 6171SOL    HW229973   4.315   2.236   7.408 -2.1040 -1.3460  0.7848
 6172SOL     OW29974   2.951   3.476  14.559  0.0328 -0.4008  0.0896
 6172SOL    HW129975   2.890   3.547  14.579  2.2107  0.9119  2.0053
 6172SOL    HW229976   2.942   3.429  14.642  1.5723  1.1479  1.1343
 6173SOL     OW29977   3.682   0.208   2.075  0.6561 -0.0945  0.2516
 6173SOL    HW129978   3.610   0.152   2.047  1.9025 -1.5951  0.0226
 6173SOL    HW229979   3.734   0.193   1.995  0.4558  0.0411  0.0965
 6174SOL     OW29980   0.294   1.261   3.380 -0.4446 -0.1614 -0.0466
 6174SOL    HW129981   0.364   1.293   3.323 -0.1117 -0.8559 -0.0202
 6174SOL    HW229982   0.351   1.231   3.451 -2.0741  0.5733  1.5883
 6175SOL     OW29983   0.084   2.158   9.592  0.0119  0.0340 -0.7822
 6175SOL    HW129984   0.148   2.090   9.611 -0.3548 -0.0166  0.2756
 6175SOL    HW229985   0.017   2.140   9.658  0.1088 -3.0088 -1.5229
 6176SOL     OW29986   3.385   1.889  11.753  0.3319 -1.0954  0.1435
 6176SOL    HW129987   3.324   1.831  11.708  0.2963 -0.9512  0.0057
 6176SOL    HW229988   3.345   1.888  11.840  1.5829  0.9855  0.7338
 6177SOL     OW29989   3.800   4.341   2.217  0.1424 -0.2712  0.1231
 6177SOL    HW129990   3.751   4.300   2.287 -0.5600 -1.3874 -1.0240
 6177SOL    HW229991   3.778   4.435   2.215  0.1627 -0.2806 -0.7416
 6178SOL     OW29992   0.623   2.559   4.239  0.2854  0.5379 -0.5387
 6178SOL    HW129993   0.609   2.654   4.230 -1.9661  0.3582  1.1763
 6178SOL    HW229994   0.671   2.567   4.322 -0.6862  0.2638  0.0538
 6179SOL     OW29995   2.831   1.217   1.821 -0.7949 -0.1602  0.3895
 6179SOL    HW129996   2.912   1.207   1.871  0.3663  2.7735 -0.9158
 6179SOL    HW229997   2.765   1.236   1.888  0.9582 -2.6009  2.7758
 6180SOL     OW29998   1.111   4.647  11.673  0.1167  0.5417  0.2764
 6180SOL    HW129999   1.088   4.660  11.765 -1.4121 -0.1266  0.0015
 6180SOL    HW230000   1.068   4.722  11.631  1.3101  1.6064  0.9531
 6181SOL     OW30001   0.609   2.378   6.227 -0.0878  0.4125 -0.5711
 6181SOL    HW130002   0.546   2.421   6.286 -0.5677  0.7157 -1.2978
 6181SOL    HW230003   0.591   2.285   6.239 -2.0597  0.8252 -0.2680
 6182SOL     OW30004   3.067   0.692   7.337  0.5892 -0.1128 -0.4115
 6182SOL    HW130005   3.036   0.737   7.259 -0.6264  1.6128  1.0750
 6182SOL    HW230006   2.985   0.664   7.378  0.6715 -1.8213 -1.3953
 6183SOL     OW30007   2.872   2.885   9.176 -0.5276 -0.0974  0.3890
 6183SOL    HW130008   2.903   2.862   9.089  1.2412  0.5180  0.8559
 6183SOL    HW230009   2.897   2.810   9.230 -1.0503 -0.2568  0.4148
 6184SOL     OW30010   1.167   1.119   9.188 -0.3449 -0.3209  0.3100
 6184SOL    HW130011   1.190   1.069   9.267  2.3518  1.7735  0.8343
 6184SOL    HW230012   1.072   1.111   9.192 -0.4204  0.8567  0.9618
 6185SOL     OW30013   3.450   1.901  17.592 -0.1299 -0.1071 -0.0813
 6185SOL    HW130014   3.456   1.869  17.502 -0.9456 -0.8744  0.1408
 6185SOL    HW230015   3.362   1.868  17.611 -0.9567  1.3365 -1.3253
 6186SOL     OW30016   1.836   2.343   8.395 -0.2531 -0.6420  0.1875
 6186SOL    HW130017   1.759   2.397   8.374  1.8638  2.3872  0.1656
 6186SOL    HW230018   1.898   2.402   8.438 -1.4157 -0.3420  1.4552
 6187SOL     OW30019   0.989   4.205  11.554 -0.2320 -0.2463 -0.0361
 6187SOL    HW130020   1.055   4.274  11.559 -0.9836  0.6539 -2.1932
 6187SOL    HW230021   1.016   4.157  11.475 -0.2603 -1.0071  0.4180
 6188SOL     OW30022   4.387   3.191   4.036  0.2625  0.5579  0.1520
 6188SOL    HW130023   4.414   3.178   3.945  0.8897 -0.2194  0.4472
 6188SOL    HW230024   4.440   3.269   4.054  0.4080  0.3405  0.6692
 6189SOL     OW30025   4.251   2.050   6.482  0.4582 -0.2035 -0.1174
 6189SOL    HW130026   4.336   2.069   6.522  1.1977 -2.7261 -0.5005
 6189SOL    HW230027   4.250   2.124   6.421 -4.9050 -1.3851 -1.4568
 6190SOL     OW30028   3.960   0.941   4.380 -0.1451  0.2617  0.1427
 6190SOL    HW130029   3.983   1.021   4.427  0.9983  0.0667 -0.0704
 6190SOL    HW230030   4.053   0.922   4.368 -0.2803  0.1948 -0.7751
 6191SOL     OW30031   3.701   2.890  11.471 -0.0859 -0.0254 -0.3219
 6191SOL    HW130032   3.639   2.959  11.494 -0.5049 -0.4703 -0.0846
 6191SOL    HW230033   3.668   2.810  11.514 -0.0051 -0.2855 -0.7454
 6192SOL     OW30034   0.896   0.893   8.258  0.0450 -0.1302 -0.2643
 6192SOL    HW130035   0.895   0.980   8.297 -1.4853  0.6267 -1.9785
 6192SOL    HW230036   0.954   0.915   8.185  2.3729 -0.4520  1.4807
 6193SOL     OW30037   1.442   4.395   0.891 -0.1198  0.2404  0.5569
 6193SOL    HW130038   1.505   4.352   0.833 -0.0294 -1.3978  1.8730
 6193SOL    HW230039   1.412   4.467   0.835 -3.4532 -0.1777  1.8436
 6194SOL     OW30040   3.886   4.405   7.314  0.2898 -0.1532 -0.4611
 6194SOL    HW130041   3.811   4.345   7.308  0.1323 -0.0249  0.1829
 6194SOL    HW230042   3.859   4.485   7.270  2.3234  0.4031 -0.6905
 6195SOL     OW30043   0.332   3.390   3.408 -0.0134 -0.3862 -0.1132
 6195SOL    HW130044   0.348   3.480   3.381 -1.4995 -0.7160 -2.1656
 6195SOL    HW230045   0.415   3.350   3.431  0.0042 -0.2521  0.0571
 6196SOL     OW30046   1.005   2.484   7.349  0.0725 -0.1810  0.1662
 6196SOL    HW130047   1.034   2.399   7.315 -1.6418 -1.0095  0.8063
 6196SOL    HW230048   0.945   2.513   7.280 -0.5429 -2.5851 -0.3211
 6197SOL     OW30049   1.659   2.282   0.914 -0.2175  0.4052 -0.0456
 6197SOL    HW130050   1.715   2.283   0.991 -0.4095  0.5108  0.0934
 6197SOL    HW230051   1.598   2.354   0.930  0.2049  0.4715  1.2114
 6198SOL     OW30052   1.394   1.924  13.037 -0.2357 -0.4894 -0.5078
 6198SOL    HW130053   1.320   1.966  13.082  0.4918  0.8714 -0.5842
 6198SOL    HW230054   1.390   1.938  12.942  0.2089  0.9426 -0.3105
 6199SOL     OW30055   2.554   1.693   3.012 -0.1182 -0.0541  0.4570
 6199SOL    HW130056   2.524   1.779   2.984 -0.5697 -0.3979 -0.1370
 6199SOL    HW230057   2.632   1.726   3.056  1.3613 -1.5534 -0.9875
 6200SOL     OW30058   3.584   2.909   6.534  0.0708  0.0786 -0.3114
 6200SOL    HW130059   3.609   2.928   6.624 -0.1661 -0.5573 -0.1150
 6200SOL    HW230060   3.666   2.918   6.486  1.0453 -1.4785  1.0875
 6201SOL     OW30061   0.804   3.852   8.516  0.4732 -0.2992 -0.2110
 6201SOL    HW130062   0.866   3.787   8.484  0.6125 -0.9109  1.3042
 6201SOL    HW230063   0.862   3.903   8.572  1.3776 -2.0270  0.4530
 6202SOL     OW30064   1.353   2.498   2.347  0.6338 -0.6838  0.1323
 6202SOL    HW130065   1.285   2.475   2.411  0.5566 -2.1510 -0.4792
 6202SOL    HW230066   1.426   2.446   2.380  0.7666 -0.5208  0.0947
 6203SOL     OW30067   0.077   4.065   3.974 -0.1102  0.1834  0.2097
 6203SOL    HW130068   0.163   4.106   3.979 -0.6070  1.1116  1.0383
 6203SOL    HW230069   0.096   3.990   4.032 -1.3059 -0.3277 -0.0605
 6204SOL     OW30070   2.610   2.919   9.006 -0.2155 -0.5503  0.3600
 6204SOL    HW130071   2.591   2.851   8.942  0.6133 -0.4589  0.0062
 6204SOL    HW230072   2.688   2.961   8.969 -0.2215  0.6083  1.6285
 6205SOL     OW30073   1.230   0.105   6.223 -0.7647  0.0350 -0.1355
 6205SOL    HW130074   1.306   0.118   6.166  0.5311 -2.3262  1.0737
 6205SOL    HW230075   1.176   0.049   6.168  0.0999  0.7153 -1.6781
 6206SOL     OW30076   2.190   2.710   0.078  0.4000 -0.5212 -0.2765
 6206SOL    HW130077   2.106   2.755   0.090  1.4336  0.6751  2.6206
 6206SOL    HW230078   2.197   2.642   0.144  0.1592  1.7251  2.0675
 6207SOL     OW30079   2.461   0.195   6.945 -0.1768 -0.3963  0.0543
 6207SOL    HW130080   2.378   0.149   6.936  0.3957 -1.3994 -0.0713
 6207SOL    HW230081   2.442   0.244   7.025 -0.7806 -0.7191  0.1035
 6208SOL     OW30082   3.765   2.394   8.557  0.1633  0.0619  0.0470
 6208SOL    HW130083   3.777   2.430   8.645 -0.4992 -1.2304  0.6618
 6208SOL    HW230084   3.760   2.472   8.502  0.3344 -0.5618 -0.8486
 6209SOL     OW30085   0.718   0.475   3.415 -0.3904  0.0212  0.4791
 6209SOL    HW130086   0.786   0.461   3.349 -2.6559 -0.1128 -1.8441
 6209SOL    HW230087   0.641   0.494   3.361  0.0522  1.2544  0.2789
 6210SOL     OW30088   1.824   0.123   4.977  0.1050 -0.2068 -0.0813
 6210SOL    HW130089   1.729   0.117   4.966 -0.2033  1.7282  1.6045
 6210SOL    HW230090   1.823   0.215   5.000  3.3266 -0.4734  1.1172
 6211SOL     OW30091   0.156   2.358  14.269 -0.8916  0.3232  0.3747
 6211SOL    HW130092   0.251   2.374  14.264 -0.1908 -3.3407  1.7400
 6211SOL    HW230093   0.117   2.431  14.221  0.0321  2.5390  2.9979
 6212SOL     OW30094   1.571   2.373   6.178 -0.4252  0.0447  0.5509
 6212SOL    HW130095   1.545   2.453   6.132  0.5181  0.5990  0.9765
 6212SOL    HW230096   1.664   2.361   6.159 -0.0187  1.5876  1.5580
 6213SOL     OW30097   0.368   4.703  12.643 -0.3953 -0.0432 -0.2824
 6213SOL    HW130098   0.422   4.708  12.564 -1.7470  3.1411 -1.0221
 6213SOL    HW230099   0.289   4.668  12.603  0.7209 -2.6600 -0.1849
 6214SOL     OW30100   0.994   0.124  16.787  0.4185 -0.7211 -0.4750
 6214SOL    HW130101   0.990   0.168  16.872  0.7700 -2.0765  0.2315
 6214SOL    HW230102   0.949   0.039  16.790 -1.4753  0.3539  1.8231
 6215SOL     OW30103   3.824   0.480  14.953 -0.9327 -0.3110  0.1347
 6215SOL    HW130104   3.913   0.450  14.938 -1.5471 -1.8495 -0.3739
 6215SOL    HW230105   3.830   0.479  15.049  0.2719 -2.5036  0.0403
 6216SOL     OW30106   0.559   1.287   2.381 -0.0676 -0.2907  0.2748
 6216SOL    HW130107   0.581   1.345   2.454  0.8674 -0.3748  0.0643
 6216SOL    HW230108   0.463   1.290   2.382 -0.0921 -1.2236  1.1304
 6217SOL     OW30109   4.619   3.378   3.286 -0.2688 -0.4421 -0.2891
 6217SOL    HW130110   4.670   3.381   3.367 -1.5155 -0.9641  0.5230
 6217SOL    HW230111   4.590   3.469   3.294  0.6892 -0.1785  0.0734
 6218SOL     OW30112   1.092   1.748   8.505  0.0137  0.0843 -0.2045
 6218SOL    HW130113   1.093   1.770   8.411 -0.2837  1.5077  0.1246
 6218SOL    HW230114   1.028   1.677   8.508  0.1476 -0.0444 -0.3793
 6219SOL     OW30115   1.576   1.777   8.569  0.0771  0.3702 -0.8028
 6219SOL    HW130116   1.601   1.685   8.574  1.1564  0.7063  0.0309
 6219SOL    HW230117   1.581   1.802   8.662 -1.3256 -1.0265 -0.3665
 6220SOL     OW30118   0.799   2.039   4.868 -0.0653 -0.2228 -0.2079
 6220SOL    HW130119   0.871   2.101   4.875 -1.4374  1.4609 -1.2769
 6220SOL    HW230120   0.829   1.976   4.935 -0.9387  1.4321  1.7419
 6221SOL     OW30121   0.521   3.130   4.202  0.6357  0.3700 -0.0835
 6221SOL    HW130122   0.580   3.201   4.229  0.5243  1.0838 -1.7218
 6221SOL    HW230123   0.455   3.149   4.268 -0.1762 -0.4320 -0.6660
 6222SOL     OW30124   4.451   0.234   0.347  0.1788 -0.1714  0.4633
 6222SOL    HW130125   4.462   0.253   0.254  0.5953 -0.9370  0.3616
 6222SOL    HW230126   4.524   0.282   0.387  0.2399 -0.2741  0.4758
 6223SOL     OW30127   1.215   0.165   0.088 -0.0452  1.1129  0.1023
 6223SOL    HW130128   1.293   0.110   0.075 -0.1185  1.3998 -1.5153
 6223SOL    HW230129   1.157   0.091   0.106 -0.0122  1.6099  2.3432
 6224SOL     OW30130   4.080   3.219   8.987  0.3813  0.2883  0.5726
 6224SOL    HW130131   3.999   3.167   8.985 -0.0796  0.8706  3.6488
 6224SOL    HW230132   4.130   3.176   8.919 -0.5420 -0.9459  0.6703
 6225SOL     OW30133   1.681   3.972   8.569  0.4874  0.3740 -0.3061
 6225SOL    HW130134   1.603   3.920   8.587 -0.7247  1.5992 -2.0467
 6225SOL    HW230135   1.663   4.054   8.615  0.8523  0.9060 -1.1074
 6226SOL     OW30136   4.446   3.284   8.544  0.4174 -0.3047 -0.1753
 6226SOL    HW130137   4.450   3.290   8.639  2.9353  0.0893 -0.3050
 6226SOL    HW230138   4.356   3.316   8.534 -0.5643 -2.3851  2.2297
 6227SOL     OW30139   2.633   3.416  12.613 -0.0577 -0.1299 -0.1478
 6227SOL    HW130140   2.543   3.385  12.625  0.5066 -1.7745 -0.2710
 6227SOL    HW230141   2.651   3.412  12.707  1.7047 -3.8916 -0.6680
 6228SOL     OW30142   2.455   2.496   5.988 -0.2519  0.3727  0.3382
 6228SOL    HW130143   2.540   2.487   5.945 -0.2309 -0.6613  0.5968
 6228SOL    HW230144   2.429   2.408   6.013  0.5663 -0.3499 -1.3798
 6229SOL     OW30145   4.611   1.533   7.146  0.4427  0.3755 -0.1447
 6229SOL    HW130146   4.617   1.617   7.190  0.6419  0.3942 -0.2083
 6229SOL    HW230147   4.568   1.555   7.063  0.1375 -1.6041 -0.5257
 6230SOL     OW30148   2.914   0.251  13.792  0.0133  0.3151 -0.4793
 6230SOL    HW130149   2.959   0.323  13.836 -0.0998  0.7301 -1.0574
 6230SOL    HW230150   2.906   0.188  13.864  4.2378  0.8587  0.5130
 6231SOL     OW30151   0.531   0.967   3.341  0.4693  0.0549 -0.7425
 6231SOL    HW130152   0.497   0.894   3.392 -0.7857  0.7240 -0.6168
 6231SOL    HW230153   0.606   0.931   3.293  1.8681  0.2608  1.3174
 6232SOL     OW30154   2.564   0.278  10.200 -0.0121 -0.2355  0.4994
 6232SOL    HW130155   2.615   0.314  10.272 -0.2965  1.1381  0.0096
 6232SOL    HW230156   2.601   0.191  10.186  1.0413  0.3079 -0.0209
 6233SOL     OW30157   1.381   0.810   6.593  0.0741 -1.1468 -0.0595
 6233SOL    HW130158   1.314   0.878   6.589  0.1182 -1.1280 -0.5238
 6233SOL    HW230159   1.388   0.799   6.687  1.9067  0.9862  0.0411
 6234SOL     OW30160   2.714   3.047  15.059 -0.1587 -0.1678 -0.4937
 6234SOL    HW130161   2.694   3.140  15.048  1.7580  0.1048 -1.6592
 6234SOL    HW230162   2.792   3.041  15.004 -0.1053 -1.3552 -0.2849
 6235SOL     OW30163   0.809   0.470   3.757 -0.4528 -0.2568  0.0263
 6235SOL    HW130164   0.840   0.485   3.846 -0.2661  2.9586 -0.5812
 6235SOL    HW230165   0.886   0.502   3.710 -0.1382  0.0711  0.7636
 6236SOL     OW30166   1.760   3.243  17.374  0.0271  0.2310 -0.3638
 6236SOL    HW130167   1.678   3.276  17.410  0.5920  1.5411 -0.2869
 6236SOL    HW230168   1.808   3.237  17.456 -1.1453  0.8263  0.3590
 6237SOL     OW30169   4.151   0.435  15.982  0.8363 -0.2119  0.0371
 6237SOL    HW130170   4.175   0.490  15.907 -2.1913 -2.5456 -2.6769
 6237SOL    HW230171   4.065   0.397  15.962  0.9082 -0.4098  0.0993
 6238SOL     OW30172   1.874   0.594   9.282  0.1436 -0.2589 -0.0997
 6238SOL    HW130173   1.797   0.645   9.255  0.8919  0.3432 -1.0950
 6238SOL    HW230174   1.931   0.614   9.208 -0.0180 -0.9545 -0.4133
 6239SOL     OW30175   2.924   0.437  10.844 -0.2081 -0.1178 -0.1507
 6239SOL    HW130176   2.914   0.344  10.823 -0.3067 -0.9204  3.4512
 6239SOL    HW230177   2.833   0.464  10.861 -0.4014 -1.3135  0.7260
 6240SOL     OW30178   0.804   3.558  17.402 -0.1317 -0.0597  0.8134
 6240SOL    HW130179   0.746   3.616  17.452  3.3472  3.4878  0.7689
 6240SOL    HW230180   0.862   3.628  17.372  1.2784 -0.2985  2.9146
 6241SOL     OW30181   3.005   3.853   4.608 -0.5097  0.0311 -0.3635
 6241SOL    HW130182   2.958   3.852   4.524  1.8420  0.1679 -1.6873
 6241SOL    HW230183   3.038   3.763   4.611 -1.5146 -0.3934 -2.0882
 6242SOL     OW30184   1.917   4.153  15.511 -0.3970  0.4202  0.2221
 6242SOL    HW130185   1.834   4.176  15.470 -0.4784 -0.3491 -0.0448
 6242SOL    HW230186   1.964   4.116  15.436  0.5866 -1.7942  1.9478
 6243SOL     OW30187   1.705   0.772   7.238  0.2601 -0.1421  0.0339
 6243SOL    HW130188   1.666   0.858   7.231  2.7100  1.0925  1.3144
 6243SOL    HW230189   1.782   0.777   7.182 -1.2236  0.0865 -1.9679
 6244SOL     OW30190   3.580   4.491   4.028 -0.3438 -0.5757 -0.2987
 6244SOL    HW130191   3.565   4.443   4.110 -2.0918  0.3211 -0.0854
 6244SOL    HW230192   3.635   4.427   3.983 -0.7148 -0.5007 -0.8485
 6245SOL     OW30193   2.126   1.292   4.758  0.3273 -0.1341 -0.0861
 6245SOL    HW130194   2.124   1.200   4.731  1.6388  0.5398 -2.4479
 6245SOL    HW230195   2.169   1.332   4.683  0.0059  2.6394  1.2261
 6246SOL     OW30196   3.330   3.376   3.484  0.0844 -0.3858 -0.0626
 6246SOL    HW130197   3.309   3.285   3.502 -0.2894 -0.1955  0.4481
 6246SOL    HW230198   3.375   3.372   3.400  0.7957  1.6799  0.2003
 6247SOL     OW30199   2.379   4.505   3.937 -0.4061  0.1132 -0.4491
 6247SOL    HW130200   2.346   4.441   3.874 -0.0313  1.4683 -1.9961
 6247SOL    HW230201   2.384   4.450   4.015 -0.3451 -0.2069 -0.6789
 6248SOL     OW30202   4.664   4.649   0.798 -0.1603  0.4084  0.4613
 6248SOL    HW130203   0.034   4.637   0.791 -0.0557  0.5276  1.8062
 6248SOL    HW230204   4.665   4.678   0.889 -1.2638 -0.0305  0.6113
 6249SOL     OW30205   3.833   0.565  17.248 -0.0294  0.1291 -0.2185
 6249SOL    HW130206   3.747   0.588  17.285  0.4671  2.4070 -0.4520
 6249SOL    HW230207   3.888   0.643  17.252 -1.1667  0.9441 -0.2045
 6250SOL     OW30208   3.429   2.794   3.401 -0.0070 -0.5087  0.1145
 6250SOL    HW130209   3.370   2.822   3.332 -1.2132 -0.1301  1.2941
 6250SOL    HW230210   3.373   2.790   3.478  0.7313 -0.5026  0.6552
 6251SOL     OW30211   4.539   3.807   2.247 -0.1466 -0.0646  0.2046
 6251SOL    HW130212   4.588   3.730   2.274  0.0086 -0.0847 -0.1445
 6251SOL    HW230213   4.491   3.772   2.172  1.4446 -1.6860 -0.0533
 6252SOL     OW30214   2.271   4.086   8.925  0.2676  0.2245  0.6542
 6252SOL    HW130215   2.347   4.049   8.970 -0.8946 -1.4543  1.2116
 6252SOL    HW230216   2.304   4.135   8.849 -0.4964 -2.3142 -1.2969
 6253SOL     OW30217   2.541   2.960  11.676  0.7893 -0.3732  0.2778
 6253SOL    HW130218   2.495   2.879  11.697 -0.0618  0.0199 -0.0719
 6253SOL    HW230219   2.475   3.029  11.686  1.5919  0.3728  0.3484
 6254SOL     OW30220   3.407   3.336   1.913  0.1034  0.0571 -1.0756
 6254SOL    HW130221   3.433   3.294   1.995 -2.1493 -1.7595 -1.3047
 6254SOL    HW230222   3.438   3.426   1.928  1.0753 -0.2236 -1.3877
 6255SOL     OW30223   0.995   0.741  15.599  0.7788  0.0025  0.1095
 6255SOL    HW130224   1.023   0.671  15.539  3.6063 -1.9708  3.7537
 6255SOL    HW230225   0.957   0.806  15.539 -0.1875 -0.2728  0.4211
 6256SOL     OW30226   1.238   0.553  16.701  0.3634  0.2528 -0.2254
 6256SOL    HW130227   1.279   0.487  16.757  3.1138  1.3570 -0.9086
 6256SOL    HW230228   1.154   0.508  16.696  1.1521 -0.9872 -2.4218
 6257SOL     OW30229   2.439   0.852   5.894  0.3849  0.2953 -0.2996
 6257SOL    HW130230   2.456   0.944   5.872 -1.1900  0.8359  0.7193
 6257SOL    HW230231   2.424   0.814   5.808  2.3761  0.6170 -0.7804
 6258SOL     OW30232   2.338   4.593   2.254 -0.5047  0.4515  0.2879
 6258SOL    HW130233   2.388   4.629   2.328 -1.7121  0.2605  1.1884
 6258SOL    HW230234   2.393   4.518   2.230 -1.5794 -0.4633  0.6978
 6259SOL     OW30235   2.164   1.371  17.699 -0.2938 -0.4663  0.3816
 6259SOL    HW130236   2.197   1.326   0.077  2.4504  1.2130  0.1820
 6259SOL    HW230237   2.251   1.401  17.672  0.2583 -0.1542  2.5602
 6260SOL     OW30238   1.010   2.781   2.783 -0.2759 -0.1457 -0.3565
 6260SOL    HW130239   1.060   2.747   2.858  0.2233 -2.4706 -1.7700
 6260SOL    HW230240   1.065   2.760   2.708  0.9532  0.1733  0.4424
 6261SOL     OW30241   2.811   3.698  14.622  0.0709 -0.0624 -0.1285
 6261SOL    HW130242   2.723   3.703  14.660 -0.5163 -1.5162 -1.3062
 6261SOL    HW230243   2.859   3.702  14.704  2.2932  2.5909 -1.5485
 6262SOL     OW30244   3.268   3.774  16.757  0.2853  0.2099 -0.1006
 6262SOL    HW130245   3.360   3.785  16.779  0.1565  0.0144  0.5313
 6262SOL    HW230246   3.279   3.706  16.691  3.6150  1.1937 -0.5310
 6263SOL     OW30247   3.125   0.047   7.904  0.3342 -0.0382 -0.0824
 6263SOL    HW130248   3.218   0.066   7.891  0.5428 -0.2166  1.1688
 6263SOL    HW230249   3.144   4.696   7.961  0.4314 -1.4794 -2.0158
 6264SOL     OW30250   3.663   0.326   8.640  0.3153 -0.2972  0.6448
 6264SOL    HW130251   3.716   0.293   8.714  0.7098 -1.4402 -0.1457
 6264SOL    HW230252   3.696   0.416   8.649  0.1463 -0.1365 -0.4372
 6265SOL     OW30253   1.495   2.426   9.138 -0.2181  0.2656 -0.4094
 6265SOL    HW130254   1.553   2.434   9.214  0.6293 -0.6571 -0.9615
 6265SOL    HW230255   1.529   2.351   9.089  0.8499 -0.5734  1.6042
 6266SOL     OW30256   0.313   3.324   2.374  0.7593  0.7557  0.0960
 6266SOL    HW130257   0.361   3.402   2.404  1.3059  0.5994 -0.3616
 6266SOL    HW230258   0.290   3.275   2.453  0.5680 -1.0751 -1.1048
 6267SOL     OW30259   0.184   4.488   7.535  0.0854  0.0367  0.0115
 6267SOL    HW130260   0.265   4.536   7.553 -0.4255  0.5354  0.9530
 6267SOL    HW230261   0.211   4.398   7.519  0.2955  0.7078 -3.4864
 6268SOL     OW30262   4.283   0.213  10.826  0.0896 -0.6069 -0.1768
 6268SOL    HW130263   4.229   0.292  10.821  0.2999 -0.4068  0.7961
 6268SOL    HW230264   4.370   0.250  10.811 -0.3623  0.0260 -1.3031
 6269SOL     OW30265   0.093   3.333  15.128  0.5747 -0.7202 -0.5992
 6269SOL    HW130266   0.020   3.277  15.102 -0.5312 -0.2506  1.4912
 6269SOL    HW230267   0.059   3.379  15.205 -0.6558 -0.9461 -1.0193
 6270SOL     OW30268   3.040   4.167   2.299 -0.0378 -0.5162 -0.3054
 6270SOL    HW130269   3.001   4.169   2.212  2.8646 -3.7193 -1.7171
 6270SOL    HW230270   3.095   4.089   2.291  3.8651  1.9774  2.1040
 6271SOL     OW30271   0.787   0.804   8.532  0.0520  0.1341 -0.5476
 6271SOL    HW130272   0.825   0.835   8.449 -0.3438  1.4692 -0.2213
 6271SOL    HW230273   0.837   0.848   8.601 -2.6261 -0.8330  1.9941
 6272SOL     OW30274   3.890   0.219   6.718  0.2871  0.2947  0.4963
 6272SOL    HW130275   3.944   0.176   6.651  1.7680  0.6175  1.4775
 6272SOL    HW230276   3.810   0.230   6.667  0.2886  1.4458  0.7626
 6273SOL     OW30277   0.711   2.785  15.530 -0.4180 -0.1540  0.2914
 6273SOL    HW130278   0.619   2.798  15.554 -0.1978  1.0332  0.4857
 6273SOL    HW230279   0.740   2.872  15.503  1.3951 -0.9789 -0.4071
 6274SOL     OW30280   2.229   4.055   5.603 -0.4325 -0.4444  0.2757
 6274SOL    HW130281   2.305   4.089   5.556 -1.5300  0.4230 -0.8711
 6274SOL    HW230282   2.221   4.116   5.676 -0.3720 -0.0632 -0.0385
 6275SOL     OW30283   0.507   2.790   9.934  0.0296 -0.2597 -0.0624
 6275SOL    HW130284   0.474   2.810   9.846  1.7662 -3.6737 -1.5012
 6275SOL    HW230285   0.602   2.807   9.937  0.1218 -0.8162  0.0746
 6276SOL     OW30286   4.291   4.408   6.374  0.0646 -0.4150  0.7853
 6276SOL    HW130287   4.380   4.386   6.349 -0.4906 -1.1288 -0.5715
 6276SOL    HW230288   4.284   4.358   6.456  0.4876 -2.3726 -0.3745
 6277SOL     OW30289   0.455   0.291   8.084 -0.2290 -0.4944  0.8018
 6277SOL    HW130290   0.520   0.262   8.019  0.0401 -0.9117  1.2574
 6277SOL    HW230291   0.370   0.274   8.044 -0.3305  1.4514  0.1984
 6278SOL     OW30292   3.484   0.735   8.599  0.0291 -0.1515 -0.3492
 6278SOL    HW130293   3.573   0.743   8.632  0.2990  0.2840 -1.1722
 6278SOL    HW230294   3.507   0.709   8.509  3.2288  0.9719  0.1290
 6279SOL     OW30295   1.165   0.590   5.160  0.2180 -0.4420 -0.1988
 6279SOL    HW130296   1.154   0.651   5.233 -0.3406 -0.9502  0.1359
 6279SOL    HW230297   1.202   0.647   5.093 -0.1993  0.0444 -0.0088
 6280SOL     OW30298   1.673   1.864   3.435  0.4532  0.1483  0.0816
 6280SOL    HW130299   1.649   1.931   3.372 -1.2407 -0.5605 -0.0274
 6280SOL    HW230300   1.708   1.932   3.493  0.6840  0.7351 -0.7429
 6281SOL     OW30301   2.235   3.639  16.376 -0.4811 -0.0140  0.4203
 6281SOL    HW130302   2.307   3.702  16.384  0.6171 -1.0342 -1.5352
 6281SOL    HW230303   2.263   3.594  16.297 -3.6893  0.9226 -1.2287
 6282SOL     OW30304   4.598   2.843  11.189  0.1601  0.1241 -0.2825
 6282SOL    HW130305   4.616   2.925  11.141  2.6881 -0.5088 -0.4484
 6282SOL    HW230306   4.675   2.847  11.246 -0.6510  0.1928  0.7912
 6283SOL     OW30307   2.894   2.244   2.280 -0.9130  0.0776  0.0646
 6283SOL    HW130308   2.944   2.308   2.230 -1.3407  0.8270  0.5958
 6283SOL    HW230309   2.812   2.289   2.300 -0.7321  0.6945 -0.6183
 6284SOL     OW30310   1.499   0.299   9.232 -0.3446 -0.5944 -0.3771
 6284SOL    HW130311   1.513   0.393   9.245  0.6755 -0.8760  0.6233
 6284SOL    HW230312   1.406   0.292   9.252 -0.4912 -0.6120 -1.0662
 6285SOL     OW30313   0.790   2.988  14.408  0.0179 -0.3275  0.4001
 6285SOL    HW130314   0.802   2.962  14.499 -0.4314 -1.4163  0.1436
 6285SOL    HW230315   0.873   3.031  14.387  0.6406 -1.5360  0.4155
 6286SOL     OW30316   4.334   2.703   3.915  0.3945 -0.0570 -0.2186
 6286SOL    HW130317   4.291   2.706   3.830 -0.2453 -1.1537  0.0564
 6286SOL    HW230318   4.421   2.687   3.879 -0.5147 -0.0377 -2.4093
 6287SOL     OW30319   1.788   2.415   9.069  0.3888  0.1147  0.0526
 6287SOL    HW130320   1.833   2.425   9.153 -0.2314 -1.4769  0.5821
 6287SOL    HW230321   1.799   2.502   9.031  0.4009  0.3370  0.5680
 6288SOL     OW30322   0.331   0.428   0.795 -0.3404  0.5407  0.0986
 6288SOL    HW130323   0.369   0.508   0.757 -0.5281  0.6062  0.0497
 6288SOL    HW230324   0.380   0.430   0.877 -1.7228 -2.2006  0.9808
 6289SOL     OW30325   4.588   1.607   4.557  0.5635  0.4893 -0.0567
 6289SOL    HW130326   4.662   1.655   4.594  0.4493  0.4886  0.1770
 6289SOL    HW230327   4.530   1.601   4.633  1.2879 -0.9573  0.3876
 6290SOL     OW30328   2.456   2.776   1.875  0.6317 -0.0928  0.1030
 6290SOL    HW130329   2.433   2.758   1.783  0.3752  0.0217  0.1444
 6290SOL    HW230330   2.465   2.692   1.919  0.4986  0.0780  0.4521
 6291SOL     OW30331   2.192   2.695   8.517 -0.4541  0.7107  0.0610
 6291SOL    HW130332   2.157   2.767   8.465 -0.1130  0.8810  0.0727
 6291SOL    HW230333   2.284   2.714   8.500 -0.5994 -0.9636 -2.6060
 6292SOL     OW30334   2.551   3.068   1.282 -0.9535 -0.4235 -0.4175
 6292SOL    HW130335   2.559   3.120   1.202 -1.1616  0.8639  0.3854
 6292SOL    HW230336   2.456   3.069   1.296 -0.8260  2.1305  0.2728
 6293SOL     OW30337   2.735   1.122   8.385 -0.5856  0.3563  0.4655
 6293SOL    HW130338   2.656   1.078   8.355  0.3518 -1.2494  0.3810
 6293SOL    HW230339   2.694   1.189   8.440 -0.6721  2.6434 -2.3869
 6294SOL     OW30340   2.574   4.044   8.610  0.1179 -0.4012  0.0300
 6294SOL    HW130341   2.525   3.968   8.638  0.5477 -0.3884  0.8173
 6294SOL    HW230342   2.515   4.119   8.607  1.9767  1.1395  1.3377
 6295SOL     OW30343   1.063   0.945  12.181 -0.7878  0.8054  0.2570
 6295SOL    HW130344   1.105   0.961  12.265 -0.2023  0.3048  0.0580
 6295SOL    HW230345   1.040   1.032  12.148 -0.4619  0.3190 -1.2915
 6296SOL     OW30346   1.646   0.682   8.711 -0.3021 -0.1451 -0.0028
 6296SOL    HW130347   1.707   0.615   8.742 -1.7160 -0.5163  1.9686
 6296SOL    HW230348   1.657   0.669   8.617 -1.2319 -0.9770  0.0033
 6297SOL     OW30349   3.345   4.315   8.068 -0.4666  0.1445  0.0666
 6297SOL    HW130350   3.354   4.293   8.160 -0.9902 -1.3391 -0.2313
 6297SOL    HW230351   3.266   4.263   8.050  0.1468 -0.6009 -0.4897
 6298SOL     OW30352   3.840   2.351  13.683  0.1090  0.0150  0.0593
 6298SOL    HW130353   3.877   2.270  13.649  0.1627 -0.2309  0.7082
 6298SOL    HW230354   3.895   2.365  13.760  0.2912  1.0179 -0.2450
 6299SOL     OW30355   1.278   1.247   6.443 -0.1298  0.1009 -0.5383
 6299SOL    HW130356   1.323   1.163   6.434 -2.1560 -0.9738 -0.6708
 6299SOL    HW230357   1.310   1.286   6.361 -0.4495  0.8612 -0.2957
 6300SOL     OW30358   4.316   3.088   0.373 -0.2344 -0.4698 -0.9776
 6300SOL    HW130359   4.374   3.098   0.449 -0.0592 -1.1605 -1.0257
 6300SOL    HW230360   4.372   3.069   0.298  1.3626 -1.0400  0.3623
 6301SOL     OW30361   3.586   3.902  15.953  0.4640  0.0738 -0.0416
 6301SOL    HW130362   3.565   3.966  16.021 -1.2717  0.2931 -0.7897
 6301SOL    HW230363   3.629   3.841  16.012 -0.0390 -0.2120  0.0336
 6302SOL     OW30364   0.564   3.346   3.907  0.2769  0.1517 -0.0461
 6302SOL    HW130365   0.644   3.356   3.959 -1.2203  1.7749  1.9290
 6302SOL    HW230366   0.605   3.325   3.823 -1.6925 -1.7886 -0.5199
 6303SOL     OW30367   1.574   2.969   4.065 -0.0683  0.8627  0.1770
 6303SOL    HW130368   1.639   2.899   4.061 -0.1952  0.7074  0.9922
 6303SOL    HW230369   1.524   2.933   3.991  0.5913  1.6008 -0.6153
 6304SOL     OW30370   2.210   1.454  13.301  0.4658  0.2939 -0.1306
 6304SOL    HW130371   2.174   1.379  13.349  0.3474 -0.0197 -0.7155
 6304SOL    HW230372   2.175   1.525  13.355  1.4586  0.1267  0.7230
 6305SOL     OW30373   3.541   0.941   8.014  0.4416  0.0855  0.0320
 6305SOL    HW130374   3.558   0.988   8.096  0.5886  0.8957 -0.4594
 6305SOL    HW230375   3.501   0.861   8.049 -0.8193  0.6496 -0.1347
 6306SOL     OW30376   1.516   4.067   6.833  0.0812  0.0404 -1.0339
 6306SOL    HW130377   1.472   4.057   6.749  0.9678 -2.1793 -1.2373
 6306SOL    HW230378   1.569   4.144   6.812  2.0088 -0.8622  0.4687
 6307SOL     OW30379   2.678   1.290   8.862 -0.0871 -0.2347 -0.4371
 6307SOL    HW130380   2.755   1.311   8.915  0.1727 -2.2811 -0.0229
 6307SOL    HW230381   2.609   1.326   8.918  1.6317  1.1371  0.8121
 6308SOL     OW30382   2.336   4.105   1.182 -0.0259 -0.0498 -0.2785
 6308SOL    HW130383   2.363   4.197   1.186  1.7877 -0.6193  0.2413
 6308SOL    HW230384   2.356   4.063   1.266  0.1276  1.6040  0.5233
 6309SOL     OW30385   2.474   4.331   4.186  0.1391 -0.0121  0.1740
 6309SOL    HW130386   2.403   4.335   4.251  0.6500 -1.1067  0.7945
 6309SOL    HW230387   2.555   4.347   4.234 -0.5195  0.7475  1.0411
 6310SOL     OW30388   3.710   1.397   2.381  0.2299  0.4984 -0.9434
 6310SOL    HW130389   3.637   1.363   2.330  0.3714  1.3554 -1.7057
 6310SOL    HW230390   3.729   1.324   2.440 -0.9637 -0.5119 -1.8094
 6311SOL     OW30391   0.106   2.569  17.272 -0.4526  0.8038  0.1819
 6311SOL    HW130392   0.078   2.596  17.359  0.4180  0.7329  0.4919
 6311SOL    HW230393   0.111   2.656  17.232  2.7587  0.9984  0.9799
 6312SOL     OW30394   4.146   4.719  14.304  0.0637  0.1537  0.5487
 6312SOL    HW130395   4.201   4.684  14.234  0.3541 -0.7193  1.2246
 6312SOL    HW230396   4.069   0.041  14.270 -0.2589 -0.8869 -0.1272
 6313SOL     OW30397   3.863   4.473  15.232 -0.4747 -0.0207  0.0618
 6313SOL    HW130398   3.945   4.440  15.268 -2.3591 -0.5995  3.8862
 6313SOL    HW230399   3.792   4.424  15.275  0.7326 -2.6557 -0.9382
 6314SOL     OW30400   3.370   2.871   7.853 -0.1857  0.5965  0.4135
 6314SOL    HW130401   3.423   2.801   7.892 -1.3490 -0.1224  0.6841
 6314SOL    HW230402   3.292   2.823   7.826 -0.3666  1.2826 -0.2728
 6315SOL     OW30403   2.153   4.324   3.029  0.4325 -0.1933 -0.3134
 6315SOL    HW130404   2.213   4.328   2.955  0.6682  2.9222  0.0697
 6315SOL    HW230405   2.083   4.265   3.002  1.0422 -0.7408 -0.6982
 6316SOL     OW30406   1.960   1.917   1.375  0.5670 -0.6133 -0.2978
 6316SOL    HW130407   2.007   1.923   1.458 -1.2601 -3.0099  0.9058
 6316SOL    HW230408   1.995   1.840   1.330  0.6058 -0.7681 -0.0011
 6317SOL     OW30409   3.142   3.119   4.687 -0.1436  0.1387  0.4308
 6317SOL    HW130410   3.085   3.110   4.610 -0.4858  1.1448  0.5635
 6317SOL    HW230411   3.219   3.078   4.648 -0.7831  0.0570 -0.7496
 6318SOL     OW30412   4.460   4.096  12.362  0.1784 -0.0789  0.1608
 6318SOL    HW130413   4.437   4.123  12.451 -2.8076  2.5954 -1.4057
 6318SOL    HW230414   4.394   4.154  12.324  0.9602 -1.3170 -3.1127
 6319SOL     OW30415   2.725   2.766   4.484 -0.1695 -0.2471  0.2964
 6319SOL    HW130416   2.750   2.840   4.539  0.0863 -0.2718  0.2118
 6319SOL    HW230417   2.733   2.691   4.543  0.9776  0.2636  0.7852
 6320SOL     OW30418   4.429   0.158   4.226  0.3199 -0.4849  0.0681
 6320SOL    HW130419   4.463   0.147   4.138  2.4169  1.3702  0.6360
 6320SOL    HW230420   4.418   0.253   4.230 -2.6344 -0.8043 -0.0043
 6321SOL     OW30421   3.601   4.703   3.857 -0.4059  0.0540  0.0596
 6321SOL    HW130422   3.514   0.014   3.839  1.3873  4.0885 -0.8147
 6321SOL    HW230423   3.586   4.640   3.928  0.3459  0.0555  0.2163
 6322SOL     OW30424   2.799   2.508  10.616 -0.5705 -0.2386  0.6286
 6322SOL    HW130425   2.754   2.486  10.535 -1.1010 -0.3546  0.9542
 6322SOL    HW230426   2.802   2.420  10.653 -2.5323 -0.0374  1.2682
 6323SOL     OW30427   0.115   2.505   9.101  0.6128  0.3350 -0.0976
 6323SOL    HW130428   0.022   2.512   9.079  0.6580  0.5184 -0.2312
 6323SOL    HW230429   0.119   2.438   9.169  0.9023  0.2104 -0.2418
 6324SOL     OW30430   2.164   2.934   5.785  0.7117  0.0184 -0.1750
 6324SOL    HW130431   2.110   2.954   5.708 -2.5008 -2.3084  1.4561
 6324SOL    HW230432   2.213   2.855   5.767  2.3321  1.0317 -0.1702
 6325SOL     OW30433   2.929   0.717  14.268 -0.4926  0.0577 -0.4120
 6325SOL    HW130434   2.867   0.693  14.200 -1.5646  1.1614  0.1742
 6325SOL    HW230435   3.008   0.714  14.214 -0.1236  0.9536  0.0638
 6326SOL     OW30436   2.991   0.805   5.765 -0.2945 -0.3710 -0.4773
 6326SOL    HW130437   3.075   0.813   5.810 -0.6493 -1.4391  0.3787
 6326SOL    HW230438   3.022   0.804   5.674  3.4108  0.5851  0.7719
 6327SOL     OW30439   2.417   2.382   6.908  0.0965  0.1186  0.4598
 6327SOL    HW130440   2.407   2.430   6.990 -0.8934  0.9351 -0.1465
 6327SOL    HW230441   2.333   2.403   6.868  0.3428  0.2755  0.0219
 6328SOL     OW30442   2.556   3.387  10.858 -0.2498  0.4608 -0.2404
 6328SOL    HW130443   2.553   3.369  10.952  2.9510 -0.0961 -0.2349
 6328SOL    HW230444   2.604   3.470  10.866 -1.6883  1.2622  0.0001
 6329SOL     OW30445   4.504   0.669  17.260 -0.6126 -0.6555 -0.2251
 6329SOL    HW130446   4.597   0.645  17.255 -0.2199  0.8768 -0.4033
 6329SOL    HW230447   4.495   0.731  17.333  2.5570 -0.4322 -0.0256
 6330SOL     OW30448   1.239   2.625   9.522 -0.5268 -0.1861  0.2745
 6330SOL    HW130449   1.175   2.602   9.455 -0.4901  0.1837  0.1118
 6330SOL    HW230450   1.187   2.683   9.577  2.8340  0.2016  3.0531
 6331SOL     OW30451   0.623   0.292   3.616 -1.0570  0.8413 -0.4780
 6331SOL    HW130452   0.618   0.354   3.543  1.9866  0.2491 -1.1816
 6331SOL    HW230453   0.685   0.341   3.670 -0.5255  1.2286 -1.4384
 6332SOL     OW30454   1.999   1.912   8.768 -0.2743  0.2034  0.4469
 6332SOL    HW130455   2.012   2.007   8.761  1.2758 -0.2083 -2.7435
 6332SOL    HW230456   1.999   1.895   8.862  0.4497 -1.0726  0.2157
 6333SOL     OW30457   2.419   0.734  12.512 -0.5405 -0.4978 -0.3805
 6333SOL    HW130458   2.382   0.754  12.598  0.8164  1.7652 -0.3414
 6333SOL    HW230459   2.507   0.706  12.535 -0.8546 -0.2717  1.1168
 6334SOL     OW30460   2.737   2.580   8.065  0.6330 -0.0370 -0.5300
 6334SOL    HW130461   2.816   2.546   8.105 -0.4098 -1.5329  0.2624
 6334SOL    HW230462   2.706   2.646   8.127  2.3707  0.2403  0.0301
 6335SOL     OW30463   0.977   3.170   7.198 -0.0087  0.2285  0.2514
 6335SOL    HW130464   0.972   3.102   7.265  3.0970 -1.8902 -1.6757
 6335SOL    HW230465   1.073   3.174   7.192  0.0627 -0.5384  0.9005
 6336SOL     OW30466   1.869   3.267   3.852 -0.2040  0.3608 -0.3291
 6336SOL    HW130467   1.946   3.227   3.811  1.1238  1.6189  0.8939
 6336SOL    HW230468   1.827   3.315   3.781 -0.1814 -1.8718 -1.8331
 6337SOL     OW30469   1.606   2.563   8.543 -0.3885 -1.1073 -0.0949
 6337SOL    HW130470   1.585   2.566   8.449 -0.1062 -2.7274 -0.2249
 6337SOL    HW230471   1.518   2.563   8.580 -0.5881 -0.2641 -0.5816
 6338SOL     OW30472   1.053   2.296   8.244 -0.0790 -0.2748  0.2327
 6338SOL    HW130473   0.994   2.227   8.273  1.4729 -2.4223 -1.6963
 6338SOL    HW230474   1.087   2.333   8.325  0.4178  2.3365 -1.1616
 6339SOL     OW30475   2.578   1.237   0.055  0.5765  0.4717 -0.3319
 6339SOL    HW130476   2.662   1.203   0.024  0.9392  0.8639  0.2195
 6339SOL    HW230477   2.528   1.162   0.088 -0.4369  0.0059 -2.8610
 6340SOL     OW30478   1.576   4.201   1.769  0.1651  0.7001  0.6182
 6340SOL    HW130479   1.662   4.237   1.750 -1.2669  3.7251 -0.0372
 6340SOL    HW230480   1.600   4.143   1.841  3.2179  2.0822  0.6901
 6341SOL     OW30481   1.104   0.335   4.476  0.4762 -0.3759 -0.6582
 6341SOL    HW130482   1.137   0.377   4.555  0.8544  0.1116 -1.0741
 6341SOL    HW230483   1.028   0.290   4.513  0.6096  0.3643  0.4934
 6342SOL     OW30484   3.974   3.919   1.040  0.5202 -0.0406 -0.0566
 6342SOL    HW130485   3.967   3.900   0.946 -2.0238  0.4098  0.0561
 6342SOL    HW230486   4.046   3.983   1.043 -1.1528  1.7179  2.8796
 6343SOL     OW30487   2.016   2.429   5.432  0.3981  0.3697 -0.0114
 6343SOL    HW130488   2.090   2.484   5.456  0.7839 -0.0837 -0.1732
 6343SOL    HW230489   2.053   2.342   5.441  1.1302  0.7307  0.4288
 6344SOL     OW30490   4.320   3.947  10.795  0.3529 -0.5930  0.6224
 6344SOL    HW130491   4.348   4.030  10.833  0.2149  0.8534 -2.4797
 6344SOL    HW230492   4.237   3.965  10.750  1.3073  2.4785  0.0982
 6345SOL     OW30493   2.692   3.118   7.011 -0.7985 -0.2296  0.1163
 6345SOL    HW130494   2.610   3.095   6.969 -1.2628 -2.2250  2.0906
 6345SOL    HW230495   2.753   3.076   6.950 -0.7333 -0.9853  0.7007
 6346SOL     OW30496   2.753   1.987   7.933 -0.1072  0.1489  0.0215
 6346SOL    HW130497   2.711   2.056   7.983 -2.4356 -0.6497 -0.8445
 6346SOL    HW230498   2.793   2.042   7.866  1.0049  0.2991  0.7992
 6347SOL     OW30499   4.447   0.049   6.194  0.0811  0.2328  0.1436
 6347SOL    HW130500   4.536   0.021   6.170  0.2382  0.8051  0.0453
 6347SOL    HW230501   4.447   0.040   6.289 -0.1126  1.3325  0.2509
 6348SOL     OW30502   1.606   3.548   2.519  0.3040  0.4726  0.3740
 6348SOL    HW130503   1.613   3.627   2.465 -0.4136  1.9360  2.3783
 6348SOL    HW230504   1.571   3.485   2.456  0.1867  1.5032 -0.5906
 6349SOL     OW30505   0.452   3.268   4.912 -0.6101  0.6239 -0.3256
 6349SOL    HW130506   0.363   3.295   4.889 -0.5818 -2.4487 -4.1339
 6349SOL    HW230507   0.486   3.356   4.928 -1.4052  0.7907  0.4094
 6350SOL     OW30508   4.399   0.666   9.412 -0.6886  0.4431  0.0408
 6350SOL    HW130509   4.387   0.592   9.472 -0.7164  1.0110  0.7378
 6350SOL    HW230510   4.319   0.651   9.361 -0.4327 -2.6466  0.5293
 6351SOL     OW30511   0.839   2.168   0.211 -0.3335  0.3498 -0.1227
 6351SOL    HW130512   0.767   2.217   0.170 -0.1148 -0.1044 -1.0615
 6351SOL    HW230513   0.786   2.101   0.255 -0.2226 -0.3767 -1.0936
 6352SOL     OW30514   0.599   4.627  15.703 -0.8564  0.1286  0.5141
 6352SOL    HW130515   0.569   4.564  15.636  2.5352  1.7279 -2.5133
 6352SOL    HW230516   0.690   4.637  15.677 -0.1680 -3.5695  1.4403
 6353SOL     OW30517   0.269   0.723   1.730 -0.1697  0.1487 -0.3805
 6353SOL    HW130518   0.323   0.646   1.746 -1.2275 -0.4415  0.2562
 6353SOL    HW230519   0.259   0.751   1.820 -0.6282 -0.0150 -0.3808
 6354SOL     OW30520   1.440   4.710   0.280 -0.0214  0.3018 -0.2909
 6354SOL    HW130521   1.499   4.635   0.275  0.5490  0.7538 -0.2639
 6354SOL    HW230522   1.419   4.723   0.187 -0.1079 -2.7828 -0.7249
 6355SOL     OW30523   1.721   0.394   5.752  0.4008  0.1169  0.4656
 6355SOL    HW130524   1.704   0.415   5.661 -0.6735  1.2198  0.9165
 6355SOL    HW230525   1.807   0.355   5.738  0.1689  0.1459 -0.9981
 6356SOL     OW30526   0.308   4.079   8.411  0.0858 -0.0777  0.3429
 6356SOL    HW130527   0.317   4.095   8.317  0.6378  2.2766  0.8013
 6356SOL    HW230528   0.216   4.051   8.410 -0.0470  0.3803 -0.7078
 6357SOL     OW30529   0.654   1.053   6.028  0.0837 -0.1733 -0.2231
 6357SOL    HW130530   0.565   1.082   6.006 -0.7284 -1.6070  1.2035
 6357SOL    HW230531   0.686   1.113   6.095 -0.2383 -0.7179  0.4232
 6358SOL     OW30532   2.929   1.433   4.779 -0.1976 -0.0498  0.1105
 6358SOL    HW130533   2.850   1.443   4.831  1.1297  0.7602  1.9768
 6358SOL    HW230534   2.935   1.339   4.761 -0.5344 -0.1390  0.4859
 6359SOL     OW30535   0.624   3.060   3.957  0.5263 -0.3441 -0.0209
 6359SOL    HW130536   0.600   3.100   4.040  1.4680  1.3248 -0.5576
 6359SOL    HW230537   0.637   3.139   3.904  1.0274 -0.6601 -0.3644
 6360SOL     OW30538   2.713   0.719   2.183 -0.2653 -0.4681  0.3896
 6360SOL    HW130539   2.804   0.705   2.209 -0.8692 -3.4301  0.9275
 6360SOL    HW230540   2.685   0.788   2.243 -0.1788  0.5719 -0.7590
 6361SOL     OW30541   3.747   2.406   7.681 -0.0345  0.1761  0.0129
 6361SOL    HW130542   3.680   2.356   7.727 -0.3558  1.5276  1.0010
 6361SOL    HW230543   3.823   2.406   7.739 -0.6000  0.4783  0.7451
 6362SOL     OW30544   1.954   1.619   4.390  0.1098  0.0031  0.1952
 6362SOL    HW130545   1.858   1.623   4.396  0.0032 -0.8892 -0.8899
 6362SOL    HW230546   1.975   1.554   4.457  0.1261  1.3632  1.5014
 6363SOL     OW30547   0.180   2.532   7.807  0.1669 -0.0585  0.2916
 6363SOL    HW130548   0.102   2.532   7.751  0.8680 -1.7806 -0.7022
 6363SOL    HW230549   0.249   2.503   7.747  0.2543  0.7614 -0.0026
 6364SOL     OW30550   3.938   3.272   7.323 -0.0557  0.2931  0.4962
 6364SOL    HW130551   3.934   3.180   7.299  0.1533  0.3665  0.1874
 6364SOL    HW230552   3.848   3.293   7.296 -0.0789 -1.3710 -0.7504
 6365SOL     OW30553   2.116   0.148   2.562  0.3959  0.1563 -0.0563
 6365SOL    HW130554   2.095   0.087   2.491  0.3640  0.9015 -0.6889
 6365SOL    HW230555   2.134   0.223   2.505 -0.7639  2.0739  2.1093
 6366SOL     OW30556   0.709   1.664   3.818  0.1137 -0.0464 -0.1212
 6366SOL    HW130557   0.628   1.631   3.779  0.3949 -3.4344  2.1935
 6366SOL    HW230558   0.758   1.582   3.814 -2.0213 -1.2940 -0.4065
 6367SOL     OW30559   1.881   1.784   8.138  0.0269 -0.5832  0.1391
 6367SOL    HW130560   1.942   1.846   8.177  1.5324 -1.5411 -0.6835
 6367SOL    HW230561   1.891   1.707   8.195 -0.2874  0.3534  1.4643
 6368SOL     OW30562   1.263   2.174  13.758  0.6421 -0.0398  0.6884
 6368SOL    HW130563   1.204   2.198  13.829  0.1137 -1.2623  0.6609
 6368SOL    HW230564   1.289   2.252  13.710 -0.3072  0.8513  1.6232
 6369SOL     OW30565   1.638   4.131  13.355 -0.0197 -0.1304 -0.3915
 6369SOL    HW130566   1.718   4.149  13.405 -0.2540 -1.5538  0.4864
 6369SOL    HW230567   1.682   4.125  13.270  1.2978  2.8561  0.0679
 6370SOL     OW30568   2.541   3.340   6.899 -0.0405 -0.1510 -0.5246
 6370SOL    HW130569   2.571   3.310   6.985 -0.6173 -0.0556 -0.2884
 6370SOL    HW230570   2.451   3.362   6.925  0.8782  3.4404 -0.4609
 6371SOL     OW30571   4.527   1.782  10.482  0.1623 -0.5311 -0.6501
 6371SOL    HW130572   4.461   1.851  10.480  1.6001  0.8530 -0.1179
 6371SOL    HW230573   4.476   1.714  10.527  0.5780  0.1696  0.8437
 6372SOL     OW30574   3.512   0.514   9.132 -0.0501  0.6934 -0.0701
 6372SOL    HW130575   3.525   0.609   9.127  0.1453  0.7286  1.1349
 6372SOL    HW230576   3.594   0.471   9.107  0.4096  1.6120 -0.1384
 6373SOL     OW30577   0.932   4.422   2.796  0.0858 -0.2585  0.1630
 6373SOL    HW130578   0.942   4.429   2.701 -1.6949  2.5265  0.2099
 6373SOL    HW230579   1.006   4.364   2.820 -0.0412 -0.6465 -0.3956
 6374SOL     OW30580   0.222   4.662  11.240  0.6550  0.0913  0.1410
 6374SOL    HW130581   0.171   4.636  11.164  0.7225  0.3991 -0.0077
 6374SOL    HW230582   0.275   4.582  11.247 -0.5155 -0.8519 -1.7586
 6375SOL     OW30583   3.562   4.507  15.879  0.0193 -0.6437 -0.1899
 6375SOL    HW130584   3.612   4.430  15.851 -0.1059 -0.0169 -2.0917
 6375SOL    HW230585   3.501   4.528  15.809 -0.7404 -2.3571 -0.0525
 6376SOL     OW30586   2.959   1.682   4.589  0.1383 -0.9344  0.5333
 6376SOL    HW130587   2.947   1.600   4.638  1.1950 -1.1986  0.3601
 6376SOL    HW230588   2.909   1.745   4.641  1.3329  1.3430 -1.0853
 6377SOL     OW30589   3.886   4.508  14.173 -0.3773 -0.1622 -0.4645
 6377SOL    HW130590   3.879   4.561  14.093 -2.1411 -0.1711 -0.3216
 6377SOL    HW230591   3.868   4.575  14.238  2.3116  1.1706 -1.0832
 6378SOL     OW30592   1.341   0.154   9.481  0.2117 -0.1374 -0.2130
 6378SOL    HW130593   1.344   0.215   9.555  1.1631 -0.3645 -0.0616
 6378SOL    HW230594   1.323   0.214   9.409  1.7505 -2.5712 -2.6514
 6379SOL     OW30595   4.125   2.553   4.366 -0.4148 -0.0365 -0.1957
 6379SOL    HW130596   4.118   2.498   4.289  1.9764 -1.7753  0.8507
 6379SOL    HW230597   4.052   2.615   4.355  1.7774  2.3896 -0.9183
 6380SOL     OW30598   0.355   1.303   4.317  0.1052  0.1632 -0.4309
 6380SOL    HW130599   0.264   1.308   4.289  0.3813  0.5217 -1.2560
 6380SOL    HW230600   0.331   1.259   4.399  0.1864 -1.7324 -1.4322
 6381SOL     OW30601   3.328   1.815  12.099  0.2462  0.6932 -0.2592
 6381SOL    HW130602   3.419   1.790  12.082  0.2747  0.8980 -0.4178
 6381SOL    HW230603   3.337   1.803  12.194  1.2364  0.6378 -0.3593
 6382SOL     OW30604   3.388   0.861  14.400  0.8636 -0.0108  0.4356
 6382SOL    HW130605   3.328   0.914  14.347  0.6697 -0.5610  0.1010
 6382SOL    HW230606   3.349   0.774  14.395  1.3979 -0.2873  1.0588
 6383SOL     OW30607   1.291   0.170   7.038  0.1361  0.4256  0.0003
 6383SOL    HW130608   1.282   0.205   6.949 -0.2039  2.6418  0.8957
 6383SOL    HW230609   1.234   0.093   7.032 -0.0901  0.6541 -0.8319
 6384SOL     OW30610   3.616   3.954   5.312  0.0436 -0.2293  0.6830
 6384SOL    HW130611   3.565   3.886   5.356 -2.4557 -0.0498 -1.9014
 6384SOL    HW230612   3.646   3.895   5.243  1.1567  0.8502  0.2526
 6385SOL     OW30613   3.628   0.078   0.619  0.9653  0.0086  0.2537
 6385SOL    HW130614   3.614   0.164   0.581 -2.6257 -0.4905  0.4081
 6385SOL    HW230615   3.536   0.053   0.634  0.8880  0.6361  0.8328
 6386SOL     OW30616   2.553   0.527   0.220  0.0185  0.3827  0.3398
 6386SOL    HW130617   2.560   0.518   0.315 -2.0919  1.7423  0.6443
 6386SOL    HW230618   2.639   0.527   0.179 -1.2360  1.4223 -2.2917
 6387SOL     OW30619   0.039   1.729  14.489 -0.3131 -0.2336  0.3424
 6387SOL    HW130620   0.134   1.730  14.482 -0.1923  0.1486  2.1397
 6387SOL    HW230621   0.014   1.688  14.406 -2.0878 -1.4549  1.4524
 6388SOL     OW30622   1.309   2.255  11.248 -0.6000 -0.0048 -0.1320
 6388SOL    HW130623   1.273   2.264  11.336  1.0317 -0.5758  0.5904
 6388SOL    HW230624   1.239   2.213  11.199  0.3367  0.1717 -1.6263
 6389SOL     OW30625   2.541   4.593   5.509  0.0956 -0.5027 -0.2727
 6389SOL    HW130626   2.550   4.500   5.528 -0.3488 -0.9118 -2.0352
 6389SOL    HW230627   2.466   4.621   5.561  0.4841 -0.4379  0.2581
 6390SOL     OW30628   0.068   1.114  13.645  0.2789 -0.1121  0.0760
 6390SOL    HW130629   0.084   1.024  13.616  2.6731  0.3178  0.0613
 6390SOL    HW230630   0.061   1.095  13.738  1.5922  1.6841  0.5319
 6391SOL     OW30631   2.732   1.121  13.507 -0.1249 -0.1980 -0.2635
 6391SOL    HW130632   2.723   1.100  13.600  0.4537 -0.7160 -0.3176
 6391SOL    HW230633   2.822   1.088  13.497  0.1886  1.3727 -2.5180
 6392SOL     OW30634   1.325   2.977  10.213  0.3959  0.3906 -0.2405
 6392SOL    HW130635   1.310   2.988  10.119 -2.4891  0.2242  0.1991
 6392SOL    HW230636   1.349   2.884  10.210 -1.8063 -0.2368  1.5802
 6393SOL     OW30637   1.108   1.610  11.800 -1.0682  1.0955 -0.4889
 6393SOL    HW130638   1.146   1.699  11.796  1.6205  0.0871  2.3393
 6393SOL    HW230639   1.118   1.588  11.892  1.2265 -0.2340 -1.0629
 6394SOL     OW30640   0.808   2.444   5.437  0.8073 -0.0406  0.2036
 6394SOL    HW130641   0.732   2.430   5.381  1.6182 -1.4292 -0.5120
 6394SOL    HW230642   0.822   2.538   5.424 -0.5563  0.1827  0.3209
 6395SOL     OW30643   4.060   4.165   1.302  0.2278  0.3945  0.3076
 6395SOL    HW130644   4.133   4.168   1.364  2.0403  0.8462 -1.8381
 6395SOL    HW230645   4.103   4.167   1.216  1.1723 -0.6040  0.7572
 6396SOL     OW30646   3.330   4.629   3.065 -0.5507  0.5338 -0.4220
 6396SOL    HW130647   3.268   4.695   3.036 -1.8512 -0.1680  0.7317
 6396SOL    HW230648   3.402   4.681   3.100  1.1712 -1.5904 -0.7697
 6397SOL     OW30649   0.850   0.059   7.417 -0.3014 -0.4056 -0.0537
 6397SOL    HW130650   0.766   0.104   7.426 -0.4784 -0.9393  0.9856
 6397SOL    HW230651   0.819   4.707   7.370 -0.8966 -1.2053  1.6496
 6398SOL     OW30652   4.549   2.960   5.521 -0.1197 -0.4736  0.2355
 6398SOL    HW130653   4.603   2.984   5.445  0.1174  2.2334  1.2643
 6398SOL    HW230654   4.585   2.992   5.603 -0.2970  2.5192 -0.8544
 6399SOL     OW30655   2.325   4.077  11.180 -0.1247 -0.7585 -0.0859
 6399SOL    HW130656   2.310   4.160  11.134 -1.1281 -1.3799 -0.8922
 6399SOL    HW230657   2.286   4.007  11.127 -2.5042  0.1812  0.4269
 6400SOL     OW30658   4.323   0.200   2.658  0.0521  0.1279  0.7802
 6400SOL    HW130659   4.360   0.220   2.572 -1.4692 -0.8638 -0.1046
 6400SOL    HW230660   4.361   0.113   2.677  1.4705  0.6844  0.5202
 6401SOL     OW30661   1.629   1.548   5.374  0.2111  0.3249  0.3111
 6401SOL    HW130662   1.641   1.515   5.464  0.7525 -0.2415  0.0332
 6401SOL    HW230663   1.594   1.637   5.376  2.0279  1.0094  1.6839
 6402SOL     OW30664   2.236   0.894   5.535 -0.3209  0.3935 -0.6025
 6402SOL    HW130665   2.259   0.823   5.594  0.2914  2.6928  1.8815
 6402SOL    HW230666   2.317   0.944   5.540 -0.1128 -0.2434  2.2109
 6403SOL     OW30667   1.408   3.563   5.309 -0.4429  0.0408 -0.4145
 6403SOL    HW130668   1.320   3.527   5.309 -0.6867  0.6369 -0.4597
 6403SOL    HW230669   1.466   3.520   5.246  1.8713  2.8960 -0.2713
 6404SOL     OW30670   0.934   3.686   2.860  0.3519 -0.0451 -0.9521
 6404SOL    HW130671   0.884   3.635   2.796  1.5714 -1.9519 -0.3700
 6404SOL    HW230672   0.963   3.623   2.925 -1.1872 -0.7183 -0.9236
 6405SOL     OW30673   3.849   3.416   0.797 -0.0851 -0.4881  0.1605
 6405SOL    HW130674   3.913   3.345   0.799 -1.5335 -1.7803  1.5976
 6405SOL    HW230675   3.784   3.367   0.848 -0.3058 -0.5478 -0.1743
 6406SOL     OW30676   0.286   3.846   8.180  0.1797 -0.3567 -0.2536
 6406SOL    HW130677   0.371   3.805   8.163  0.3436  0.0634 -0.4403
 6406SOL    HW230678   0.297   3.867   8.272  0.2936 -1.5880  0.0163
 6407SOL     OW30679   3.630   1.681   7.714 -0.7050 -0.4920  0.0543
 6407SOL    HW130680   3.645   1.774   7.732 -2.1051 -0.3497  0.5457
 6407SOL    HW230681   3.535   1.667   7.723 -0.7023 -1.6845 -1.8576
 6408SOL     OW30682   4.589   4.480   8.871 -0.0906 -0.9624  0.1836
 6408SOL    HW130683   4.563   4.388   8.880 -1.4893 -0.7392 -1.7252
 6408SOL    HW230684   4.521   4.528   8.919  2.5124  2.0281  0.8742
 6409SOL     OW30685   3.309   0.223   7.721  0.5214  0.2540  0.3430
 6409SOL    HW130686   3.327   0.315   7.741  1.6928  0.0110  0.4174
 6409SOL    HW230687   3.255   0.229   7.643  0.6517 -2.6767  0.0507
 6410SOL     OW30688   3.170   3.476  14.767 -0.6364  0.1983 -0.3321
 6410SOL    HW130689   3.213   3.561  14.770  3.2858 -1.8561  1.6810
 6410SOL    HW230690   3.236   3.411  14.793  1.2395  2.1874 -0.1153
 6411SOL     OW30691   3.235   1.688   8.836 -0.8204  0.2570  0.0690
 6411SOL    HW130692   3.205   1.671   8.746 -0.3029 -1.0385  0.1398
 6411SOL    HW230693   3.241   1.784   8.839 -4.5741  0.5137 -0.6691
 6412SOL     OW30694   4.469   0.602   6.347  0.4397 -0.4187 -0.1607
 6412SOL    HW130695   4.454   0.627   6.256  1.2279  1.3101  0.1826
 6412SOL    HW230696   4.515   0.520   6.333  2.3973  1.1236 -2.6561
 6413SOL     OW30697   1.275   0.420   6.486  0.0491  0.6738 -0.2863
 6413SOL    HW130698   1.223   0.483   6.535 -1.1558 -1.2757  0.9585
 6413SOL    HW230699   1.252   0.445   6.396  0.2131 -0.9596 -0.7845
 6414SOL     OW30700   3.615   0.532  13.254 -0.1868  0.0689 -0.7861
 6414SOL    HW130701   3.572   0.510  13.171 -0.6102  2.2297 -1.1305
 6414SOL    HW230702   3.574   0.464  13.308 -0.6327  2.0244  1.3115
 6415SOL     OW30703   1.896   3.609   3.781 -0.2148  0.9099  0.4580
 6415SOL    HW130704   1.891   3.535   3.721  1.5116 -0.2988  1.8229
 6415SOL    HW230705   1.984   3.643   3.761  0.6024 -0.5949  1.5348
 6416SOL     OW30706   3.257   0.630   2.922 -0.2347 -0.2608  0.2930
 6416SOL    HW130707   3.240   0.650   3.014  1.0619  4.2007 -0.4655
 6416SOL    HW230708   3.219   0.710   2.885  1.7451  1.3882  1.8526
 6417SOL     OW30709   2.970   4.582   2.242 -0.3511 -0.6958 -0.2763
 6417SOL    HW130710   2.918   4.662   2.244 -1.4972 -1.4433 -0.4078
 6417SOL    HW230711   2.954   4.540   2.327 -0.2135  0.8732  0.5175
 6418SOL     OW30712   2.921   0.473  16.791 -0.2002 -0.5581 -0.1653
 6418SOL    HW130713   2.838   0.447  16.831  0.3457  2.4060  2.9036
 6418SOL    HW230714   2.923   0.561  16.828  1.3369 -0.6618  0.0151
 6419SOL     OW30715   0.869   2.427   6.176 -0.1924  0.1203  0.3795
 6419SOL    HW130716   0.779   2.422   6.208  0.6419  0.8801  2.8507
 6419SOL    HW230717   0.911   2.354   6.221 -1.3505 -0.5717  0.3544
 6420SOL     OW30718   1.509   3.280   3.519 -0.0621 -0.2528  0.4740
 6420SOL    HW130719   1.477   3.368   3.538  2.3933  0.8087 -0.3135
 6420SOL    HW230720   1.460   3.230   3.585  0.8863 -0.1052  1.2911
 6421SOL     OW30721   2.645   4.230   5.339 -0.2092  0.3067 -0.1363
 6421SOL    HW130722   2.720   4.196   5.289 -0.8633  0.0216 -0.9341
 6421SOL    HW230723   2.682   4.220   5.427  0.0805  3.4487  0.0881
 6422SOL     OW30724   1.976   1.289  15.026  0.4224 -0.5055  0.2987
 6422SOL    HW130725   2.049   1.338  15.063  0.3002 -0.0831 -0.0244
 6422SOL    HW230726   2.014   1.201  15.016 -0.6355 -0.9249 -0.0454
 6423SOL     OW30727   1.783   3.541   8.629  0.1437  0.1298  0.3916
 6423SOL    HW130728   1.761   3.551   8.536  1.5120 -0.3254  0.0117
 6423SOL    HW230729   1.758   3.629   8.656  4.4561  0.6632  2.5860
 6424SOL     OW30730   1.797   3.012   4.249 -0.1569  0.1660 -0.4934
 6424SOL    HW130731   1.777   2.939   4.307  1.5088 -0.8814 -1.2340
 6424SOL    HW230732   1.719   3.020   4.196 -1.2308 -1.5855  0.8407
 6425SOL     OW30733   3.803   3.668   5.753  0.0076  0.2176  0.6222
 6425SOL    HW130734   3.898   3.676   5.759  0.0669 -0.4513  0.5599
 6425SOL    HW230735   3.777   3.675   5.845  1.4586  0.6556  1.0031
 6426SOL     OW30736   3.481   4.570  10.881  0.0607  0.0968  0.7219
 6426SOL    HW130737   3.526   4.604  10.959  1.0952  1.9318 -0.6647
 6426SOL    HW230738   3.410   4.634  10.873 -0.8511 -1.2197 -1.4576
 6427SOL     OW30739   3.193   4.109  13.238  0.9004  0.5290 -0.2876
 6427SOL    HW130740   3.212   4.085  13.328 -2.4379  0.7028  0.4560
 6427SOL    HW230741   3.142   4.033  13.211  0.2698  1.3837 -1.5064
 6428SOL     OW30742   1.516   3.200  15.724 -0.2005  0.0102 -0.2140
 6428SOL    HW130743   1.595   3.173  15.678 -0.7563 -1.5879 -0.2103
 6428SOL    HW230744   1.536   3.157  15.808 -0.9067 -0.9126 -0.5160
 6429SOL     OW30745   0.053   3.072  15.344 -0.2381 -0.0931  0.1457
 6429SOL    HW130746   0.143   3.048  15.321 -1.2633 -0.7741 -3.1837
 6429SOL    HW230747   0.009   3.068  15.260  0.7030 -0.3163 -0.3435
 6430SOL     OW30748   3.257   3.611   6.568  0.0052 -0.3277 -0.2841
 6430SOL    HW130749   3.283   3.603   6.476 -0.3614  1.6311 -0.5818
 6430SOL    HW230750   3.294   3.536   6.613  1.4794  0.4017 -0.2821
 6431SOL     OW30751   1.999   3.533  14.507 -0.0685 -0.1011  0.2188
 6431SOL    HW130752   2.007   3.577  14.423  3.6782 -0.1692  0.5289
 6431SOL    HW230753   1.905   3.549  14.517  0.1831  0.2351  2.0144
 6432SOL     OW30754   3.305   1.637   4.303  0.1554  0.6263 -0.1180
 6432SOL    HW130755   3.217   1.602   4.296  0.6717  0.2564 -5.0287
 6432SOL    HW230756   3.357   1.598   4.233  0.5508  2.1848 -0.6873
 6433SOL     OW30757   3.239   4.323   5.832  0.1978 -0.4815  0.0194
 6433SOL    HW130758   3.300   4.391   5.803  1.0215 -1.8129 -1.3744
 6433SOL    HW230759   3.302   4.272   5.884 -0.4588 -0.3765  0.9190
 6434SOL     OW30760   1.374   2.389   5.122  0.6945  0.3235  0.2848
 6434SOL    HW130761   1.364   2.398   5.216  0.8463 -2.2135  0.5326
 6434SOL    HW230762   1.428   2.467   5.108  0.0502  0.1809 -3.1373
 6435SOL     OW30763   2.256   1.134   1.841  0.0740  0.4279 -0.7176
 6435SOL    HW130764   2.340   1.107   1.803 -0.5434  0.0834 -1.8219
 6435SOL    HW230765   2.206   1.077   1.783  0.0395 -0.3245  0.0447
 6436SOL     OW30766   3.330   0.937   8.695  0.1254 -0.5777  0.0940
 6436SOL    HW130767   3.370   1.017   8.662  2.1048 -1.3573  0.6014
 6436SOL    HW230768   3.394   0.875   8.661  0.1184 -0.5144 -0.0350
 6437SOL     OW30769   1.182   0.873   5.554  0.2684 -0.0859 -0.5010
 6437SOL    HW130770   1.159   0.950   5.502 -0.1529  0.6175  0.7386
 6437SOL    HW230771   1.128   0.815   5.500  1.9155 -2.1585  0.0800
 6438SOL     OW30772   4.197   0.317   5.076  0.4425  0.3398 -0.0118
 6438SOL    HW130773   4.117   0.369   5.064 -0.8440 -1.4631  0.6707
 6438SOL    HW230774   4.239   0.351   4.997 -0.8578  2.1520  0.0683
 6439SOL     OW30775   2.350   1.546   8.030  0.8128 -0.0670  0.5484
 6439SOL    HW130776   2.405   1.545   7.951  0.6119  1.6598  0.3790
 6439SOL    HW230777   2.418   1.577   8.090  1.6144 -0.2549 -0.2613
 6440SOL     OW30778   3.767   2.627   4.545 -0.4236 -0.7893  0.1938
 6440SOL    HW130779   3.847   2.661   4.585 -0.6424 -0.5965  0.4648
 6440SOL    HW230780   3.811   2.608   4.462 -2.5832  0.5189 -1.2438
 6441SOL     OW30781   2.006   1.457   2.943 -0.5737 -0.4979  0.7646
 6441SOL    HW130782   2.088   1.438   2.988 -0.0241 -1.3178 -0.6014
 6441SOL    HW230783   1.949   1.452   3.020  0.4075  1.8136  1.6551
 6442SOL     OW30784   1.531   1.216  14.577 -0.1114  0.6447 -0.1517
 6442SOL    HW130785   1.455   1.164  14.553 -0.4207  1.1397 -0.2465
 6442SOL    HW230786   1.557   1.171  14.658  0.4133  1.9018  0.3817
 6443SOL     OW30787   3.999   3.910   5.397 -0.2471  0.0522 -0.0647
 6443SOL    HW130788   3.948   3.831   5.416  0.7132 -0.9506 -1.5706
 6443SOL    HW230789   3.992   3.949   5.483  1.8554 -0.9601  0.5736
 6444SOL     OW30790   4.252   3.520   4.952 -0.6920  0.0713  0.1475
 6444SOL    HW130791   4.247   3.593   4.890 -0.9007 -0.3631 -0.3466
 6444SOL    HW230792   4.189   3.543   5.020  0.0197  2.1707  0.0816
 6445SOL     OW30793   3.049   2.018   2.295 -0.3133  0.2846 -0.3713
 6445SOL    HW130794   3.007   2.103   2.307  0.6808  0.6624  0.3754
 6445SOL    HW230795   3.081   2.025   2.206  2.7924 -1.3452  0.6213
 6446SOL     OW30796   0.224   1.038  12.281 -0.5021  0.0374 -0.1441
 6446SOL    HW130797   0.137   1.000  12.273  0.0261 -0.7617 -2.1222
 6446SOL    HW230798   0.215   1.128  12.252  0.4643  0.5591  1.1885
 6447SOL     OW30799   0.073   0.797  12.967 -0.6753 -0.0349  0.0255
 6447SOL    HW130800   0.135   0.725  12.960 -0.4479  0.4460 -2.5925
 6447SOL    HW230801   0.080   0.843  12.884 -1.5232  0.2759  0.1213
 6448SOL     OW30802   2.756   3.078  11.237 -0.5575  0.8407 -0.4874
 6448SOL    HW130803   2.843   3.117  11.226  0.3004 -0.8586  0.2430
 6448SOL    HW230804   2.747   3.047  11.328  2.8638 -0.3643 -0.5397
 6449SOL     OW30805   3.439   1.283   7.460  0.0954  0.3545  0.1873
 6449SOL    HW130806   3.457   1.329   7.542 -0.8928  0.5299  0.3144
 6449SOL    HW230807   3.350   1.248   7.464  0.5172 -1.1306 -3.8456
 6450SOL     OW30808   1.699   3.512   5.295  0.5312 -0.0598 -0.2826
 6450SOL    HW130809   1.698   3.439   5.357 -1.7346  2.1011  2.2679
 6450SOL    HW230810   1.746   3.580   5.344  0.8572  1.1222 -2.2276
 6451SOL     OW30811   0.758   2.473  16.932 -0.3110  0.0145  0.1041
 6451SOL    HW130812   0.786   2.460  17.023  0.9986 -2.3461 -0.6162
 6451SOL    HW230813   0.841   2.476  16.884  0.5298  0.3795  1.6078
 6452SOL     OW30814   0.539   2.479   2.417 -0.4692 -0.0968  0.0118
 6452SOL    HW130815   0.446   2.478   2.392 -0.1754 -3.5058 -0.9852
 6452SOL    HW230816   0.570   2.399   2.375  0.4096  0.3684 -0.2096
 6453SOL     OW30817   4.631   2.874  10.325 -0.0199 -0.7123  0.1989
 6453SOL    HW130818   4.632   2.811  10.253  0.0645 -0.4473 -0.0329
 6453SOL    HW230819   4.540   2.880  10.352  0.4531  0.2285  1.6413
 6454SOL     OW30820   2.478   0.955  14.867  0.4840 -0.5171  0.1939
 6454SOL    HW130821   2.482   0.865  14.900 -1.6397 -0.3758  0.8381
 6454SOL    HW230822   2.451   1.000  14.947 -0.0914  1.2327 -1.0112
 6455SOL     OW30823   2.209   3.032  17.406  0.2059 -0.1183  0.0911
 6455SOL    HW130824   2.226   2.974  17.479 -0.2310  1.6702  1.6194
 6455SOL    HW230825   2.146   2.982  17.355 -0.3755  2.3833 -1.7087
 6456SOL     OW30826   2.007   3.150   6.804 -0.0018  0.4026  0.1280
 6456SOL    HW130827   1.964   3.224   6.846 -0.7417 -0.4879  0.9539
 6456SOL    HW230828   1.980   3.072   6.852  1.0917  1.4920  2.5430
 6457SOL     OW30829   0.396   0.903   3.721  0.5512 -0.2750  0.0846
 6457SOL    HW130830   0.357   0.885   3.807 -0.2754 -2.1390 -0.6817
 6457SOL    HW230831   0.340   0.850   3.665  0.2130 -0.9316  1.0388
 6458SOL     OW30832   0.042   0.557   1.754 -0.1474  0.1240  0.2031
 6458SOL    HW130833   0.111   0.622   1.741 -1.1552  1.2211  0.2552
 6458SOL    HW230834   0.022   0.534   1.664 -0.4927 -0.5623  0.4585
 6459SOL     OW30835   0.967   2.388  10.907 -0.5610  0.3732  0.6350
 6459SOL    HW130836   0.959   2.481  10.926 -0.3402  0.0623  2.2101
 6459SOL    HW230837   1.041   2.366  10.963 -0.7408  1.5285  1.3306
 6460SOL     OW30838   4.486   3.353  10.540  0.5091 -0.4954 -0.0584
 6460SOL    HW130839   4.474   3.259  10.532 -1.5343 -0.3780  1.5585
 6460SOL    HW230840   4.580   3.359  10.523  0.9292  0.4128  2.5477
 6461SOL     OW30841   4.102   3.998   9.525  0.1551  0.0381  0.0274
 6461SOL    HW130842   4.075   4.014   9.435  0.0938 -1.5066 -0.2330
 6461SOL    HW230843   4.068   3.912   9.550  1.8363 -0.5081  0.4457
 6462SOL     OW30844   4.004   0.780  16.329  0.3806 -0.3678 -0.5839
 6462SOL    HW130845   3.910   0.793  16.320  0.3917  0.0193 -0.1825
 6462SOL    HW230846   4.010   0.691  16.295 -2.6445 -0.2533 -1.3825
 6463SOL     OW30847   3.488   2.797   1.559 -0.1760  1.1407 -0.3164
 6463SOL    HW130848   3.531   2.816   1.476  1.4787 -0.1553  0.2431
 6463SOL    HW230849   3.401   2.822   1.527 -1.6222  0.9778  3.4213
 6464SOL     OW30850   2.303   3.036   1.377 -0.4109 -0.0150 -0.1948
 6464SOL    HW130851   2.210   3.028   1.354 -0.7504  0.1889  1.0682
 6464SOL    HW230852   2.303   3.076   1.464  0.2185 -2.2873  0.8408
 6465SOL     OW30853   3.196   2.732  17.562  0.0427  0.0359 -0.1768
 6465SOL    HW130854   3.189   2.826  17.581 -0.0489  0.2932 -1.4837
 6465SOL    HW230855   3.291   2.729  17.548  0.3348  3.1741  1.0467
 6466SOL     OW30856   4.056   3.885   6.656 -0.2116  0.1713 -0.5730
 6466SOL    HW130857   3.994   3.956   6.675 -0.1555 -0.3556  1.5165
 6466SOL    HW230858   4.129   3.924   6.703  0.6770  0.0773 -1.8886
 6467SOL     OW30859   4.304   4.276  12.208 -0.1887 -0.3472 -0.5310
 6467SOL    HW130860   4.270   4.236  12.128 -3.4780  0.0544  0.6664
 6467SOL    HW230861   4.228   4.326  12.240 -1.1650 -0.8131 -2.1025
 6468SOL     OW30862   3.064   3.178   8.355 -0.5579 -0.4244 -0.1387
 6468SOL    HW130863   2.987   3.156   8.405 -1.0045 -2.0822 -1.5553
 6468SOL    HW230864   3.025   3.172   8.268 -4.2403 -0.9663  1.5738
 6469SOL     OW30865   0.557   1.338   7.471  0.6076 -0.5316  0.2294
 6469SOL    HW130866   0.628   1.302   7.418  0.0207 -1.3617  0.0099
 6469SOL    HW230867   0.487   1.295   7.423 -0.6440  0.7408  0.9360
 6470SOL     OW30868   1.849   4.359   4.292  0.5217  0.1892  0.0745
 6470SOL    HW130869   1.795   4.359   4.371 -0.8436 -0.2599 -0.8531
 6470SOL    HW230870   1.801   4.426   4.243 -0.5312 -2.6946 -2.9099
 6471SOL     OW30871   4.111   2.119   5.111 -0.0634  0.1104 -0.2231
 6471SOL    HW130872   4.046   2.050   5.100  1.0765 -1.1277  0.7931
 6471SOL    HW230873   4.157   2.114   5.027 -0.3677 -0.1903 -0.3710
 6472SOL     OW30874   2.154   4.492   5.384 -0.0398  0.0452  0.1602
 6472SOL    HW130875   2.094   4.422   5.407  0.9951 -1.2102 -0.9825
 6472SOL    HW230876   2.234   4.480   5.436  0.4236 -1.1323 -0.8283
 6473SOL     OW30877   4.267   0.180   1.585 -0.8553  0.2309  0.0366
 6473SOL    HW130878   4.333   0.243   1.613 -1.8943  1.3024  0.0839
 6473SOL    HW230879   4.312   0.138   1.511 -0.4314 -1.8824  1.4859
 6474SOL     OW30880   3.462   3.602   7.517  0.2673  0.9139  0.0339
 6474SOL    HW130881   3.392   3.567   7.572  2.1400 -2.7754 -0.0005
 6474SOL    HW230882   3.526   3.620   7.585  0.8061 -1.4717  0.1420
 6475SOL     OW30883   1.922   3.299   5.682  0.0091  0.1685 -0.1586
 6475SOL    HW130884   1.849   3.350   5.716 -1.4616 -2.0466 -0.0175
 6475SOL    HW230885   1.996   3.335   5.731  1.7517 -0.3448 -2.3724
 6476SOL     OW30886   0.924   3.146  12.938  0.2144 -0.4971 -0.0317
 6476SOL    HW130887   0.853   3.126  12.999  0.6927  0.8064  0.9415
 6476SOL    HW230888   0.884   3.221  12.894  0.7138  1.2622  2.4818
 6477SOL     OW30889   0.538   0.486   8.571  0.2082 -0.5718  0.0849
 6477SOL    HW130890   0.451   0.488   8.531  0.5749 -1.1852 -0.7338
 6477SOL    HW230891   0.585   0.494   8.488 -0.6951  1.3755 -0.2344
 6478SOL     OW30892   3.793   2.843   7.857 -0.0300  0.0868 -0.0574
 6478SOL    HW130893   3.702   2.861   7.882  0.7602  0.4316  2.5761
 6478SOL    HW230894   3.845   2.851   7.937  2.4186  2.0949 -1.8564
 6479SOL     OW30895   4.376   1.146   6.355 -0.4596 -0.4603 -0.0115
 6479SOL    HW130896   4.423   1.193   6.424  0.8991 -0.4420 -0.9643
 6479SOL    HW230897   4.358   1.063   6.399 -0.3378  0.3150  1.4883
 6480SOL     OW30898   4.250   2.141   9.181 -0.1851 -0.7964 -0.3573
 6480SOL    HW130899   4.241   2.129   9.275 -2.6441  1.0586 -0.3544
 6480SOL    HW230900   4.214   2.229   9.165 -0.3078 -1.2099 -2.4014
 6481SOL     OW30901   2.742   0.003   7.623  0.1231  0.5455 -0.1846
 6481SOL    HW130902   2.747   4.647   7.571 -2.1949  0.0006  0.4358
 6481SOL    HW230903   2.755   4.693   7.712  2.5548  1.0791 -0.3356
 6482SOL     OW30904   2.523   2.803   9.267  0.0224 -0.0377  0.7696
 6482SOL    HW130905   2.547   2.717   9.232 -0.5623 -0.0901  0.5031
 6482SOL    HW230906   2.575   2.864   9.215  0.4567 -0.7583  0.3568
 6483SOL     OW30907   0.576   0.630   5.479  0.3116  0.1444  0.5025
 6483SOL    HW130908   0.649   0.577   5.447  0.7265  1.2424 -0.3457
 6483SOL    HW230909   0.518   0.561   5.510 -0.8530  1.8232  2.0265
 6484SOL     OW30910   2.113   3.673   6.428 -0.1936  0.5245 -0.3741
 6484SOL    HW130911   2.111   3.769   6.427  0.5271  0.5399  0.7871
 6484SOL    HW230912   2.161   3.654   6.348 -2.2236  1.1309 -1.7431
 6485SOL     OW30913   4.059   2.485   7.418  0.3270 -0.2963  0.5291
 6485SOL    HW130914   4.061   2.412   7.479 -0.0471 -0.9775 -0.2713
 6485SOL    HW230915   3.968   2.515   7.425  0.7926  0.9679  1.2346
 6486SOL     OW30916   0.303   2.181   4.408 -0.4003 -0.0479 -0.2542
 6486SOL    HW130917   0.221   2.145   4.443 -1.5386  2.5629 -0.2232
 6486SOL    HW230918   0.351   2.098   4.403  1.0757  0.8275 -0.5883
 6487SOL     OW30919   1.361   2.580   8.599 -0.1103 -0.3769  0.4583
 6487SOL    HW130920   1.308   2.518   8.548  1.0864  0.6001 -1.9707
 6487SOL    HW230921   1.367   2.531   8.681 -2.9036 -2.6711 -0.7156
 6488SOL     OW30922   1.978   1.721   6.909  0.1064  0.1478 -0.4954
 6488SOL    HW130923   1.910   1.788   6.918 -0.2177 -0.0597 -1.4919
 6488SOL    HW230924   1.958   1.655   6.975 -0.8432  0.6140 -0.3128
 6489SOL     OW30925   0.011   2.527   5.549  0.5919 -0.0606  0.1608
 6489SOL    HW130926   0.067   2.457   5.582  0.6403 -0.4496 -0.7460
 6489SOL    HW230927   4.719   2.578   5.628  0.4961  0.6378 -0.3061
 6490SOL     OW30928   4.200   2.494   8.863  0.2207  0.1776  0.0615
 6490SOL    HW130929   4.237   2.579   8.890  1.9745 -0.6155  0.1911
 6490SOL    HW230930   4.184   2.514   8.771 -1.3781  2.2731  0.8015
 6491SOL     OW30931   3.074   0.540   2.349  0.5928 -0.0258  0.6751
 6491SOL    HW130932   3.137   0.571   2.414  2.0678 -3.3231  0.8100
 6491SOL    HW230933   2.993   0.565   2.396 -1.7877  0.6611 -3.7943
 6492SOL     OW30934   4.695   0.692  11.943 -0.1485 -0.5822 -0.0701
 6492SOL    HW130935   4.704   0.663  12.034 -0.6079 -0.7865 -0.0890
 6492SOL    HW230936   4.718   0.608  11.904 -0.0492 -0.9647  0.8205
 6493SOL     OW30937   1.687   4.120   1.042  0.2027 -0.1519 -0.1395
 6493SOL    HW130938   1.764   4.077   1.005 -0.7578 -1.5214 -0.5515
 6493SOL    HW230939   1.719   4.208   1.058 -1.9769  0.6528 -0.1439
 6494SOL     OW30940   2.005   1.394  17.427  0.3414  0.2518 -0.6335
 6494SOL    HW130941   2.077   1.403  17.364  1.7360  1.0197  1.0670
 6494SOL    HW230942   2.052   1.385  17.510 -1.0603  2.1266  0.3649
 6495SOL     OW30943   4.623   0.456   4.059  0.0384 -0.8169 -0.0428
 6495SOL    HW130944   4.659   0.399   3.991 -2.6421  0.2000 -2.3534
 6495SOL    HW230945   4.549   0.498   4.014  0.0332 -1.6629 -0.8103
 6496SOL     OW30946   0.386   2.712  12.965 -0.2856 -0.3558  0.2838
 6496SOL    HW130947   0.301   2.683  12.933 -0.4069  0.9034 -0.5647
 6496SOL    HW230948   0.366   2.783  13.026 -0.7029 -0.4711  0.2755
 6497SOL     OW30949   3.036   3.379  11.157 -0.2339 -0.1806 -0.6264
 6497SOL    HW130950   3.031   3.283  11.156 -1.2051 -0.1484  0.5695
 6497SOL    HW230951   2.960   3.401  11.211 -0.2173 -1.0175 -0.2588
 6498SOL     OW30952   0.692   3.609   1.967 -0.0158 -0.0294  0.2613
 6498SOL    HW130953   0.704   3.575   1.878  2.2418 -0.6571  0.8244
 6498SOL    HW230954   0.690   3.705   1.961  0.7490 -0.1934 -2.6884
 6499SOL     OW30955   1.609   0.780   4.713 -0.6206 -0.5451  0.5669
 6499SOL    HW130956   1.545   0.850   4.728 -0.8908 -1.2273  2.5637
 6499SOL    HW230957   1.693   0.826   4.717 -1.4715  1.1740 -1.6965
 6500SOL     OW30958   0.135   4.717   5.303 -0.0169  0.1649 -0.1690
 6500SOL    HW130959   0.181   4.634   5.317  0.1394  0.1587 -0.7538
 6500SOL    HW230960   0.089   4.704   5.220  1.0857  0.2401 -0.7825
 6501SOL     OW30961   1.884   4.650   8.359  0.1099  0.3254  0.1121
 6501SOL    HW130962   1.888   4.620   8.450  1.8647 -0.6802 -0.3028
 6501SOL    HW230963   1.974   4.641   8.328 -0.7111 -2.0332 -1.5360
 6502SOL     OW30964   4.405   4.292   0.797  0.3379  0.0971  0.0619
 6502SOL    HW130965   4.491   4.299   0.839  0.2798  0.4015  0.1320
 6502SOL    HW230966   4.385   4.200   0.813  1.0833  0.3256  2.3311
 6503SOL     OW30967   3.900   0.090   2.588  0.2428  0.3546 -0.4810
 6503SOL    HW130968   3.827   0.108   2.647 -0.6134 -0.6510 -1.2382
 6503SOL    HW230969   3.851   0.112   2.509  1.2755  1.6551 -0.7635
 6504SOL     OW30970   2.453   0.420   3.139 -0.2626  0.0389 -0.6997
 6504SOL    HW130971   2.485   0.338   3.177 -0.2434  0.6317  0.5372
 6504SOL    HW230972   2.534   0.471   3.136  0.1126 -0.4657  0.8267
 6505SOL     OW30973   2.338   2.263   9.202  0.4864  1.0157 -0.1239
 6505SOL    HW130974   2.245   2.255   9.222  0.4523  2.8739  0.4642
 6505SOL    HW230975   2.374   2.263   9.291  0.3706  2.6409 -0.0666
 6506SOL     OW30976   3.045   0.815  14.496 -0.1388  0.4801  0.1124
 6506SOL    HW130977   3.042   0.730  14.540 -0.2403  0.6552  0.4346
 6506SOL    HW230978   3.039   0.785  14.405 -0.5544 -0.5613  0.4791
 6507SOL     OW30979   3.931   3.254  14.721 -0.0239  0.1838 -0.5237
 6507SOL    HW130980   3.925   3.173  14.670  0.4688 -1.2674  1.6962
 6507SOL    HW230981   3.961   3.314  14.652  0.3479  0.7481  0.1313
 6508SOL     OW30982   2.480   2.358  10.634  0.2499  0.1291 -0.0642
 6508SOL    HW130983   2.519   2.335  10.550  0.4465  0.3281 -0.0282
 6508SOL    HW230984   2.391   2.335  10.609  0.5551  1.6406 -2.5008
 6509SOL     OW30985   4.435   1.889   7.570  0.4833 -0.1955  0.2870
 6509SOL    HW130986   4.483   1.961   7.611 -0.3672 -0.4363  1.7123
 6509SOL    HW230987   4.410   1.931   7.488  1.1507  1.5970  0.9907
 6510SOL     OW30988   4.411   4.647  14.573 -0.5831 -0.0014 -0.0055
 6510SOL    HW130989   4.482   4.655  14.636  0.5691 -0.5855 -1.2213
 6510SOL    HW230990   4.468   4.626  14.499 -1.4653  1.0969 -0.9864
 6511SOL     OW30991   1.553   3.858   7.936 -0.1640  0.0539 -0.1310
 6511SOL    HW130992   1.478   3.809   7.902 -0.3322  0.5797 -0.5155
 6511SOL    HW230993   1.582   3.802   8.008 -1.1228 -0.0888  0.1449
 6512SOL     OW30994   0.855   4.505   5.063  0.0379 -0.1978 -0.4987
 6512SOL    HW130995   0.859   4.502   5.159  1.6858 -1.0121 -0.5816
 6512SOL    HW230996   0.896   4.589   5.044 -0.7341 -0.0480 -1.5061
 6513SOL     OW30997   3.882   0.073   4.673 -0.5754  0.2880  0.2139
 6513SOL    HW130998   3.791   0.089   4.649 -0.6499 -1.1462 -0.4884
 6513SOL    HW230999   3.882   4.708   4.706  0.9260  0.6034  1.0771
 6514SOL     OW31000   3.225   2.269   4.159 -0.3468  0.0030  0.6810
 6514SOL    HW131001   3.267   2.349   4.192  0.1882 -0.8329  2.0502
 6514SOL    HW231002   3.191   2.225   4.237 -1.3262  1.4381  1.0548
 6515SOL     OW31003   3.456   4.358   7.809  0.5133  0.1513  0.1346
 6515SOL    HW131004   3.427   4.338   7.898 -1.5120 -0.0755 -0.5785
 6515SOL    HW231005   3.386   4.305   7.769  2.5487 -0.4079 -2.6841
 6516SOL     OW31006   1.696   2.766   2.844 -0.1381 -0.1643  0.0544
 6516SOL    HW131007   1.661   2.855   2.837 -2.5559 -1.1505 -0.4056
 6516SOL    HW231008   1.724   2.772   2.936  1.3577 -0.7971 -0.3508
 6517SOL     OW31009   3.807   2.094  10.242 -0.6822  0.0844  0.3478
 6517SOL    HW131010   3.828   2.087  10.335  0.6209 -1.1919 -0.0309
 6517SOL    HW231011   3.856   2.175  10.229  1.8818 -1.6944 -1.1786
 6518SOL     OW31012   4.469   3.765  10.930  0.1340  0.3694 -0.2665
 6518SOL    HW131013   4.562   3.759  10.906  0.6033 -0.7071  1.8509
 6518SOL    HW231014   4.439   3.795  10.844  1.9821  0.1341 -1.0189
 6519SOL     OW31015   1.047   2.737   3.741  0.1634 -0.2263  0.6455
 6519SOL    HW131016   0.966   2.734   3.792 -0.4040  1.4983 -0.1590
 6519SOL    HW231017   1.113   2.730   3.810 -0.2345  0.1736  1.0653
 6520SOL     OW31018   4.659   0.246   1.364 -0.5449  0.2534 -0.0273
 6520SOL    HW131019   4.630   0.234   1.273  1.1688 -1.0494 -0.3979
 6520SOL    HW231020   4.694   0.157   1.374 -2.8759 -0.6429  0.2429
 6521SOL     OW31021   2.912   2.214   8.341  0.0123 -0.1562  0.2777
 6521SOL    HW131022   2.984   2.239   8.398 -1.9968  2.0032  1.8830
 6521SOL    HW231023   2.932   2.127   8.307 -2.4162  0.3244 -2.4265
 6522SOL     OW31024   0.476   2.965   1.780  0.2800 -0.0945  0.3787
 6522SOL    HW131025   0.518   2.881   1.766 -2.1672 -1.0842 -0.9653
 6522SOL    HW231026   0.386   2.952   1.751 -0.3444  1.0609  1.8053
 6523SOL     OW31027   0.659   1.848   7.217  0.3836 -0.5372  0.1060
 6523SOL    HW131028   0.663   1.770   7.273  0.2284 -1.5214 -1.2432
 6523SOL    HW231029   0.737   1.898   7.241  0.5578 -1.4085  1.3749
 6524SOL     OW31030   2.064   0.614   5.880  0.9410 -0.4635 -0.3301
 6524SOL    HW131031   2.145   0.564   5.887  1.1598 -0.2994 -1.8186
 6524SOL    HW231032   2.021   0.571   5.806 -1.9223  0.5877  0.6803
 6525SOL     OW31033   0.827   4.570   5.797 -0.1706 -0.0818 -0.2349
 6525SOL    HW131034   0.876   4.567   5.715  2.2573 -2.4330  1.3019
 6525SOL    HW231035   0.738   4.571   5.761 -0.0080 -1.2113 -0.6652
 6526SOL     OW31036   0.611   2.929  13.312 -0.0649 -0.0284 -0.2225
 6526SOL    HW131037   0.703   2.952  13.298 -0.4475  0.4434 -1.9071
 6526SOL    HW231038   0.633   2.885  13.394  1.1335 -1.6720 -1.4215
 6527SOL     OW31039   0.522   1.554   4.237  1.0807  0.8525  0.0353
 6527SOL    HW131040   0.452   1.490   4.220  0.4682  1.0940  1.6749
 6527SOL    HW231041   0.517   1.615   4.164 -0.8792 -1.0639 -1.4520
 6528SOL     OW31042   4.287   4.022   5.439 -0.2819 -0.2888 -0.5410
 6528SOL    HW131043   4.198   4.021   5.404  0.6410 -1.5334 -2.8083
 6528SOL    HW231044   4.283   4.076   5.518 -1.1693 -2.5208  0.9397
 6529SOL     OW31045   2.032   2.110   5.716 -0.1875  0.1037  0.7474
 6529SOL    HW131046   2.080   2.190   5.738 -1.7490  0.6902  2.0311
 6529SOL    HW231047   2.083   2.045   5.763  0.5174  1.6832  2.1618
 6530SOL     OW31048   2.386   1.704   6.191 -0.2558  0.3338 -0.3528
 6530SOL    HW131049   2.482   1.698   6.184 -0.1769  0.8423  0.2143
 6530SOL    HW231050   2.376   1.686   6.285  0.7215  1.8305  0.0403
 6531SOL     OW31051   1.135   3.936   4.061 -0.0362 -0.3473  0.1602
 6531SOL    HW131052   1.230   3.934   4.046  0.1986  2.2012  1.3431
 6531SOL    HW231053   1.134   4.006   4.125 -0.4198  0.1156 -0.3537
 6532SOL     OW31054   3.011   2.650  12.558  0.0476 -0.6911 -0.5876
 6532SOL    HW131055   3.001   2.676  12.650 -1.0806 -0.3205 -0.8101
 6532SOL    HW231056   3.061   2.720  12.517 -2.6471  2.0155  0.7127
 6533SOL     OW31057   0.395   0.893  14.335 -0.6351  0.0239  0.1454
 6533SOL    HW131058   0.473   0.896  14.280 -0.5044  0.2585  0.3470
 6533SOL    HW231059   0.389   0.978  14.377  0.6271  0.7191 -1.0856
 6534SOL     OW31060   1.909   1.703   3.109 -0.1174 -0.0618 -0.0543
 6534SOL    HW131061   1.867   1.618   3.115 -0.9028  0.4184  1.0485
 6534SOL    HW231062   1.911   1.733   3.200  2.6858 -1.5094  0.3717
 6535SOL     OW31063   0.466   2.836   1.485 -0.0793  0.3300  0.2079
 6535SOL    HW131064   0.541   2.778   1.496  1.1553  1.7080 -1.1391
 6535SOL    HW231065   0.399   2.787   1.533 -1.4307  0.9550 -1.0372
 6536SOL     OW31066   2.448   2.808   3.137 -0.0568 -0.2460  0.3699
 6536SOL    HW131067   2.399   2.839   3.061 -0.8696  0.6130  1.2394
 6536SOL    HW231068   2.383   2.839   3.200 -0.5134 -0.8760  0.2119
 6537SOL     OW31069   0.723   4.392   4.262 -0.2130 -0.0610 -0.3801
 6537SOL    HW131070   0.800   4.348   4.299  0.7146  0.3286 -1.8129
 6537SOL    HW231071   0.713   4.342   4.181  0.7545  0.9673 -1.1338
 6538SOL     OW31072   2.453   1.314   4.629 -0.3976 -0.2332 -0.0763
 6538SOL    HW131073   2.507   1.291   4.554  0.8876 -0.2948  0.8676
 6538SOL    HW231074   2.389   1.246   4.610  0.7949 -1.0913 -0.9945
 6539SOL     OW31075   3.876   2.914  17.419  0.1476  0.3118  0.0991
 6539SOL    HW131076   3.833   2.895  17.502 -1.1505  2.3667 -0.0801
 6539SOL    HW231077   3.963   2.875  17.427  1.1076  2.1124 -1.4370
 6540SOL     OW31078   2.201   4.101   0.607 -0.5250  0.5846 -0.3809
 6540SOL    HW131079   2.268   4.101   0.675  0.1201  1.7797 -1.0185
 6540SOL    HW231080   2.239   4.155   0.538 -0.4603 -0.0115 -0.8169
 6541SOL     OW31081   2.482   0.843   1.380 -0.2632  0.1113  0.5441
 6541SOL    HW131082   2.494   0.913   1.315  1.2730 -2.0232 -1.4573
 6541SOL    HW231083   2.409   0.883   1.429 -1.4002 -0.7047 -0.4864
 6542SOL     OW31084   2.823   3.504   5.628 -0.2842  0.4464 -0.0644
 6542SOL    HW131085   2.761   3.462   5.688  0.1190 -0.7486 -0.4995
 6542SOL    HW231086   2.773   3.517   5.548  0.3057 -2.3463 -0.8895
 6543SOL     OW31087   3.824   3.364   8.515 -0.1201 -0.7186  0.2334
 6543SOL    HW131088   3.792   3.394   8.600  1.4085  0.3290  0.4315
 6543SOL    HW231089   3.752   3.306   8.491 -0.6805 -0.2514  0.7941
 6544SOL     OW31090   1.239   1.736   4.931 -0.0005 -0.2786 -0.1823
 6544SOL    HW131091   1.217   1.662   4.874 -0.0500 -2.5316  2.7676
 6544SOL    HW231092   1.156   1.768   4.966  0.9315 -0.8287  2.5273
 6545SOL     OW31093   2.675   2.822  12.879 -0.8936  0.2143 -0.3071
 6545SOL    HW131094   2.609   2.826  12.948 -0.1297 -1.0702  0.4804
 6545SOL    HW231095   2.646   2.895  12.823 -0.9759 -0.1429 -0.7275
 6546SOL     OW31096   2.688   0.510   5.482  0.2174 -0.5226  0.6103
 6546SOL    HW131097   2.714   0.597   5.454 -0.4005 -0.4767  0.1751
 6546SOL    HW231098   2.593   0.515   5.468  0.0480 -1.2382  1.4769
 6547SOL     OW31099   2.296   1.618   5.668 -0.0593  0.0108 -0.7029
 6547SOL    HW131100   2.245   1.537   5.669  1.9410 -1.2440  0.3250
 6547SOL    HW231101   2.317   1.625   5.762 -2.5310  0.1348 -0.1680
 6548SOL     OW31102   2.528   1.846   9.763  0.0396 -0.7406 -0.1456
 6548SOL    HW131103   2.463   1.778   9.746 -1.2410 -1.0296  5.7588
 6548SOL    HW231104   2.555   1.866   9.674  0.7591  1.5205  0.5886
 6549SOL     OW31105   2.995   4.515   5.713  0.4816 -0.0605  0.3229
 6549SOL    HW131106   3.057   4.586   5.700 -1.5015  1.9694  2.0812
 6549SOL    HW231107   3.032   4.456   5.647  1.4244  0.4834  0.3678
 6550SOL     OW31108   3.727   4.588   1.881 -0.1502 -0.0389 -0.0283
 6550SOL    HW131109   3.690   4.660   1.829  0.3829 -1.2031 -2.0032
 6550SOL    HW231110   3.747   4.646   1.954 -1.8808  0.1383  0.3193
 6551SOL     OW31111   0.033   0.980   4.535  0.5022  0.4351  1.0396
 6551SOL    HW131112   0.069   0.955   4.621 -0.5222  2.5713  2.0761
 6551SOL    HW231113   4.675   1.024   4.557 -0.8510 -1.7462  0.3419
 6552SOL     OW31114   1.539   0.070   6.704  0.1918  0.1104  0.3642
 6552SOL    HW131115   1.469   0.071   6.769 -1.4081 -0.7656 -1.3240
 6552SOL    HW231116   1.499   0.043   6.621 -0.2421 -0.9113  0.9091
 6553SOL     OW31117   1.976   2.636   3.952  0.0088  0.1476  0.3611
 6553SOL    HW131118   2.028   2.585   4.014 -1.5007 -1.2794  0.4712
 6553SOL    HW231119   1.959   2.565   3.890 -0.1345  1.1633 -0.7523
 6554SOL     OW31120   1.510   1.033  11.140  0.0367  0.4537 -0.1816
 6554SOL    HW131121   1.544   0.958  11.092 -0.4115 -1.1141  1.9777
 6554SOL    HW231122   1.420   1.026  11.106 -0.9590  5.9021  1.2932
 6555SOL     OW31123   0.778   3.045  15.419  0.0396  0.0808  0.4000
 6555SOL    HW131124   0.806   3.036  15.328 -0.2454  2.7847  0.0537
 6555SOL    HW231125   0.830   3.123  15.438  4.1639 -2.6245  0.4834
 6556SOL     OW31126   3.967   0.818   4.981  1.0103  0.1325  0.0731
 6556SOL    HW131127   3.957   0.781   4.893  0.4242  0.2408  0.0972
 6556SOL    HW231128   4.060   0.810   5.000  0.7448 -0.7675  0.9209
 6557SOL     OW31129   2.300   2.872   2.894 -0.0579  0.1094 -0.1349
 6557SOL    HW131130   2.218   2.909   2.860 -0.9525 -1.5931  0.1614
 6557SOL    HW231131   2.259   2.787   2.910  2.0731 -1.1098 -1.2033
 6558SOL     OW31132   0.990   4.030   8.605 -0.3000  0.0270  0.4878
 6558SOL    HW131133   1.069   3.987   8.638 -0.6521 -1.0424 -0.0583
 6558SOL    HW231134   0.968   4.093   8.673 -0.0324 -0.6535  1.1971
 6559SOL     OW31135   2.792   1.878   4.270  0.1147  0.1802 -0.3248
 6559SOL    HW131136   2.726   1.911   4.209 -0.1372 -0.4359 -0.3770
 6559SOL    HW231137   2.741   1.806   4.306  1.5411 -0.8928 -0.4701
 6560SOL     OW31138   3.829   4.403   5.771  0.6074  0.0638 -0.3008
 6560SOL    HW131139   3.826   4.312   5.799  2.2849 -0.2151 -1.0130
 6560SOL    HW231140   3.810   4.442   5.856 -1.5111 -0.9725 -0.3188
 6561SOL     OW31141   0.375   3.891   4.662 -0.4132  0.1798 -0.0897
 6561SOL    HW131142   0.451   3.871   4.607  0.6523  0.8972  1.1017
 6561SOL    HW231143   0.310   3.836   4.619  0.5054 -1.4426  0.5523
 6562SOL     OW31144   1.196   2.667  11.201 -0.1199  0.0205  0.1794
 6562SOL    HW131145   1.217   2.608  11.128  1.9328  2.0470 -0.8764
 6562SOL    HW231146   1.283   2.691  11.235  0.2854  0.4556 -1.1418
 6563SOL     OW31147   1.001   2.282   4.077  0.3264  0.0380  0.2704
 6563SOL    HW131148   0.978   2.274   3.984  1.0342 -1.3561  0.2147
 6563SOL    HW231149   0.924   2.330   4.108 -1.0182 -0.9768 -1.4509
 6564SOL     OW31150   3.705   3.478   4.418 -0.0885  0.2239  0.2236
 6564SOL    HW131151   3.687   3.475   4.324  2.6157  1.5717 -0.3296
 6564SOL    HW231152   3.777   3.537   4.399  0.0106  0.1197  0.2714
 6565SOL     OW31153   2.467   2.879   3.855 -0.5773  0.2858 -0.1760
 6565SOL    HW131154   2.381   2.846   3.879 -0.8061  1.4569  0.5904
 6565SOL    HW231155   2.519   2.820   3.910  0.0523  0.0663 -1.0017
 6566SOL     OW31156   3.685   1.315  12.191  0.2406  0.5822  0.1967
 6566SOL    HW131157   3.677   1.409  12.211 -0.4002  0.8802 -1.4708
 6566SOL    HW231158   3.719   1.274  12.271  1.5927  1.5217  0.1056
 6567SOL     OW31159   2.374   3.547   3.961  0.3232 -0.4143  0.3859
 6567SOL    HW131160   2.450   3.574   4.013  1.2056 -2.3062  0.0819
 6567SOL    HW231161   2.303   3.578   4.016  0.0147 -1.1486  0.4012
 6568SOL     OW31162   3.224   4.336   6.868 -0.4333  0.5697  0.1342
 6568SOL    HW131163   3.203   4.424   6.899  1.4506  0.3707  2.0236
 6568SOL    HW231164   3.141   4.302   6.900 -0.1107 -2.1509 -1.9546
 6569SOL     OW31165   0.594   0.841   8.216 -0.2109  0.0202 -0.3395
 6569SOL    HW131166   0.671   0.789   8.238  1.1680  1.7016 -1.2281
 6569SOL    HW231167   0.536   0.820   8.290 -2.3183  0.1185 -1.9588
 6570SOL     OW31168   1.356   0.202   7.814 -0.4584  0.5273  0.2729
 6570SOL    HW131169   1.324   0.112   7.824 -2.2535  1.1740  0.2987
 6570SOL    HW231170   1.437   0.186   7.766 -0.5336  0.3268  0.2153
 6571SOL     OW31171   1.694   4.709  14.382  0.8367 -0.2123  0.6127
 6571SOL    HW131172   1.623   0.025  14.331  1.1054  0.3996  0.7277
 6571SOL    HW231173   1.642   4.643  14.427 -2.1619  1.6017 -0.1800
 6572SOL     OW31174   0.952   3.260   4.465 -0.4567 -0.1526 -0.4912
 6572SOL    HW131175   0.887   3.259   4.395 -2.4125 -1.4149  1.3164
 6572SOL    HW231176   1.004   3.340   4.462 -1.4958  0.6161  2.5376
 6573SOL     OW31177   2.482   2.496  13.399  0.5268  0.0605 -0.5101
 6573SOL    HW131178   2.386   2.498  13.394  0.3712 -0.8323  2.0156
 6573SOL    HW231179   2.503   2.589  13.405 -1.7564  0.5033  0.4087
 6574SOL     OW31180   4.514   4.503   7.400 -0.0504  0.4271  0.3564
 6574SOL    HW131181   4.474   4.590   7.388 -0.0294  0.1451 -1.9175
 6574SOL    HW231182   4.502   4.485   7.493 -0.4114 -0.2312  0.1788
 6575SOL     OW31183   2.115   4.049  17.220  0.1778 -0.3369  0.0271
 6575SOL    HW131184   2.148   4.138  17.205 -1.4708  0.3464  0.4253
 6575SOL    HW231185   2.022   4.050  17.197  0.3759  1.0195 -0.6733
 6576SOL     OW31186   4.481   3.853  10.154 -0.1099 -0.7743  0.0958
 6576SOL    HW131187   4.481   3.776  10.098  1.6033 -0.0518 -0.8798
 6576SOL    HW231188   4.393   3.885  10.133 -0.4211 -0.8203  1.3263
 6577SOL     OW31189   4.133   2.208   4.196 -0.4903 -0.1320  0.5439
 6577SOL    HW131190   4.196   2.228   4.265  0.8239  0.0698 -0.7327
 6577SOL    HW231191   4.058   2.221   4.254 -1.2780 -0.9660 -0.2881
 6578SOL     OW31192   3.662   0.241   9.764  0.3994 -0.1493 -0.0917
 6578SOL    HW131193   3.602   0.220   9.836  1.2366 -0.7738  0.4143
 6578SOL    HW231194   3.611   0.295   9.704 -0.5012 -0.3804  0.4686
 6579SOL     OW31195   2.861   0.634   8.687 -0.0907 -0.7170  0.1985
 6579SOL    HW131196   2.897   0.613   8.601 -0.4577  2.6715 -0.8009
 6579SOL    HW231197   2.831   0.550   8.721 -3.1134 -0.1691 -1.1365
 6580SOL     OW31198   1.045   0.716   5.392  0.5248  0.5411 -0.5054
 6580SOL    HW131199   1.023   0.640   5.445  0.3587  1.0941  0.2211
 6580SOL    HW231200   0.966   0.746   5.348 -0.5420 -0.0098  1.0374
 6581SOL     OW31201   4.260   1.379   0.681  0.1289 -0.7169  0.1427
 6581SOL    HW131202   4.314   1.451   0.712 -1.9800  0.6231  0.7028
 6581SOL    HW231203   4.176   1.394   0.725 -0.5335 -0.8753 -1.0420
 6582SOL     OW31204   2.703   0.665   4.879 -0.4047  0.2050 -0.1225
 6582SOL    HW131205   2.655   0.745   4.901  1.5851  1.5681 -0.7159
 6582SOL    HW231206   2.759   0.700   4.809  3.1475 -0.8540  2.2228
 6583SOL     OW31207   3.425   2.610  10.686  0.2263 -0.1408 -0.0973
 6583SOL    HW131208   3.482   2.661  10.629  0.0671  0.6482  0.4455
 6583SOL    HW231209   3.463   2.609  10.774 -1.5654  0.4511  0.7055
 6584SOL     OW31210   2.080   3.005   4.210  0.1081 -0.4208 -0.4370
 6584SOL    HW131211   2.101   2.917   4.241  2.2792 -0.4286 -1.8828
 6584SOL    HW231212   1.988   2.992   4.189  0.2961  1.5099 -2.4544
 6585SOL     OW31213   3.550   4.400   1.019 -0.0227 -0.0956  0.5143
 6585SOL    HW131214   3.489   4.326   1.012 -1.0761  0.8237 -0.1369
 6585SOL    HW231215   3.506   4.463   0.962  0.2940 -1.6883 -1.5108
 6586SOL     OW31216   2.022   2.903  14.761 -0.1366  0.0053  0.9467
 6586SOL    HW131217   2.110   2.907  14.800  0.6318 -0.2800 -0.7384
 6586SOL    HW231218   1.986   2.981  14.804  2.8189  1.4355  0.8334
 6587SOL     OW31219   3.976   4.584  11.306 -0.2827 -0.0547  0.2093
 6587SOL    HW131220   4.017   4.597  11.220  1.4157  1.3368  1.2546
 6587SOL    HW231221   3.885   4.612  11.292 -0.4871  0.4263  2.4843
 6588SOL     OW31222   1.313   3.802  10.155  0.0714 -0.1884 -0.5017
 6588SOL    HW131223   1.404   3.798  10.124  0.0050 -0.0943 -0.7026
 6588SOL    HW231224   1.303   3.715  10.196 -2.6205  0.5643  0.4455
 6589SOL     OW31225   4.533   0.519   4.863  0.2409 -0.1446  0.2247
 6589SOL    HW131226   4.534   0.594   4.804  1.8722 -1.4363 -1.3854
 6589SOL    HW231227   4.457   0.544   4.916 -0.7726 -1.1389 -0.7729
 6590SOL     OW31228   2.046   0.773   0.062 -0.0486 -0.4519 -0.4628
 6590SOL    HW131229   2.029   0.681   0.080  0.7709  0.0629  2.8200
 6590SOL    HW231230   2.029   0.809   0.149 -3.6606  0.5018 -1.5583
 6591SOL     OW31231   4.348   0.036  16.830 -0.2078  0.9009  0.1118
 6591SOL    HW131232   4.441   0.059  16.828 -0.0043 -0.1134 -1.6457
 6591SOL    HW231233   4.304   0.121  16.830  0.1654  1.0893  1.9126
 6592SOL     OW31234   1.968   4.545   6.808  0.1112 -0.1598  0.0951
 6592SOL    HW131235   1.881   4.549   6.848  1.0296  0.4393  2.0673
 6592SOL    HW231236   2.018   4.510   6.882  0.8899  1.4239  0.3105
 6593SOL     OW31237   2.919   2.947  14.917  0.6513 -0.1825  0.1096
 6593SOL    HW131238   3.002   2.988  14.891 -0.9079  2.9735  0.2124
 6593SOL    HW231239   2.923   2.861  14.875  0.7966  0.0907 -0.4345
 6594SOL     OW31240   2.481   2.163  14.925  0.3912  0.1818  0.3461
 6594SOL    HW131241   2.540   2.135  14.995  0.9438 -0.5964 -0.4378
 6594SOL    HW231242   2.539   2.183  14.851  0.2562 -1.9219 -0.3318
 6595SOL     OW31243   0.077   1.841   6.783  0.2450 -0.3657  0.0069
 6595SOL    HW131244   0.115   1.785   6.851  1.0497 -0.0246 -0.1560
 6595SOL    HW231245   0.006   1.873   6.838  0.9868  0.1330  0.6897
 6596SOL     OW31246   2.248   1.717   3.469  0.3615  0.3875  0.0877
 6596SOL    HW131247   2.282   1.806   3.456  0.9505  0.1622  0.1083
 6596SOL    HW231248   2.322   1.665   3.438  2.4148  3.3640 -0.0347
 6597SOL     OW31249   0.809   1.076   4.552  0.0856  0.1840 -0.3118
 6597SOL    HW131250   0.849   1.074   4.639  1.5354 -0.3418 -0.9929
 6597SOL    HW231251   0.723   1.113   4.572  0.5307  1.1470 -0.1563
 6598SOL     OW31252   0.369   3.080  16.688  0.2585  0.2246 -0.1229
 6598SOL    HW131253   0.335   3.000  16.647  0.0650 -1.3628  3.1287
 6598SOL    HW231254   0.351   3.143  16.618  1.0507  2.2676  1.5095
 6599SOL     OW31255   3.076   1.467   5.696 -0.1949  0.2818  0.0077
 6599SOL    HW131256   3.109   1.507   5.777 -1.6081 -0.1291  0.7832
 6599SOL    HW231257   3.000   1.416   5.722 -0.0632 -0.0316 -0.2299
 6600SOL     OW31258   4.314   1.912  10.174 -0.0546  0.2890 -0.2115
 6600SOL    HW131259   4.340   1.941  10.261  1.6182  2.0468 -1.2805
 6600SOL    HW231260   4.226   1.880  10.189  0.6312 -0.8460  1.3222
 6601SOL     OW31261   2.239   3.242  13.672  0.6404  0.1896  0.6983
 6601SOL    HW131262   2.238   3.152  13.641 -1.4580  0.9005 -1.2750
 6601SOL    HW231263   2.330   3.259  13.646 -0.1050  1.8287 -0.8371
 6602SOL     OW31264   3.430   4.659   7.194 -0.4562  0.4987 -0.3639
 6602SOL    HW131265   3.351   4.692   7.150 -0.3492 -0.2760 -1.1500
 6602SOL    HW231266   3.476   0.019   7.197 -1.2625  0.8665  1.6799
 6603SOL     OW31267   0.353   0.523  11.235 -0.0768  0.0100  0.0696
 6603SOL    HW131268   0.277   0.472  11.262  0.7316 -0.3972  1.5820
 6603SOL    HW231269   0.342   0.524  11.140 -1.2711 -0.6631  0.2009
 6604SOL     OW31270   1.321   2.358  14.113 -0.2541 -0.9306  0.5062
 6604SOL    HW131271   1.265   2.312  14.050  0.4391 -0.6133 -0.3454
 6604SOL    HW231272   1.401   2.307  14.101  0.5017  0.3641 -0.0052
 6605SOL     OW31273   4.163   1.834  11.688  0.0298 -1.2312 -0.8710
 6605SOL    HW131274   4.257   1.844  11.702 -0.1826 -1.8383  1.0637
 6605SOL    HW231275   4.142   1.811  11.779 -1.2788  1.5903 -0.4657
 6606SOL     OW31276   0.108   1.855   4.106 -0.5662 -0.2472  0.1375
 6606SOL    HW131277   0.116   1.853   4.201  0.5750 -2.1517  0.0142
 6606SOL    HW231278   0.059   1.773   4.094  0.2014 -0.3204 -2.5512
 6607SOL     OW31279   1.448   1.239   8.795  0.1639 -0.3610  0.5343
 6607SOL    HW131280   1.388   1.168   8.817 -0.5666 -0.5535 -2.0340
 6607SOL    HW231281   1.462   1.217   8.703 -3.0844 -0.9649  0.1769
 6608SOL     OW31282   4.714   0.203   8.482 -0.0558 -0.3996  0.0121
 6608SOL    HW131283   0.023   0.259   8.413  1.3587 -1.0044  0.2109
 6608SOL    HW231284   0.002   0.113   8.451 -0.6344 -0.0205 -1.3222
 6609SOL     OW31285   3.129   3.869   6.091  0.0735 -0.1267 -0.2937
 6609SOL    HW131286   3.142   3.880   6.185 -1.5655 -1.1266  0.0511
 6609SOL    HW231287   3.216   3.882   6.055  1.5176 -3.0577  2.1752
 6610SOL     OW31288   0.325   3.265  15.232 -0.5065 -0.1464  0.4397
 6610SOL    HW131289   0.377   3.250  15.153 -0.3618  1.1005  0.3027
 6610SOL    HW231290   0.241   3.282  15.189 -0.1916  1.5714  0.5330
 6611SOL     OW31291   2.280   1.727  14.684 -0.6175 -0.2401  0.2520
 6611SOL    HW131292   2.263   1.663  14.753 -1.0017  1.0492  1.3471
 6611SOL    HW231293   2.213   1.793  14.703 -1.7680 -1.2280 -0.3831
 6612SOL     OW31294   2.083   2.331   7.649  0.1057  0.8314  0.1402
 6612SOL    HW131295   2.023   2.302   7.718  0.1866  0.8420  0.2146
 6612SOL    HW231296   2.111   2.244   7.621  0.4240  0.4460  1.6751
 6613SOL     OW31297   4.004   4.474  13.372  0.5598  0.2568  0.4683
 6613SOL    HW131298   3.991   4.455  13.465  0.4548 -1.0056  0.1949
 6613SOL    HW231299   4.021   4.387  13.335 -1.4634 -0.6471  1.6815
 6614SOL     OW31300   3.354   0.875  10.728  0.0788  0.3466  0.4418
 6614SOL    HW131301   3.339   0.811  10.658  2.7689  0.8857 -0.6002
 6614SOL    HW231302   3.367   0.816  10.802  3.7178  0.9642  0.2904
 6615SOL     OW31303   3.006   2.797   5.606  0.5439  0.7846  0.5075
 6615SOL    HW131304   3.049   2.801   5.692  0.9267  1.7437  0.2746
 6615SOL    HW231305   2.920   2.831   5.632  0.5057  1.3143 -0.3196
 6616SOL     OW31306   0.525   0.398   2.850 -0.2871  0.0663 -0.2466
 6616SOL    HW131307   0.567   0.326   2.899  0.9636  0.4999 -0.6663
 6616SOL    HW231308   0.435   0.400   2.883 -0.2730 -1.8546 -0.0673
 6617SOL     OW31309   1.143   1.462   5.713 -0.3942 -0.4672 -0.0073
 6617SOL    HW131310   1.152   1.540   5.659  1.9409 -0.4428  0.4176
 6617SOL    HW231311   1.168   1.389   5.657  2.4961 -0.5681  1.4020
 6618SOL     OW31312   0.714   4.494   9.447  0.7132  0.1597 -0.2132
 6618SOL    HW131313   0.766   4.415   9.457  1.6826  0.6835 -1.1559
 6618SOL    HW231314   0.697   4.496   9.353  0.1969 -2.1104 -0.1640
 6619SOL     OW31315   2.087   4.433   3.831  0.0987 -0.0573 -0.7581
 6619SOL    HW131316   2.054   4.352   3.870  1.6738  0.6035  1.9660
 6619SOL    HW231317   2.098   4.406   3.740 -0.7666  1.2374 -1.2492
 6620SOL     OW31318   3.065   0.006  10.042 -0.0168  0.1686 -0.2588
 6620SOL    HW131319   3.072   0.083   9.986  0.6363  0.5622  0.3721
 6620SOL    HW231320   3.082   0.058  10.120  1.2166  0.7018 -0.8854
 6621SOL     OW31321   0.455   1.894   5.599  0.0768 -0.3623  0.0841
 6621SOL    HW131322   0.501   1.897   5.683 -1.3111  0.4590  0.8201
 6621SOL    HW231323   0.400   1.816   5.601  0.7556 -0.7601  2.4677
 6622SOL     OW31324   0.518   2.666  16.246 -0.8204 -0.0756 -0.0155
 6622SOL    HW131325   0.434   2.710  16.238 -0.0282  1.3138 -0.6384
 6622SOL    HW231326   0.493   2.576  16.266  0.4463 -0.3335  0.4352
 6623SOL     OW31327   4.427   4.673   0.330  0.5083  0.4353 -0.4509
 6623SOL    HW131328   4.500   4.642   0.384  0.1374  1.4976  0.6621
 6623SOL    HW231329   4.420   0.041   0.356 -3.4230 -0.4843  1.7876
 6624SOL     OW31330   2.013   2.586   9.721  0.1451 -0.2035  0.1039
 6624SOL    HW131331   1.941   2.570   9.782 -2.0349 -1.1864 -2.7090
 6624SOL    HW231332   2.081   2.634   9.769  0.4581  0.3445 -0.8638
 6625SOL     OW31333   4.647   4.471  13.615  0.6008 -0.0833  0.1602
 6625SOL    HW131334   4.669   4.497  13.705 -0.2885 -0.5865  0.5230
 6625SOL    HW231335   4.685   4.544  13.566  0.1845  0.1113  0.1216
 6626SOL     OW31336   1.315   2.265   8.114  0.0031  0.0152  0.0657
 6626SOL    HW131337   1.372   2.239   8.186 -1.0096 -0.6962  0.6206
 6626SOL    HW231338   1.228   2.249   8.152 -0.5032 -2.2454 -2.0575
 6627SOL     OW31339   0.585   3.725  10.018  0.8543  0.9541 -0.3654
 6627SOL    HW131340   0.659   3.786  10.009 -0.0790  1.8606 -2.0134
 6627SOL    HW231341   0.522   3.792  10.043  0.7930  0.4057  0.9231
 6628SOL     OW31342   0.495   1.092  10.567  0.1599  0.1158  0.3242
 6628SOL    HW131343   0.522   1.096  10.659  0.8670 -0.5388  0.1521
 6628SOL    HW231344   0.538   1.166  10.524  0.2671  0.0056  0.2375
 6629SOL     OW31345   2.146   0.869  10.780 -0.0579  0.1629  0.1976
 6629SOL    HW131346   2.221   0.822  10.814 -1.2523 -2.1255 -0.3329
 6629SOL    HW231347   2.186   0.888  10.695 -2.1976 -2.8368 -1.4780
 6630SOL     OW31348   3.130   3.668   1.873 -0.3587 -0.2838 -0.2753
 6630SOL    HW131349   3.220   3.641   1.888 -0.7256  0.2657  3.0564
 6630SOL    HW231350   3.081   3.590   1.900  2.4956 -2.3968 -1.3011
 6631SOL     OW31351   3.985   1.907  14.548  0.1780  0.0386  0.0267
 6631SOL    HW131352   3.970   1.818  14.518  0.0911  0.7058 -1.8648
 6631SOL    HW231353   3.973   1.958  14.468 -0.7915  0.4593  0.4373
 6632SOL     OW31354   4.353   0.354   6.144 -0.1859  0.5650  0.3369
 6632SOL    HW131355   4.421   0.288   6.159 -0.5909 -0.0608 -0.5915
 6632SOL    HW231356   4.307   0.331   6.063  1.0106 -1.0898  0.1279
 6633SOL     OW31357   2.056   1.866   0.205  0.4720 -0.0685  0.1510
 6633SOL    HW131358   2.072   1.784   0.251 -1.5369 -1.1659 -1.1168
 6633SOL    HW231359   2.137   1.915   0.219 -0.5613  1.5178  0.6524
 6634SOL     OW31360   2.068   4.501  15.720  0.2430  0.1676  0.5655
 6634SOL    HW131361   2.056   4.446  15.797  0.2081 -1.5992 -0.7062
 6634SOL    HW231362   2.086   4.585  15.763  2.9940 -0.3900  0.4846
 6635SOL     OW31363   1.169   3.246   2.142 -0.1877  0.3315 -0.7193
 6635SOL    HW131364   1.114   3.323   2.130 -1.5606 -0.4327  0.7363
 6635SOL    HW231365   1.161   3.238   2.237  0.9244  0.5664 -0.6069
 6636SOL     OW31366   2.314   0.711  16.118 -0.0883  0.2394  0.5268
 6636SOL    HW131367   2.340   0.782  16.177  2.5272  0.4059 -0.7988
 6636SOL    HW231368   2.300   0.638  16.178  1.5563 -1.0837 -0.6742
 6637SOL     OW31369   4.171   1.266  15.421  0.3435 -0.0948  0.4280
 6637SOL    HW131370   4.154   1.296  15.332 -1.6409 -0.6015  0.6464
 6637SOL    HW231371   4.163   1.347  15.473  1.2246 -0.8850  1.8092
 6638SOL     OW31372   4.371   3.196  13.891 -0.4075 -0.1401 -0.3570
 6638SOL    HW131373   4.393   3.280  13.933 -1.5371 -0.4533  0.8502
 6638SOL    HW231374   4.308   3.239  13.833 -0.1848  1.1900  0.3778
 6639SOL     OW31375   2.796   4.618   1.389 -0.1591 -0.8511  0.5053
 6639SOL    HW131376   2.850   4.627   1.310  0.5208  0.4921  1.1165
 6639SOL    HW231377   2.810   4.701   1.436 -2.5775 -0.5654  0.7173
 6640SOL     OW31378   4.686   3.532   0.696  1.0199  0.1410 -0.0860
 6640SOL    HW131379   0.022   3.466   0.662 -0.5273 -1.7156  0.7334
 6640SOL    HW231380   0.030   3.590   0.729  1.6118  1.5322 -3.8302
 6641SOL     OW31381   1.852   2.641   8.650 -0.5275 -0.5346  0.2420
 6641SOL    HW131382   1.817   2.730   8.638 -2.4729 -1.3150  0.2762
 6641SOL    HW231383   1.778   2.601   8.604  0.0750 -1.7307  0.3194
 6642SOL     OW31384   2.864   1.320   4.428  0.1877  0.3700 -0.3471
 6642SOL    HW131385   2.939   1.379   4.442  0.2984  0.3166 -0.7249
 6642SOL    HW231386   2.901   1.258   4.365 -2.2693 -0.7687 -0.6585
 6643SOL     OW31387   0.493   2.993   5.790 -0.0277 -0.4169  0.0350
 6643SOL    HW131388   0.418   2.952   5.748 -0.0583  0.3759 -0.6890
 6643SOL    HW231389   0.504   3.073   5.739  0.1446  0.2469  1.0959
 6644SOL     OW31390   3.440   2.966   2.977 -0.3028 -0.4397 -1.0001
 6644SOL    HW131391   3.362   2.916   2.954 -0.4980 -0.6422  0.0893
 6644SOL    HW231392   3.486   2.897   3.024 -0.7563 -0.3253 -0.3872
 6645SOL     OW31393   4.142   1.104   5.516 -0.1678 -0.1223  0.2196
 6645SOL    HW131394   4.163   1.135   5.604  1.2168 -0.3754 -0.0304
 6645SOL    HW231395   4.054   1.135   5.493  0.9910  2.6216 -0.4969
 6646SOL     OW31396   3.483   1.952  10.215 -0.1653  0.0670  0.0274
 6646SOL    HW131397   3.478   2.031  10.269 -3.0161 -0.0150 -0.1167
 6646SOL    HW231398   3.439   1.881  10.261 -0.9599  1.4301  1.3651
 6647SOL     OW31399   0.096   3.729   3.494 -0.8602  0.1845 -0.0468
 6647SOL    HW131400   0.088   3.725   3.399  3.0602  2.9880 -0.4960
 6647SOL    HW231401   0.188   3.751   3.507 -0.5733 -1.0506  0.0328
 6648SOL     OW31402   4.056   3.602   5.621  0.6639  0.7044  0.0987
 6648SOL    HW131403   4.082   3.513   5.601 -0.1291  0.6805 -0.8411
 6648SOL    HW231404   4.113   3.644   5.556 -1.1659 -0.6845 -2.4107
 6649SOL     OW31405   2.980   1.898  12.351  0.6176 -0.1019 -0.0021
 6649SOL    HW131406   2.905   1.852  12.389  0.7782 -1.3315 -1.1807
 6649SOL    HW231407   2.993   1.858  12.265 -1.0532  0.4714 -0.5221
 6650SOL     OW31408   0.576   0.807   4.886 -0.0875  0.0598 -0.0130
 6650SOL    HW131409   0.538   0.749   4.952 -0.7634  0.0818 -0.3872
 6650SOL    HW231410   0.592   0.890   4.931  1.2979 -1.4126  2.2823
 6651SOL     OW31411   3.257   4.671   3.499  0.2429  0.3171  0.1458
 6651SOL    HW131412   3.251   4.616   3.421 -2.9582 -1.4241  1.5919
 6651SOL    HW231413   3.188   0.013   3.488 -0.2302 -0.1147  0.4755
 6652SOL     OW31414   1.873   1.567   7.368  0.1694  0.7609 -0.2284
 6652SOL    HW131415   1.873   1.471   7.366 -1.0536  0.7268  1.5192
 6652SOL    HW231416   1.784   1.583   7.336 -1.1153 -2.6238  1.7160
 6653SOL     OW31417   3.142   4.543   9.829  0.3434  0.2157 -0.5084
 6653SOL    HW131418   3.141   4.605   9.902  0.1701  2.4925 -2.4343
 6653SOL    HW231419   3.091   4.590   9.763  1.0740  0.8754 -0.6043
 6654SOL     OW31420   0.915   1.065   4.823 -0.2523 -0.1597 -0.1470
 6654SOL    HW131421   0.994   1.038   4.871  0.1091  0.0364 -0.6374
 6654SOL    HW231422   0.841   1.061   4.884 -0.5919  0.4956 -0.5205
 6655SOL     OW31423   0.616   3.522   1.686 -0.1100 -0.5204  0.0250
 6655SOL    HW131424   0.608   3.427   1.701 -2.0195 -0.4321 -0.4890
 6655SOL    HW231425   0.654   3.522   1.598 -1.2943 -1.8763 -0.4883
 6656SOL     OW31426   1.327   2.756   5.840  0.0424  0.1864  0.3203
 6656SOL    HW131427   1.232   2.760   5.829  0.1598 -0.3823 -0.8430
 6656SOL    HW231428   1.347   2.687   5.778  1.7964 -0.6986  1.8673
 6657SOL     OW31429   3.916   4.134  15.321  0.0728  0.0526 -0.1190
 6657SOL    HW131430   3.884   4.059  15.372 -1.4214  1.7776  1.4706
 6657SOL    HW231431   3.934   4.185  15.400 -1.3078 -0.3142  0.4357
 6658SOL     OW31432   4.475   3.307   2.380 -0.0697  0.0062 -0.0931
 6658SOL    HW131433   4.538   3.350   2.437  3.4521 -2.3463 -2.1779
 6658SOL    HW231434   4.396   3.355   2.404 -0.6271 -1.5653  1.2394
 6659SOL     OW31435   2.277   1.813   7.313 -0.4479  0.0391 -0.4496
 6659SOL    HW131436   2.219   1.751   7.356 -0.6958  0.6768  0.1363
 6659SOL    HW231437   2.346   1.805   7.379  0.9173  1.8492 -1.6583
 6660SOL     OW31438   2.204   0.481   3.263 -0.1802 -0.4868  0.1392
 6660SOL    HW131439   2.282   0.463   3.210  0.8981  0.8105  1.2824
 6660SOL    HW231440   2.185   0.551   3.201 -1.5112 -0.7831  0.2322
 6661SOL     OW31441   0.376   1.688   7.505  0.7717  0.0990  0.2170
 6661SOL    HW131442   0.330   1.609   7.532  1.0449  0.0086  0.4153
 6661SOL    HW231443   0.318   1.723   7.438  1.0602 -0.9402 -0.5723
 6662SOL     OW31444   0.801   1.699  10.722  0.1618  0.2412  0.2368
 6662SOL    HW131445   0.764   1.787  10.730  1.1827  0.9751 -3.0532
 6662SOL    HW231446   0.726   1.654  10.761  2.4561 -2.9271  1.0604
 6663SOL     OW31447   0.530   1.542   2.918  0.0071 -0.3999  0.2181
 6663SOL    HW131448   0.481   1.460   2.927 -0.1837 -0.7030 -3.6853
 6663SOL    HW231449   0.516   1.577   2.830  1.0126 -0.7285 -0.0662
 6664SOL     OW31450   4.324   1.024   4.445 -0.1925 -0.0191  0.0404
 6664SOL    HW131451   4.307   1.005   4.352 -0.1452  1.9923 -0.3963
 6664SOL    HW231452   4.361   0.942   4.475  0.5056  0.1147 -0.4482
 6665SOL     OW31453   2.166   2.366  12.470  0.2493  0.7213  0.6532
 6665SOL    HW131454   2.237   2.343  12.411 -1.6786 -1.3270 -0.8324
 6665SOL    HW231455   2.131   2.279  12.489 -0.9919  0.9948 -0.3611
 6666SOL     OW31456   2.408   3.157   2.856  0.1735  0.5712 -0.7284
 6666SOL    HW131457   2.327   3.121   2.894 -0.0484  3.0455  1.1410
 6666SOL    HW231458   2.369   3.223   2.799 -0.1076  1.1772  0.1668
 6667SOL     OW31459   0.892   2.508   2.733 -0.1124  0.7510 -0.2516
 6667SOL    HW131460   0.800   2.499   2.758  0.5430 -0.9421  1.5961
 6667SOL    HW231461   0.901   2.596   2.768 -2.2651  0.3403  1.3400
 6668SOL     OW31462   2.190   0.250   4.243 -0.6402 -0.3474  0.0028
 6668SOL    HW131463   2.162   0.275   4.154  0.6291  3.4693  0.7122
 6668SOL    HW231464   2.282   0.273   4.245 -0.2929 -1.7450  0.1996
 6669SOL     OW31465   3.062   1.775   5.669 -0.7431 -0.2665 -0.3326
 6669SOL    HW131466   3.127   1.796   5.736 -0.8849  0.9488 -0.5868
 6669SOL    HW231467   2.991   1.762   5.732  0.0580 -1.7020  0.2958
 6670SOL     OW31468   0.592   4.496  15.949 -0.5419 -0.1091 -0.7173
 6670SOL    HW131469   0.591   4.532  15.860 -3.6594 -0.9204 -0.9982
 6670SOL    HW231470   0.596   4.576  16.002 -1.5882  0.3553 -1.3304
 6671SOL     OW31471   4.397   2.904   2.924 -0.4315  0.3231  0.3772
 6671SOL    HW131472   4.417   2.836   2.860  1.3137 -1.3897  2.7366
 6671SOL    HW231473   4.400   2.849   3.003 -2.1426 -1.9493 -1.1170
 6672SOL     OW31474   0.318   2.689   1.638 -0.0596 -0.7496  0.1845
 6672SOL    HW131475   0.278   2.675   1.724 -2.2786 -0.2960 -0.7739
 6672SOL    HW231476   0.324   2.596   1.613  3.9993 -0.6512  0.8198
 6673SOL     OW31477   3.049   2.924   6.257 -0.5385 -0.0423  0.5371
 6673SOL    HW131478   3.098   2.847   6.227 -1.7916  0.1698 -2.0756
 6673SOL    HW231479   3.081   2.934   6.346 -0.8246  0.6567  0.5636
 6674SOL     OW31480   2.869   3.548   9.251  0.2194  0.2447 -0.1713
 6674SOL    HW131481   2.882   3.528   9.159  1.0708  3.5412 -0.8001
 6674SOL    HW231482   2.798   3.489   9.275  1.9216 -1.7317 -0.0308
 6675SOL     OW31483   1.618   3.682   8.162  0.2080  0.4841  0.0563
 6675SOL    HW131484   1.709   3.666   8.137 -0.1571 -1.6875  0.1155
 6675SOL    HW231485   1.615   3.636   8.246  2.2133  0.8328  0.3094
 6676SOL     OW31486   3.793   2.609   2.167 -0.6276  0.5266 -0.0808
 6676SOL    HW131487   3.750   2.547   2.108  1.5150 -1.2123  0.1787
 6676SOL    HW231488   3.743   2.689   2.150 -0.5151  0.7481  0.6250
 6677SOL     OW31489   2.244   0.986   2.432  0.5763 -0.1283 -0.7897
 6677SOL    HW131490   2.236   0.891   2.432 -2.9305  0.1811 -1.3004
 6677SOL    HW231491   2.173   1.000   2.495  0.3785  0.5747 -1.1734
 6678SOL     OW31492   2.370   1.409   7.307  0.0438 -0.3193  0.2955
 6678SOL    HW131493   2.332   1.424   7.221  1.3244  1.3132  0.0242
 6678SOL    HW231494   2.449   1.463   7.309 -0.5499  0.5465  0.0275
 6679SOL     OW31495   3.853   2.179   6.639 -0.3305  0.1807  0.1200
 6679SOL    HW131496   3.787   2.181   6.709 -0.4132 -2.2469  0.1015
 6679SOL    HW231497   3.814   2.215   6.559 -0.0673 -0.8184 -0.4597
 6680SOL     OW31498   4.537   2.206   3.016 -0.0703  0.5011 -0.1210
 6680SOL    HW131499   4.536   2.199   2.921 -1.3339  1.1199 -0.1528
 6680SOL    HW231500   4.445   2.194   3.044 -0.2876 -0.1933 -1.1461
 6681SOL     OW31501   3.810   3.820   9.407  0.1417  0.1230  0.1983
 6681SOL    HW131502   3.834   3.729   9.388  2.4857  0.9557 -0.8028
 6681SOL    HW231503   3.754   3.822   9.484 -0.8716  1.0943 -0.5522
 6682SOL     OW31504   2.238   0.018   3.559 -0.6393  0.1296 -0.0360
 6682SOL    HW131505   2.215   0.093   3.504 -2.0544  0.0631  0.4717
 6682SOL    HW231506   2.307   0.057   3.613 -0.2240 -0.1436 -0.3725
 6683SOL     OW31507   2.899   4.555   6.114 -0.5318 -0.0602 -0.0992
 6683SOL    HW131508   2.828   4.503   6.152  0.0658  0.5992  1.9769
 6683SOL    HW231509   2.956   4.482   6.091 -0.1287  0.7253 -1.5757
 6684SOL     OW31510   0.289   0.343   2.977  0.0830 -0.3049  0.4944
 6684SOL    HW131511   0.231   0.267   2.975  0.7496 -0.8065  0.1803
 6684SOL    HW231512   0.224   0.413   2.978  1.1923  0.7094  1.7994
 6685SOL     OW31513   0.512   1.521   3.693 -0.3669  0.2226  0.1810
 6685SOL    HW131514   0.429   1.552   3.655  0.2375  0.7808 -0.6806
 6685SOL    HW231515   0.562   1.505   3.613 -1.2439 -0.6929 -0.1902
 6686SOL     OW31516   2.493   0.984   2.123  0.6902  0.2262  0.0618
 6686SOL    HW131517   2.556   0.978   2.195  1.4398 -1.6425 -0.7559
 6686SOL    HW231518   2.446   1.062   2.153 -1.9468 -2.3739  2.7111
 6687SOL     OW31519   0.346   2.011   3.864 -0.0701 -0.3976  0.1038
 6687SOL    HW131520   0.363   2.093   3.819  2.1147 -1.3268 -0.7975
 6687SOL    HW231521   0.372   2.028   3.955 -0.4081 -0.9970  0.3150
 6688SOL     OW31522   1.288   3.886   1.080 -0.0689  0.2539  0.0067
 6688SOL    HW131523   1.240   3.880   1.163  1.1813  1.6932  0.8429
 6688SOL    HW231524   1.210   3.885   1.026 -0.0014  2.6127 -0.1356
 6689SOL     OW31525   0.475   4.626   9.793  0.3216 -0.6655 -0.3896
 6689SOL    HW131526   0.493   4.716   9.767  0.2512 -0.1299  1.3982
 6689SOL    HW231527   0.451   4.594   9.706  0.2383  2.6139 -1.5599
 6690SOL     OW31528   2.714   4.022   3.903 -0.1519 -0.5497  0.3386
 6690SOL    HW131529   2.739   4.014   3.995  0.5935 -1.1573  0.0774
 6690SOL    HW231530   2.674   3.938   3.881  1.7393 -1.0140 -1.2954
 6691SOL     OW31531   0.619   4.681  16.131  0.1820  0.3418 -0.2975
 6691SOL    HW131532   0.701   4.720  16.101  0.8627 -0.0158  1.0852
 6691SOL    HW231533   0.573   0.027  16.178 -1.6193 -1.0955  0.0915
 6692SOL     OW31534   4.334   3.697  12.011 -0.6749  0.0707 -0.8661
 6692SOL    HW131535   4.376   3.615  12.037 -0.1856  0.4401 -0.4834
 6692SOL    HW231536   4.251   3.682  12.055  0.2303 -2.3204 -0.0091
 6693SOL     OW31537   2.008   0.808   6.071  0.0847 -0.3427  0.5533
 6693SOL    HW131538   2.095   0.781   6.102  0.3174 -0.4149 -0.1602
 6693SOL    HW231539   1.992   0.741   6.004  2.1775  1.1877 -1.4656
 6694SOL     OW31540   0.872   0.831   6.284  0.2281  0.6147 -0.6830
 6694SOL    HW131541   0.868   0.927   6.286 -0.8160  0.5838 -1.1096
 6694SOL    HW231542   0.846   0.805   6.196 -0.4032 -1.7377  0.2165
 6695SOL     OW31543   3.248   0.388  10.166  0.3240  0.2514  0.3368
 6695SOL    HW131544   3.249   0.467  10.221  1.6153  1.0116 -0.7889
 6695SOL    HW231545   3.308   0.414  10.096 -0.5230  0.4604 -0.3129
 6696SOL     OW31546   2.888   1.645  11.611  0.0729 -0.4482  0.2504
 6696SOL    HW131547   2.826   1.608  11.548 -1.5850  2.7471  0.0259
 6696SOL    HW231548   2.969   1.601  11.586  0.6866  0.7629  0.1492
 6697SOL     OW31549   1.641   2.436   7.841 -0.2211  0.5255 -0.3753
 6697SOL    HW131550   1.648   2.531   7.845  1.1773  0.4164 -0.1903
 6697SOL    HW231551   1.561   2.433   7.894  0.8737  0.5498  1.2714
 6698SOL     OW31552   4.124   4.502  15.749 -0.1557 -0.0250  0.0222
 6698SOL    HW131553   4.043   4.494  15.799  0.4057 -0.0168  0.9402
 6698SOL    HW231554   4.183   4.453  15.807  2.1089  1.5184 -0.9676
 6699SOL     OW31555   1.421   0.303   4.789 -0.3636 -0.4725 -0.7450
 6699SOL    HW131556   1.334   0.342   4.781 -0.6336 -1.5472 -2.9227
 6699SOL    HW231557   1.483   0.341   4.727 -1.3182  1.4686 -0.5305
 6700SOL     OW31558   2.209   1.064   1.068  0.1203  0.1192  0.5977
 6700SOL    HW131559   2.178   1.134   1.125 -1.0700 -0.0847  0.2129
 6700SOL    HW231560   2.136   1.057   1.007  0.1287 -1.9295  0.8030
 6701SOL     OW31561   4.033   4.702   2.137  0.1302  0.3362  0.2729
 6701SOL    HW131562   3.938   4.690   2.126  0.3587 -0.0894 -1.2445
 6701SOL    HW231563   4.062   0.030   2.063 -0.0962  1.2003  0.7906
 6702SOL     OW31564   0.348   3.550   4.045 -0.6508 -0.1923  0.2506
 6702SOL    HW131565   0.413   3.576   4.110 -1.9772  0.8470  1.1550
 6702SOL    HW231566   0.400   3.483   4.001 -0.7060 -1.1038  1.5925
 6703SOL     OW31567   0.906   0.185   4.587 -0.5660 -0.4078  0.0833
 6703SOL    HW131568   0.858   0.181   4.670  0.0206  0.2621  0.4533
 6703SOL    HW231569   0.833   0.187   4.525  1.5103 -0.4273 -2.3552
 6704SOL     OW31570   0.251   3.216   5.494 -0.1251  0.2172  0.2220
 6704SOL    HW131571   0.343   3.199   5.513 -0.0579  0.3702  0.0250
 6704SOL    HW231572   0.252   3.196   5.401 -1.3978 -2.2447  0.7246
 6705SOL     OW31573   2.809   2.883  12.263  0.4366  0.5429  0.4010
 6705SOL    HW131574   2.796   2.920  12.176  1.5395 -1.7477 -0.7670
 6705SOL    HW231575   2.873   2.816  12.239 -2.9840 -1.3269 -3.4727
 6706SOL     OW31576   3.924   3.008  14.589 -0.5326  0.4494 -0.5903
 6706SOL    HW131577   3.842   2.967  14.615  0.1985 -1.3644 -1.1789
 6706SOL    HW231578   3.986   2.979  14.656 -0.4909 -1.3286 -1.4034
 6707SOL     OW31579   0.647   1.123   5.287 -0.0220  0.3354 -0.3026
 6707SOL    HW131580   0.589   1.198   5.303 -0.7927 -0.6356  1.4739
 6707SOL    HW231581   0.670   1.098   5.377  0.1021  1.2087 -0.0901
 6708SOL     OW31582   4.307   0.411   8.074  0.1338 -0.4567  0.2535
 6708SOL    HW131583   4.384   0.396   8.020 -0.7321 -2.5093 -0.3973
 6708SOL    HW231584   4.339   0.416   8.165  2.6729  0.3145 -0.6696
 6709SOL     OW31585   3.260   2.964   9.413 -0.2551  0.1252  0.1519
 6709SOL    HW131586   3.301   3.000   9.491  3.0151  2.0745 -2.4363
 6709SOL    HW231587   3.293   2.875   9.400 -2.6823 -0.7240 -0.1321
 6710SOL     OW31588   4.038   4.184   0.616 -0.0261  0.2264  0.4724
 6710SOL    HW131589   4.110   4.184   0.553 -0.9888  1.8916 -0.6289
 6710SOL    HW231590   4.050   4.269   0.659  0.3086  1.6579 -2.4014
 6711SOL     OW31591   1.543   1.249   7.336  0.1410  0.6875  0.5202
 6711SOL    HW131592   1.466   1.305   7.332 -0.5509 -0.4313 -2.0577
 6711SOL    HW231593   1.549   1.235   7.431 -0.6317 -0.5327  0.3947
 6712SOL     OW31594   1.465   1.658   4.176  0.1856 -0.4600 -0.4637
 6712SOL    HW131595   1.468   1.645   4.081  0.5460  0.1886 -0.5378
 6712SOL    HW231596   1.382   1.614   4.195  0.0865 -0.1230 -0.1236
 6713SOL     OW31597   3.096   4.113   0.569 -0.1683  0.4704 -0.0852
 6713SOL    HW131598   3.091   4.023   0.602  2.4697  0.3982  0.0663
 6713SOL    HW231599   3.055   4.108   0.482  1.8761  0.2042 -1.0290
 6714SOL     OW31600   0.222   2.432   3.070 -0.0010  0.9010  0.3118
 6714SOL    HW131601   0.308   2.412   3.105 -0.2212 -3.0506 -1.4292
 6714SOL    HW231602   0.223   2.408   2.977  0.4837  1.6874  0.1157
 6715SOL     OW31603   2.961   0.947   6.145  0.2429  0.6354  0.4079
 6715SOL    HW131604   2.985   0.855   6.136 -1.7632  0.0987  0.6716
 6715SOL    HW231605   3.050   0.977   6.165  0.6446 -0.9154  0.9381
 6716SOL     OW31606   0.740   3.517  11.217 -0.2892 -0.1088  0.4743
 6716SOL    HW131607   0.806   3.569  11.172 -0.7743  0.9029  0.9342
 6716SOL    HW231608   0.789   3.489  11.294  0.5394  2.0848  0.7341
 6717SOL     OW31609   1.764   1.946   5.754 -0.5826 -0.2057  0.1023
 6717SOL    HW131610   1.782   2.006   5.826 -0.0774 -1.3860  0.9618
 6717SOL    HW231611   1.672   1.964   5.738 -1.2139 -1.9920  1.6994
 6718SOL     OW31612   1.241   2.378   8.439 -0.3145 -0.1378 -0.2635
 6718SOL    HW131613   1.308   2.318   8.406  0.1920  0.1170  0.2994
 6718SOL    HW231614   1.210   2.317   8.506 -0.2473 -0.6349 -0.6865
 6719SOL     OW31615   1.588   2.470   6.584 -0.0401 -0.2509  0.2210
 6719SOL    HW131616   1.496   2.476   6.560 -0.2810  0.3039  1.3064
 6719SOL    HW231617   1.643   2.509   6.515 -1.0485 -0.6619 -0.8220
 6720SOL     OW31618   4.579   2.378   5.819  0.0508 -0.5381 -0.0661
 6720SOL    HW131619   4.638   2.340   5.755  1.9692 -0.8187  1.9083
 6720SOL    HW231620   4.627   2.460   5.827 -1.9752  0.6587  0.0113
 6721SOL     OW31621   2.155   3.559   3.190  0.0697 -0.6666  0.4671
 6721SOL    HW131622   2.129   3.467   3.186 -0.7590 -0.3517 -1.3146
 6721SOL    HW231623   2.076   3.586   3.236 -1.1815 -0.8553 -1.5778
 6722SOL     OW31624   1.632   3.263   3.130  0.0925  0.0266  0.2392
 6722SOL    HW131625   1.544   3.273   3.167 -0.6950 -1.3256 -1.3050
 6722SOL    HW231626   1.637   3.342   3.076  2.5951 -0.3016  0.0025
 6723SOL     OW31627   0.495   0.276  15.256 -0.2213  0.3115  0.2237
 6723SOL    HW131628   0.488   0.280  15.160  0.8811 -4.1674 -0.0656
 6723SOL    HW231629   0.588   0.296  15.266  0.0969 -1.3243  0.5807
 6724SOL     OW31630   1.626   2.222   2.815 -0.1527 -0.5086  0.0623
 6724SOL    HW131631   1.609   2.152   2.877 -0.8164 -0.5480 -0.1659
 6724SOL    HW231632   1.608   2.302   2.863  0.0374  0.4489 -1.4422
 6725SOL     OW31633   2.523   1.195   6.251 -0.3317 -0.1902 -0.0785
 6725SOL    HW131634   2.580   1.235   6.316 -1.5251  0.3011  0.6780
 6725SOL    HW231635   2.587   1.171   6.184  0.0912  1.1854 -0.1647
 6726SOL     OW31636   2.680   3.889  11.883 -0.7142  0.0847  0.5632
 6726SOL    HW131637   2.709   3.808  11.925 -1.5823 -0.1323  0.7463
 6726SOL    HW231638   2.590   3.878  11.851 -1.1451 -0.0957  1.8569
 6727SOL     OW31639   3.152   4.446   1.919 -0.3670  0.4375  0.6381
 6727SOL    HW131640   3.204   4.381   1.966  0.2867 -0.0371 -0.7432
 6727SOL    HW231641   3.070   4.401   1.903  1.1573 -1.3870 -2.1949
 6728SOL     OW31642   2.411   4.048   8.128 -0.7903  0.2396 -0.0178
 6728SOL    HW131643   2.441   3.990   8.058 -0.1120  0.5523  0.0166
 6728SOL    HW231644   2.461   4.129   8.115  1.2397 -0.7018  1.9400
 6729SOL     OW31645   2.952   3.216   9.116  0.5228 -0.2827  0.7194
 6729SOL    HW131646   2.916   3.280   9.054  1.7293  1.0613  1.3898
 6729SOL    HW231647   2.896   3.143   9.092  0.1460 -0.4863  2.2185
 6730SOL     OW31648   1.048   3.858   8.243 -0.3474  0.1588 -0.1943
 6730SOL    HW131649   1.127   3.833   8.292  0.0522  0.9546 -0.4421
 6730SOL    HW231650   1.025   3.776   8.199  1.9414  0.1703 -1.4163
 6731SOL     OW31651   4.604   1.663   1.599 -0.1970  0.1266  0.4787
 6731SOL    HW131652   4.665   1.620   1.539  1.6933  1.4542  1.4349
 6731SOL    HW231653   4.656   1.641   1.676  0.5133 -1.5962 -0.5135
 6732SOL     OW31654   1.227   0.435   2.799  0.2212  0.8912  0.2760
 6732SOL    HW131655   1.171   0.361   2.823 -0.8316  1.8765  0.8417
 6732SOL    HW231656   1.279   0.394   2.730  0.3350  1.3650  0.0843
 6733SOL     OW31657   4.217   1.475  16.556 -0.6041 -0.0230  0.5980
 6733SOL    HW131658   4.210   1.465  16.461  2.0694  1.4254  0.2667
 6733SOL    HW231659   4.252   1.390  16.580 -1.2953 -0.2170  0.9273
 6734SOL     OW31660   2.457   2.667   8.678 -0.5485  0.0619 -0.5890
 6734SOL    HW131661   2.539   2.677   8.727 -1.8608 -2.1605  2.1082
 6734SOL    HW231662   2.408   2.648   8.758 -0.4154  3.2795  0.2491
 6735SOL     OW31663   2.176   2.301  15.805 -0.5159 -0.8335  0.2990
 6735SOL    HW131664   2.203   2.238  15.738 -0.0682  0.3409 -0.6335
 6735SOL    HW231665   2.231   2.377  15.785 -1.6316 -0.2939 -0.7591
 6736SOL     OW31666   4.459   3.719   8.007  0.7309 -0.3572  0.4362
 6736SOL    HW131667   4.411   3.801   7.996  0.2059 -0.7503 -0.1853
 6736SOL    HW231668   4.481   3.702   7.916  0.0441 -0.7585  0.3460
 6737SOL     OW31669   2.110   2.921   4.567  0.1632  0.0636  0.0350
 6737SOL    HW131670   2.126   2.843   4.620  2.4516  1.4846  1.4156
 6737SOL    HW231671   2.140   2.887   4.483 -1.2193 -2.4696  0.5351
 6738SOL     OW31672   3.087   0.007   8.629  0.4351  0.2181  0.1930
 6738SOL    HW131673   3.107   4.639   8.640 -0.4027 -0.0330 -0.3856
 6738SOL    HW231674   3.123   0.054   8.705  1.5988  2.2176 -1.5998
 6739SOL     OW31675   2.327   0.686   6.867  0.1251  0.0473  0.0491
 6739SOL    HW131676   2.269   0.676   6.943 -0.5786  0.1676 -0.4795
 6739SOL    HW231677   2.269   0.675   6.792  0.2166  0.0024 -0.0152
 6740SOL     OW31678   0.579   0.382   2.507 -0.6203  0.1141  0.1535
 6740SOL    HW131679   0.612   0.304   2.462 -0.9609  2.2082 -3.7582
 6740SOL    HW231680   0.565   0.447   2.438  1.5758 -0.0120 -0.4156
 6741SOL     OW31681   3.126   4.276  11.836  0.5392  0.0957 -0.1968
 6741SOL    HW131682   3.134   4.192  11.792 -2.8036 -0.7537  0.8406
 6741SOL    HW231683   3.088   4.258  11.922 -0.3090  1.4609 -0.2756
 6742SOL     OW31684   2.591   3.097  15.488  0.2227  0.3346  0.2809
 6742SOL    HW131685   2.643   3.079  15.409  2.3831  2.2432  1.2488
 6742SOL    HW231686   2.642   3.042  15.547 -1.5912 -1.5301  0.0994
 6743SOL     OW31687   3.011   1.464   7.871 -0.0537 -0.1226 -0.2274
 6743SOL    HW131688   3.034   1.518   7.947 -0.6362  0.9546 -0.8298
 6743SOL    HW231689   3.013   1.377   7.912 -0.0831  0.2654  0.5932
 6744SOL     OW31690   3.542   1.933   8.801 -0.1423 -0.3101 -0.1024
 6744SOL    HW131691   3.609   1.996   8.774  0.7322 -1.5969 -0.8904
 6744SOL    HW231692   3.567   1.859   8.746  0.8716 -0.8387  1.0743
 6745SOL     OW31693   4.159   0.470   0.941 -0.6672  0.3045  0.0303
 6745SOL    HW131694   4.075   0.424   0.947 -0.1185 -0.4765  1.6365
 6745SOL    HW231695   4.223   0.403   0.965 -0.3647  0.7837  0.5515
 6746SOL     OW31696   1.963   4.336   5.532 -0.0351 -0.2962 -0.5498
 6746SOL    HW131697   1.922   4.271   5.475 -0.1646  0.4795 -1.3430
 6746SOL    HW231698   2.018   4.277   5.584  2.3494  3.1647  0.8231
 6747SOL     OW31699   0.523   2.841   4.235  0.4310 -0.1476  0.2579
 6747SOL    HW131700   0.558   2.929   4.223 -2.2191  0.7078 -1.1070
 6747SOL    HW231701   0.442   2.856   4.285 -0.8470 -0.9860 -1.5788
 6748SOL     OW31702   2.030   4.323   8.671 -0.0877  0.2380 -0.7342
 6748SOL    HW131703   2.064   4.242   8.635 -0.4880  0.9804 -2.7839
 6748SOL    HW231704   2.013   4.297   8.762 -1.3186  1.4260 -0.6121
 6749SOL     OW31705   3.397   1.885   5.476 -0.1870  0.2215  0.4374
 6749SOL    HW131706   3.382   1.885   5.382  0.6704 -0.0838  0.2994
 6749SOL    HW231707   3.328   1.947   5.500 -0.6512  0.1243 -0.6315
 6750SOL     OW31708   2.308   4.674   1.157  0.3819 -0.4147 -0.4717
 6750SOL    HW131709   2.394   4.680   1.198 -0.3867  0.2490  1.0629
 6750SOL    HW231710   2.253   4.712   1.225  1.7709 -2.1199  1.5935
 6751SOL     OW31711   3.680   3.880   5.598  0.2793 -0.6729  0.0607
 6751SOL    HW131712   3.749   3.844   5.542  0.8294 -0.7703  0.8004
 6751SOL    HW231713   3.701   3.830   5.677  0.5293  1.3469  1.2646
 6752SOL     OW31714   0.864   1.930   5.691 -0.2392 -0.7576  0.3076
 6752SOL    HW131715   0.909   1.999   5.643  1.8933 -1.3433  1.4828
 6752SOL    HW231716   0.857   1.976   5.775 -2.0738 -0.3921 -0.0276
 6753SOL     OW31717   2.028   0.620  10.067 -0.1293  0.1213  0.5098
 6753SOL    HW131718   2.118   0.591  10.051 -0.3172 -0.1115 -0.1040
 6753SOL    HW231719   1.996   0.539  10.108 -0.2235 -0.7971 -1.3865
 6754SOL     OW31720   4.189   1.475   3.203 -0.4032  0.1396  0.4927
 6754SOL    HW131721   4.217   1.559   3.166  3.2647 -1.4953 -0.5092
 6754SOL    HW231722   4.166   1.507   3.290  1.0292 -1.1746  1.3465
 6755SOL     OW31723   2.956   1.401   6.992  0.3736 -0.5319  0.0140
 6755SOL    HW131724   2.870   1.422   6.955 -0.3269 -2.7165  0.3574
 6755SOL    HW231725   3.011   1.469   6.955 -0.5185  0.5106  0.5985
 6756SOL     OW31726   3.406   3.935   6.638 -0.3548 -0.2657  0.0507
 6756SOL    HW131727   3.396   4.002   6.705  1.3989  0.0764 -0.0285
 6756SOL    HW231728   3.375   3.862   6.692  1.0734  0.7746  2.2763
 6757SOL     OW31729   0.130   1.666  17.254  0.0514  0.2197  0.1547
 6757SOL    HW131730   0.142   1.606  17.180  1.1834  0.0326  0.4825
 6757SOL    HW231731   0.040   1.698  17.253 -0.0401 -0.0184  1.5356
 6758SOL     OW31732   3.798   2.171  13.188 -0.6442  0.6227  0.1400
 6758SOL    HW131733   3.726   2.230  13.212 -0.4723 -0.0659  2.3386
 6758SOL    HW231734   3.799   2.111  13.262  3.0355 -0.9193 -1.1791
 6759SOL     OW31735   3.031   3.842   8.206 -0.1925 -0.2641  0.3720
 6759SOL    HW131736   2.972   3.895   8.154 -0.7345 -0.3732  0.8680
 6759SOL    HW231737   2.968   3.794   8.261 -0.3142  0.1332  0.5771
 6760SOL     OW31738   4.520   3.733   6.995 -0.6709  0.0357  0.0591
 6760SOL    HW131739   4.442   3.707   7.044 -1.6952  0.0043 -1.5802
 6760SOL    HW231740   4.543   3.814   7.039  0.6560 -1.0758  1.4036
 6761SOL     OW31741   4.540   3.267  10.151  0.1567 -0.5247 -0.7429
 6761SOL    HW131742   4.599   3.304  10.085  1.2328 -0.5557  0.2123
 6761SOL    HW231743   4.605   3.239  10.215 -1.0439  3.5937  2.2739
 6762SOL     OW31744   1.571   1.338   9.609 -0.3140  0.4280 -0.5162
 6762SOL    HW131745   1.504   1.349   9.677  1.0262 -2.7464  1.3094
 6762SOL    HW231746   1.649   1.364   9.657 -0.4702 -0.3432  0.1577
 6763SOL     OW31747   4.540   2.100   3.942 -0.1043  0.3029  0.2430
 6763SOL    HW131748   4.498   2.091   3.857  1.4356  0.1898 -0.4992
 6763SOL    HW231749   4.633   2.107   3.923  0.1422 -1.9828  0.5605
 6764SOL     OW31750   2.405   0.937  17.393 -0.1179 -0.7258 -0.5044
 6764SOL    HW131751   2.332   0.889  17.433 -0.0890 -1.0350 -0.8322
 6764SOL    HW231752   2.395   0.908  17.303  0.6423  0.8177 -1.0776
 6765SOL     OW31753   3.240   4.666   6.612  0.4120 -0.3313 -0.2675
 6765SOL    HW131754   3.264   4.573   6.613  1.5756 -0.0072  2.2522
 6765SOL    HW231755   3.205   4.680   6.700  0.6415 -1.6099  0.0243
 6766SOL     OW31756   2.996   3.997   2.533  0.6041  0.4177  0.3708
 6766SOL    HW131757   3.031   3.911   2.510 -2.0587 -0.2442 -1.2084
 6766SOL    HW231758   3.033   4.041   2.456 -1.0251  1.4691  0.1786
 6767SOL     OW31759   1.653   3.252   8.596 -0.0532  0.2766 -0.2070
 6767SOL    HW131760   1.649   3.204   8.679  0.3267  0.0092 -0.3388
 6767SOL    HW231761   1.666   3.341   8.627 -0.1129  0.0959  0.3304
 6768SOL     OW31762   2.079   1.740   8.555  0.3529 -0.3414  0.3649
 6768SOL    HW131763   2.047   1.789   8.631 -3.4378  1.1912 -2.2233
 6768SOL    HW231764   2.111   1.804   8.492 -2.2333  1.5706  0.9685
 6769SOL     OW31765   2.594   3.436   0.874 -0.6387 -0.4037  0.1542
 6769SOL    HW131766   2.667   3.462   0.817 -0.1892 -1.8708  0.0502
 6769SOL    HW231767   2.529   3.506   0.869  3.1846  3.1279  0.1034
 6770SOL     OW31768   1.810   1.907   5.110  0.0162  0.4345 -0.0328
 6770SOL    HW131769   1.792   1.981   5.169 -0.3619 -1.2480  1.9648
 6770SOL    HW231770   1.900   1.918   5.080  0.1133 -1.9714 -0.6610
 6771SOL     OW31771   2.157   3.600   8.228 -0.1824 -0.2834 -0.7383
 6771SOL    HW131772   2.154   3.516   8.182  1.9248 -0.0653 -1.2756
 6771SOL    HW231773   2.203   3.658   8.168  3.5576 -0.5671  1.8421
 6772SOL     OW31774   0.653   1.397  14.597  0.3088  0.0577  0.2802
 6772SOL    HW131775   0.559   1.411  14.606  0.3917  0.8008  0.0205
 6772SOL    HW231776   0.655   1.375  14.504  0.8431  1.5744 -0.0737
 6773SOL     OW31777   0.979   3.709   3.709 -0.0215  0.0858 -0.9356
 6773SOL    HW131778   0.936   3.782   3.755  0.5002 -0.2583  0.1194
 6773SOL    HW231779   1.047   3.756   3.661  0.9173  2.1757  2.3856
 6774SOL     OW31780   0.484   3.949  10.145  0.0939 -0.2008  0.0731
 6774SOL    HW131781   0.436   4.032  10.138 -1.1189 -1.0320 -1.4564
 6774SOL    HW231782   0.414   3.899  10.187  0.7409 -2.0765 -1.0814
 6775SOL     OW31783   2.848   1.680   1.531  0.7511 -0.3485  0.3978
 6775SOL    HW131784   2.831   1.587   1.543 -0.9843  0.2786  2.7209
 6775SOL    HW231785   2.944   1.681   1.531  0.7550 -1.0906  1.6876
 6776SOL     OW31786   3.376   4.024   8.115 -0.1188 -0.0348  0.2011
 6776SOL    HW131787   3.425   4.084   8.059  1.0855 -0.7520  0.4775
 6776SOL    HW231788   3.409   3.938   8.088 -1.1476  0.1176 -1.5700
 6777SOL     OW31789   0.295   3.213   4.361  0.2160 -0.4099 -0.1311
 6777SOL    HW131790   0.273   3.275   4.291  0.3046 -0.1994  0.0283
 6777SOL    HW231791   0.237   3.240   4.433  1.0676  2.0876 -0.3924
 6778SOL     OW31792   1.813   0.472   4.079 -0.1305  0.5296  0.8636
 6778SOL    HW131793   1.733   0.470   4.131 -0.1734 -0.1338  0.7660
 6778SOL    HW231794   1.830   0.378   4.074  0.6321  0.4248  5.0629
 6779SOL     OW31795   2.958   4.066   8.996 -0.5972  0.0449 -0.2380
 6779SOL    HW131796   3.028   4.077   8.932 -1.8674 -0.9849 -1.8000
 6779SOL    HW231797   2.887   4.075   8.933  0.6899  2.0420 -1.4032
 6780SOL     OW31798   2.230   3.199   5.887 -0.2069  0.8340  0.4343
 6780SOL    HW131799   2.180   3.121   5.913 -1.7959  1.7270  0.0303
 6780SOL    HW231800   2.207   3.266   5.951  1.2288 -0.5596  2.4030
 6781SOL     OW31801   4.213   1.272  13.416 -0.5873 -1.0350  0.0566
 6781SOL    HW131802   4.251   1.278  13.328 -0.5002 -0.2315  0.1528
 6781SOL    HW231803   4.169   1.357  13.414  0.8011 -0.3267 -0.5724
 6782SOL     OW31804   4.126   2.815  17.457  0.3167 -0.4274 -0.1267
 6782SOL    HW131805   4.169   2.884  17.508 -0.5296  0.0497 -0.0574
 6782SOL    HW231806   4.145   2.732  17.501 -0.3085 -0.8417 -0.6479
 6783SOL     OW31807   0.827   3.012   7.546 -0.1655  0.1355  0.1175
 6783SOL    HW131808   0.921   3.023   7.565 -0.2048 -1.0712  1.0999
 6783SOL    HW231809   0.789   2.984   7.629 -1.9387  0.8323 -0.4734
 6784SOL     OW31810   0.835   1.385  12.325 -1.2251  0.3052  0.4624
 6784SOL    HW131811   0.887   1.309  12.300 -0.8941  1.3428 -2.0009
 6784SOL    HW231812   0.863   1.444  12.255 -0.3764 -1.2116 -0.4555
 6785SOL     OW31813   4.291   4.692   2.993 -0.3811  0.1297 -0.0110
 6785SOL    HW131814   4.341   4.653   2.921  1.0813  0.9517  0.5704
 6785SOL    HW231815   4.211   4.713   2.944  0.1410 -1.2299 -1.4587
 6786SOL     OW31816   3.358   4.265   5.229  0.5359  0.0593 -0.3284
 6786SOL    HW131817   3.277   4.303   5.263  1.4653  0.7295  1.1429
 6786SOL    HW231818   3.401   4.323   5.166 -0.7876 -0.8050 -2.0193
 6787SOL     OW31819   1.055   1.770  16.139  0.2664 -0.2870 -0.1494
 6787SOL    HW131820   0.990   1.840  16.138  1.2861  0.6581 -0.3034
 6787SOL    HW231821   1.027   1.724  16.060 -0.9971 -1.0788  0.7637
 6788SOL     OW31822   2.766   2.124   2.023  0.0313  0.9890 -0.6466
 6788SOL    HW131823   2.751   2.140   1.930  1.0620  0.1878 -0.9401
 6788SOL    HW231824   2.857   2.098   2.033 -0.0615  1.5730  1.7030
 6789SOL     OW31825   2.211   2.676  11.925  0.0063  0.1241  0.5543
 6789SOL    HW131826   2.270   2.600  11.920  0.7558  0.6540  1.4176
 6789SOL    HW231827   2.263   2.754  11.945 -0.4277  0.8886 -1.3301
 6790SOL     OW31828   0.082   4.578  11.040  0.1002  0.6538 -0.1957
 6790SOL    HW131829   4.712   4.589  11.030 -0.1369 -1.4439 -0.2714
 6790SOL    HW231830   0.120   4.532  10.965 -2.7635 -0.6676 -0.8491
 6791SOL     OW31831   1.413   2.889   2.007  0.9127  0.4832 -0.2092
 6791SOL    HW131832   1.500   2.858   1.984 -0.0367 -1.9808 -0.5040
 6791SOL    HW231833   1.388   2.934   1.927 -0.2841 -1.5425 -0.9740
 6792SOL     OW31834   2.362   0.893  17.110  0.2609  0.0849 -0.2376
 6792SOL    HW131835   2.456   0.904  17.094  0.3498  0.2434  0.3605
 6792SOL    HW231836   2.324   0.973  17.074  0.3519  0.9932  1.6352
 6793SOL     OW31837   0.163   1.724   2.175  0.2616  0.2094  0.3773
 6793SOL    HW131838   0.158   1.817   2.194 -3.4384  0.3309 -1.2066
 6793SOL    HW231839   0.243   1.727   2.123 -0.0111 -0.0823 -0.0622
 6794SOL     OW31840   3.433   1.685   9.798  0.3636 -0.6322 -0.2452
 6794SOL    HW131841   3.462   1.666   9.709  1.5485  0.9691 -0.2164
 6794SOL    HW231842   3.347   1.721   9.776  0.1594 -0.2850  1.0856
 6795SOL     OW31843   3.076   4.509  16.174 -0.5081  0.3663  0.5660
 6795SOL    HW131844   3.166   4.503  16.144 -1.2750  0.4643 -1.7179
 6795SOL    HW231845   3.028   4.489  16.094 -1.4143 -1.6119  1.5943
 6796SOL     OW31846   3.428   0.060   2.383  0.3682  0.3955  0.1608
 6796SOL    HW131847   3.356   4.724   2.365 -0.2407  1.1430  0.0603
 6796SOL    HW231848   3.429   0.104   2.298 -0.2575 -2.3487 -1.2598
 6797SOL     OW31849   3.444   1.195   4.741 -0.3317 -0.3661 -0.2261
 6797SOL    HW131850   3.438   1.158   4.829 -2.0562 -1.0652 -0.6459
 6797SOL    HW231851   3.482   1.280   4.764  0.6103 -0.6317 -0.7751
 6798SOL     OW31852   2.461   2.558   6.652  0.3490 -0.0023 -0.0755
 6798SOL    HW131853   2.392   2.499   6.683  0.6917 -1.0669 -1.3252
 6798SOL    HW231854   2.411   2.624   6.605 -0.7492 -1.8078 -1.4501
 6799SOL     OW31855   3.395   3.350   7.077  0.3718 -0.5603  0.0217
 6799SOL    HW131856   3.395   3.432   7.127 -0.1997 -1.3114  1.2395
 6799SOL    HW231857   3.346   3.375   6.999  0.6047  1.5006  0.5304
 6800SOL     OW31858   1.548   2.182   8.990  0.0476  0.1192 -0.3072
 6800SOL    HW131859   1.492   2.144   9.058 -0.3495  0.4285 -0.4607
 6800SOL    HW231860   1.538   2.124   8.914  0.7822  0.3846 -0.6141
 6801SOL     OW31861   0.957   4.677   1.250  0.2878 -0.3829  0.1320
 6801SOL    HW131862   0.945   4.584   1.230 -3.0609 -0.4025  2.3192
 6801SOL    HW231863   0.883   4.715   1.202  2.0156 -1.2186 -3.2339
 6802SOL     OW31864   1.627   4.322   4.116  0.1322  0.1950  0.3937
 6802SOL    HW131865   1.631   4.414   4.140  1.7168  0.0785  0.5890
 6802SOL    HW231866   1.677   4.322   4.034 -0.3334 -1.6581  0.0996
 6803SOL     OW31867   4.668   0.343   4.709  0.0882 -0.1999  0.5355
 6803SOL    HW131868   4.621   0.391   4.777 -0.3473  1.7110 -1.1195
 6803SOL    HW231869   0.001   0.290   4.765 -0.5797 -1.9866 -0.4481
 6804SOL     OW31870   4.079   3.883   1.605 -0.2175  0.2941 -0.1919
 6804SOL    HW131871   4.091   3.819   1.675 -0.6091 -2.6347 -2.7518
 6804SOL    HW231872   4.167   3.917   1.586  0.1136  0.2060  1.2164
 6805SOL     OW31873   2.307   2.675   5.817  0.8741 -0.3471 -0.0110
 6805SOL    HW131874   2.374   2.692   5.751  1.1411 -1.9313 -0.1587
 6805SOL    HW231875   2.355   2.632   5.888  1.9833  0.4186 -0.3100
 6806SOL     OW31876   3.519   0.503   6.683  0.3295  0.0305 -0.1900
 6806SOL    HW131877   3.441   0.471   6.638 -0.8597  2.0168  0.4499
 6806SOL    HW231878   3.489   0.511   6.774 -0.3342  1.6838 -0.5499
 6807SOL     OW31879   4.604   2.814   7.197  0.0407 -0.8409  0.0653
 6807SOL    HW131880   4.543   2.742   7.181  0.5867 -1.5782  1.2676
 6807SOL    HW231881   4.679   2.766   7.162 -1.7420 -1.3590 -3.0367
 6808SOL     OW31882   1.538   1.259   8.524  0.7513  0.2510 -0.0582
 6808SOL    HW131883   1.590   1.179   8.518  2.2184  1.2309 -0.4582
 6808SOL    HW231884   1.458   1.207   8.529 -0.1565  1.2948 -3.3510
 6809SOL     OW31885   3.580   0.883  15.537  0.0708 -0.1297  0.6108
 6809SOL    HW131886   3.589   0.862  15.630  0.1342  1.2286  0.9021
 6809SOL    HW231887   3.511   0.820  15.517 -0.7666  0.4402  1.7231
 6810SOL     OW31888   1.975   0.462   5.281  0.6024  0.2144  0.3974
 6810SOL    HW131889   2.016   0.498   5.203 -3.1640  0.4073 -1.5058
 6810SOL    HW231890   1.894   0.440   5.235  0.3476  1.3636  0.3104
 6811SOL     OW31891   3.653   4.345   6.957  0.0839 -0.7947 -0.7215
 6811SOL    HW131892   3.586   4.342   6.888 -0.3238 -0.6389 -0.3288
 6811SOL    HW231893   3.604   4.382   7.030  0.5697 -1.7928  0.1052
 6812SOL     OW31894   1.147   2.388   2.043  0.1340  0.2858 -0.7394
 6812SOL    HW131895   1.193   2.316   2.085 -0.1010  0.7876  0.3717
 6812SOL    HW231896   1.100   2.432   2.114  0.0651  0.0555 -0.6429
 6813SOL     OW31897   0.982   0.420   5.560  0.2632  0.1955  0.0264
 6813SOL    HW131898   0.942   0.431   5.647 -0.7062 -2.4555 -0.0784
 6813SOL    HW231899   1.075   0.402   5.567  0.5024  1.0886 -1.0076
 6814SOL     OW31900   2.694   4.548  14.886  0.5793  0.5824 -0.5329
 6814SOL    HW131901   2.624   4.578  14.828  0.7674 -0.3322 -1.2179
 6814SOL    HW231902   2.650   4.501  14.957  2.8088 -1.9940 -0.8693
 6815SOL     OW31903   2.223   3.039   8.187 -0.1764  0.2135 -0.1599
 6815SOL    HW131904   2.214   3.122   8.235 -0.6710 -0.0359  0.1841
 6815SOL    HW231905   2.205   3.076   8.100 -1.9327 -0.8906 -0.2682
 6816SOL     OW31906   0.178   3.003  14.324  0.1789 -0.1687 -0.0727
 6816SOL    HW131907   0.160   3.049  14.406  1.0420  0.6914 -0.3623
 6816SOL    HW231908   0.233   2.927  14.343 -2.2569 -2.0815 -0.7365
 6817SOL     OW31909   2.241   4.665   4.678 -0.5772 -0.1574  0.2507
 6817SOL    HW131910   2.178   4.723   4.720 -0.9598  0.5774 -1.3464
 6817SOL    HW231911   2.234   4.698   4.589 -0.0689 -1.1291 -0.1556
 6818SOL     OW31912   1.427   2.067  10.783  0.6970  0.4095 -0.4327
 6818SOL    HW131913   1.504   2.088  10.835  0.1824 -0.9882  0.8746
 6818SOL    HW231914   1.376   2.000  10.828 -0.1068  0.5474 -1.1423
 6819SOL     OW31915   3.641   0.149  11.201  0.0869  0.1748  0.0570
 6819SOL    HW131916   3.693   0.144  11.121  2.2465  0.6535  1.4213
 6819SOL    HW231917   3.598   0.063  11.197  1.1463 -0.4530  2.2526
 6820SOL     OW31918   1.142   2.514  14.995 -0.5429 -0.1060 -0.0186
 6820SOL    HW131919   1.102   2.430  14.973 -2.1746  0.8995 -0.9078
 6820SOL    HW231920   1.207   2.482  15.057 -1.8792 -0.0700  1.4116
 6821SOL     OW31921   1.585   1.768  13.926 -0.1014 -0.1350  0.1192
 6821SOL    HW131922   1.617   1.808  14.007 -1.9865 -1.4843  1.5242
 6821SOL    HW231923   1.543   1.845  13.887  0.9332  0.9305  1.1159
 6822SOL     OW31924   2.262   3.630   4.831  0.6705  0.3636 -0.4227
 6822SOL    HW131925   2.274   3.537   4.812  0.9879 -0.3763  3.4041
 6822SOL    HW231926   2.227   3.659   4.746  0.0911 -3.2178 -1.3838
 6823SOL     OW31927   4.097   1.736   3.794 -0.1998  0.2125  0.3880
 6823SOL    HW131928   4.038   1.702   3.860 -1.4410 -1.1634 -1.4288
 6823SOL    HW231929   4.032   1.736   3.723 -0.1480 -0.1561  0.3415
 6824SOL     OW31930   4.606   4.610   0.519 -0.0403 -0.0709  0.6806
 6824SOL    HW131931   4.569   4.607   0.608  0.9920  1.3588  1.1509
 6824SOL    HW231932   4.670   4.680   0.532 -0.2838 -0.1671  2.4022
 6825SOL     OW31933   4.180   4.036  16.622 -0.0560 -0.3406  0.1776
 6825SOL    HW131934   4.114   4.106  16.620  1.6424  1.3163  1.5878
 6825SOL    HW231935   4.248   4.081  16.673 -0.6309  1.4772 -0.6686
 6826SOL     OW31936   0.285   4.385   3.164  0.5789  0.1472  0.3673
 6826SOL    HW131937   0.377   4.384   3.190  1.0431  0.9065 -1.2451
 6826SOL    HW231938   0.260   4.477   3.153  0.1517 -0.1976 -1.5202
 6827SOL     OW31939   3.084   0.277   9.984  0.1856 -0.3011 -0.0039
 6827SOL    HW131940   3.074   0.351   9.924  3.9629 -0.6835 -1.1149
 6827SOL    HW231941   3.127   0.314  10.061  2.4001 -0.5802 -1.1075
 6828SOL     OW31942   0.607   0.753  17.333 -0.9939 -0.1357 -0.3754
 6828SOL    HW131943   0.556   0.827  17.365 -1.1266 -1.4967  2.5450
 6828SOL    HW231944   0.692   0.796  17.341 -1.8084  0.9034  2.5122
 6829SOL     OW31945   1.877   2.208   0.498  0.1441  0.5225 -0.2012
 6829SOL    HW131946   1.966   2.210   0.462  0.7411 -0.7808  1.2156
 6829SOL    HW231947   1.845   2.120   0.480  0.4517  0.0560  1.5401
 6830SOL     OW31948   4.349   2.309   5.302 -0.0602  0.2508 -0.3536
 6830SOL    HW131949   4.345   2.381   5.365  2.1351  1.4485 -1.5872
 6830SOL    HW231950   4.264   2.269   5.319  1.2494 -1.7996  1.2532
 6831SOL     OW31951   2.592   1.820  11.804  0.2023  0.1160  0.2049
 6831SOL    HW131952   2.573   1.895  11.860  1.1830  0.0485  0.6206
 6831SOL    HW231953   2.555   1.745  11.850  1.0108 -0.0370  0.6074
 6832SOL     OW31954   2.392   3.051  15.286 -0.4163 -0.2860 -0.0978
 6832SOL    HW131955   2.351   3.090  15.364 -0.5170  0.4940 -0.5438
 6832SOL    HW231956   2.481   3.038  15.317 -0.4184 -1.1080 -0.4551
 6833SOL     OW31957   2.979   1.412   3.121  0.4809 -0.1719 -0.2421
 6833SOL    HW131958   2.979   1.508   3.129  2.4270 -0.2198  0.3795
 6833SOL    HW231959   3.066   1.401   3.082 -0.3950 -0.5870 -2.1166
 6834SOL     OW31960   1.410   0.805   8.644 -0.6004  0.1155  0.4824
 6834SOL    HW131961   1.485   0.783   8.698 -0.2210  0.2343  0.0047
 6834SOL    HW231962   1.431   0.759   8.563 -0.8588 -0.4451  0.7363
 6835SOL     OW31963   1.550   2.479  11.043  0.1970 -0.4400 -0.3877
 6835SOL    HW131964   1.523   2.507  11.131  0.4582 -0.2125 -0.3773
 6835SOL    HW231965   1.625   2.538  11.028  0.2313 -0.2251  0.5899
 6836SOL     OW31966   0.302   1.704  15.100  0.1723 -0.3800 -0.4687
 6836SOL    HW131967   0.249   1.716  15.022  0.7195 -1.4685 -1.0181
 6836SOL    HW231968   0.381   1.746  15.065 -1.5949  1.5183 -2.1642
 6837SOL     OW31969   2.629   0.828   3.333 -0.2119 -0.4040 -0.3751
 6837SOL    HW131970   2.687   0.765   3.376  0.4630  0.4818  0.0164
 6837SOL    HW231971   2.611   0.894   3.400  0.2136  0.8163 -1.4776
 6838SOL     OW31972   0.556   2.506  13.457  0.1893 -0.0368 -0.5865
 6838SOL    HW131973   0.482   2.549  13.414 -0.8222 -0.9954  0.1796
 6838SOL    HW231974   0.596   2.583  13.498  1.9997 -1.6914  0.7590
 6839SOL     OW31975   2.654   3.454   7.144 -0.2505 -0.2607 -0.1610
 6839SOL    HW131976   2.588   3.392   7.175  1.6947 -1.4251  1.6156
 6839SOL    HW231977   2.726   3.418   7.196 -1.4574 -1.4105  0.7083
 6840SOL     OW31978   1.582   0.727   3.385 -0.4404 -0.5643 -0.3625
 6840SOL    HW131979   1.514   0.691   3.442 -1.1947  0.4423 -0.6307
 6840SOL    HW231980   1.649   0.761   3.445 -1.1556  0.3324 -0.0746
 6841SOL     OW31981   4.638   1.709  13.800 -0.0470  0.1030 -0.0077
 6841SOL    HW131982   4.689   1.715  13.719 -0.7242  1.2941 -0.3631
 6841SOL    HW231983   4.598   1.796  13.814  0.6533  0.5129 -0.5588
 6842SOL     OW31984   3.819   1.149   8.293  0.2279 -0.0056  0.7859
 6842SOL    HW131985   3.913   1.141   8.311  0.2263 -2.5480 -0.2511
 6842SOL    HW231986   3.804   1.074   8.234 -1.4410  0.1435  1.0285
 6843SOL     OW31987   1.780   1.522   2.589 -0.0366 -0.1695 -1.0835
 6843SOL    HW131988   1.788   1.431   2.561 -0.6698 -1.1514  1.9245
 6843SOL    HW231989   1.754   1.561   2.505  0.9656  1.5102 -0.6354
 6844SOL     OW31990   3.412   1.979   8.538  0.0682  0.3857 -0.0823
 6844SOL    HW131991   3.430   1.885   8.533  2.9452  0.8715  1.3298
 6844SOL    HW231992   3.435   1.993   8.630  4.7449 -2.3368 -0.8496
 6845SOL     OW31993   2.032   1.101   6.070  0.0518 -0.0444 -0.4246
 6845SOL    HW131994   2.055   1.008   6.070  3.2940  0.7313 -1.8730
 6845SOL    HW231995   1.961   1.107   6.133 -1.6482 -2.3050 -2.1570
 6846SOL     OW31996   3.075   3.537   0.949  0.7879 -0.0923 -0.4938
 6846SOL    HW131997   3.102   3.449   0.921  1.7017 -0.3509  1.1780
 6846SOL    HW231998   3.021   3.574   0.880  1.6543  2.3209  0.1239
 6847SOL     OW31999   3.197   2.062   5.566 -0.9611 -0.0309 -0.3367
 6847SOL    HW132000   3.186   2.103   5.652 -3.1774 -1.8738  0.2465
 6847SOL    HW232001   3.243   2.128   5.514 -1.9192  0.7280 -0.2157
 6848SOL     OW32002   0.214   4.230   7.515 -0.4175 -0.8771  0.0727
 6848SOL    HW132003   0.246   4.196   7.598  0.2284  0.5162  0.4049
 6848SOL    HW232004   0.292   4.205   7.466 -0.7444  0.0981 -0.9509
 6849SOL     OW32005   4.569   1.232   6.827  0.1636  0.1982  0.0705
 6849SOL    HW132006   4.623   1.157   6.806 -1.1218 -0.7271  0.0800
 6849SOL    HW232007   4.487   1.191   6.855 -0.3827  2.6160  2.1503
 6850SOL     OW32008   0.577   3.048   2.035 -0.2223  0.3978 -0.4115
 6850SOL    HW132009   0.541   3.047   1.947 -0.0911  0.6506 -0.4706
 6850SOL    HW232010   0.586   3.142   2.054  1.9916 -0.1255  1.2519
 6851SOL     OW32011   3.971   1.103  17.684 -0.7335 -0.2422 -0.2811
 6851SOL    HW132012   3.892   1.056  17.658 -1.1303  0.8595 -1.0938
 6851SOL    HW232013   4.031   1.031  17.698 -0.1550 -0.1815 -2.3946
 6852SOL     OW32014   2.463   1.023   1.668 -0.5789 -0.3421 -0.2241
 6852SOL    HW132015   2.515   1.077   1.610  1.6010 -0.4392  1.6395
 6852SOL    HW232016   2.397   0.980   1.614  1.1606 -1.8098 -1.1892
 6853SOL     OW32017   1.186   3.830   1.826  0.0602 -0.1357 -0.2459
 6853SOL    HW132018   1.185   3.854   1.733 -0.4919  1.3006  0.1373
 6853SOL    HW232019   1.271   3.865   1.850 -0.1264  0.2719 -0.1841
 6854SOL     OW32020   4.068   2.942   0.787 -0.5184  1.7174  0.0832
 6854SOL    HW132021   4.083   2.924   0.880 -0.0138 -1.3022 -0.5690
 6854SOL    HW232022   4.145   2.907   0.741  0.2887  2.4511  0.8690
 6855SOL     OW32023   2.495   0.572   1.893 -0.2791  0.2052 -0.2813
 6855SOL    HW132024   2.568   0.586   1.833 -1.1395  1.9155 -0.9249
 6855SOL    HW232025   2.441   0.646   1.867 -1.5926 -0.3310  0.9145
 6856SOL     OW32026   4.135   2.035   7.697 -0.0644 -0.1544 -0.1381
 6856SOL    HW132027   4.159   2.101   7.763 -0.6866  0.5304 -0.5893
 6856SOL    HW232028   4.215   2.006   7.655 -0.2987  0.5577 -1.0727
 6857SOL     OW32029   1.616   1.127  14.793  0.4725 -0.1660 -0.0492
 6857SOL    HW132030   1.684   1.195  14.792 -0.2098  0.4899 -1.4411
 6857SOL    HW232031   1.635   1.095  14.881  1.8512 -0.5231 -0.4762
 6858SOL     OW32032   2.674   0.666   4.517  0.4850  0.0228  0.1924
 6858SOL    HW132033   2.724   0.590   4.547  1.5245 -0.5335 -2.9176
 6858SOL    HW232034   2.691   0.657   4.423  0.4050  0.3316  0.1489
 6859SOL     OW32035   2.387   1.280   9.423  0.1155 -0.6580  0.4010
 6859SOL    HW132036   2.417   1.368   9.448  1.4810 -0.5627 -1.5246
 6859SOL    HW232037   2.471   1.238   9.403  0.0812 -0.4464 -0.1756
 6860SOL     OW32038   4.051   4.232  11.236 -0.0420  0.2708  0.2592
 6860SOL    HW132039   4.024   4.143  11.211  1.0065  0.5443 -1.8252
 6860SOL    HW232040   4.147   4.232  11.231 -0.0293  0.6844  0.4993
 6861SOL     OW32041   4.231   0.325   4.508 -0.2265  0.0971 -0.2665
 6861SOL    HW132042   4.276   0.339   4.425  2.4695  1.1172  1.3501
 6861SOL    HW232043   4.216   0.415   4.536 -0.7874 -0.6623  1.8480
 6862SOL     OW32044   4.236   2.071  16.495 -0.5758  0.4513 -0.0772
 6862SOL    HW132045   4.201   2.068  16.406 -1.0651  0.2249  0.1251
 6862SOL    HW232046   4.276   1.984  16.499 -0.7998  0.4725  2.5283
 6863SOL     OW32047   2.804   3.291   2.970 -0.4364  0.1888  0.2146
 6863SOL    HW132048   2.783   3.385   2.963  0.1429  0.2831 -0.2594
 6863SOL    HW232049   2.859   3.290   3.049 -0.6669  1.1780  0.3869
 6864SOL     OW32050   1.260   3.976   6.527 -0.0977  0.5024 -0.0876
 6864SOL    HW132051   1.353   3.994   6.518 -0.4933  1.5831 -2.0074
 6864SOL    HW232052   1.214   4.052   6.491 -1.0764  0.0472  0.1905
 6865SOL     OW32053   2.650   3.021   4.306  0.4431 -0.3903 -0.3148
 6865SOL    HW132054   2.608   3.033   4.392 -0.3020  2.8589 -1.1259
 6865SOL    HW232055   2.600   3.091   4.264 -0.8539 -0.5851  0.9063
 6866SOL     OW32056   2.712   1.696   4.498 -0.1854  0.1555 -0.0565
 6866SOL    HW132057   2.666   1.641   4.562  0.0636  1.1835  1.0048
 6866SOL    HW232058   2.801   1.679   4.526 -0.3315 -0.6164 -0.0695
 6867SOL     OW32059   4.550   2.595   1.602 -0.1681  0.2047  0.0796
 6867SOL    HW132060   4.557   2.656   1.529 -0.5865 -0.0881 -0.2008
 6867SOL    HW232061   4.591   2.511   1.582 -0.5500 -0.0248  0.2642
 6868SOL     OW32062   0.298   3.003   2.750  0.1511 -0.6298 -0.4585
 6868SOL    HW132063   0.268   2.933   2.808  0.1152  0.7340  1.1884
 6868SOL    HW232064   0.352   2.949   2.694  0.2316  1.0959 -2.0432
 6869SOL     OW32065   4.623   3.899   3.003 -0.8319  0.2187  0.4560
 6869SOL    HW132066   4.593   3.911   3.093 -0.3885  0.8538  0.5196
 6869SOL    HW232067   4.596   3.809   2.985 -0.6350  0.4562 -1.0166
 6870SOL     OW32068   3.208   0.665   6.876  0.1028 -0.1421 -0.4371
 6870SOL    HW132069   3.222   0.685   6.783 -0.7127 -0.1652 -0.5668
 6870SOL    HW232070   3.288   0.697   6.916 -0.4660  2.1248 -1.1023
 6871SOL     OW32071   3.926   0.742   0.245 -0.1221 -0.0168 -0.4004
 6871SOL    HW132072   4.001   0.727   0.303  1.1184 -0.5683 -2.1044
 6871SOL    HW232073   3.970   0.704   0.169 -0.6306 -0.0552 -0.6765
 6872SOL     OW32074   0.828   0.046  15.961  0.1800  0.5967 -0.1262
 6872SOL    HW132075   0.871   0.026  15.877  1.2296  0.7985  0.3570
 6872SOL    HW232076   0.903   0.018  16.014  0.9608  0.6145 -1.2023
 6873SOL     OW32077   3.227   3.393   6.862 -0.2188 -0.2014  0.4756
 6873SOL    HW132078   3.295   3.457   6.841  0.0022  0.2593  2.5981
 6873SOL    HW232079   3.239   3.342   6.781 -1.4677 -0.3822  0.4142
 6874SOL     OW32080   0.051   3.732   5.387 -0.1403  0.1607  0.2324
 6874SOL    HW132081   0.133   3.694   5.357 -0.7996 -0.8192 -0.3338
 6874SOL    HW232082   0.018   3.657   5.438 -0.1177 -0.6743 -0.9694
 6875SOL     OW32083   4.124   3.161   4.615 -0.0675  0.2072  0.1510
 6875SOL    HW132084   4.101   3.249   4.584  1.2261 -0.0118 -1.3841
 6875SOL    HW232085   4.090   3.158   4.705 -1.1253  1.2085 -0.2068
 6876SOL     OW32086   0.668   2.911   6.733 -1.0114 -0.3793  0.4103
 6876SOL    HW132087   0.600   2.971   6.764 -1.2628  0.2790 -1.3949
 6876SOL    HW232088   0.680   2.942   6.643  0.1059 -0.1754  0.6313
 6877SOL     OW32089   3.253   4.590   2.203 -0.1259 -0.7616  0.1736
 6877SOL    HW132090   3.179   4.588   2.264 -0.3845  2.7472 -0.0221
 6877SOL    HW232091   3.207   4.581   2.119 -0.8430  0.1015  0.4786
 6878SOL     OW32092   3.427   1.466  17.450  0.5247 -0.5005 -0.2495
 6878SOL    HW132093   3.432   1.372  17.468  1.7667 -0.9064 -2.6712
 6878SOL    HW232094   3.500   1.497  17.503 -0.6278 -0.7297  1.4625
 6879SOL     OW32095   0.722   2.806  14.653 -0.1167 -0.1018  0.9124
 6879SOL    HW132096   0.729   2.727  14.707 -0.1767 -2.1525 -2.0549
 6879SOL    HW232097   0.631   2.804  14.624  0.7564 -0.3895 -1.7663
 6880SOL     OW32098   1.804   1.299   7.268  0.0845 -0.0889  0.0675
 6880SOL    HW132099   1.765   1.353   7.199  1.0543 -0.3275 -0.6608
 6880SOL    HW232100   1.720   1.292   7.313 -0.8559  2.0302 -1.3649
 6881SOL     OW32101   2.885   3.785  14.344  0.2709 -0.3859 -0.1123
 6881SOL    HW132102   2.861   3.723  14.414 -2.1769  1.2958  0.5525
 6881SOL    HW232103   2.923   3.860  14.389 -0.0297 -0.5364  0.4034
 6882SOL     OW32104   0.775   0.254   4.828  0.1120  0.0498  0.1910
 6882SOL    HW132105   0.728   0.188   4.879  1.1563 -3.8435 -3.8157
 6882SOL    HW232106   0.702   0.287   4.775  0.3238  0.8842  0.4130
 6883SOL     OW32107   0.263   2.597  15.368 -0.2853  0.1755 -0.0918
 6883SOL    HW132108   0.333   2.531  15.360  0.0617  1.0173 -3.7812
 6883SOL    HW232109   0.243   2.602  15.275  0.0728 -0.6382 -0.2163
 6884SOL     OW32110   0.145   3.266   9.054  0.7739 -0.1667 -0.4218
 6884SOL    HW132111   0.175   3.269   9.145 -0.6539  1.2960  0.0137
 6884SOL    HW232112   0.225   3.232   9.015  1.2182  3.0547 -2.2739
 6885SOL     OW32113   3.976   1.398   0.534 -0.5551  0.2112  0.2671
 6885SOL    HW132114   3.965   1.408   0.629 -3.0124  0.6097 -0.0389
 6885SOL    HW232115   3.906   1.453   0.499 -1.4745 -1.2990 -0.2874
 6886SOL     OW32116   0.435   3.252   8.690 -0.5895  0.0848 -0.1485
 6886SOL    HW132117   0.415   3.336   8.650 -0.8451 -0.1492 -0.5122
 6886SOL    HW232118   0.513   3.235   8.638 -1.0860 -0.6972 -0.6400
 6887SOL     OW32119   4.346   1.879   6.090 -0.1364 -0.4067 -0.7271
 6887SOL    HW132120   4.366   1.836   6.173  1.2260  1.9451  0.1551
 6887SOL    HW232121   4.382   1.813   6.031  0.1262 -0.1026 -0.9022
 6888SOL     OW32122   2.199   0.585   8.139 -0.9278  0.2598  0.6130
 6888SOL    HW132123   2.181   0.574   8.046 -0.1064  2.9546  0.1296
 6888SOL    HW232124   2.218   0.492   8.154 -0.5838 -0.0311 -1.6107
 6889SOL     OW32125   1.533   0.527   4.640  0.7145 -0.2165 -0.0863
 6889SOL    HW132126   1.574   0.602   4.683  0.7817 -0.6226  0.5626
 6889SOL    HW232127   1.455   0.564   4.601 -0.9617 -1.4535  2.0957
 6890SOL     OW32128   4.479   3.743  16.452 -0.4520  0.0149 -0.5101
 6890SOL    HW132129   4.571   3.718  16.462 -1.2841 -2.3171  1.1528
 6890SOL    HW232130   4.427   3.668  16.480  2.4751 -0.9541  2.4660
 6891SOL     OW32131   4.044   0.532  16.234 -0.7472  1.0146 -0.2764
 6891SOL    HW132132   3.963   0.497  16.198 -1.2619  0.6262  1.2754
 6891SOL    HW232133   4.095   0.548  16.155  0.6199  0.1643  0.4336
 6892SOL     OW32134   1.178   0.278  11.748 -0.2513  0.6368  1.0141
 6892SOL    HW132135   1.244   0.344  11.770 -1.6091  2.2174  0.2717
 6892SOL    HW232136   1.100   0.330  11.767 -0.8303  0.0204  0.3157
 6893SOL     OW32137   2.438   0.305   7.215 -0.6916 -0.3290  0.6976
 6893SOL    HW132138   2.491   0.382   7.233  0.8389 -1.1805 -0.1378
 6893SOL    HW232139   2.354   0.349   7.202 -1.4889 -1.3038  2.5146
 6894SOL     OW32140   4.237   0.387   0.688  0.2185 -0.6588 -0.2098
 6894SOL    HW132141   4.207   0.416   0.774  2.6149 -1.2431  0.8222
 6894SOL    HW232142   4.319   0.435   0.679 -0.6678  0.6181 -1.4175
 6895SOL     OW32143   1.879   1.346   0.574 -0.0582  0.0464 -0.5841
 6895SOL    HW132144   1.895   1.328   0.482  1.1298  1.4878 -0.6392
 6895SOL    HW232145   1.962   1.371   0.614 -0.6295 -0.9533  1.2406
 6896SOL     OW32146   3.402   2.991   1.812  0.7857 -0.3559  0.0389
 6896SOL    HW132147   3.365   2.903   1.819 -0.9644  0.2860 -1.1687
 6896SOL    HW232148   3.488   2.973   1.850  0.1616 -1.5338  0.8932
 6897SOL     OW32149   2.600   3.913   5.600 -0.2840 -0.0421 -0.2235
 6897SOL    HW132150   2.663   3.879   5.536 -1.3883  1.0157 -1.8663
 6897SOL    HW232151   2.622   3.857   5.674 -0.4921  0.4122  0.1825
 6898SOL     OW32152   0.850   1.471  17.335 -0.1959 -0.1450  0.1816
 6898SOL    HW132153   0.806   1.386  17.338 -0.7069  0.0951 -0.5945
 6898SOL    HW232154   0.934   1.443  17.373  0.1741  2.1713  1.0330
 6899SOL     OW32155   0.959   0.543   0.667  0.5416 -0.2681  0.1939
 6899SOL    HW132156   0.992   0.631   0.685 -0.5586 -0.2258  1.9457
 6899SOL    HW232157   1.018   0.485   0.715 -0.6166 -1.4342  0.1944
 6900SOL     OW32158   3.714   4.506   0.004  0.1298  0.2546  0.0496
 6900SOL    HW132159   3.652   4.574  17.677  0.2858 -0.0604 -1.1190
 6900SOL    HW232160   3.688   4.516   0.096  0.7661 -1.0847  0.3730
 6901SOL     OW32161   3.345   1.272   9.166  0.3472 -0.1184  0.1888
 6901SOL    HW132162   3.284   1.231   9.227  0.0873 -1.7473 -1.1668
 6901SOL    HW232163   3.295   1.308   9.093 -0.8074 -0.6541  0.7310
 6902SOL     OW32164   4.671   0.934   7.788 -0.0493 -0.2801  0.4545
 6902SOL    HW132165   4.698   0.969   7.703 -0.0981  0.5748  0.7952
 6902SOL    HW232166   4.612   0.864   7.760 -0.2123  0.1655 -0.3304
 6903SOL     OW32167   2.884   3.656   2.472 -0.0243  0.1172  0.3012
 6903SOL    HW132168   2.841   3.576   2.502 -1.9882  0.4497 -1.6111
 6903SOL    HW232169   2.813   3.718   2.491 -1.5242 -1.3670 -0.4523
 6904SOL     OW32170   2.040   3.529   9.215  0.3905  0.0904 -0.0090
 6904SOL    HW132171   2.134   3.547   9.209  0.4960 -1.0915 -1.7854
 6904SOL    HW232172   2.031   3.448   9.166  1.0116  0.4220 -0.6880
 6905SOL     OW32173   3.925   3.784  10.216 -0.0321  0.3567  0.2291
 6905SOL    HW132174   4.010   3.740  10.212 -1.0456 -1.3246 -2.5682
 6905SOL    HW232175   3.877   3.718  10.166  0.6242  0.2480 -0.2723
 6906SOL     OW32176   3.325   4.300   3.481  0.2914 -0.0766  0.0782
 6906SOL    HW132177   3.259   4.297   3.550 -0.8698 -3.3485 -1.1762
 6906SOL    HW232178   3.381   4.375   3.503  0.3067  0.0603 -0.4226
 6907SOL     OW32179   3.423   0.630  16.114 -0.0591  0.3417  0.5771
 6907SOL    HW132180   3.436   0.674  16.198  0.9581  1.3458 -0.1168
 6907SOL    HW232181   3.362   0.559  16.133  1.6675 -1.5546 -1.0012
 6908SOL     OW32182   0.173   2.406   9.676 -0.3063  0.1907 -0.0640
 6908SOL    HW132183   0.115   2.335   9.649 -0.9261  0.7669 -0.2520
 6908SOL    HW232184   0.122   2.487   9.683 -1.2080 -0.2264 -1.9363
 6909SOL     OW32185   0.710   0.569   9.632 -0.0829  0.3685  0.5121
 6909SOL    HW132186   0.805   0.562   9.637 -0.0169 -0.5884 -2.1499
 6909SOL    HW232187   0.696   0.639   9.567 -1.8441  0.6008  1.1430
 6910SOL     OW32188   3.018   0.278   7.784  0.2209  0.0053  0.3904
 6910SOL    HW132189   3.019   0.193   7.829 -1.1855 -0.9878 -1.4525
 6910SOL    HW232190   3.096   0.265   7.730 -1.4235 -0.5706 -1.8758
 6911SOL     OW32191   3.188   3.783  11.056 -0.4515 -0.3130  0.6618
 6911SOL    HW132192   3.234   3.717  11.107  1.5705 -0.4323 -1.3469
 6911SOL    HW232193   3.148   3.731  10.986  0.6584  0.2036 -0.3425
 6912SOL     OW32194   0.023   2.635  17.507  0.3120 -0.4569 -0.3262
 6912SOL    HW132195   0.099   2.618  17.562 -0.1685  2.7125  1.3099
 6912SOL    HW232196   4.714   2.720  17.537 -2.1098 -2.0797  1.5769
 6913SOL     OW32197   0.961   0.156   7.827 -0.6540  0.4222 -0.0636
 6913SOL    HW132198   1.006   0.196   7.902  0.3695 -0.5414 -0.1721
 6913SOL    HW232199   1.009   0.196   7.755 -0.2316 -0.3539 -0.2134
 6914SOL     OW32200   0.760   4.624   7.214 -0.2799  0.0409 -0.1016
 6914SOL    HW132201   0.688   4.563   7.200  0.1098 -0.1380 -1.2888
 6914SOL    HW232202   0.838   4.572   7.196  1.1446  2.7951 -1.9817
 6915SOL     OW32203   0.151   3.786   5.787 -0.1245 -0.6206  0.7188
 6915SOL    HW132204   0.079   3.848   5.779 -0.0230 -0.5435  0.3793
 6915SOL    HW232205   0.218   3.827   5.733 -0.1497  0.5626  1.6059
 6916SOL     OW32206   2.301   1.250   8.814 -0.1102  0.0197  0.3199
 6916SOL    HW132207   2.312   1.195   8.892 -0.6184  0.9060  1.0100
 6916SOL    HW232208   2.329   1.184   8.751  0.9082 -0.3792  1.1871
 6917SOL     OW32209   3.760   4.679   9.286  0.6796  0.2672  0.1334
 6917SOL    HW132210   3.690   4.718   9.337 -0.6254  0.9549 -2.1819
 6917SOL    HW232211   3.776   0.019   9.217  2.0312 -1.9236 -1.6102
 6918SOL     OW32212   3.862   3.824  15.348 -0.3946  1.2346 -1.0546
 6918SOL    HW132213   3.824   3.742  15.315  2.0721  0.0517 -0.9574
 6918SOL    HW232214   3.954   3.809  15.327  0.1408  1.6670  0.9822
 6919SOL     OW32215   0.055   2.295   3.430  0.1005 -0.1428  0.1646
 6919SOL    HW132216   0.144   2.319   3.406  0.7464  1.2419  3.9643
 6919SOL    HW232217   0.007   2.313   3.349 -0.1060  0.4225  0.4167
 6920SOL     OW32218   2.716   1.830   0.982 -0.7266  0.4800 -0.0089
 6920SOL    HW132219   2.695   1.808   1.073  1.9003  2.6351  1.1198
 6920SOL    HW232220   2.629   1.815   0.947 -0.1212  0.2619 -1.4318
 6921SOL     OW32221   1.883   2.471   1.118  0.5065  0.5680 -0.0477
 6921SOL    HW132222   1.938   2.427   1.183 -0.8753 -0.4807  0.4367
 6921SOL    HW232223   1.940   2.449   1.045  2.3467 -0.6709  1.7380
 6922SOL     OW32224   2.147   1.419   0.621 -0.5456 -0.4134  0.4325
 6922SOL    HW132225   2.187   1.338   0.651  1.2606  0.3693  0.1277
 6922SOL    HW232226   2.220   1.477   0.599 -2.0031  1.1024 -0.4786
 6923SOL     OW32227   0.029   1.995  10.549  0.0820 -0.0285  0.4491
 6923SOL    HW132228   4.667   1.953  10.553  0.1960 -0.5240 -2.0970
 6923SOL    HW232229   0.028   2.059  10.620 -0.9363 -0.2903  0.6754
 6924SOL     OW32230   2.889   3.022   8.907 -1.1584 -0.2176  0.2261
 6924SOL    HW132231   2.964   3.060   8.862 -0.5322  0.8795  2.1929
 6924SOL    HW232232   2.821   3.089   8.897 -1.8896 -1.2939 -2.0004
 6925SOL     OW32233   0.973   1.551   3.991  0.6921 -0.0514  0.2506
 6925SOL    HW132234   0.880   1.562   4.009 -0.0758 -3.3050 -1.5252
 6925SOL    HW232235   1.014   1.629   4.027 -1.3579  0.4072  1.5077
 6926SOL     OW32236   3.747   3.008   8.615 -0.3146 -0.0343  0.0066
 6926SOL    HW132237   3.739   3.054   8.531 -0.8548  0.7429  0.4925
 6926SOL    HW232238   3.805   2.940   8.580 -0.8376 -0.6983  0.4245
 6927SOL     OW32239   3.423   4.301   0.082  1.1507  0.2947 -0.7567
 6927SOL    HW132240   3.415   4.329  17.690 -0.7028 -1.8119 -1.2462
 6927SOL    HW232241   3.427   4.208   0.058 -1.2986 -0.3899  1.4823
 6928SOL     OW32242   4.412   3.521   5.562 -0.3689  0.0553 -0.0069
 6928SOL    HW132243   4.393   3.491   5.473 -0.9731 -0.6715  0.3745
 6928SOL    HW232244   4.334   3.489   5.607 -0.7151 -1.1418 -1.4480
 6929SOL     OW32245   1.721   3.916  11.093 -0.3982  0.0764  0.0695
 6929SOL    HW132246   1.668   3.850  11.138  1.7260 -2.4972 -1.2620
 6929SOL    HW232247   1.806   3.907  11.135  0.6373  2.6130 -1.4800
 6930SOL     OW32248   1.217   1.185   8.271 -0.0747 -0.0716  0.1792
 6930SOL    HW132249   1.239   1.158   8.361 -3.8389  0.7552  1.3458
 6930SOL    HW232250   1.168   1.265   8.290  0.4079  0.4119 -0.6062
 6931SOL     OW32251   1.533   1.145   9.376  0.3104  0.8564  0.0520
 6931SOL    HW132252   1.607   1.094   9.408 -0.8029 -1.0733 -0.4534
 6931SOL    HW232253   1.515   1.196   9.455  1.7498 -2.0591  2.2684
 6932SOL     OW32254   3.887   1.390   7.534  0.1781 -0.2762 -0.2510
 6932SOL    HW132255   3.836   1.449   7.479  2.4078  0.1698 -1.8311
 6932SOL    HW232256   3.845   1.403   7.619 -2.8002 -2.2868 -1.4142
 6933SOL     OW32257   4.153   2.622   9.709 -0.1316 -0.4445 -0.0373
 6933SOL    HW132258   4.157   2.706   9.663  0.6544 -1.2958 -1.5361
 6933SOL    HW232259   4.209   2.647   9.783 -0.9892 -1.9328  1.1082
 6934SOL     OW32260   3.957   4.449  17.141 -0.1148  0.5114  0.6524
 6934SOL    HW132261   3.897   4.522  17.155 -1.4511 -0.4996  0.3021
 6934SOL    HW232262   3.950   4.400  17.223 -3.5550  1.6057  1.0474
 6935SOL     OW32263   2.247   2.090  12.777  0.3737  0.7992 -0.6564
 6935SOL    HW132264   2.295   2.172  12.761  2.0123  0.2629  1.3934
 6935SOL    HW232265   2.281   2.015  12.729 -0.1551  0.8461 -1.1037
 6936SOL     OW32266   1.540   4.588   5.298  0.0552 -0.2929 -0.1307
 6936SOL    HW132267   1.611   4.544   5.344  0.8253 -0.1760 -1.2179
 6936SOL    HW232268   1.592   4.604   5.220 -0.7862 -0.3760 -0.7182
 6937SOL     OW32269   1.368   0.824   3.781  0.1409 -1.1883  0.4191
 6937SOL    HW132270   1.273   0.814   3.777 -0.0314 -0.0552  1.4769
 6937SOL    HW232271   1.399   0.784   3.700 -1.5198  1.5791 -1.5796
 6938SOL     OW32272   0.253   2.598   7.167  0.1800  0.7010 -0.2482
 6938SOL    HW132273   0.205   2.552   7.236 -2.6668  2.3415 -1.1405
 6938SOL    HW232274   0.213   2.560   7.089  0.3478  1.2415 -0.5956
 6939SOL     OW32275   2.613   0.642  13.171  0.0914 -0.1910  0.1886
 6939SOL    HW132276   2.655   0.622  13.088  0.2862  3.0285 -0.4721
 6939SOL    HW232277   2.680   0.685  13.224  1.0991 -0.7505 -0.6581
 6940SOL     OW32278   2.854   0.080  14.963  0.0668  0.4501 -0.6402
 6940SOL    HW132279   2.851   4.713  14.935 -1.7526 -0.6424  3.2351
 6940SOL    HW232280   2.862   0.127  14.879  0.8887 -1.0976 -1.4256
 6941SOL     OW32281   1.092   1.015   0.932  0.0270 -0.2153 -0.5668
 6941SOL    HW132282   1.158   1.073   0.895  3.1546 -2.7686  0.9961
 6941SOL    HW232283   1.085   1.063   1.014 -2.5596  0.2518 -1.0647
 6942SOL     OW32284   1.670   3.268  10.670 -0.2650  0.5967  0.0225
 6942SOL    HW132285   1.575   3.267  10.683 -0.1361  1.3185  1.0686
 6942SOL    HW232286   1.686   3.260  10.576 -2.4684 -1.5233 -0.1811
 6943SOL     OW32287   1.085   2.318   5.365  0.1202  0.8794  0.3337
 6943SOL    HW132288   1.061   2.273   5.283  0.5869  0.9875  0.1356
 6943SOL    HW232289   1.010   2.320   5.425 -0.6665  2.3423 -0.6791
 6944SOL     OW32290   2.809   3.149   8.495 -0.8934  0.5911 -0.8206
 6944SOL    HW132291   2.747   3.106   8.553  0.4699 -0.3956 -0.0881
 6944SOL    HW232292   2.877   3.160   8.562  0.7757 -1.1762 -2.1933
 6945SOL     OW32293   2.706   2.652   1.705  0.2012 -0.0095  0.1731
 6945SOL    HW132294   2.680   2.726   1.759  1.7108  1.4609 -1.1398
 6945SOL    HW232295   2.769   2.701   1.651 -0.7481  0.3321 -0.6182
 6946SOL     OW32296   2.747   1.809   8.343  0.0963  0.0197 -0.1633
 6946SOL    HW132297   2.681   1.876   8.360  2.2970  2.1097  0.2327
 6946SOL    HW232298   2.814   1.850   8.398 -1.4797 -0.6751  2.2838
 6947SOL     OW32299   1.931   2.560   4.479 -0.1498 -0.5907  0.3860
 6947SOL    HW132300   1.939   2.495   4.409 -1.3712 -1.4086  1.0068
 6947SOL    HW232301   1.860   2.526   4.534 -0.5361 -1.1061 -0.4358
 6948SOL     OW32302   1.875   3.497   9.420  0.3536 -0.2474  0.1713
 6948SOL    HW132303   1.809   3.529   9.358  1.1475 -0.8373 -0.9802
 6948SOL    HW232304   1.949   3.512   9.361 -0.0527  1.6849  0.1486
 6949SOL     OW32305   1.427   2.394   0.310 -0.2508 -0.5437  0.2748
 6949SOL    HW132306   1.471   2.353   0.384  0.5996 -0.5951 -0.2617
 6949SOL    HW232307   1.509   2.409   0.264 -0.9720 -0.0894 -0.8522
 6950SOL     OW32308   0.205   0.033  16.172 -0.3497 -0.5410 -0.5794
 6950SOL    HW132309   0.132   4.696  16.175 -1.7509  1.2820  2.4873
 6950SOL    HW232310   0.202   0.087  16.093  1.7751  0.7394  0.1922
 6951SOL     OW32311   1.904   0.810   4.134 -0.0630  0.1462 -0.2378
 6951SOL    HW132312   1.830   0.851   4.089 -0.2560 -1.4686 -1.4013
 6951SOL    HW232313   1.883   0.717   4.143  0.5100  0.1044  0.6309
 6952SOL     OW32314   1.169   3.305   8.261  0.0934  0.0510 -0.3743
 6952SOL    HW132315   1.245   3.359   8.243  0.5790 -1.0843 -1.7071
 6952SOL    HW232316   1.158   3.320   8.355 -0.9378 -1.5313 -0.2304
 6953SOL     OW32317   1.601   4.050   3.852 -0.2665 -0.1395 -0.1509
 6953SOL    HW132318   1.679   4.006   3.819  1.2632  1.7439  0.9645
 6953SOL    HW232319   1.636   4.139   3.851 -2.2515  0.6644  1.5499
 6954SOL     OW32320   3.876   3.598  15.027  0.3452  0.0829  0.4101
 6954SOL    HW132321   3.848   3.515  14.990 -0.4716  0.6556 -0.2608
 6954SOL    HW232322   3.823   3.604  15.107  1.5558  1.5846  1.1181
 6955SOL     OW32323   0.194   3.600   1.986 -0.0612 -0.6086  0.5704
 6955SOL    HW132324   0.274   3.623   1.939 -2.0910  1.4254 -1.8867
 6955SOL    HW232325   0.202   3.672   2.050 -2.8627  0.7710 -0.6439
 6956SOL     OW32326   1.454   3.911   4.054  0.2874 -0.4810  0.1999
 6956SOL    HW132327   1.454   3.987   4.112  1.0403 -1.4685  1.4966
 6956SOL    HW232328   1.513   3.932   3.982  1.0758  1.1412  1.3014
 6957SOL     OW32329   1.554   3.728   1.970  0.1386  0.3554 -0.2042
 6957SOL    HW132330   1.633   3.687   2.006 -1.2475 -1.1868  1.0657
 6957SOL    HW232331   1.487   3.660   1.961  1.0779 -0.5967 -0.0139
 6958SOL     OW32332   4.160   3.449   7.325 -0.0607 -0.1936 -0.1928
 6958SOL    HW132333   4.100   3.521   7.306 -0.7010 -1.3320 -2.4058
 6958SOL    HW232334   4.093   3.381   7.330 -0.6564  0.3200 -1.3212
 6959SOL     OW32335   1.267   3.042   4.806 -0.8083 -0.1360 -0.0912
 6959SOL    HW132336   1.217   3.002   4.734 -0.3858 -0.5379 -0.1616
 6959SOL    HW232337   1.200   3.036   4.874  2.1298  1.4776  2.9209
 6960SOL     OW32338   4.175   3.359   6.955  0.3437  0.5441 -0.3507
 6960SOL    HW132339   4.143   3.286   7.008  2.0135 -0.3991 -0.6465
 6960SOL    HW232340   4.257   3.321   6.925  0.5958 -1.0997  2.4530
 6961SOL     OW32341   1.352   1.460   0.386 -0.3526  0.1990  0.4300
 6961SOL    HW132342   1.307   1.545   0.385 -1.2839 -0.2498  3.3451
 6961SOL    HW232343   1.353   1.446   0.481 -2.7391 -0.4647  0.3547
 6962SOL     OW32344   1.407   0.458  10.411  0.8159 -0.2381  0.6093
 6962SOL    HW132345   1.352   0.506  10.472 -1.1874 -0.5389 -0.9510
 6962SOL    HW232346   1.348   0.385  10.393  1.6003 -0.7328  0.0312
 6963SOL     OW32347   0.430   4.440  11.824  0.3504  0.2081  0.0947
 6963SOL    HW132348   0.341   4.420  11.795 -0.5526  1.3370  2.0420
 6963SOL    HW232349   0.433   4.536  11.833 -0.0302  0.1673  0.6522
 6964SOL     OW32350   1.058   1.435  11.599 -0.1811  0.9793 -0.0502
 6964SOL    HW132351   1.110   1.357  11.619  0.8342  1.7704  0.4271
 6964SOL    HW232352   1.092   1.498  11.664  0.4095  2.1108 -1.4566
 6965SOL     OW32353   4.000   1.637   3.580 -0.6213  0.1815 -0.3411
 6965SOL    HW132354   4.094   1.641   3.564 -0.6016 -1.1791 -0.6189
 6965SOL    HW232355   3.988   1.550   3.542 -0.1255 -1.4251  3.2068
 6966SOL     OW32356   2.517   1.017   5.328  0.0738  0.2058 -0.2342
 6966SOL    HW132357   2.431   1.047   5.301 -0.5600 -1.0571  0.4142
 6966SOL    HW232358   2.574   1.023   5.251 -1.0619  1.3044 -0.9878
 6967SOL     OW32359   0.551   1.053   0.434  0.4142 -0.4269  0.4478
 6967SOL    HW132360   0.619   1.088   0.378  2.0779 -2.3404  1.2672
 6967SOL    HW232361   0.559   1.112   0.509 -0.2095  2.2680 -1.6368
 6968SOL     OW32362   3.622   4.403   5.959  0.3102 -0.2806  0.4032
 6968SOL    HW132363   3.576   4.482   5.931  0.8791  0.4734  1.5822
 6968SOL    HW232364   3.669   4.441   6.033  0.3502 -0.1175  0.2936
 6969SOL     OW32365   3.928   4.246   4.853 -0.7304 -0.6279  0.1105
 6969SOL    HW132366   3.839   4.237   4.888 -0.2581  0.1815  1.5307
 6969SOL    HW232367   3.974   4.264   4.935  0.9399 -2.8514 -0.3590
 6970SOL     OW32368   4.037   1.589   6.555 -0.3539 -0.0978  0.1769
 6970SOL    HW132369   3.960   1.640   6.531 -1.1592 -0.6947  1.5345
 6970SOL    HW232370   4.107   1.638   6.510 -2.3840  1.3720 -1.3878
 6971SOL     OW32371   2.059   2.884   7.909 -0.5265 -0.2195 -0.1758
 6971SOL    HW132372   2.123   2.826   7.867  0.2046  1.5388 -1.4872
 6971SOL    HW232373   2.053   2.840   7.993 -0.8846 -0.9020 -0.5590
 6972SOL     OW32374   1.252   2.003  16.786 -0.4114 -0.1523  0.6097
 6972SOL    HW132375   1.168   2.046  16.775 -0.0084  0.4211 -0.2440
 6972SOL    HW232376   1.236   1.945  16.860  3.4987 -2.2091 -0.1317
 6973SOL     OW32377   2.746   0.835   2.595 -0.6375  0.6646 -0.5302
 6973SOL    HW132378   2.806   0.771   2.634 -2.9413 -0.9030  0.4803
 6973SOL    HW232379   2.723   0.889   2.671 -0.5619 -0.7318  0.4899
 6974SOL     OW32380   1.060   1.757  10.757  0.1571 -0.0461  0.1123
 6974SOL    HW132381   1.077   1.670  10.794 -3.5326 -0.1657  1.5691
 6974SOL    HW232382   0.973   1.742  10.721  0.8698  1.8724 -2.4105
 6975SOL     OW32383   4.135   1.144  14.310 -0.1802 -0.0876 -0.2712
 6975SOL    HW132384   4.052   1.103  14.334 -0.0981 -0.5181 -0.6908
 6975SOL    HW232385   4.108   1.232  14.335 -0.8049 -1.1920  2.9613
 6976SOL     OW32386   0.802   4.536   2.498 -0.5162 -0.9137  0.1773
 6976SOL    HW132387   0.805   4.565   2.407 -0.0224 -2.4252 -0.2939
 6976SOL    HW232388   0.804   4.440   2.496  2.6449 -0.8465  1.5349
 6977SOL     OW32389   0.666   2.427  11.903  0.0854 -0.6460  0.0046
 6977SOL    HW132390   0.673   2.522  11.893  0.9868 -0.7235 -0.1549
 6977SOL    HW232391   0.573   2.414  11.916  0.4015 -3.9705 -1.0734
 6978SOL     OW32392   2.038   3.902   7.620 -0.0401 -0.2766 -0.3191
 6978SOL    HW132393   2.040   3.883   7.714  1.5083 -0.5672 -0.4093
 6978SOL    HW232394   1.969   3.847   7.583 -0.3067 -0.0565 -0.1498
 6979SOL     OW32395   3.482   3.389   0.559  0.0790 -1.1052 -0.5005
 6979SOL    HW132396   3.536   3.324   0.603  0.8284 -1.7047 -2.2960
 6979SOL    HW232397   3.459   3.341   0.480 -2.1264 -1.0629  0.1033
 6980SOL     OW32398   1.563   2.554   2.695 -0.0954 -0.7359  0.2622
 6980SOL    HW132399   1.582   2.620   2.762 -0.9918 -1.7519  1.5251
 6980SOL    HW232400   1.645   2.563   2.646 -1.5058 -2.3606 -2.4169
 6981SOL     OW32401   3.685   1.807  13.236  0.4081  0.1950  0.0100
 6981SOL    HW132402   3.689   1.891  13.190 -0.1452  1.0987  1.5965
 6981SOL    HW232403   3.594   1.812  13.265  0.5436 -2.1935  0.7714
 6982SOL     OW32404   0.964   4.397   8.294  0.3085 -0.6153  0.4013
 6982SOL    HW132405   0.979   4.306   8.321 -2.1042 -0.3626  2.5322
 6982SOL    HW232406   1.043   4.412   8.242  1.4762 -0.5312  2.1812
 6983SOL     OW32407   0.898   0.149   0.050  0.7124 -0.1149  0.3168
 6983SOL    HW132408   0.923   0.227   0.100  2.2059 -0.6126  0.3731
 6983SOL    HW232409   0.965   0.085   0.073  0.8786  0.7592  2.3023
 6984SOL     OW32410   2.249   2.801   5.011 -0.1876  0.3240 -0.3467
 6984SOL    HW132411   2.165   2.818   4.967  0.2626  0.7585 -1.0434
 6984SOL    HW232412   2.245   2.707   5.030 -0.4142  0.6219  1.0476
 6985SOL     OW32413   2.579   0.601   1.247  0.0476  0.9267 -0.2238
 6985SOL    HW132414   2.535   0.675   1.288  0.2237  0.5506  0.6426
 6985SOL    HW232415   2.511   0.536   1.227  1.2949 -0.2792 -0.5102
 6986SOL     OW32416   1.848   3.718  15.069 -0.1626  0.3318 -0.0125
 6986SOL    HW132417   1.842   3.799  15.019  0.7270 -0.1964 -0.9817
 6986SOL    HW232418   1.759   3.684  15.056 -0.5424  1.0402  0.8120
 6987SOL     OW32419   1.115   2.453  15.292 -0.2863  0.1689 -0.2980
 6987SOL    HW132420   1.193   2.424  15.245 -0.4646  0.2050 -0.6170
 6987SOL    HW232421   1.139   2.540  15.325  1.2534 -0.3679  0.0085
 6988SOL     OW32422   2.955   1.243  16.889  0.2085  0.0011  0.1967
 6988SOL    HW132423   2.970   1.169  16.830 -0.3078  0.2633 -0.2710
 6988SOL    HW232424   3.042   1.281  16.875  0.8101 -1.0484  1.1579
 6989SOL     OW32425   4.402   3.336  12.632  0.0607 -0.0118  0.2484
 6989SOL    HW132426   4.459   3.275  12.679  0.5313  1.7500  1.9590
 6989SOL    HW232427   4.339   3.360  12.700  0.0622 -1.7511  0.8780
 6990SOL     OW32428   4.306   4.682  13.589  1.1612 -0.5121  0.3625
 6990SOL    HW132429   4.274   4.688  13.679 -1.3956  0.7362 -0.6365
 6990SOL    HW232430   4.399   4.700  13.608  1.1757 -0.3410  0.1228
 6991SOL     OW32431   2.812   0.660   1.103  0.2459 -0.4277 -0.4673
 6991SOL    HW132432   2.780   0.746   1.077  1.9834  0.2208 -0.4347
 6991SOL    HW232433   2.743   0.641   1.166  1.2225  0.1245  0.7467
 6992SOL     OW32434   2.858   1.909  11.513 -0.1918 -0.4274 -0.0188
 6992SOL    HW132435   2.834   1.909  11.420 -0.4483 -1.2866  0.0481
 6992SOL    HW232436   2.829   1.822  11.540 -1.2886 -0.7338 -2.1144
 6993SOL     OW32437   3.390   0.140   1.356 -0.6182 -0.2048 -0.4953
 6993SOL    HW132438   3.464   0.168   1.301 -0.9051 -1.7232 -1.6765
 6993SOL    HW232439   3.374   0.215   1.413  0.4214 -0.9300  0.7397
 6994SOL     OW32440   2.505   1.546   9.484 -0.0280 -1.2044 -0.2335
 6994SOL    HW132441   2.518   1.582   9.396 -1.6230 -0.1037 -0.0062
 6994SOL    HW232442   2.428   1.595   9.514 -0.9058 -2.3840 -0.5435
 6995SOL     OW32443   4.361   0.321  13.815 -0.0262 -0.4007  0.5333
 6995SOL    HW132444   4.407   0.299  13.734  0.0196 -1.0188  0.7298
 6995SOL    HW232445   4.434   0.340  13.873 -0.1311 -1.1162  0.8912
 6996SOL     OW32446   0.352   0.289   5.038 -0.0290 -0.4991 -0.0609
 6996SOL    HW132447   0.420   0.284   5.105  1.4805 -4.8211 -1.8696
 6996SOL    HW232448   0.272   0.294   5.090 -0.9439  1.7521 -1.6914
 6997SOL     OW32449   1.992   1.529  14.721  0.5491 -0.5596 -0.1709
 6997SOL    HW132450   1.990   1.624  14.714  0.0593 -0.4588  1.3291
 6997SOL    HW232451   2.045   1.512  14.800  1.3666  0.1670 -0.5644
 6998SOL     OW32452   0.621   4.565  12.150 -0.4030  0.4232  0.3471
 6998SOL    HW132453   0.621   4.625  12.075  0.5393  1.0782  0.8756
 6998SOL    HW232454   0.700   4.594  12.195 -0.9305 -0.2525  1.7301
 6999SOL     OW32455   0.530   3.920  12.029 -0.1378  0.5854 -0.5449
 6999SOL    HW132456   0.516   4.012  12.007  0.1202 -0.1618 -3.9352
 6999SOL    HW232457   0.590   3.931  12.103  1.5563  0.6631 -1.9334
 7000SOL     OW32458   0.815   2.983   4.497  0.1905 -0.1301 -0.3658
 7000SOL    HW132459   0.852   2.915   4.441  0.4958  0.8419 -1.3736
 7000SOL    HW232460   0.852   3.067   4.467 -0.5614  0.0545 -0.7897
 7001SOL     OW32461   0.061   0.407  13.732  0.3268 -0.4343 -0.1288
 7001SOL    HW132462   0.032   0.486  13.685 -0.6182 -1.6931 -1.6564
 7001SOL    HW232463   0.027   0.423  13.820 -0.2036 -0.7019 -0.2839
 7002SOL     OW32464   0.155   0.604   6.482  0.0853 -0.0435 -0.6386
 7002SOL    HW132465   0.090   0.569   6.542 -2.8602  3.1865 -1.9053
 7002SOL    HW232466   0.135   0.697   6.490 -2.2499 -0.4336 -2.0390
 7003SOL     OW32467   2.736   4.344   6.229 -0.6456  0.6836 -0.6011
 7003SOL    HW132468   2.742   4.271   6.291 -0.4478  1.5312  0.3850
 7003SOL    HW232469   2.642   4.351   6.213 -0.7024 -2.5090 -1.6057
 7004SOL     OW32470   4.701   4.038   6.217 -0.5481 -0.6019  0.6554
 7004SOL    HW132471   0.071   4.039   6.201 -0.8509  0.2485 -1.0456
 7004SOL    HW232472   4.653   3.980   6.158  0.1683  2.1295 -2.6070
 7005SOL     OW32473   2.242   1.802   5.477 -0.0254  0.0576 -0.2632
 7005SOL    HW132474   2.260   1.728   5.419 -1.6481 -0.4523 -0.1163
 7005SOL    HW232475   2.252   1.762   5.564 -0.2630 -0.0487 -0.2839
 7006SOL     OW32476   3.550   3.804   2.473 -0.4453 -0.4218 -0.6455
 7006SOL    HW132477   3.519   3.716   2.453  0.8405 -0.5644 -2.0413
 7006SOL    HW232478   3.593   3.822   2.390  1.2535 -1.6470 -0.0331
 7007SOL     OW32479   3.033   3.460   5.341 -0.6679  0.3968 -0.2454
 7007SOL    HW132480   3.031   3.428   5.250 -1.1948 -3.9804  1.2830
 7007SOL    HW232481   3.002   3.380   5.384  3.1573 -0.7833  0.3448
 7008SOL     OW32482   3.680   1.090  17.341  0.2103 -0.0110 -0.2146
 7008SOL    HW132483   3.737   1.124  17.271 -1.3080 -0.4291 -1.6628
 7008SOL    HW232484   3.725   1.006  17.348  3.1062  1.5542 -0.0213
 7009SOL     OW32485   1.060   0.012  14.768 -0.0893  0.2230 -0.5524
 7009SOL    HW132486   1.070   4.642  14.768 -2.4113 -0.0188  1.2875
 7009SOL    HW232487   1.035   0.029  14.859 -1.1804  1.6076 -1.1048
 7010SOL     OW32488   3.092   4.447   8.657 -0.1528  0.2737 -0.5542
 7010SOL    HW132489   3.186   4.447   8.672 -0.3802 -0.9575  0.8563
 7010SOL    HW232490   3.084   4.391   8.580  1.0618  2.8663 -2.5844
 7011SOL     OW32491   4.203   4.575   1.282 -0.0054 -0.1683  0.4793
 7011SOL    HW132492   4.162   4.540   1.361 -0.9854  2.0059  0.9463
 7011SOL    HW232493   4.127   4.560   1.226  0.9196 -0.9691 -0.5589
 7012SOL     OW32494   4.556   3.311  13.178 -0.0701  0.0033 -0.0919
 7012SOL    HW132495   4.468   3.289  13.208 -0.7138  1.8633 -0.6020
 7012SOL    HW232496   4.539   3.377  13.110  2.0574  1.3659  0.6918
 7013SOL     OW32497   4.483   2.863   5.041 -0.2307  0.3247  0.1540
 7013SOL    HW132498   4.411   2.849   5.103 -0.0215  0.0726  0.3457
 7013SOL    HW232499   4.449   2.933   4.986 -0.5100 -0.9825 -1.3172
 7014SOL     OW32500   3.144   4.638   6.856  0.4051  1.0151  0.1610
 7014SOL    HW132501   3.172   4.701   6.923  1.7449  0.8443 -0.2408
 7014SOL    HW232502   3.051   4.635   6.878  0.9028 -0.5815  2.0378
 7015SOL     OW32503   4.566   1.793   7.188  0.1944 -0.4624  0.4794
 7015SOL    HW132504   4.565   1.820   7.096 -0.9630  0.3144  0.7283
 7015SOL    HW232505   4.642   1.846   7.214  2.2035 -2.3122 -1.6883
 7016SOL     OW32506   1.864   1.575  11.143 -0.0499  0.5484  0.4132
 7016SOL    HW132507   1.927   1.503  11.148 -1.0112 -0.3309 -0.0466
 7016SOL    HW232508   1.810   1.544  11.071  0.6746  1.1355 -0.3877
 7017SOL     OW32509   1.125   4.186  11.308  0.5863 -0.5022 -0.6784
 7017SOL    HW132510   1.195   4.251  11.314 -0.0803  0.4613 -3.3770
 7017SOL    HW232511   1.161   4.122  11.246  0.9382  0.4579 -1.4668
 7018SOL     OW32512   2.638   4.674   8.939  0.0183  0.3502  0.4336
 7018SOL    HW132513   2.658   0.013   9.008 -1.2347  0.2797  0.8746
 7018SOL    HW232514   2.579   0.006   8.890 -1.6602 -0.5610  1.4019
 7019SOL     OW32515   3.650   2.681   3.979  0.2923  0.3461  0.6408
 7019SOL    HW132516   3.588   2.698   3.908  1.9227 -0.9096 -1.1069
 7019SOL    HW232517   3.659   2.587   3.962 -1.7926 -0.2670  2.9920
 7020SOL     OW32518   2.592   4.207   1.481 -0.3908  0.4852 -0.0366
 7020SOL    HW132519   2.530   4.279   1.479 -0.0407  0.7892  0.1442
 7020SOL    HW232520   2.538   4.136   1.446  1.1237 -1.1868  0.9743
 7021SOL     OW32521   0.188   3.384   2.807 -0.2591 -0.1889 -0.3958
 7021SOL    HW132522   0.219   3.463   2.852  1.1158 -1.0446  0.1947
 7021SOL    HW232523   0.145   3.340   2.880 -1.1310  2.5719  0.7517
 7022SOL     OW32524   3.199   0.372  10.886 -0.2121 -0.6912  0.2336
 7022SOL    HW132525   3.225   0.327  10.805  4.2021  3.0547 -0.4172
 7022SOL    HW232526   3.105   0.355  10.875 -0.0813 -0.1875 -1.7315
 7023SOL     OW32527   3.104   0.245  10.609 -0.1036  0.1644 -0.0179
 7023SOL    HW132528   3.042   0.199  10.665  1.9238 -1.5020  0.8688
 7023SOL    HW232529   3.044   0.291  10.550  1.2359  0.7629 -0.9307
 7024SOL     OW32530   2.348   1.670   3.807  0.3633 -0.9831 -0.6369
 7024SOL    HW132531   2.387   1.758   3.810 -1.3789 -0.2073 -0.5139
 7024SOL    HW232532   2.286   1.684   3.735 -1.0766 -3.8720  0.0592
 7025SOL     OW32533   3.738   4.310  11.017 -0.3194  0.0045  0.7947
 7025SOL    HW132534   3.741   4.404  11.001  0.0922 -0.2365 -0.5589
 7025SOL    HW232535   3.803   4.267  10.961 -0.6628  0.3179  0.1633
 7026SOL     OW32536   4.015   2.430  14.176  0.0835 -0.5192 -0.2052
 7026SOL    HW132537   3.989   2.433  14.084  0.2075 -0.9213 -0.2523
 7026SOL    HW232538   3.934   2.402  14.219 -0.9136 -1.4997 -2.7133
 7027SOL     OW32539   0.186   2.983   4.372  0.1053  0.1997 -0.1792
 7027SOL    HW132540   0.229   3.069   4.374 -1.2689  0.9054 -1.2135
 7027SOL    HW232541   0.208   2.957   4.462 -2.7359  1.0618  0.7931
 7028SOL     OW32542   2.303   1.111   8.048 -0.4431  0.4245  0.5705
 7028SOL    HW132543   2.356   1.174   8.097 -0.2106 -0.8193  1.9137
 7028SOL    HW232544   2.365   1.073   7.985 -0.9190  0.6171 -0.0181
 7029SOL     OW32545   4.623   1.027   7.502  0.8688 -0.6377 -0.6021
 7029SOL    HW132546   4.556   1.082   7.545  1.4587 -1.8851  1.8905
 7029SOL    HW232547   4.576   1.036   7.419  0.3317  0.7821 -0.1571
 7030SOL     OW32548   2.694   2.775   8.776  0.0250  0.5090 -0.2702
 7030SOL    HW132549   2.789   2.762   8.782 -0.0103  0.8498  0.9688
 7030SOL    HW232550   2.695   2.843   8.709  2.0912 -0.2327 -0.9969
 7031SOL     OW32551   3.977   2.841   8.169  0.5930 -0.2173  0.3815
 7031SOL    HW132552   4.027   2.809   8.243 -0.7307 -1.6849  0.6518
 7031SOL    HW232553   3.932   2.757   8.158  1.4522 -0.9591  2.5127
 7032SOL     OW32554   2.770   4.469   0.244  0.6291 -0.0160  0.1391
 7032SOL    HW132555   2.760   4.377   0.221  3.2475 -0.7644  2.0511
 7032SOL    HW232556   2.680   4.500   0.227  0.3997  1.3978  3.9583
 7033SOL     OW32557   1.401   4.608   6.895  0.3356  0.2571 -0.2318
 7033SOL    HW132558   1.430   4.599   6.986  0.4404  0.3497 -0.2564
 7033SOL    HW232559   1.311   4.630   6.920  0.0095  0.8580 -1.9901
 7034SOL     OW32560   3.450   0.351   9.362  0.5097  0.3226  0.3969
 7034SOL    HW132561   3.356   0.363   9.345  0.3451 -1.9358 -0.2194
 7034SOL    HW232562   3.475   0.385   9.276 -0.6252 -0.7813 -0.3656
 7035SOL     OW32563   1.665   0.225   9.006  0.1072  0.2810  0.0883
 7035SOL    HW132564   1.624   0.227   9.092 -0.2006 -1.4703 -0.0141
 7035SOL    HW232565   1.582   0.221   8.958 -0.0142  2.8601  0.0855
 7036SOL     OW32566   3.819   2.016   9.110  0.4448  0.7728  0.0745
 7036SOL    HW132567   3.820   2.053   9.198 -0.4487 -0.1802  0.4823
 7036SOL    HW232568   3.731   2.042   9.083  0.4046  0.7393  0.1741
 7037SOL     OW32569   3.734   3.211   6.865  0.0212 -0.2061 -0.2463
 7037SOL    HW132570   3.766   3.156   6.936 -0.3084  0.2247  0.2291
 7037SOL    HW232571   3.691   3.143   6.814 -0.6613 -0.1520  0.2713
 7038SOL     OW32572   1.626   1.741   8.899  0.1322  0.4815  0.3722
 7038SOL    HW132573   1.568   1.667   8.917 -1.9519  1.9219 -0.4051
 7038SOL    HW232574   1.707   1.691   8.912  1.3352  1.9853 -1.2657
 7039SOL     OW32575   3.114   2.448   3.261  0.2828 -0.0932  0.0266
 7039SOL    HW132576   3.049   2.447   3.331  1.3103 -0.3091  0.9702
 7039SOL    HW232577   3.103   2.361   3.221 -0.9245 -0.0612  0.3092
 7040SOL     OW32578   1.927   1.350   7.600  0.7417  0.1544 -0.3336
 7040SOL    HW132579   2.016   1.351   7.563  0.8138  1.2213 -0.1352
 7040SOL    HW232580   1.933   1.266   7.644  1.2952  0.9412  1.1064
 7041SOL     OW32581   1.545   0.176  14.987 -0.8431 -0.0634  0.3198
 7041SOL    HW132582   1.534   0.271  14.980 -2.1876 -0.1582  1.1597
 7041SOL    HW232583   1.475   0.142  15.042 -0.5532 -1.8102 -0.3762
 7042SOL     OW32584   0.542   0.750   8.695  0.3384 -0.7936  0.9386
 7042SOL    HW132585   0.618   0.790   8.653  1.2787 -2.3699  1.1534
 7042SOL    HW232586   0.531   0.664   8.654  0.8277  0.1596 -1.1893
 7043SOL     OW32587   1.742   4.068   7.939  0.0557  0.2885 -0.7099
 7043SOL    HW132588   1.806   4.013   7.985  0.7532  0.3065 -1.6560
 7043SOL    HW232589   1.670   4.006   7.953  0.4986  0.1305  0.9203
 7044SOL     OW32590   4.686   0.445  11.873  0.2530 -0.2101 -0.6666
 7044SOL    HW132591   4.600   0.420  11.906  0.3996  1.7355  1.2203
 7044SOL    HW232592   4.719   0.360  11.843 -2.5988 -0.4018 -3.2297
 7045SOL     OW32593   1.185   0.801  13.325 -0.2351 -0.0936 -0.0633
 7045SOL    HW132594   1.124   0.814  13.252  0.2457 -0.5838 -0.5552
 7045SOL    HW232595   1.266   0.791  13.275 -0.5326  0.0345 -0.5781
 7046SOL     OW32596   4.429   0.982   8.501  0.1702  0.7511 -0.2217
 7046SOL    HW132597   4.451   0.991   8.594  1.3310  1.5160 -0.5638
 7046SOL    HW232598   4.517   0.960   8.469 -1.1548 -0.4071 -3.0504
 7047SOL     OW32599   3.767   4.180   5.243  0.0166 -0.5767  0.1623
 7047SOL    HW132600   3.824   4.173   5.319 -0.8065 -0.0479  0.8338
 7047SOL    HW232601   3.712   4.104   5.263 -0.1526 -0.7178 -0.8231
 7048SOL     OW32602   1.056   4.247   5.184  0.5618 -0.3781  0.1781
 7048SOL    HW132603   1.003   4.220   5.108  0.2254  0.8336 -0.0349
 7048SOL    HW232604   1.102   4.320   5.141 -0.9261  0.9317  0.8113
 7049SOL     OW32605   1.788   1.248  12.132  0.4586  0.2136 -0.2910
 7049SOL    HW132606   1.744   1.237  12.048 -2.0969  1.1364  0.9332
 7049SOL    HW232607   1.715   1.276  12.186 -0.3628 -1.2299 -0.6591
 7050SOL     OW32608   2.165   0.907   8.733  0.1211  0.5333 -0.3002
 7050SOL    HW132609   2.210   0.832   8.696  0.0809 -0.0407  0.8066
 7050SOL    HW232610   2.241   0.964   8.744  0.8626 -0.9339  2.1091
 7051SOL     OW32611   1.732   0.041   1.063 -0.4085 -0.2258  0.0244
 7051SOL    HW132612   1.713   0.059   1.155 -0.2968  1.4057 -0.2735
 7051SOL    HW232613   1.757   4.673   1.062 -2.0547 -0.6749  0.8960
 7052SOL     OW32614   1.573   3.583   2.790 -0.0002 -0.2846 -0.4179
 7052SOL    HW132615   1.589   3.536   2.708 -0.7808 -0.2289 -0.6044
 7052SOL    HW232616   1.556   3.673   2.763 -1.0802 -0.1896  0.5442
 7053SOL     OW32617   0.181   4.674   8.133 -0.0815 -0.5829 -0.4122
 7053SOL    HW132618   0.101   4.634   8.099 -1.3165  0.5599  1.2016
 7053SOL    HW232619   0.230   4.593   8.149  0.2715  0.2910  2.9244
 7054SOL     OW32620   4.492   4.391   5.590  0.4757  0.0939  0.0174
 7054SOL    HW132621   4.428   4.392   5.518  1.6155 -0.8843 -1.0140
 7054SOL    HW232622   4.445   4.322   5.638  1.2806  0.8229  1.8320
 7055SOL     OW32623   1.229   0.013   8.143 -0.1841 -0.1775  0.0777
 7055SOL    HW132624   1.263   0.049   8.225  1.2528 -0.5086 -0.3735
 7055SOL    HW232625   1.217   4.643   8.151 -1.7278 -0.0089 -0.1530
 7056SOL     OW32626   4.657   1.026   1.058 -0.0413  0.7071 -0.2033
 7056SOL    HW132627   4.721   0.972   1.011  0.3817  0.0130  1.1874
 7056SOL    HW232628   4.587   0.968   1.087  1.0101  1.1873  3.2527
 7057SOL     OW32629   0.377   2.441   7.624 -0.0060 -0.4774 -0.4927
 7057SOL    HW132630   0.457   2.493   7.625  0.4062 -1.1463  0.5274
 7057SOL    HW232631   0.393   2.389   7.703 -1.5578  0.0891  0.1892
 7058SOL     OW32632   2.228   4.225  12.464  0.5699  0.7253 -0.3101
 7058SOL    HW132633   2.279   4.304  12.445  0.6894  1.2922  2.4058
 7058SOL    HW232634   2.163   4.266  12.521 -0.4418 -0.3746 -0.6826
 7059SOL     OW32635   2.414   3.708   9.397  0.3495  0.4163 -0.0739
 7059SOL    HW132636   2.387   3.800   9.386  1.5679  0.9105  1.0837
 7059SOL    HW232637   2.496   3.716   9.347 -0.3759  3.2232 -0.8166
 7060SOL     OW32638   0.730   3.069   3.468  0.6480  0.0369  0.2945
 7060SOL    HW132639   0.823   3.048   3.465  0.5251 -0.2461 -1.2739
 7060SOL    HW232640   0.694   3.033   3.387  3.9937  0.7796 -1.5174
 7061SOL     OW32641   3.654   0.111   5.756 -0.0860 -0.0521 -0.2993
 7061SOL    HW132642   3.589   0.133   5.689  0.5427  0.8305 -0.6143
 7061SOL    HW232643   3.593   0.097   5.829  0.0357  0.8446 -0.0338
 7062SOL     OW32644   4.171   1.565   2.830  0.3574  0.4860  0.5014
 7062SOL    HW132645   4.157   1.588   2.739  2.9441 -0.2388 -0.0899
 7062SOL    HW232646   4.107   1.623   2.871 -0.0364  0.1884  0.3087
 7063SOL     OW32647   4.409   1.804  12.621  0.0038  0.5895  0.0441
 7063SOL    HW132648   4.344   1.826  12.687 -0.7951 -2.1151  0.1671
 7063SOL    HW232649   4.397   1.883  12.569 -1.5260 -0.6681 -1.5172
 7064SOL     OW32650   1.731   3.041   5.385 -0.0163  0.2173 -0.0337
 7064SOL    HW132651   1.746   3.030   5.291  2.7992  0.2051  0.4273
 7064SOL    HW232652   1.701   3.131   5.379 -1.0694 -0.0746  0.8858
 7065SOL     OW32653   0.789   0.895  12.717  0.3946 -0.1108 -0.1031
 7065SOL    HW132654   0.708   0.917  12.672 -0.1632 -0.5253  0.7054
 7065SOL    HW232655   0.775   0.812  12.762  2.3309  0.3138  1.2974
 7066SOL     OW32656   0.464   1.938   5.280 -0.0596  0.3173 -0.2140
 7066SOL    HW132657   0.438   2.029   5.271 -0.5675  0.1731 -0.1882
 7066SOL    HW232658   0.555   1.941   5.308 -0.0240  0.7024 -0.3728
 7067SOL     OW32659   2.316   3.801   5.681  0.0768  0.3381  0.0485
 7067SOL    HW132660   2.408   3.827   5.673  0.0877  0.9879  2.2615
 7067SOL    HW232661   2.271   3.871   5.634  1.5477  2.3214  1.5973
 7068SOL     OW32662   1.398   3.190   3.741 -0.1788 -0.2055  0.1620
 7068SOL    HW132663   1.307   3.207   3.765  0.1531 -1.8776  2.6496
 7068SOL    HW232664   1.443   3.261   3.786  1.9146 -1.3447 -0.1118
 7069SOL     OW32665   4.650   4.584   3.179 -0.1725  0.3059  0.5567
 7069SOL    HW132666   4.714   4.596   3.108 -0.6627 -2.0130 -0.2555
 7069SOL    HW232667   4.569   4.551   3.142  0.0890  0.5627 -0.2460
 7070SOL     OW32668   4.414   4.475   1.131  0.0254  0.1685 -0.0141
 7070SOL    HW132669   4.425   4.564   1.096 -1.5958 -0.2967 -1.7117
 7070SOL    HW232670   4.334   4.494   1.180 -0.9873  0.3775 -1.7331
 7071SOL     OW32671   1.846   4.121   5.436 -0.2382  0.6165 -0.0228
 7071SOL    HW132672   1.764   4.076   5.455 -0.9216  2.1908  0.7428
 7071SOL    HW232673   1.902   4.051   5.470 -0.9434  0.0018 -0.1262
 7072SOL     OW32674   0.394   2.124   4.092 -0.1401 -0.5577  0.3892
 7072SOL    HW132675   0.402   2.220   4.093  2.7412 -0.7806 -1.3850
 7072SOL    HW232676   0.451   2.104   4.167  2.7612 -0.0373 -1.6945
 7073SOL     OW32677   1.545   2.770   8.760  0.1104 -0.1665 -0.3058
 7073SOL    HW132678   1.459   2.765   8.719  0.9345 -1.5535 -1.8756
 7073SOL    HW232679   1.605   2.807   8.695  1.3284 -0.9497  0.3719
 7074SOL     OW32680   1.843   3.089   7.087  0.0161 -0.2521 -0.7063
 7074SOL    HW132681   1.828   2.994   7.082 -1.9008 -0.0340  0.6214
 7074SOL    HW232682   1.938   3.091   7.079 -0.1586  1.4346 -2.1218
 7075SOL     OW32683   3.156   1.027   4.164 -0.1573  0.4880 -0.2138
 7075SOL    HW132684   3.100   1.099   4.136 -1.7253 -0.4846  0.4423
 7075SOL    HW232685   3.242   1.049   4.126  1.3000 -2.3587  1.4355
 7076SOL     OW32686   2.285   3.349   4.809 -0.9347 -0.1789  0.0892
 7076SOL    HW132687   2.234   3.289   4.755  2.2214  0.9316 -4.1036
 7076SOL    HW232688   2.307   3.290   4.880  0.1447  2.4267  1.9195
 7077SOL     OW32689   3.781   3.696   6.932 -0.3695 -0.2328  0.2239
 7077SOL    HW132690   3.737   3.768   6.888  1.9375  0.4861 -0.9434
 7077SOL    HW232691   3.819   3.749   7.002 -0.6036 -0.5374  0.5788
 7078SOL     OW32692   2.296   1.733   9.048 -0.6935  0.2660 -0.6712
 7078SOL    HW132693   2.241   1.810   9.066 -3.6058 -1.3030 -2.8932
 7078SOL    HW232694   2.241   1.664   9.011 -0.8841  0.4860 -0.8004
 7079SOL     OW32695   1.957   4.440   5.195 -0.1917  0.2300 -0.1554
 7079SOL    HW132696   1.987   4.360   5.151  1.7438  0.8730 -0.0319
 7079SOL    HW232697   2.036   4.493   5.204  0.8329 -1.4570  0.8368
 7080SOL     OW32698   4.178   0.152  17.135  0.3141  0.6982  0.0870
 7080SOL    HW132699   4.103   0.210  17.145 -0.4731 -0.1463 -0.9336
 7080SOL    HW232700   4.184   0.158  17.040 -0.3841 -0.9450 -0.0578
 7081SOL     OW32701   3.628   3.891  13.996  0.8252  0.0015  0.4328
 7081SOL    HW132702   3.545   3.889  14.043  0.5046  1.1403 -0.0889
 7081SOL    HW232703   3.690   3.844  14.052  0.5699  0.0800  0.7737
 7082SOL     OW32704   0.089   1.997   3.115  0.1660  0.3718 -0.2704
 7082SOL    HW132705   0.166   1.959   3.156  2.0104  4.9319  0.4766
 7082SOL    HW232706   0.132   2.078   3.087 -0.3766  0.3935 -1.0506
 7083SOL     OW32707   0.093   2.076   4.521 -0.2996  0.1520 -0.2553
 7083SOL    HW132708   0.156   2.077   4.593 -2.3708 -1.2795  1.5688
 7083SOL    HW232709   0.012   2.058   4.568 -0.7649 -0.0142 -1.1161
 7084SOL     OW32710   2.356   0.296  15.704  0.7057 -0.6598 -0.4830
 7084SOL    HW132711   2.353   0.342  15.787 -0.1619  0.4024 -1.1159
 7084SOL    HW232712   2.389   0.212  15.737  3.3863 -0.4470 -2.5931
 7085SOL     OW32713   0.074   2.465   8.043 -0.1440  0.0608  0.3242
 7085SOL    HW132714   0.102   2.377   8.069 -0.2890 -0.4029 -1.0550
 7085SOL    HW232715   0.120   2.483   7.961  2.4449  0.9385  1.9854
 7086SOL     OW32716   4.723   2.013  16.971 -0.6123 -0.3676  0.3641
 7086SOL    HW132717   4.709   2.021  17.065 -1.2310 -0.9632  0.3231
 7086SOL    HW232718   4.666   1.940  16.948 -0.8785  0.0267 -0.2442
 7087SOL     OW32719   2.904   2.299   3.430 -0.0620  0.2746 -0.0957
 7087SOL    HW132720   2.905   2.307   3.525  1.3319 -1.7210  0.0614
 7087SOL    HW232721   2.945   2.213   3.419 -0.7944 -0.2536  1.3002
 7088SOL     OW32722   2.084   2.889   9.017  0.4834  0.3575 -0.0787
 7088SOL    HW132723   2.102   2.827   8.946 -2.5790  0.1486 -0.6425
 7088SOL    HW232724   2.168   2.936   9.015  1.3263 -1.1433  0.4389
 7089SOL     OW32725   0.182   2.528  12.890  0.2156  0.1060  0.0161
 7089SOL    HW132726   0.142   2.586  12.825 -0.3629  1.7236  1.8359
 7089SOL    HW232727   0.112   2.464  12.902 -0.6629  0.6935 -1.9705
 7090SOL     OW32728   2.715   2.226   1.759 -0.5916 -0.5597 -0.1284
 7090SOL    HW132729   2.723   2.223   1.664 -1.9460 -0.9649 -0.2326
 7090SOL    HW232730   2.653   2.299   1.766  1.7135  1.3189  0.5429
 7091SOL     OW32731   3.602   1.804   2.809  0.0154 -1.1222  0.3338
 7091SOL    HW132732   3.521   1.798   2.859  0.4355 -1.6719  0.9496
 7091SOL    HW232733   3.635   1.885   2.849 -0.3838 -1.0601  0.5412
 7092SOL     OW32734   1.504   3.577   5.570 -0.3068  0.4354  0.0392
 7092SOL    HW132735   1.504   3.580   5.475 -1.8975 -0.4581  0.0161
 7092SOL    HW232736   1.598   3.588   5.588 -0.3643 -1.6101  1.5415
 7093SOL     OW32737   3.012   3.327   3.126 -0.0410  0.2368 -0.1097
 7093SOL    HW132738   3.085   3.379   3.093 -0.0414  0.5091  0.3183
 7093SOL    HW232739   3.054   3.242   3.140 -1.4492 -0.7016 -1.6375
 7094SOL     OW32740   2.390   1.575   0.503  0.1144 -0.2747 -0.1092
 7094SOL    HW132741   2.384   1.611   0.415 -0.7300  0.1925  0.1354
 7094SOL    HW232742   2.480   1.542   0.504 -0.3498 -1.5356  0.2477
 7095SOL     OW32743   3.843   3.618   7.599 -0.3059  0.5900 -0.2436
 7095SOL    HW132744   3.756   3.579   7.590 -1.5795  3.7205 -1.2951
 7095SOL    HW232745   3.827   3.684   7.532 -0.0332  0.2450 -0.6516
 7096SOL     OW32746   3.444   3.907   1.935  0.9562  0.4529  0.1901
 7096SOL    HW132747   3.428   3.991   1.892  0.1908 -0.9632 -2.2555
 7096SOL    HW232748   3.536   3.916   1.961  1.2868 -0.6989 -0.6235
 7097SOL     OW32749   0.958   2.130   9.012  0.3283  0.2966 -0.3513
 7097SOL    HW132750   0.880   2.158   8.965  0.5626  0.3681 -0.7041
 7097SOL    HW232751   1.008   2.079   8.948  0.6879  0.4472 -0.1917
 7098SOL     OW32752   1.993   0.269   8.550  0.0306 -0.4942 -0.7548
 7098SOL    HW132753   1.932   0.257   8.623  0.6769 -0.8595 -0.2739
 7098SOL    HW232754   2.057   0.200   8.566 -3.4273 -3.5515  0.0293
 7099SOL     OW32755   4.521   1.851  16.831  0.3448 -0.3171  0.1329
 7099SOL    HW132756   4.457   1.787  16.803  2.0647 -2.9751  2.3031
 7099SOL    HW232757   4.471   1.930  16.810 -1.8095 -1.6642  0.2464
 7100SOL     OW32758   2.151   2.364   4.783  0.6147 -0.0101 -0.2372
 7100SOL    HW132759   2.180   2.281   4.821  0.2844  0.5483  1.2245
 7100SOL    HW232760   2.085   2.339   4.718 -2.1916  0.1070  2.5874
 7101SOL     OW32761   0.629   0.757   5.752  0.5753  0.4984 -0.1822
 7101SOL    HW132762   0.633   0.717   5.665 -0.0859  0.3072 -0.1271
 7101SOL    HW232763   0.535   0.774   5.759  0.3777 -1.3663  1.6980
 7102SOL     OW32764   2.144   3.753  16.066  0.0027  0.4946  0.0989
 7102SOL    HW132765   2.228   3.732  16.025 -1.0006 -0.6187 -1.3945
 7102SOL    HW232766   2.101   3.668  16.069 -1.5065  1.2458 -0.4771
 7103SOL     OW32767   3.029   0.948  10.815 -0.2345  0.5470  0.1331
 7103SOL    HW132768   3.108   0.982  10.856  0.5961 -1.2023 -0.0279
 7103SOL    HW232769   2.976   0.920  10.890  0.7569  0.0808  0.6554
 7104SOL     OW32770   0.984   3.141   8.780 -0.0079 -0.3809  0.1266
 7104SOL    HW132771   0.939   3.222   8.803  0.5040  0.8651 -3.3050
 7104SOL    HW232772   1.072   3.157   8.815  1.0320 -0.6411 -2.3691
 7105SOL     OW32773   3.218   4.569   5.328 -0.0494 -0.0595  0.0759
 7105SOL    HW132774   3.288   4.634   5.328 -2.2192  2.2895 -0.8514
 7105SOL    HW232775   3.185   4.583   5.239 -0.9306 -2.0938  0.0915
 7106SOL     OW32776   0.744   2.484   4.470 -0.0111 -0.1393 -0.2695
 7106SOL    HW132777   0.820   2.427   4.463 -0.4872 -0.9610  1.3896
 7106SOL    HW232778   0.693   2.421   4.521 -0.6659  0.1708 -0.5458
 7107SOL     OW32779   3.712   4.259   0.561  0.6553 -0.0964 -0.5133
 7107SOL    HW132780   3.642   4.197   0.579  0.6502 -0.1149 -0.5995
 7107SOL    HW232781   3.755   4.262   0.647  3.0852 -0.7810 -1.7375
 7108SOL     OW32782   3.745   1.285   7.057 -0.3797 -0.1839 -0.0574
 7108SOL    HW132783   3.810   1.285   7.127 -2.0019 -0.1529  1.4528
 7108SOL    HW232784   3.759   1.369   7.013  0.1707 -0.2719 -0.0506
 7109SOL     OW32785   3.321   3.029  10.274  0.1989  0.0426  0.4410
 7109SOL    HW132786   3.360   3.058  10.356 -1.0435 -0.5413  1.2362
 7109SOL    HW232787   3.310   3.114  10.229 -0.5198  0.3171  1.1417
 7110SOL     OW32788   3.134   2.196   4.423  0.8296  0.3351  0.1944
 7110SOL    HW132789   3.103   2.198   4.514  0.2797  2.2138 -0.0297
 7110SOL    HW232790   3.085   2.120   4.390  0.2689  0.3432  0.9915
 7111SOL     OW32791   0.055   0.667   2.359 -0.3371 -0.4763  0.2376
 7111SOL    HW132792   0.148   0.666   2.338 -0.4651  4.3156 -0.4874
 7111SOL    HW232793   0.016   0.580   2.347 -0.2309 -0.7565  2.0505
 7112SOL     OW32794   2.408   0.204  11.831  0.5424 -0.4879  0.3471
 7112SOL    HW132795   2.457   0.277  11.795 -1.0546  0.0641 -0.7498
 7112SOL    HW232796   2.477   0.150  11.869 -0.2424 -1.5822  0.2422
 7113SOL     OW32797   4.028   2.956   5.654 -0.2959 -0.2240  0.4050
 7113SOL    HW132798   4.070   3.037   5.681  0.1979 -0.6565  0.9438
 7113SOL    HW232799   3.961   2.977   5.589  2.5374  0.3945 -2.2772
 7114SOL     OW32800   0.095   2.300   5.685  0.1728 -0.1977  0.4306
 7114SOL    HW132801   0.182   2.271   5.714  0.3951 -2.6879 -2.6668
 7114SOL    HW232802   0.073   2.220   5.638 -1.2348  0.7086 -0.4660
 7115SOL     OW32803   3.254   3.470   3.002  0.3017 -0.3061 -0.7559
 7115SOL    HW132804   3.325   3.498   2.944  0.7968  3.3402  1.6390
 7115SOL    HW232805   3.185   3.531   2.974  0.7054 -0.6941 -2.6133
 7116SOL     OW32806   2.228   4.559   4.326 -0.0401 -0.4738 -0.2013
 7116SOL    HW132807   2.282   4.630   4.361  0.0073 -1.2147  1.2483
 7116SOL    HW232808   2.159   4.604   4.278  0.8560  1.4632  0.3157
 7117SOL     OW32809   4.018   2.947  15.345  0.2115 -0.2865 -0.1452
 7117SOL    HW132810   4.014   2.905  15.430 -0.0508  0.9011  0.4369
 7117SOL    HW232811   4.109   2.926  15.322  0.9573 -1.5228  3.9274
 7118SOL     OW32812   2.461   1.622  17.657 -0.0938  0.3463  0.2534
 7118SOL    HW132813   2.396   1.611  17.588  1.1843  0.1421 -0.9114
 7118SOL    HW232814   2.479   1.530  17.679  2.6483  0.5304 -1.3204
 7119SOL     OW32815   0.613   0.211  11.301  0.0544 -0.2393 -0.4984
 7119SOL    HW132816   0.659   0.128  11.312  0.9087  0.4075  0.7455
 7119SOL    HW232817   0.523   0.189  11.323  0.3913 -1.4537 -0.3283
 7120SOL     OW32818   4.048   4.172   3.943  0.0895 -0.3116  0.0178
 7120SOL    HW132819   4.017   4.248   3.993 -0.5997  0.9512 -2.3370
 7120SOL    HW232820   4.104   4.231   3.892  0.6255 -0.5223  0.3648
 7121SOL     OW32821   4.199   0.415   4.036 -0.3247 -0.1013 -0.0601
 7121SOL    HW132822   4.259   0.470   3.985 -1.7771  0.9037 -0.6858
 7121SOL    HW232823   4.245   0.384   4.114 -1.8045  0.4398  1.0280
 7122SOL     OW32824   0.144   0.798   7.956 -0.2261  0.0893 -0.3552
 7122SOL    HW132825   0.072   0.833   7.903 -1.7241 -1.2169  0.8445
 7122SOL    HW232826   0.158   0.714   7.912  1.9475  0.0590  0.3989
 7123SOL     OW32827   3.957   3.173  10.830  0.2783  0.5211  0.4548
 7123SOL    HW132828   3.985   3.265  10.831  0.7714  0.3842 -2.0759
 7123SOL    HW232829   3.915   3.161  10.915  0.7812 -1.3990  0.4330
 7124SOL     OW32830   3.175   1.131   7.583  0.1046 -0.1980 -0.0632
 7124SOL    HW132831   3.252   1.081   7.610  0.5750  0.1364 -0.7776
 7124SOL    HW232832   3.102   1.070   7.584  0.6720 -0.8705  0.3334
 7125SOL     OW32833   3.965   2.160   6.224 -0.7806 -0.2721 -0.4427
 7125SOL    HW132834   3.975   2.067   6.245 -0.5254 -0.3330 -0.8472
 7125SOL    HW232835   4.029   2.198   6.284 -1.1201  0.7583 -0.7275
 7126SOL     OW32836   3.213   3.413   8.816 -0.3045  0.2149 -0.6284
 7126SOL    HW132837   3.173   3.419   8.903  1.2442 -0.3674  0.1330
 7126SOL    HW232838   3.200   3.501   8.781 -1.6061  0.1979 -0.2136
 7127SOL     OW32839   3.243   2.848   2.821  0.2040 -0.1896 -0.3753
 7127SOL    HW132840   3.199   2.923   2.781 -1.1925 -0.3709  0.8078
 7127SOL    HW232841   3.181   2.780   2.792  1.4398 -0.8923 -1.3446
 7128SOL     OW32842   2.967   1.676   6.649 -0.0053 -0.3218  0.3531
 7128SOL    HW132843   3.019   1.598   6.670  0.4134 -1.0138 -3.2658
 7128SOL    HW232844   3.031   1.745   6.636  1.2198 -1.5953 -0.4214
 7129SOL     OW32845   2.594   0.010   3.457  0.2560  0.0008  0.0537
 7129SOL    HW132846   2.567   0.067   3.386  0.9733 -0.1393 -0.3379
 7129SOL    HW232847   2.584   0.076   3.527 -0.1261 -1.3380  1.2650
 7130SOL     OW32848   1.341   1.908   8.558  0.3072  0.3525 -0.1255
 7130SOL    HW132849   1.277   1.855   8.510  0.6664 -1.0142  0.8842
 7130SOL    HW232850   1.419   1.851   8.556  0.8167  1.0637 -0.5459
 7131SOL     OW32851   0.548   3.530   4.948  0.2109  0.3161  0.0708
 7131SOL    HW132852   0.609   3.603   4.934  0.6392 -0.4811 -2.2268
 7131SOL    HW232853   0.595   3.480   5.015 -2.9357 -1.8816  0.5915
 7132SOL     OW32854   1.569   3.311   8.113  0.3953  0.1886 -0.3080
 7132SOL    HW132855   1.523   3.236   8.075 -2.0369  0.6966  1.6286
 7132SOL    HW232856   1.535   3.306   8.202  0.7444  0.1243 -0.1791
 7133SOL     OW32857   1.274   3.640  11.367  0.0959  0.3736  0.0410
 7133SOL    HW132858   1.321   3.598  11.295 -0.6861 -2.1791  1.0277
 7133SOL    HW232859   1.349   3.623  11.424  0.2796 -0.2885 -0.4039
 7134SOL     OW32860   0.768   0.478   5.378  0.3135  0.4673 -0.0844
 7134SOL    HW132861   0.844   0.438   5.419  0.3164 -0.5677 -1.0635
 7134SOL    HW232862   0.774   0.454   5.285 -0.5235  0.8914 -0.2519
 7135SOL     OW32863   3.905   4.211   8.441  0.0028  0.0960  0.0733
 7135SOL    HW132864   3.865   4.246   8.521  1.4052 -1.5971  1.5301
 7135SOL    HW232865   3.971   4.280   8.438 -2.4680  2.5123  1.1106
 7136SOL     OW32866   0.181   2.390   5.278  0.1246  0.1309 -0.1386
 7136SOL    HW132867   0.118   2.337   5.229 -1.3076  0.8651  0.9171
 7136SOL    HW232868   0.122   2.457   5.312 -0.0719 -1.3464  2.3532
 7137SOL     OW32869   2.548   0.864   7.633  0.5305 -0.6043  0.2043
 7137SOL    HW132870   2.642   0.859   7.648  0.6784 -1.0735 -0.8998
 7137SOL    HW232871   2.548   0.822   7.547 -1.5523 -0.6271  0.2131
 7138SOL     OW32872   1.491   3.367   7.076 -0.2126 -0.1784  0.0306
 7138SOL    HW132873   1.521   3.309   7.005  0.1487 -0.3899  0.3565
 7138SOL    HW232874   1.396   3.364   7.064 -0.3278  0.3100  0.8453
 7139SOL     OW32875   1.688   4.102   3.436 -0.2367  0.3646  0.2427
 7139SOL    HW132876   1.649   4.187   3.418 -1.0399  0.3763  2.0345
 7139SOL    HW232877   1.710   4.085   3.344  0.2884 -1.1981  0.6496
 7140SOL     OW32878   4.301   4.496   4.389  0.5717  0.1322  0.0894
 7140SOL    HW132879   4.320   4.492   4.483  0.8966  0.9453  0.0627
 7140SOL    HW232880   4.320   4.406   4.363 -0.6557 -0.3415  0.8424
 7141SOL     OW32881   0.721   2.753   4.590 -0.1628  0.2943 -0.7476
 7141SOL    HW132882   0.765   2.835   4.568 -0.2534  0.6570  0.4526
 7141SOL    HW232883   0.778   2.699   4.536  0.2045 -0.7310  0.6643
 7142SOL     OW32884   3.413   3.928   7.652 -0.1662 -0.1441  0.3652
 7142SOL    HW132885   3.449   3.964   7.733  0.7819 -1.2780  0.4421
 7142SOL    HW232886   3.407   3.838   7.682  2.3114 -0.2477  0.5393
 7143SOL     OW32887   4.230   1.722  14.073 -0.7652  0.3355  0.2154
 7143SOL    HW132888   4.255   1.708  14.165  1.3012 -0.9258 -0.5293
 7143SOL    HW232889   4.245   1.635  14.035 -0.6765 -0.2021  1.4684
 7144SOL     OW32890   3.040   1.789   1.943  0.7385  0.1722 -0.0957
 7144SOL    HW132891   2.962   1.797   1.888  1.0089  1.6018 -0.2559
 7144SOL    HW232892   3.042   1.881   1.967 -0.6586 -0.0845  1.0198
 7145SOL     OW32893   2.784   2.054  12.185 -0.4554  0.2206 -0.9515
 7145SOL    HW132894   2.855   2.010  12.231 -2.8611 -1.3808  1.2181
 7145SOL    HW232895   2.813   2.055  12.094  1.2534  1.9487 -0.3887
 7146SOL     OW32896   3.048   1.264   2.002 -0.0997 -0.2952 -0.1605
 7146SOL    HW132897   3.129   1.217   2.022 -0.3136 -0.5917  0.0190
 7146SOL    HW232898   3.044   1.305   2.088  0.2516  1.8723 -1.1987
 7147SOL     OW32899   2.043   2.328  17.178 -0.1014  0.2072  0.3576
 7147SOL    HW132900   2.003   2.403  17.221 -1.7115 -0.6309  0.3334
 7147SOL    HW232901   2.069   2.285  17.259 -1.3408 -0.2440  0.5255
 7148SOL     OW32902   0.670   2.562  12.690 -0.7091 -0.1403  0.6902
 7148SOL    HW132903   0.637   2.474  12.676  0.1128 -0.1293 -1.2292
 7148SOL    HW232904   0.632   2.609  12.616 -1.5914 -1.0411  0.5717
 7149SOL     OW32905   0.534   3.242  17.273  0.6539  0.2262  0.4354
 7149SOL    HW132906   0.561   3.151  17.276  1.4840  0.3964 -1.6565
 7149SOL    HW232907   0.454   3.247  17.220  0.7556  0.2271  0.2815
 7150SOL     OW32908   2.306   0.498   5.893 -0.9673 -0.2916 -0.4106
 7150SOL    HW132909   2.396   0.515   5.923 -1.7571  1.1076  1.1472
 7150SOL    HW232910   2.295   0.403   5.893 -0.7435 -0.3185 -0.1591
 7151SOL     OW32911   2.434   3.511   1.896  0.3470 -0.0836  0.0615
 7151SOL    HW132912   2.482   3.447   1.843 -0.4414 -1.3397  0.8766
 7151SOL    HW232913   2.344   3.478   1.897  0.4418 -0.3386  0.0181
 7152SOL     OW32914   0.080   1.555   8.583  0.6994  0.1920 -0.2418
 7152SOL    HW132915   0.007   1.536   8.524  0.1564 -0.2344  0.5562
 7152SOL    HW232916   0.158   1.519   8.540  1.3926  0.1820  1.0140
 7153SOL     OW32917   3.920   0.373   0.033 -0.5221 -0.1759  0.1679
 7153SOL    HW132918   3.874   0.290   0.025  0.8319 -0.9790  0.6776
 7153SOL    HW232919   3.951   0.392  17.645  1.4319 -0.8890  0.7062
 7154SOL     OW32920   3.313   1.792   7.345 -0.0073 -0.4335 -0.1628
 7154SOL    HW132921   3.267   1.708   7.350 -1.1880  0.4722  4.4693
 7154SOL    HW232922   3.407   1.775   7.349  0.1596  0.4330 -0.2494
 7155SOL     OW32923   4.466   0.885   0.057 -0.5178  0.0252 -0.0487
 7155SOL    HW132924   4.556   0.913   0.074  0.1626 -2.1791 -0.0628
 7155SOL    HW232925   4.420   0.888   0.141 -0.9906 -0.2881 -0.2929
 7156SOL     OW32926   4.647   3.901  12.299 -0.3351  0.0503  0.8358
 7156SOL    HW132927   4.571   3.959  12.308 -0.1409  0.3982  0.2671
 7156SOL    HW232928   4.703   3.950  12.360 -1.1290 -0.1146  1.6832
 7157SOL     OW32929   3.126   3.699   2.932  0.1942  0.8536 -0.0679
 7157SOL    HW132930   3.128   3.724   3.024  3.9829  1.8653 -0.4319
 7157SOL    HW232931   3.161   3.776   2.888 -1.3168  1.8818  0.4916
 7158SOL     OW32932   0.792   2.296   1.385 -0.0745 -0.3239 -0.1963
 7158SOL    HW132933   0.873   2.339   1.412 -0.9527  1.0009  0.2999
 7158SOL    HW232934   0.731   2.362   1.417  0.9349  0.5263 -0.0286
 7159SOL     OW32935   4.130   3.412  10.821  0.1839  0.0595 -0.0890
 7159SOL    HW132936   4.087   3.487  10.779 -1.5630  0.4174  2.3467
 7159SOL    HW232937   4.222   3.432  10.806 -0.1529  2.0364  0.5113
 7160SOL     OW32938   2.710   4.225   9.740 -0.7155  0.4319 -0.4064
 7160SOL    HW132939   2.757   4.160   9.793 -1.0707  0.3885 -0.1432
 7160SOL    HW232940   2.688   4.178   9.660 -0.1743 -1.7724  0.7257
 7161SOL     OW32941   0.375   1.392   2.158  0.8926  0.2991  0.3270
 7161SOL    HW132942   0.295   1.357   2.119  0.0113 -0.2333  2.5794
 7161SOL    HW232943   0.438   1.405   2.087  2.4657  0.0770  1.6933
 7162SOL     OW32944   2.677   1.749   7.090  0.5451 -0.4742  0.0310
 7162SOL    HW132945   2.731   1.755   7.012 -1.5818  1.9210 -1.2783
 7162SOL    HW232946   2.591   1.741   7.048  1.2575 -0.2952 -1.4473
 7163SOL     OW32947   0.275   3.882   5.162 -0.7320 -0.5861  0.4240
 7163SOL    HW132948   0.301   3.922   5.079  1.2301  1.4576  2.0359
 7163SOL    HW232949   0.229   3.955   5.203  1.6961 -0.0899  2.1872
 7164SOL     OW32950   3.982   4.368  10.877  0.0523  0.5142 -0.2112
 7164SOL    HW132951   3.916   4.428  10.912  0.6402 -0.9646  3.4998
 7164SOL    HW232952   4.063   4.404  10.913 -0.2861  1.3114 -0.2604
 7165SOL     OW32953   4.152   1.512   8.843 -0.1869 -0.5031 -0.5025
 7165SOL    HW132954   4.191   1.466   8.768  3.1436  0.7836  0.4575
 7165SOL    HW232955   4.062   1.496   8.816 -0.2795 -0.9521  0.0675
 7166SOL     OW32956   0.849   4.425   6.460  0.0012 -0.0386  0.5389
 7166SOL    HW132957   0.790   4.355   6.487 -0.2893  0.5263  1.3793
 7166SOL    HW232958   0.932   4.411   6.507  0.0347  1.2027  0.8478
 7167SOL     OW32959   4.127   1.469   2.225 -0.3948  0.3063  0.3329
 7167SOL    HW132960   4.176   1.498   2.148  0.9857  0.0166  1.1020
 7167SOL    HW232961   4.040   1.455   2.188 -0.1096 -2.1677  0.6083
 7168SOL     OW32962   1.761   2.767   5.149 -0.2042 -0.0321 -0.2492
 7168SOL    HW132963   1.751   2.747   5.242  1.8713  1.5699  0.3226
 7168SOL    HW232964   1.775   2.679   5.113  0.6111 -0.4043  0.9725
 7169SOL     OW32965   1.031   3.686   7.466 -0.3294 -0.2160 -0.2343
 7169SOL    HW132966   1.066   3.658   7.381 -0.4723 -1.3176  0.0691
 7169SOL    HW232967   0.940   3.654   7.461  0.0665 -1.3035 -0.6139
 7170SOL     OW32968   3.313   2.117   6.172 -0.1385  0.8045 -0.3629
 7170SOL    HW132969   3.368   2.041   6.154 -1.4260 -0.1949 -0.1177
 7170SOL    HW232970   3.344   2.143   6.259 -0.1582 -0.2907 -0.0311
 7171SOL     OW32971   2.086   1.473   9.279  0.2689 -0.3569 -0.5162
 7171SOL    HW132972   2.058   1.421   9.354  0.5912 -2.4092 -1.8212
 7171SOL    HW232973   2.006   1.503   9.236 -0.0170 -0.5044 -0.0784
 7172SOL     OW32974   0.413   1.345   6.675 -0.2724 -0.3501 -0.0835
 7172SOL    HW132975   0.440   1.264   6.631 -0.1620  0.0613 -0.7719
 7172SOL    HW232976   0.461   1.325   6.755  0.1252  0.7145 -0.0505
 7173SOL     OW32977   3.975   3.684  15.755 -0.1837 -0.3755 -0.0739
 7173SOL    HW132978   4.038   3.674  15.684 -0.3004 -0.5717 -0.1502
 7173SOL    HW232979   4.029   3.654  15.828 -0.5999 -1.9502 -0.4093
 7174SOL     OW32980   3.947   1.274   4.293  0.1130  0.7869  0.3403
 7174SOL    HW132981   3.970   1.366   4.281 -1.9001  0.4835 -5.6324
 7174SOL    HW232982   3.868   1.260   4.241  1.6422 -1.5785 -1.3350
 7175SOL     OW32983   0.895   0.152   6.371  0.7700  0.2734 -0.1344
 7175SOL    HW132984   0.842   0.074   6.355  0.2133  0.6345 -0.0549
 7175SOL    HW232985   0.853   0.201   6.442  1.7759  1.8554 -0.6281
 7176SOL     OW32986   1.224   0.701   3.363  0.0305  0.0500 -0.0224
 7176SOL    HW132987   1.135   0.666   3.361 -0.4044  1.0694  1.3862
 7176SOL    HW232988   1.242   0.724   3.272  1.8924 -0.4006  0.2261
 7177SOL     OW32989   4.677   3.689   5.031 -0.2699  0.3830  0.2421
 7177SOL    HW132990   4.700   3.654   5.117  3.4034 -1.6351 -1.5632
 7177SOL    HW232991   4.602   3.634   5.007  0.7512 -1.3862  1.0839
 7178SOL     OW32992   0.730   0.277   2.021  0.9655 -0.2118 -0.2147
 7178SOL    HW132993   0.728   0.182   2.037 -0.7457 -0.5487 -2.3429
 7178SOL    HW232994   0.824   0.294   2.024  1.2505 -1.6520 -1.0965
 7179SOL     OW32995   2.953   0.843  12.237  0.3038  0.1423 -0.4231
 7179SOL    HW132996   3.023   0.844  12.172 -1.5937 -1.0562 -2.5053
 7179SOL    HW232997   2.998   0.856  12.321 -0.8999 -0.1521  0.2707
 7180SOL     OW32998   3.751   2.723   0.298  0.0297  0.1204  0.0092
 7180SOL    HW132999   3.783   2.807   0.329  1.0867 -0.7097  1.1567
 7180SOL    HW233000   3.819   2.695   0.237 -0.1200  1.3751 -0.7193
 7181SOL     OW33001   0.172   1.676   6.484  0.4059  0.5277  0.1636
 7181SOL    HW133002   0.178   1.589   6.524  1.4697  0.4608 -0.1448
 7181SOL    HW233003   0.079   1.695   6.489  0.1289 -0.4351 -1.2067
 7182SOL     OW33004   2.145   2.183   2.839  0.0409 -0.0856 -0.7249
 7182SOL    HW133005   2.136   2.246   2.767 -0.9548  1.5054  0.7906
 7182SOL    HW233006   2.100   2.232   2.908  1.1653 -0.0250 -0.0415
 7183SOL     OW33007   1.623   3.885   4.342  0.1831  0.4155  0.1562
 7183SOL    HW133008   1.564   3.909   4.270  0.6094  0.7588 -0.0760
 7183SOL    HW233009   1.692   3.949   4.325  2.7321 -1.6754  2.5875
 7184SOL     OW33010   1.346   4.024   2.721 -0.2306 -0.2927 -0.2869
 7184SOL    HW133011   1.270   3.991   2.674  0.3573 -1.5269 -0.3805
 7184SOL    HW233012   1.315   4.014   2.811 -1.4274  0.2433 -0.6475
 7185SOL     OW33013   3.950   1.838  15.021 -0.0524 -0.4228 -0.1126
 7185SOL    HW133014   4.016   1.790  14.971  0.8388 -1.0347  1.6586
 7185SOL    HW233015   3.932   1.894  14.945 -0.3751 -0.3735 -0.0011
 7186SOL     OW33016   1.076   3.306   2.608 -0.2135  0.2505  0.0142
 7186SOL    HW133017   1.033   3.252   2.674  1.0421 -1.1956 -0.3371
 7186SOL    HW233018   1.009   3.299   2.540 -1.6210  0.9135  1.3307
 7187SOL     OW33019   1.045   0.022   9.152  0.3881 -0.2871 -0.4990
 7187SOL    HW133020   1.089   0.076   9.086 -0.1604  3.4386  2.2099
 7187SOL    HW233021   0.955   0.051   9.166  0.2669 -0.2213 -1.4040
 7188SOL     OW33022   4.204   0.778  16.589  0.6121 -0.0770  0.2539
 7188SOL    HW133023   4.186   0.694  16.546  0.2325  1.3453 -2.3917
 7188SOL    HW233024   4.264   0.744  16.655 -0.9921 -1.0343  1.2198
 7189SOL     OW33025   2.800   4.670  17.465 -0.8880 -0.0564  0.0901
 7189SOL    HW133026   2.787   4.615  17.388 -0.6771  0.7178 -0.5014
 7189SOL    HW233027   2.806   4.605  17.535 -2.0550 -0.7256 -0.4271
 7190SOL     OW33028   0.434   0.981  15.715  0.2960 -0.4233  0.3106
 7190SOL    HW133029   0.347   0.957  15.684  0.1985  1.9259 -1.1907
 7190SOL    HW233030   0.459   1.048  15.652  2.0638  0.2757  1.7235
 7191SOL     OW33031   0.884   0.381   4.245  0.0794 -0.2955 -0.7911
 7191SOL    HW133032   0.894   0.290   4.220  0.1770 -0.0340 -1.7214
 7191SOL    HW233033   0.940   0.392   4.323 -0.7633 -0.0029 -0.2288
 7192SOL     OW33034   1.086   3.477   1.993  0.5069  0.2034  0.1761
 7192SOL    HW133035   1.060   3.501   1.904  2.2620  0.9057 -0.1619
 7192SOL    HW233036   1.077   3.561   2.038  0.1897 -0.5228  1.4641
 7193SOL     OW33037   3.299   3.384  11.041 -0.1557 -0.1187 -0.5772
 7193SOL    HW133038   3.218   3.399  11.090  1.0214  2.8867  0.4432
 7193SOL    HW233039   3.347   3.465  11.060  1.3344 -0.9499 -0.8342
 7194SOL     OW33040   4.707   2.342   3.168  0.4780  0.4297  0.3735
 7194SOL    HW133041   4.653   2.286   3.112  0.2976  1.8966 -0.9216
 7194SOL    HW233042   0.055   2.355   3.107 -0.9489  0.3501 -1.3391
 7195SOL     OW33043   1.491   4.312   3.393 -0.1083 -0.1263  0.1511
 7195SOL    HW133044   1.520   4.344   3.307 -0.0775 -0.8683 -0.1103
 7195SOL    HW233045   1.428   4.241   3.380  0.1336 -0.6433  1.8913
 7196SOL     OW33046   3.444   1.993   0.171 -0.0583  0.0241 -0.1043
 7196SOL    HW133047   3.405   1.915   0.210 -2.0702 -0.2243 -2.6217
 7196SOL    HW233048   3.422   1.971   0.080 -3.0325  0.0211  0.6247
 7197SOL     OW33049   4.228   3.983   9.788 -0.7143 -0.7878 -0.1243
 7197SOL    HW133050   4.200   3.982   9.697  0.7373  0.8763 -0.5761
 7197SOL    HW233051   4.217   4.074   9.815 -1.1212 -1.3731  1.7351
 7198SOL     OW33052   3.480   3.328   5.830 -0.2774  0.0703 -0.3366
 7198SOL    HW133053   3.483   3.347   5.737  2.8981 -1.1227 -0.4822
 7198SOL    HW233054   3.448   3.238   5.832  0.0796 -0.0047  2.9955
 7199SOL     OW33055   1.948   4.237  11.444 -0.7779 -0.0260  0.1038
 7199SOL    HW133056   2.020   4.281  11.490 -2.3783  2.1444  0.4843
 7199SOL    HW233057   1.910   4.173  11.504  0.3795  0.3743  1.2799
 7200SOL     OW33058   0.439   0.130  14.753  0.5100 -0.1753 -0.7415
 7200SOL    HW133059   0.451   0.191  14.826  2.6392 -1.7418  0.1876
 7200SOL    HW233060   0.454   0.180  14.672 -1.7727  2.7080  0.6122
 7201SOL     OW33061   0.617   1.493   5.487 -0.0546  0.6878 -0.3384
 7201SOL    HW133062   0.526   1.500   5.459 -0.6610 -1.6278  1.0754
 7201SOL    HW233063   0.608   1.549   5.564 -2.0013  1.0582 -0.8253
 7202SOL     OW33064   0.773   3.071   8.374  0.3178 -0.0384 -0.0248
 7202SOL    HW133065   0.861   3.035   8.369 -0.0332 -0.8690 -0.1230
 7202SOL    HW233066   0.732   3.016   8.441 -1.5937  0.3140 -0.8885
 7203SOL     OW33067   2.258   0.420   2.945 -0.6034  0.7709 -0.0366
 7203SOL    HW133068   2.323   0.395   3.011 -2.1361 -2.0801  0.4006
 7203SOL    HW233069   2.176   0.380   2.975  0.5909  0.0937  2.3682
 7204SOL     OW33070   0.264   2.592  17.642  0.1664 -0.4428  0.0560
 7204SOL    HW133071   0.310   2.534  17.582  2.1207 -0.1410  1.2630
 7204SOL    HW233072   0.317   2.577   0.021 -1.9924  0.2197  1.6420
 7205SOL     OW33073   1.736   4.079   9.279  0.5013 -0.1600  0.0030
 7205SOL    HW133074   1.714   4.008   9.219 -2.2430  1.0485 -0.4195
 7205SOL    HW233075   1.682   4.151   9.246  1.2658  0.7374  0.6572
 7206SOL     OW33076   4.481   0.821  17.477 -0.7582  0.0566  0.1639
 7206SOL    HW133077   4.413   0.887  17.465 -1.1129 -0.0085  1.7439
 7206SOL    HW233078   4.484   0.822  17.573  2.3919  1.4897  0.0507
 7207SOL     OW33079   4.303   4.417   5.352  0.2382  0.2305  0.1874
 7207SOL    HW133080   4.241   4.443   5.283 -1.6115 -1.6613  1.1359
 7207SOL    HW233081   4.364   4.368   5.297 -0.2784 -2.3432  1.9307
 7208SOL     OW33082   1.090   1.785  16.941  0.3599  0.6196  0.0979
 7208SOL    HW133083   1.088   1.713  17.003 -0.3370  0.9833  0.4885
 7208SOL    HW233084   1.127   1.749  16.860 -0.2249 -0.2254  0.2091
 7209SOL     OW33085   4.119   2.781   9.376  0.4442  0.0224  0.0291
 7209SOL    HW133086   4.148   2.826   9.455  2.5757 -0.6530 -0.3514
 7209SOL    HW233087   4.117   2.854   9.315 -1.4479 -0.5539 -0.5820
 7210SOL     OW33088   4.285   4.518  16.924  0.0045 -0.1176 -0.1739
 7210SOL    HW133089   4.285   4.607  16.889  1.4907 -0.0445  0.0155
 7210SOL    HW233090   4.191   4.500  16.920  0.0457 -0.6399  1.2362
 7211SOL     OW33091   1.850   2.161   5.510 -0.0729 -0.2961  0.0330
 7211SOL    HW133092   1.773   2.165   5.568 -0.5620 -2.3917 -0.4435
 7211SOL    HW233093   1.916   2.134   5.574 -0.3301 -0.0051  0.4245
 7212SOL     OW33094   2.622   1.986  17.559  0.0217  0.0042  0.7502
 7212SOL    HW133095   2.594   2.070  17.523 -2.0011  0.4634  3.3303
 7212SOL    HW233096   2.715   1.985  17.536  0.3574 -1.0910  2.1662
 7213SOL     OW33097   2.703   1.640   7.623  0.0341 -0.5096 -0.2662
 7213SOL    HW133098   2.737   1.551   7.615  0.1526 -0.7363  2.8481
 7213SOL    HW233099   2.767   1.690   7.572 -1.7033 -1.2532 -3.1598
 7214SOL     OW33100   2.598   3.256   7.491 -0.1796 -0.0264  0.6704
 7214SOL    HW133101   2.561   3.266   7.403 -2.0559 -2.0067  1.2261
 7214SOL    HW233102   2.671   3.315   7.470 -1.0884  0.8274 -0.1101
 7215SOL     OW33103   1.270   3.290   6.914 -0.2559 -0.2115  0.2382
 7215SOL    HW133104   1.253   3.204   6.952  0.4250 -0.5618 -0.2471
 7215SOL    HW233105   1.292   3.273   6.822  0.0109  0.0311  0.2568
 7216SOL     OW33106   0.491   0.660  12.105  0.4214 -0.0470  0.0923
 7216SOL    HW133107   0.429   0.634  12.172  0.6263  0.3702  0.4438
 7216SOL    HW233108   0.555   0.595  12.135  0.5702  1.1630  2.3749
 7217SOL     OW33109   2.471   0.209   6.359 -0.0185 -0.5169 -0.3027
 7217SOL    HW133110   2.538   0.141   6.350 -1.1509 -1.3842 -2.0959
 7217SOL    HW233111   2.509   0.276   6.302  1.6481 -1.0100  0.2294
 7218SOL     OW33112   1.912   1.109  11.415  0.4483 -0.2279 -0.0821
 7218SOL    HW133113   1.858   1.033  11.396 -1.7664  1.0532  1.1189
 7218SOL    HW233114   2.001   1.093  11.384  0.6200  5.6239 -2.6880
 7219SOL     OW33115   1.754   4.635   3.139  0.3060  0.5629  0.4007
 7219SOL    HW133116   1.832   4.616   3.086  0.9972 -1.5722  2.1847
 7219SOL    HW233117   1.753   0.003   3.112 -2.1191  0.6345  0.8034
 7220SOL     OW33118   0.646   0.012  12.575  0.4320  0.3265  1.0725
 7220SOL    HW133119   0.635   4.709  12.665 -0.0706  0.8483  1.1663
 7220SOL    HW233120   0.639   4.653  12.529 -0.4781  1.4104 -0.7614
 7221SOL     OW33121   3.904   3.414   3.981 -0.0588  0.0415 -0.2368
 7221SOL    HW133122   3.956   3.361   3.920 -0.6080 -0.5414 -0.1988
 7221SOL    HW233123   3.920   3.506   3.959 -1.2386  0.8558  2.3182
 7222SOL     OW33124   4.505   3.673  15.029  0.0974  0.5581  0.3644
 7222SOL    HW133125   4.560   3.728  15.084  0.7741 -1.5110  1.7856
 7222SOL    HW233126   4.558   3.651  14.952 -1.5300  1.0484 -0.8954
 7223SOL     OW33127   3.164   1.165   6.668 -0.2676 -0.0935 -0.0472
 7223SOL    HW133128   3.193   1.079   6.638 -0.2803  0.7463 -2.4328
 7223SOL    HW233129   3.239   1.206   6.710 -0.7318  0.9269 -0.2158
 7224SOL     OW33130   1.171   1.766   2.542 -0.0149 -0.6938 -0.2282
 7224SOL    HW133131   1.165   1.687   2.487 -1.1432 -0.6541 -0.1678
 7224SOL    HW233132   1.164   1.730   2.630  1.2384 -0.0402  0.1302
 7225SOL     OW33133   2.383   4.005   1.469 -0.4207  0.7560  0.5036
 7225SOL    HW133134   2.437   3.940   1.514  0.4077  1.2549  0.2277
 7225SOL    HW233135   2.342   4.048   1.543 -0.7840 -0.5370  1.0579
 7226SOL     OW33136   1.302   3.205   5.963  0.0290 -0.5784  0.0528
 7226SOL    HW133137   1.305   3.167   6.051 -2.1290  1.4256  0.9942
 7226SOL    HW233138   1.392   3.186   5.935 -0.2178 -1.1305 -0.3736
 7227SOL     OW33139   3.716   2.222   6.144 -0.7138 -0.0799 -0.1292
 7227SOL    HW133140   3.706   2.276   6.222 -1.3313  1.7165 -1.4469
 7227SOL    HW233141   3.805   2.186   6.152 -1.0058 -1.0059 -1.0194
 7228SOL     OW33142   4.565   1.950   4.292  0.1980  0.5203  0.0882
 7228SOL    HW133143   4.541   1.929   4.382  1.0142  1.1604  0.4519
 7228SOL    HW233144   4.650   1.906   4.296 -0.0903  0.0874  1.3185
 7229SOL     OW33145   0.888   2.808   4.317 -0.0310 -0.2577  0.1955
 7229SOL    HW133146   0.867   2.845   4.231 -2.6286 -1.0113  0.5025
 7229SOL    HW233147   0.946   2.736   4.290  0.0722 -0.2207  0.3201
 7230SOL     OW33148   2.614   4.687  10.114  0.3593  0.1997 -0.2696
 7230SOL    HW133149   2.588   4.678  10.206 -1.1022 -1.9663 -0.8971
 7230SOL    HW233150   2.529   4.663  10.077 -0.4994 -0.3303  2.0101
 7231SOL     OW33151   3.322   1.748   2.731  0.1978 -0.2170  0.2642
 7231SOL    HW133152   3.418   1.747   2.734  0.2789 -1.5976 -3.6537
 7231SOL    HW233153   3.299   1.748   2.638 -0.7841 -0.7852  0.5071
 7232SOL     OW33154   4.308   3.149   7.374  0.6446  0.4098 -0.0645
 7232SOL    HW133155   4.288   3.205   7.299  1.1186  0.4846 -0.1329
 7232SOL    HW233156   4.321   3.061   7.338  0.5489  0.2199  0.3630
 7233SOL     OW33157   1.829   2.180   2.610 -0.3916  0.4790  0.4476
 7233SOL    HW133158   1.763   2.205   2.675  1.0381  2.5329  1.1329
 7233SOL    HW233159   1.885   2.117   2.656  0.5950  0.2147 -1.1046
 7234SOL     OW33160   1.448   4.429   5.654  0.1262 -0.1576 -1.2386
 7234SOL    HW133161   1.375   4.461   5.601 -0.5307 -0.4303 -0.4885
 7234SOL    HW233162   1.437   4.484   5.731 -1.2679 -1.7272 -0.3100
 7235SOL     OW33163   3.254   1.955   8.879 -0.7347  0.0334 -0.5737
 7235SOL    HW133164   3.190   2.006   8.928  0.7047 -0.3530  1.7131
 7235SOL    HW233165   3.336   2.003   8.887  0.3720 -2.2025  1.5872
 7236SOL     OW33166   2.592   1.862   1.622  0.2694 -0.1699  0.1199
 7236SOL    HW133167   2.677   1.882   1.583  2.3933  0.0293  4.8511
 7236SOL    HW233168   2.606   1.782   1.673 -1.3210  0.8692  2.1878
 7237SOL     OW33169   0.777   0.455  16.584  0.2098  0.0662 -0.1298
 7237SOL    HW133170   0.728   0.404  16.520  1.6501  2.8076 -3.3724
 7237SOL    HW233171   0.706   0.487  16.640  1.3690  2.2863  0.0685
 7238SOL     OW33172   3.830   1.380  17.512 -0.0126  1.0981  0.2541
 7238SOL    HW133173   3.900   1.332  17.467  0.3823  0.7587  1.2361
 7238SOL    HW233174   3.786   1.416  17.436  0.5903  1.5512  0.1218
 7239SOL     OW33175   1.513   2.066   2.578  0.5044 -0.2364 -0.4634
 7239SOL    HW133176   1.511   2.162   2.579 -1.7588 -0.2922 -2.7874
 7239SOL    HW233177   1.564   2.052   2.499  0.5616 -0.2571 -0.4229
 7240SOL     OW33178   0.247   0.170   1.099  0.1279  0.2061  0.5687
 7240SOL    HW133179   0.300   0.150   1.176 -1.6134 -0.3565  1.6204
 7240SOL    HW233180   0.300   0.141   1.025  0.0086 -2.4150  1.5298
 7241SOL     OW33181   4.120   0.047   4.284  0.1782 -0.7172  0.2611
 7241SOL    HW133182   4.067   0.105   4.338 -0.1745  1.4075 -2.3570
 7241SOL    HW233183   4.052   0.006   4.231  1.9237 -0.5197 -2.1442
 7242SOL     OW33184   3.541   4.390   4.788  0.3332 -0.1695 -0.7542
 7242SOL    HW133185   3.610   4.334   4.754  0.9077 -0.7418  1.3764
 7242SOL    HW233186   3.506   4.435   4.711  1.3049  1.0678 -0.4840
 7243SOL     OW33187   2.764   3.019   3.935  0.0495  0.3198 -0.1985
 7243SOL    HW133188   2.683   3.042   3.981  0.3449  0.6275  0.1706
 7243SOL    HW233189   2.758   3.065   3.852 -2.3355  1.6604  0.6954
 7244SOL     OW33190   0.143   2.202   8.067 -0.4029 -0.1723 -0.2642
 7244SOL    HW133191   0.204   2.159   8.007 -0.4334 -1.9177  0.9391
 7244SOL    HW233192   0.123   2.124   8.120  0.1387  0.8062  1.3622
 7245SOL     OW33193   1.468   2.996  17.476 -0.6444  0.5966 -0.3364
 7245SOL    HW133194   1.471   3.038  17.390  0.6395  0.2763 -0.4363
 7245SOL    HW233195   1.544   3.031  17.523 -0.0372  1.0729 -1.6893
 7246SOL     OW33196   3.617   1.820   3.690 -0.6462 -0.4984 -0.8268
 7246SOL    HW133197   3.658   1.767   3.622 -2.7900 -1.7461 -1.1308
 7246SOL    HW233198   3.633   1.905   3.650 -0.3596 -0.7334 -1.2116
 7247SOL     OW33199   4.527   4.038   5.021 -0.0116  0.2312 -0.3969
 7247SOL    HW133200   4.461   3.973   5.047  1.1271 -1.0182 -0.6070
 7247SOL    HW233201   4.593   3.975   4.991  0.3127  0.7181 -0.6980
 7248SOL     OW33202   0.887   4.664  16.459 -0.3290 -0.0497 -0.2814
 7248SOL    HW133203   0.899   4.641  16.551 -0.4748 -1.8312 -0.7031
 7248SOL    HW233204   0.974   4.652  16.420  0.0801  1.9149  0.0184
 7249SOL     OW33205   1.387   3.923   2.210 -1.3179 -0.2002 -0.3239
 7249SOL    HW133206   1.295   3.933   2.234 -0.9257 -1.2151  1.6402
 7249SOL    HW233207   1.429   4.006   2.233 -3.1786  0.3951  0.9725
 7250SOL     OW33208   3.745   3.590  15.271 -0.0459 -0.2948  0.0544
 7250SOL    HW133209   3.651   3.568  15.272  0.1644 -1.3238 -1.8522
 7250SOL    HW233210   3.785   3.566  15.354  0.6146  1.2676  0.1828
 7251SOL     OW33211   2.638   2.949   3.239 -0.3777 -0.6140  0.5007
 7251SOL    HW133212   2.614   3.008   3.168 -1.4055 -1.6242 -0.0105
 7251SOL    HW233213   2.576   2.878   3.220 -1.9073  0.7008  0.6602
 7252SOL     OW33214   1.803   0.948   2.955 -0.2436 -0.2411 -0.0036
 7252SOL    HW133215   1.744   0.936   3.029 -0.2361  1.6676  0.3253
 7252SOL    HW233216   1.858   1.013   2.998  1.7777 -0.0146 -2.9213
 7253SOL     OW33217   0.161   0.057   2.125 -0.4680 -0.8488  0.6383
 7253SOL    HW133218   0.079   0.099   2.099 -0.4950 -1.8108 -0.7814
 7253SOL    HW233219   0.211   0.137   2.143 -0.4808 -0.8125  0.5116
 7254SOL     OW33220   1.133   3.251   9.761 -0.2673 -0.4117  0.2204
 7254SOL    HW133221   1.080   3.300   9.824 -0.2605 -0.0395 -0.0632
 7254SOL    HW233222   1.060   3.212   9.714  0.2994 -2.7874  1.2869
 7255SOL     OW33223   2.869   4.009   8.516  0.3724 -0.4261 -0.4889
 7255SOL    HW133224   2.815   3.961   8.453  1.0096 -3.0705  0.9561
 7255SOL    HW233225   2.905   3.932   8.561 -1.0574 -0.5976  0.3778
 7256SOL     OW33226   2.973   2.151  16.807  0.0990 -0.1381  0.4906
 7256SOL    HW133227   2.982   2.246  16.811  2.1946 -0.2144 -2.8210
 7256SOL    HW233228   2.879   2.132  16.811 -0.1316  1.0157  0.4880
 7257SOL     OW33229   3.160   1.516   0.885 -0.5712 -0.1488 -0.2003
 7257SOL    HW133230   3.176   1.585   0.949  2.5117  0.3901 -1.5607
 7257SOL    HW233231   3.078   1.547   0.845 -2.1246 -2.6671  0.9972
 7258SOL     OW33232   0.301   2.660   4.362 -0.5185  0.1390  0.0315
 7258SOL    HW133233   0.355   2.590   4.400 -0.8005 -0.0278  0.1288
 7258SOL    HW233234   0.233   2.602   4.327 -1.2370  0.4701  0.8858
 7259SOL     OW33235   0.379   0.861   9.887  0.0917 -0.6355  0.6645
 7259SOL    HW133236   0.331   0.928   9.934  0.5157 -0.3086  0.6311
 7259SOL    HW233237   0.349   0.852   9.796  1.3586 -2.1077  0.3831
 7260SOL     OW33238   3.323   2.870   2.177 -0.5778 -0.7072  0.2680
 7260SOL    HW133239   3.382   2.888   2.250  0.8101 -1.5822 -0.6295
 7260SOL    HW233240   3.380   2.829   2.112 -0.9097  1.2076 -1.2468
 7261SOL     OW33241   3.017   2.046   3.436 -0.6024  0.1577 -0.1572
 7261SOL    HW133242   3.085   2.009   3.493 -1.3784 -2.2066 -0.7985
 7261SOL    HW233243   3.081   2.085   3.377 -0.9723  2.7717  1.1238
 7262SOL     OW33244   1.040   3.794   4.297  0.8223 -0.3238 -0.1929
 7262SOL    HW133245   1.087   3.791   4.214  2.0073 -1.6384  0.5402
 7262SOL    HW233246   1.103   3.835   4.356 -0.5610 -1.4335  2.0498
 7263SOL     OW33247   1.138   3.077  16.664  0.5885 -0.5826  0.1765
 7263SOL    HW133248   1.044   3.061  16.666  0.2357  1.3160 -0.9508
 7263SOL    HW233249   1.140   3.167  16.696  3.3507 -0.9348  1.0145
 7264SOL     OW33250   3.507   0.952   1.077 -0.2661  0.3661 -0.1013
 7264SOL    HW133251   3.577   1.004   1.038  0.6105 -0.7942 -0.0521
 7264SOL    HW233252   3.536   0.927   1.164 -1.3849  0.2430  0.2346
 7265SOL     OW33253   0.918   0.015   8.507  0.1739 -0.0373 -0.5368
 7265SOL    HW133254   0.885   0.098   8.472 -2.2199 -1.4512 -1.5920
 7265SOL    HW233255   0.844   4.684   8.530  0.6206 -0.7317 -0.7727
 7266SOL     OW33256   3.446   0.060   9.194 -0.1593  0.3565 -0.4449
 7266SOL    HW133257   3.376   4.720   9.206 -1.1105  1.3328 -0.7684
 7266SOL    HW233258   3.486   0.065   9.281  0.7804  3.7693 -1.0840
 7267SOL     OW33259   3.564   4.409  11.658  0.3747  0.6575  0.6032
 7267SOL    HW133260   3.585   4.348  11.728 -1.7671  1.3288  1.8489
 7267SOL    HW233261   3.478   4.384  11.625  0.8427  0.7882 -0.7192
 7268SOL     OW33262   1.811   3.462   6.751 -0.4274  0.4518 -0.9208
 7268SOL    HW133263   1.894   3.507   6.740  0.5407 -0.6490  1.8640
 7268SOL    HW233264   1.833   3.418   6.833  0.3307  0.9801 -0.8424
 7269SOL     OW33265   3.829   2.184   2.658  0.1893  0.0702  0.4065
 7269SOL    HW133266   3.788   2.187   2.571  0.0660 -0.3039  0.4501
 7269SOL    HW233267   3.911   2.229   2.636 -0.1609  1.0989  1.2438
 7270SOL     OW33268   3.811   1.023   4.044 -0.3325 -0.3277  0.3871
 7270SOL    HW133269   3.772   1.057   3.964  1.6370  1.8752  0.3799
 7270SOL    HW233270   3.785   1.098   4.098  0.1223 -0.0870  0.2706
 7271SOL     OW33271   4.646   0.204   5.866 -0.3541  0.2513 -0.2160
 7271SOL    HW133272   4.588   0.258   5.812 -0.4621  0.4129  0.0589
 7271SOL    HW233273   0.003   0.242   5.833 -0.4060  0.7737  0.2577
 7272SOL     OW33274   4.032   1.870   0.284 -0.3114 -0.3705  0.3768
 7272SOL    HW133275   4.059   1.897   0.371  0.2756 -0.3550  0.1886
 7272SOL    HW233276   4.097   1.802   0.270 -0.4259 -0.3080 -0.4646
 7273SOL     OW33277   4.123   2.244   8.940 -0.0551  0.2251  0.2959
 7273SOL    HW133278   4.108   2.188   8.863  0.8301  0.1623  0.1648
 7273SOL    HW233279   4.133   2.327   8.894  2.0383  0.8079  1.7901
 7274SOL     OW33280   4.119   0.368   1.264 -0.7463  0.1071  0.5407
 7274SOL    HW133281   4.085   0.280   1.249 -1.2869  0.0097  2.3018
 7274SOL    HW233282   4.213   0.355   1.251 -1.3945 -3.4078 -0.3831
 7275SOL     OW33283   2.008   2.010   4.193  0.2583 -0.1889 -0.4556
 7275SOL    HW133284   1.945   1.958   4.143 -1.3662  1.4732 -0.1096
 7275SOL    HW233285   2.050   1.948   4.253  0.5091 -2.1158 -2.6044
 7276SOL     OW33286   4.013   3.053   3.738 -0.6866 -0.1322 -0.2497
 7276SOL    HW133287   4.067   3.022   3.811  0.6344  2.2560 -0.2080
 7276SOL    HW233288   3.949   2.986   3.714 -1.4642  0.5710 -0.1501
 7277SOL     OW33289   1.773   1.909   6.593  0.2916  0.4146  0.3793
 7277SOL    HW133290   1.750   1.953   6.675  1.6655 -0.8983  1.4731
 7277SOL    HW233291   1.819   1.976   6.542  2.9431 -1.0382  0.8457
 7278SOL     OW33292   0.765   4.574   2.231  0.0122  0.2165  0.3658
 7278SOL    HW133293   0.796   4.627   2.158 -1.3824  1.8895  0.9849
 7278SOL    HW233294   0.750   4.486   2.198 -1.2611  1.2606 -1.8468
 7279SOL     OW33295   3.641   0.912  10.841  0.0712 -0.1008  0.5023
 7279SOL    HW133296   3.690   0.843  10.796 -0.6497 -0.4664  0.2689
 7279SOL    HW233297   3.551   0.902  10.808  0.3175 -1.5018  0.2262
 7280SOL     OW33298   4.391   0.625   5.153 -0.3849  0.0486 -0.0198
 7280SOL    HW133299   4.351   0.612   5.239  1.3982 -2.2823  0.4627
 7280SOL    HW233300   4.480   0.594   5.172 -0.2656 -0.9033 -2.1312
 7281SOL     OW33301   4.474   3.743   5.374  0.0098 -0.1469  0.9948
 7281SOL    HW133302   4.533   3.803   5.420  0.1263  2.7529 -2.9697
 7281SOL    HW233303   4.538   3.699   5.318 -1.0930 -0.8659  0.2963
 7282SOL     OW33304   3.189   3.667   0.338  0.6863 -0.3789  0.2143
 7282SOL    HW133305   3.277   3.704   0.338  1.3848 -2.0836  0.7358
 7282SOL    HW233306   3.213   3.579   0.311  1.5248  0.3719 -1.5271
 7283SOL     OW33307   3.961   2.987   6.714  0.4684  0.1236 -0.7803
 7283SOL    HW133308   4.045   3.002   6.757  0.5561 -0.5964 -0.7076
 7283SOL    HW233309   3.932   3.078   6.702 -0.1627  0.1418  0.8263
 7284SOL     OW33310   0.994   2.312  17.640  0.2223 -0.0152 -0.1991
 7284SOL    HW133311   1.040   2.245  17.691 -1.5908  0.9675  2.6785
 7284SOL    HW233312   0.967   2.249  17.573  0.2269  0.3939 -0.5917
 7285SOL     OW33313   1.539   3.287   2.380  0.4438 -0.1647  0.0398
 7285SOL    HW133314   1.541   3.362   2.321  0.0647  0.5364  0.9201
 7285SOL    HW233315   1.544   3.213   2.319 -2.6061 -0.8193  0.5748
 7286SOL     OW33316   4.289   2.688   9.198 -0.5112  0.3919 -0.0507
 7286SOL    HW133317   4.217   2.703   9.259 -0.4156 -0.4200  0.2558
 7286SOL    HW233318   4.354   2.726   9.257  0.5588  0.7766 -1.4690
 7287SOL     OW33319   3.834   2.949   7.320 -0.6440  0.2964  0.3311
 7287SOL    HW133320   3.875   2.978   7.401 -0.0560 -1.3596  0.6210
 7287SOL    HW233321   3.761   2.897   7.355 -0.9530  1.2779  1.1443
 7288SOL     OW33322   2.851   1.461   9.989  0.4512 -0.2415  0.3258
 7288SOL    HW133323   2.865   1.551   9.959 -2.8840  0.4410  0.8261
 7288SOL    HW233324   2.756   1.461   9.979  0.3642 -2.6282  1.3367
 7289SOL     OW33325   2.049   1.874   9.047 -0.0396  0.1656  0.1522
 7289SOL    HW133326   1.987   1.898   9.115 -0.2135 -2.8279  1.0331
 7289SOL    HW233327   2.020   1.785   9.030 -0.8548  0.7962 -1.7760
 7290SOL     OW33328   2.500   4.278   3.626  0.3951  0.7022 -0.0679
 7290SOL    HW133329   2.429   4.340   3.611 -0.0892 -0.0635 -0.9292
 7290SOL    HW233330   2.564   4.350   3.631  0.2237  0.6190  2.9679
 7291SOL     OW33331   3.419   2.582   2.178 -0.0833  0.0680 -0.3100
 7291SOL    HW133332   3.459   2.499   2.149 -1.0147 -0.1993 -0.8400
 7291SOL    HW233333   3.344   2.591   2.120 -1.3792  0.7797  1.5065
 7292SOL     OW33334   2.700   0.971   2.859 -0.0011  0.3248 -0.7744
 7292SOL    HW133335   2.640   0.967   2.934  2.8543 -0.3582  1.4654
 7292SOL    HW233336   2.718   1.064   2.851  1.0955  0.0922 -0.9105
 7293SOL     OW33337   3.404   3.203   2.816 -0.7069 -0.2194 -0.1005
 7293SOL    HW133338   3.333   3.262   2.843 -0.5338 -0.2467  0.4183
 7293SOL    HW233339   3.408   3.143   2.891  1.1679 -1.0976 -0.9179
 7294SOL     OW33340   4.256   1.403   1.531  0.0672  0.4233 -0.4893
 7294SOL    HW133341   4.304   1.415   1.449  1.0219  0.7012  0.1033
 7294SOL    HW233342   4.164   1.401   1.507  0.1117 -1.0786 -0.5118
 7295SOL     OW33343   1.313   3.063   2.591  0.2921  0.1163  0.7526
 7295SOL    HW133344   1.290   3.113   2.670  0.9922  1.6253  0.0091
 7295SOL    HW233345   1.409   3.063   2.593  0.3281  1.7832 -0.7282
 7296SOL     OW33346   4.592   3.404  16.872  0.0107 -0.6914  0.4264
 7296SOL    HW133347   4.604   3.309  16.871 -0.3294 -0.7509  1.2999
 7296SOL    HW233348   4.508   3.395  16.826 -0.1746 -0.3892  0.6979
 7297SOL     OW33349   1.096   3.971   5.309 -0.6702 -0.0546 -0.5644
 7297SOL    HW133350   1.134   4.057   5.292 -1.4673  0.6559  1.3872
 7297SOL    HW233351   1.114   3.939   5.220 -3.0548 -1.8837 -0.3803
 7298SOL     OW33352   1.307   0.880   4.594 -0.3400  0.0731  0.2416
 7298SOL    HW133353   1.211   0.875   4.594 -0.2790 -0.9677 -2.0010
 7298SOL    HW233354   1.322   0.915   4.682 -0.2867 -1.2921  0.7662
 7299SOL     OW33355   2.726   3.499   6.133 -0.0396  0.0767 -0.7300
 7299SOL    HW133356   2.734   3.521   6.041  2.1361  0.4895 -0.4408
 7299SOL    HW233357   2.807   3.449   6.137  0.1498  0.3473 -1.2460
 7300SOL     OW33358   3.161   1.842   8.032 -0.2183  0.2104  0.2064
 7300SOL    HW133359   3.112   1.804   7.959  0.8162 -0.7204 -0.0076
 7300SOL    HW233360   3.204   1.772   8.081 -0.7717 -0.1685  0.1582
 7301SOL     OW33361   3.105   2.731  11.939  0.0944 -0.0334  0.1272
 7301SOL    HW133362   3.200   2.728  11.927  0.1191  0.3370  0.2309
 7301SOL    HW233363   3.082   2.757  11.850  1.5685  1.2114  0.1034
 7302SOL     OW33364   1.448   0.918   9.236  0.4890  0.0313 -0.1781
 7302SOL    HW133365   1.371   0.906   9.291  0.5307  0.3518 -0.0489
 7302SOL    HW233366   1.471   0.998   9.282  0.3680  0.3874 -0.7387
 7303SOL     OW33367   2.237   3.800   8.055 -0.3069  0.4671 -0.0838
 7303SOL    HW133368   2.253   3.876   8.110  2.6044 -0.4360  0.3264
 7303SOL    HW233369   2.323   3.774   8.023 -0.8972  0.3947 -1.6503
 7304SOL     OW33370   2.568   0.850  17.578  0.4982  0.1083  0.1788
 7304SOL    HW133371   2.521   0.815  17.653 -1.5832  1.3774 -0.5438
 7304SOL    HW233372   2.503   0.876  17.514  1.4446  1.7979 -0.0926
 7305SOL     OW33373   3.754   3.970   6.828  0.0820  0.3570  0.2520
 7305SOL    HW133374   3.801   4.024   6.891  0.4291  1.8939 -1.3231
 7305SOL    HW233375   3.788   4.012   6.749  1.1225 -1.5564 -0.3142
 7306SOL     OW33376   3.149   4.296   3.673 -0.5861 -0.0401 -0.4508
 7306SOL    HW133377   3.138   4.386   3.704  1.9498 -0.4674  1.6460
 7306SOL    HW233378   3.219   4.264   3.729 -0.2335  0.3868 -0.6474
 7307SOL     OW33379   3.763   2.811  17.205  0.1047  0.0194  0.5367
 7307SOL    HW133380   3.702   2.881  17.184 -0.6025 -1.0934 -1.0864
 7307SOL    HW233381   3.788   2.840  17.293  1.7528 -0.9375  0.3800
 7308SOL     OW33382   3.492   0.406   8.071  0.3876  0.2863  0.1493
 7308SOL    HW133383   3.473   0.320   8.110  0.8448  0.0626 -0.1244
 7308SOL    HW233384   3.587   0.397   8.062  0.5241  1.8899 -0.0015
 7309SOL     OW33385   0.918   1.455   1.960  0.4030 -0.0830  0.1968
 7309SOL    HW133386   0.891   1.535   1.914 -1.9992 -1.0708 -0.0724
 7309SOL    HW233387   0.985   1.499   2.013  1.3739 -0.4417 -0.7336
 7310SOL     OW33388   2.857   3.924   4.828  0.6366 -0.4271  0.4565
 7310SOL    HW133389   2.914   3.887   4.761 -1.1451  0.0849 -1.3464
 7310SOL    HW233390   2.868   4.019   4.822 -0.4564 -0.2775  0.7650
 7311SOL     OW33391   1.337   2.286   5.504  0.1277  0.5721  0.2722
 7311SOL    HW133392   1.259   2.312   5.455 -1.4969 -1.6026  1.7098
 7311SOL    HW233393   1.300   2.224   5.567  1.9552  0.1618  0.9415
 7312SOL     OW33394   3.626   2.698   4.784 -0.3663  0.1113 -0.0673
 7312SOL    HW133395   3.657   2.702   4.694  1.3063  0.2878  0.5033
 7312SOL    HW233396   3.634   2.791   4.806  0.4817 -0.2909  1.3294
 7313SOL     OW33397   3.552   1.146   8.929 -0.2464 -0.3083  0.0271
 7313SOL    HW133398   3.472   1.196   8.946 -1.2508 -1.6010 -0.8365
 7313SOL    HW233399   3.614   1.183   8.992 -0.7931  1.1425 -0.2867
 7314SOL     OW33400   4.695   1.511   2.964  0.1905  0.0725 -0.5380
 7314SOL    HW133401   4.684   1.583   3.027 -1.0615  0.1880 -0.8700
 7314SOL    HW233402   4.604   1.500   2.937  0.5344 -0.7641 -1.3299
 7315SOL     OW33403   1.412   2.394   6.800 -0.0145 -0.7141 -0.1753
 7315SOL    HW133404   1.381   2.310   6.835 -0.6564 -0.8069 -0.9725
 7315SOL    HW233405   1.503   2.377   6.777  0.0895 -1.2360  0.6168
 7316SOL     OW33406   0.744   2.180   2.977  0.3803 -0.1168  0.1718
 7316SOL    HW133407   0.679   2.236   2.933  1.0566 -0.1483 -0.8489
 7316SOL    HW233408   0.814   2.245   2.986 -0.0755  0.5775 -1.2197
 7317SOL     OW33409   3.669   0.113   3.273  0.3243 -0.0742  0.9590
 7317SOL    HW133410   3.613   0.165   3.329 -0.1852  0.9816 -0.5304
 7317SOL    HW233411   3.606   0.043   3.256 -1.2463  1.6071 -0.1931
 7318SOL     OW33412   0.399   2.143  15.510  0.0865  0.2167 -0.1066
 7318SOL    HW133413   0.332   2.081  15.481  0.6649  0.6407 -2.3640
 7318SOL    HW233414   0.341   2.217  15.495 -2.0562 -1.5252 -0.3612
 7319SOL     OW33415   2.444   0.023   3.815 -0.1827  0.4152  0.2327
 7319SOL    HW133416   2.467   0.082   3.887  0.7517 -0.9954  1.0912
 7319SOL    HW233417   2.439   4.664   3.861 -0.0426  1.8988  2.9657
 7320SOL     OW33418   0.953   2.897   7.318 -0.0609 -0.1261  0.5569
 7320SOL    HW133419   0.915   2.917   7.404  0.8277  4.6211 -0.1502
 7320SOL    HW233420   0.877   2.872   7.265 -0.4015  0.4165  0.7938
 7321SOL     OW33421   1.294   1.452   3.279 -0.2386 -0.6402 -0.0477
 7321SOL    HW133422   1.222   1.463   3.342  0.4261 -1.8696  0.9374
 7321SOL    HW233423   1.317   1.542   3.256 -0.4541 -0.7926 -0.8509
 7322SOL     OW33424   0.618   1.264   4.858  0.3258  0.1057  0.5678
 7322SOL    HW133425   0.567   1.291   4.781 -1.2318  1.3703  2.0493
 7322SOL    HW233426   0.562   1.299   4.927 -1.8641 -2.5835  0.1837
 7323SOL     OW33427   0.642   1.709   8.377  0.1190 -0.0827 -0.0188
 7323SOL    HW133428   0.582   1.685   8.447 -0.6271 -1.2219 -1.0428
 7323SOL    HW233429   0.701   1.637   8.354 -0.5083 -0.9033  0.9549
 7324SOL     OW33430   0.590   3.670  14.738 -0.0849  0.4223  0.6609
 7324SOL    HW133431   0.663   3.621  14.775  0.0105  0.5985  0.7088
 7324SOL    HW233432   0.545   3.712  14.811 -0.5935  2.1760 -0.6539
 7325SOL     OW33433   4.373   0.777   3.038 -0.3063 -0.2378  0.4230
 7325SOL    HW133434   4.313   0.849   3.061  0.2177 -0.1109  1.3884
 7325SOL    HW233435   4.394   0.788   2.945 -0.9509  0.3654  0.3422
 7326SOL     OW33436   3.232   2.690   3.161  0.2140 -0.0624  0.0074
 7326SOL    HW133437   3.152   2.741   3.149 -0.0163 -0.9387 -2.2770
 7326SOL    HW233438   3.205   2.614   3.211  0.2749  0.9493  1.5571
 7327SOL     OW33439   1.663   0.652   2.771 -0.1333 -0.1426  0.2460
 7327SOL    HW133440   1.720   0.601   2.713 -1.9608 -1.3966 -0.4449
 7327SOL    HW233441   1.634   0.581   2.827  2.3290  0.6356  2.4898
 7328SOL     OW33442   0.188   3.790   9.983  0.3889  0.3729 -0.2402
 7328SOL    HW133443   0.229   3.811  10.067 -0.9730 -0.2180  0.5793
 7328SOL    HW233444   0.244   3.855   9.941  2.4149 -1.1701  0.0580
 7329SOL     OW33445   1.310   3.047   7.253 -0.2553  0.6505  0.3465
 7329SOL    HW133446   1.364   3.047   7.174  0.9587  1.3446  1.1841
 7329SOL    HW233447   1.258   2.968   7.237  1.0413  0.4774 -2.9675
 7330SOL     OW33448   1.395   1.367   3.023 -0.1463  0.0564 -0.3607
 7330SOL    HW133449   1.359   1.358   3.111  0.1373  0.1043 -0.2392
 7330SOL    HW233450   1.459   1.434   3.048  0.5920 -0.7714 -0.0149
 7331SOL     OW33451   0.351   0.127  11.360 -0.4855  0.0655 -0.4467
 7331SOL    HW133452   0.293   0.201  11.343 -0.8502 -0.8628 -3.2598
 7331SOL    HW233453   0.301   0.061  11.313 -1.0282  0.4118 -0.3544
 7332SOL     OW33454   1.508   2.629  12.916  0.0706  0.2764 -0.1948
 7332SOL    HW133455   1.456   2.560  12.958 -1.1447  2.1300  1.3505
 7332SOL    HW233456   1.445   2.677  12.862  1.3789 -0.1872 -2.1333
 7333SOL     OW33457   3.859   2.110   3.292 -0.2529 -0.1793 -0.4913
 7333SOL    HW133458   3.924   2.160   3.341 -1.0303  0.9594 -0.6376
 7333SOL    HW233459   3.898   2.123   3.205  0.9909 -2.1607 -0.2323
 7334SOL     OW33460   2.996   3.446   2.725  0.1488  0.4840  0.5221
 7334SOL    HW133461   3.050   3.520   2.751 -0.3443  0.7749  0.7174
 7334SOL    HW233462   2.912   3.490   2.717 -0.1040  0.4898  3.0235
 7335SOL     OW33463   4.691   2.157   8.573 -0.0499  0.1802 -0.2590
 7335SOL    HW133464   4.653   2.141   8.659 -1.9079 -3.0139 -1.6895
 7335SOL    HW233465   4.660   2.084   8.520 -0.2449 -0.7322  1.1124
 7336SOL     OW33466   1.532   1.043   7.948 -0.0395 -0.5814 -0.0671
 7336SOL    HW133467   1.499   1.129   7.974  1.6516  0.1465 -0.3330
 7336SOL    HW233468   1.624   1.068   7.946 -0.0112 -0.7908 -1.3586
 7337SOL     OW33469   2.764   1.259   7.360 -0.2328 -0.6431  0.1478
 7337SOL    HW133470   2.791   1.228   7.447  0.2341  0.0954  0.2630
 7337SOL    HW233471   2.842   1.307   7.333 -0.7777  0.5075  0.6647
 7338SOL     OW33472   3.554   1.395   5.599 -0.3382  0.6017  0.0809
 7338SOL    HW133473   3.469   1.402   5.643  0.3549 -0.0871  1.5210
 7338SOL    HW233474   3.562   1.490   5.585 -1.6743  0.8410  0.9042
 7339SOL     OW33475   4.447   3.872   6.358 -0.4938 -0.2508 -0.6454
 7339SOL    HW133476   4.492   3.956   6.363 -0.8681 -0.2502  2.3011
 7339SOL    HW233477   4.506   3.831   6.294 -1.1827 -0.6364 -1.0425
 7340SOL     OW33478   4.223   1.947   5.831  0.8516  0.1224 -0.5253
 7340SOL    HW133479   4.257   1.986   5.911  1.4506 -0.5722 -0.4334
 7340SOL    HW233480   4.294   1.958   5.768  0.0802 -0.2626 -1.4597
 7341SOL     OW33481   1.121   1.636   6.573  0.5102 -0.0496 -0.0622
 7341SOL    HW133482   1.090   1.546   6.566 -0.8172  0.2831  1.5855
 7341SOL    HW233483   1.211   1.617   6.602  0.1733  0.4993  1.3560
 7342SOL     OW33484   3.165   3.714  14.596 -0.2111 -0.0241  0.2624
 7342SOL    HW133485   3.127   3.799  14.617  0.8375  0.4717  0.1154
 7342SOL    HW233486   3.098   3.657  14.634 -0.3465 -0.4366 -0.5874
 7343SOL     OW33487   3.328   0.492  16.403 -0.4526 -0.6690  0.4232
 7343SOL    HW133488   3.297   0.564  16.459  0.8136 -0.7987  1.2935
 7343SOL    HW233489   3.256   0.491  16.340 -0.6493 -1.3862  0.6622
 7344SOL     OW33490   0.367   3.134   8.368 -0.1518 -0.1882  0.0206
 7344SOL    HW133491   0.273   3.151   8.356 -0.2315 -0.1428  0.6754
 7344SOL    HW233492   0.383   3.059   8.311 -0.8442  1.0001 -1.7252
 7345SOL     OW33493   2.895   3.936   6.924  0.5551 -0.0478  0.1178
 7345SOL    HW133494   2.811   3.925   6.969  0.7139 -1.0954  0.1580
 7345SOL    HW233495   2.931   3.850   6.944  0.5919 -0.1637 -0.4448
 7346SOL     OW33496   1.290   3.162  13.222 -0.2620  0.0159 -0.0267
 7346SOL    HW133497   1.372   3.140  13.267  0.6746  0.1743 -1.6443
 7346SOL    HW233498   1.279   3.077  13.180 -2.5455 -0.4048  1.4696
 7347SOL     OW33499   4.482   2.581   7.131 -0.0399 -0.5484 -0.6250
 7347SOL    HW133500   4.444   2.582   7.044  2.8189  0.0839 -1.8630
 7347SOL    HW233501   4.416   2.521   7.167  1.3317 -1.3844  0.5098
 7348SOL     OW33502   3.170   0.643   3.977 -0.3644  0.2477  0.1628
 7348SOL    HW133503   3.116   0.644   3.898 -1.6263 -2.7154  1.0048
 7348SOL    HW233504   3.250   0.604   3.942 -0.2177 -0.2833  1.0983
 7349SOL     OW33505   2.106   0.463   7.398  0.3242 -0.1421  0.1171
 7349SOL    HW133506   2.022   0.431   7.367  0.5287 -0.7390  0.1857
 7349SOL    HW233507   2.111   0.437   7.490  1.6378 -4.2993 -1.1379
 7350SOL     OW33508   2.174   4.540   8.298 -0.0872  0.0469  0.1420
 7350SOL    HW133509   2.162   4.461   8.246  0.3034 -0.2470  0.5125
 7350SOL    HW233510   2.151   4.514   8.387  0.9724  0.9448  0.6754
 7351SOL     OW33511   3.902   4.105   6.643 -0.0341 -0.0402  0.3551
 7351SOL    HW133512   3.921   4.110   6.549  1.0165 -3.1263  0.4066
 7351SOL    HW233513   3.889   4.197   6.666 -3.1990 -0.4013 -0.0255
 7352SOL     OW33514   1.008   2.586   4.816 -0.1071 -0.7206  0.6458
 7352SOL    HW133515   1.038   2.521   4.880 -1.1689 -0.6114  1.2489
 7352SOL    HW233516   1.049   2.557   4.734 -1.6727 -2.0132  0.3266
 7353SOL     OW33517   4.475   2.884   1.710  0.3353 -0.3754  0.3835
 7353SOL    HW133518   4.506   2.827   1.640 -1.5839 -2.5770  1.3249
 7353SOL    HW233519   4.513   2.969   1.690 -1.6363  0.6521  0.9168
 7354SOL     OW33520   3.565   1.850   4.130 -0.1723 -0.3716  0.2390
 7354SOL    HW133521   3.548   1.918   4.195 -0.2495 -0.5954  0.4524
 7354SOL    HW233522   3.658   1.836   4.151  0.3372 -1.3097 -2.6476
 7355SOL     OW33523   2.641   3.044   6.411 -0.5581 -0.4323 -0.1102
 7355SOL    HW133524   2.639   3.024   6.504 -1.5142  2.7831  0.5676
 7355SOL    HW233525   2.565   3.099   6.390 -1.0758 -2.0497 -2.5446
 7356SOL     OW33526   4.023   1.181   4.528  0.4588 -0.3325  0.0361
 7356SOL    HW133527   4.110   1.208   4.557  0.4300  1.1817 -1.2649
 7356SOL    HW233528   4.025   1.219   4.440  0.8193  0.3721  0.3517
 7357SOL     OW33529   1.824   1.993   7.417 -0.2759  0.3919 -0.7349
 7357SOL    HW133530   1.886   1.930   7.453 -0.1263  1.1002  0.2617
 7357SOL    HW233531   1.828   2.048   7.496 -1.9439  0.4173 -0.6655
 7358SOL     OW33532   3.201   1.321  16.807  0.2128 -0.1104 -0.4519
 7358SOL    HW133533   3.276   1.261  16.811 -0.3363 -0.9913 -2.9116
 7358SOL    HW233534   3.251   1.402  16.818  0.7151 -0.4110 -0.5058
 7359SOL     OW33535   4.026   2.321  11.510  0.1928 -0.0228 -0.2959
 7359SOL    HW133536   4.036   2.251  11.575 -0.8280  0.7370  0.6719
 7359SOL    HW233537   4.012   2.264  11.434  0.6677  0.5741 -0.8285
 7360SOL     OW33538   0.561   4.313  12.130 -0.2498  1.0320 -0.4143
 7360SOL    HW133539   0.645   4.291  12.091 -0.6857 -2.1988  0.4257
 7360SOL    HW233540   0.574   4.407  12.145 -3.3121  1.5264 -0.7023
 7361SOL     OW33541   4.392   3.842  14.481 -1.1506  0.1055 -0.5772
 7361SOL    HW133542   4.339   3.921  14.471 -1.8489 -0.1823  0.8860
 7361SOL    HW233543   4.485   3.865  14.474 -0.7166 -1.1580  1.0451
 7362SOL     OW33544   4.167   0.575   6.327 -0.5251  0.1790 -0.1276
 7362SOL    HW133545   4.257   0.543   6.329 -0.9809 -1.0918 -0.1913
 7362SOL    HW233546   4.178   0.663   6.291  0.5696 -0.1934 -0.7069
 7363SOL     OW33547   3.411   2.380   9.518 -0.3306  0.1291  0.4371
 7363SOL    HW133548   3.344   2.329   9.473 -0.1622  1.8340 -1.7643
 7363SOL    HW233549   3.373   2.400   9.604 -1.4044 -0.5168  0.1155
 7364SOL     OW33550   0.773   3.674   7.989 -0.1726  0.1766  0.0275
 7364SOL    HW133551   0.849   3.654   8.044 -0.0785  1.6007  0.3904
 7364SOL    HW233552   0.771   3.596   7.933  0.1334 -0.3805  0.7922
 7365SOL     OW33553   0.773   0.009   1.018 -0.3010 -0.2111  0.0395
 7365SOL    HW133554   0.696   0.027   1.071  0.1503  3.1355 -0.3911
 7365SOL    HW233555   0.785   0.083   0.958  0.1043  0.5986  1.1289
 7366SOL     OW33556   0.349   0.999   4.123  0.0971  0.1113 -0.1807
 7366SOL    HW133557   0.422   1.044   4.166 -0.3569  1.7428 -1.1407
 7366SOL    HW233558   0.281   1.027   4.184 -1.9508  1.5691 -3.1465
 7367SOL     OW33559   0.343   2.897   6.004 -0.0891 -0.1163  0.5203
 7367SOL    HW133560   0.324   2.989   5.988  1.1920 -0.0324 -0.5309
 7367SOL    HW233561   0.435   2.894   5.978 -0.3190  0.2963 -0.3451
 7368SOL     OW33562   1.643   1.017  15.044  0.4957 -0.6194  0.3246
 7368SOL    HW133563   1.714   0.954  15.052  1.0252 -0.0888 -0.1835
 7368SOL    HW233564   1.660   1.070  15.122 -0.1992  0.1673 -0.0610
 7369SOL     OW33565   2.056   1.422   5.379  0.2435 -0.0070 -0.3342
 7369SOL    HW133566   2.010   1.457   5.456 -0.9639 -2.0418 -0.1474
 7369SOL    HW233567   1.988   1.376   5.330  0.1786 -0.2216 -0.0402
 7370SOL     OW33568   4.133   2.811   3.076  0.2289  0.2957 -0.8125
 7370SOL    HW133569   4.074   2.746   3.114 -0.7251  0.7873 -1.4646
 7370SOL    HW233570   4.210   2.815   3.133 -0.4627  0.7364  0.1014
 7371SOL     OW33571   3.018   1.871   5.422 -0.3509  0.3639 -0.8112
 7371SOL    HW133572   3.063   1.937   5.476 -0.3936  0.3256 -0.7296
 7371SOL    HW233573   3.020   1.796   5.481  2.2015  2.1426  1.4392
 7372SOL     OW33574   1.927   0.741   7.399  0.4039 -0.0697 -0.4209
 7372SOL    HW133575   1.840   0.742   7.358  0.0143 -0.7087  0.3987
 7372SOL    HW233576   1.896   0.753   7.489 -0.1022  1.0109 -0.7355
 7373SOL     OW33577   0.257   4.461   7.170  0.1100 -0.5427 -0.5969
 7373SOL    HW133578   0.188   4.519   7.201 -2.3030 -3.3520 -0.6701
 7373SOL    HW233579   0.212   4.377   7.173 -0.9325  0.1364  2.1557
 7374SOL     OW33580   3.146   3.791   3.186  0.3898 -0.4950  0.0720
 7374SOL    HW133581   3.084   3.852   3.225 -1.9249 -0.3388 -3.8369
 7374SOL    HW233582   3.215   3.787   3.252 -0.1837 -1.8987  0.5635
 7375SOL     OW33583   1.279   1.784   3.964 -0.0833  0.4151 -0.7861
 7375SOL    HW133584   1.188   1.774   3.989 -0.7049  0.3951 -3.0214
 7375SOL    HW233585   1.306   1.856   4.022  0.5195 -0.0882 -0.4407
 7376SOL     OW33586   3.947   3.646   4.732  0.8459  0.1960  0.4041
 7376SOL    HW133587   4.020   3.681   4.782  0.7666  1.0782 -0.0912
 7376SOL    HW233588   3.885   3.719   4.743 -0.2720 -0.7191  0.1741
 7377SOL     OW33589   4.639   3.288   5.748  0.1282  0.2579  0.5182
 7377SOL    HW133590   4.567   3.345   5.777  0.7254  0.7598  1.0126
 7377SOL    HW233591   4.665   3.331   5.667  0.7314 -1.3017 -0.1142
 7378SOL     OW33592   3.036   3.565   8.437 -0.7387  0.6432  0.1007
 7378SOL    HW133593   2.966   3.548   8.374 -0.2423 -0.3585 -0.1878
 7378SOL    HW233594   3.037   3.660   8.425  0.9227  0.3792 -1.7828
 7379SOL     OW33595   0.163   2.706   3.340 -0.1972 -0.6030 -0.1432
 7379SOL    HW133596   0.146   2.678   3.250  0.1803 -2.5091  0.3772
 7379SOL    HW233597   0.137   2.797   3.330 -0.5381 -0.8924 -1.8397
 7380SOL     OW33598   0.053   1.292   3.519  0.2072  0.3379  0.0561
 7380SOL    HW133599   0.017   1.265   3.435  0.1573 -0.8114  0.4455
 7380SOL    HW233600   0.142   1.312   3.491  0.3005 -1.2154 -0.7490
 7381SOL     OW33601   3.997   4.351  15.513 -0.1726  0.4091  0.0269
 7381SOL    HW133602   4.079   4.344  15.464  0.0571  1.0746  0.3061
 7381SOL    HW233603   4.014   4.424  15.573  0.5473  1.4343 -1.4214
 7382SOL     OW33604   2.419   2.755   1.602 -0.0621  0.5288  0.0039
 7382SOL    HW133605   2.341   2.809   1.614 -1.1353 -1.2605  0.9277
 7382SOL    HW233606   2.476   2.817   1.556  0.5751 -0.6981 -0.8696
 7383SOL     OW33607   0.654   1.202   2.744 -0.9250 -0.5911  0.1511
 7383SOL    HW133608   0.605   1.129   2.705 -1.7117  0.2991 -0.5288
 7383SOL    HW233609   0.653   1.258   2.666 -2.3391 -0.4434  0.2754
 7384SOL     OW33610   1.060   0.424  12.420 -0.2376 -0.6596  0.1490
 7384SOL    HW133611   0.970   0.392  12.418 -0.6733  0.5948 -0.3782
 7384SOL    HW233612   1.106   0.355  12.371 -0.4043 -0.0432 -0.8764
 7385SOL     OW33613   3.742   1.828   2.065  0.1776  0.1241  0.4469
 7385SOL    HW133614   3.815   1.866   2.114 -1.5542  3.4105  0.4478
 7385SOL    HW233615   3.698   1.777   2.133 -1.5719  0.6105 -0.3409
 7386SOL     OW33616   0.155   4.598   9.853 -0.2695 -0.0957  0.3905
 7386SOL    HW133617   0.155   4.560   9.765  0.9793  0.7124  0.0418
 7386SOL    HW233618   0.105   4.529   9.896 -0.8116  0.7529  1.1254
 7387SOL     OW33619   0.100   1.031  11.998  0.2649 -0.1535  0.3814
 7387SOL    HW133620   0.150   0.952  12.020  3.2765  1.1086 -1.8023
 7387SOL    HW233621   0.026   0.985  11.958 -1.6600  1.9529  1.5273
 7388SOL     OW33622   3.266   1.886  14.349  0.0194  0.2700 -0.5132
 7388SOL    HW133623   3.183   1.844  14.330 -0.0735 -0.2418  1.0994
 7388SOL    HW233624   3.255   1.915  14.439 -1.7257 -2.1102  0.0166
 7389SOL     OW33625   2.907   3.153   6.360 -0.3368 -0.0640  0.8403
 7389SOL    HW133626   2.931   3.070   6.319  0.1738  0.4454  0.1022
 7389SOL    HW233627   2.815   3.136   6.379 -0.1581 -1.4109  0.4588
 7390SOL     OW33628   1.704   1.171   4.871 -0.0797 -0.1412 -0.3398
 7390SOL    HW133629   1.673   1.247   4.920  1.3845 -0.3082  0.8505
 7390SOL    HW233630   1.685   1.096   4.928 -0.4731  1.0598  1.0954
 7391SOL     OW33631   0.138   4.348   6.336  0.0660 -0.2386  0.3195
 7391SOL    HW133632   0.058   4.399   6.327  0.3788  0.3092  0.6405
 7391SOL    HW233633   0.127   4.310   6.424 -1.1353  1.7084  1.0078
 7392SOL     OW33634   2.004   3.045   6.020  0.0407 -0.0123  0.1528
 7392SOL    HW133635   1.973   3.005   6.101  0.4206  1.6275  1.1151
 7392SOL    HW233636   1.943   3.002   5.960  1.6360  0.1291 -1.5693
 7393SOL     OW33637   4.060   3.940  10.014 -0.7861 -0.0487 -0.5541
 7393SOL    HW133638   4.096   3.941   9.925  2.3242  1.1228  0.7088
 7393SOL    HW233639   4.105   3.862  10.047  0.5776  0.6621 -0.7384
 7394SOL     OW33640   0.897   1.774  15.407 -0.0364  0.4856 -0.1975
 7394SOL    HW133641   0.844   1.809  15.336 -1.3568  0.7305  0.9068
 7394SOL    HW233642   0.966   1.727  15.360 -0.1938 -0.3025  0.3575
 7395SOL     OW33643   2.973   1.922   8.490 -0.3263  0.2645 -0.0098
 7395SOL    HW133644   3.048   1.967   8.451  0.5666 -1.3474 -0.1704
 7395SOL    HW233645   2.959   1.975   8.569  0.7680 -1.0390  1.0589
 7396SOL     OW33646   4.300   0.912   0.281  0.3819  0.1058  0.0625
 7396SOL    HW133647   4.329   0.978   0.345 -0.7417  2.6303 -2.0600
 7396SOL    HW233648   4.231   0.867   0.329  0.8275 -0.6008  0.0304
 7397SOL     OW33649   3.340   3.545  14.405 -0.4721  0.0806  0.3357
 7397SOL    HW133650   3.422   3.589  14.383 -0.8508  0.9294  0.5957
 7397SOL    HW233651   3.315   3.593  14.485  0.1638  0.7572  0.1199
 7398SOL     OW33652   1.068   0.194  16.182  0.2351  0.5458  0.2216
 7398SOL    HW133653   1.107   0.137  16.248  2.4498  1.5840 -0.2190
 7398SOL    HW233654   1.043   0.125  16.121 -0.1176 -0.3606  1.3966
 7399SOL     OW33655   0.668   1.199  17.317  0.5151 -0.3341  0.3727
 7399SOL    HW133656   0.663   1.154  17.402 -0.0837  1.0423  1.0758
 7399SOL    HW233657   0.684   1.130  17.253 -4.5132 -0.3798 -0.8688
 7400SOL     OW33658   0.408   2.021   4.954  0.5911  0.1740  0.2285
 7400SOL    HW133659   0.423   2.054   5.043 -1.2712  1.3956  0.0645
 7400SOL    HW233660   0.433   1.929   4.943 -0.4064  0.3097 -3.1342
 7401SOL     OW33661   3.879   3.067  11.083 -0.2689 -0.2797  0.3408
 7401SOL    HW133662   3.920   2.984  11.059 -0.6257 -0.4478  0.3108
 7401SOL    HW233663   3.825   3.029  11.152 -0.3657  0.1339  0.4960
 7402SOL     OW33664   2.400   1.063   7.046 -0.2167 -0.3428  0.5823
 7402SOL    HW133665   2.485   1.087   7.083 -0.1910  0.6046 -0.0981
 7402SOL    HW233666   2.421   1.028   6.959 -1.0247 -2.0319  1.0631
 7403SOL     OW33667   2.610   0.390  14.447 -0.0888  0.2011  0.0027
 7403SOL    HW133668   2.569   0.306  14.469 -0.6608 -0.5737 -3.9965
 7403SOL    HW233669   2.538   0.436  14.404  0.2683  0.3429 -0.4481
 7404SOL     OW33670   3.291   0.202   9.772 -0.1301  0.3953  0.1297
 7404SOL    HW133671   3.222   0.240   9.826  2.1172  0.5895  2.8529
 7404SOL    HW233672   3.330   0.277   9.728 -1.8889  0.9869 -0.4351
 7405SOL     OW33673   2.922   4.198   2.907 -0.5836 -0.3281  0.1828
 7405SOL    HW133674   2.831   4.201   2.876 -0.3710 -2.9443 -0.7194
 7405SOL    HW233675   2.961   4.282   2.883 -0.5769  0.2393  2.1505
 7406SOL     OW33676   2.787   4.248  11.933  0.0282 -0.1153  0.2267
 7406SOL    HW133677   2.702   4.230  11.893 -0.2309 -0.2745  0.8472
 7406SOL    HW233678   2.817   4.320  11.878  0.3899 -1.6915 -1.6797
 7407SOL     OW33679   3.611   2.165   9.054 -0.1999  0.2184 -0.2208
 7407SOL    HW133680   3.547   2.191   8.987 -1.0540  0.3209  0.6309
 7407SOL    HW233681   3.585   2.220   9.127  0.9601  0.5521 -0.0649
 7408SOL     OW33682   2.507   4.105   6.313 -0.0501 -0.0951  0.3188
 7408SOL    HW133683   2.492   4.147   6.397 -0.0520  0.6039 -0.0274
 7408SOL    HW233684   2.557   4.030   6.347  0.9303  0.4790  0.1378
 7409SOL     OW33685   1.174   3.542   2.327 -0.0584 -0.6162  0.1919
 7409SOL    HW133686   1.267   3.519   2.334  0.1654 -0.3533 -1.9432
 7409SOL    HW233687   1.173   3.605   2.254  0.1614  1.3650  1.9010
 7410SOL     OW33688   3.546   0.319  10.916 -0.1530  0.8307  0.2437
 7410SOL    HW133689   3.576   0.407  10.892 -0.0757  0.2738 -1.7054
 7410SOL    HW233690   3.501   0.297  10.835 -1.1894 -2.7498  1.8024
 7411SOL     OW33691   0.598   2.684   2.013 -0.1073 -0.1038 -0.0435
 7411SOL    HW133692   0.512   2.721   2.031 -1.0254 -0.9281 -2.7646
 7411SOL    HW233693   0.656   2.720   2.080 -0.7939  1.9066 -0.5324
 7412SOL     OW33694   2.713   3.823   6.261 -0.1851  0.1392  0.0570
 7412SOL    HW133695   2.696   3.836   6.168  0.9828 -1.9578 -0.4576
 7412SOL    HW233696   2.785   3.880   6.286  1.3087 -2.3302  1.4160
 7413SOL     OW33697   0.005   2.135   2.109 -0.2640 -0.0794  0.1923
 7413SOL    HW133698   4.650   2.179   2.137 -0.1629  0.7355 -0.8046
 7413SOL    HW233699   4.709   2.111   2.019 -1.3554  1.2683  0.0942
 7414SOL     OW33700   4.536   3.644   3.311 -0.1591 -0.6721 -0.7583
 7414SOL    HW133701   4.470   3.702   3.273 -1.0528 -0.7736  0.6037
 7414SOL    HW233702   4.537   3.675   3.402  0.5451 -1.2989 -0.5568
 7415SOL     OW33703   4.336   4.015  15.433 -0.6108 -0.2341 -0.1922
 7415SOL    HW133704   4.401   3.989  15.367 -1.3287 -1.8674 -0.2507
 7415SOL    HW233705   4.370   3.986  15.518 -1.9309  0.0052  0.4082
 7416SOL     OW33706   2.839   0.732  10.699 -0.3563  0.5528  0.2842
 7416SOL    HW133707   2.931   0.714  10.719 -0.4998 -0.4711  0.0014
 7416SOL    HW233708   2.847   0.821  10.665 -2.5207  1.0868  1.1384
 7417SOL     OW33709   2.458   0.749  10.818  0.3949  0.3837  0.7819
 7417SOL    HW133710   2.487   0.791  10.737  0.0223 -0.7019  0.0730
 7417SOL    HW233711   2.523   0.680  10.830 -1.9777 -1.4546  3.1089
 7418SOL     OW33712   1.957   4.324   9.217  0.0662 -0.2204 -0.8390
 7418SOL    HW133713   1.926   4.280   9.297 -0.7013  1.1074 -0.3978
 7418SOL    HW233714   2.047   4.343   9.244 -0.6762 -0.5492  1.8881
 7419SOL     OW33715   0.678   1.949   0.278 -0.5935 -0.1262 -0.3447
 7419SOL    HW133716   0.632   1.887   0.221 -0.4533 -0.9983  0.4846
 7419SOL    HW233717   0.621   1.942   0.354  0.9007 -2.6012  0.5493
 7420SOL     OW33718   2.986   1.883   9.238  0.2534 -0.2733 -0.2849
 7420SOL    HW133719   2.906   1.859   9.284 -0.0059  1.6864  0.3107
 7420SOL    HW233720   3.002   1.806   9.184  1.0523 -0.5629  0.3598
 7421SOL     OW33721   2.740   3.845   4.421  0.6318  0.3585  0.6163
 7421SOL    HW133722   2.718   3.934   4.448 -0.5453 -0.3583  2.0025
 7421SOL    HW233723   2.788   3.839   4.338 -1.6775 -2.2681 -0.5348
 7422SOL     OW33724   3.208   1.685   1.254  0.1736 -0.8497 -0.5280
 7422SOL    HW133725   3.130   1.739   1.250  0.2555 -0.7988 -1.3407
 7422SOL    HW233726   3.263   1.728   1.189 -1.3395  0.2873 -1.0483
 7423SOL     OW33727   0.738   2.036   7.893  0.0038  0.2093 -0.6092
 7423SOL    HW133728   0.786   1.958   7.920  0.8440  1.6072  1.9562
 7423SOL    HW233729   0.741   2.016   7.799 -1.4880  0.3753 -0.6819
 7424SOL     OW33730   2.788   3.061  14.341 -0.2531 -0.0645  0.2354
 7424SOL    HW133731   2.758   3.022  14.423 -0.0380  1.3745  0.9940
 7424SOL    HW233732   2.839   3.136  14.372  0.6673  0.1052 -1.6669
 7425SOL     OW33733   1.706   1.879  14.136  0.4176 -0.4573  0.8001
 7425SOL    HW133734   1.787   1.828  14.140  0.7241 -0.0152  0.0508
 7425SOL    HW233735   1.667   1.859  14.221  0.6099  1.5027  1.3378
 7426SOL     OW33736   0.352   2.068   7.518 -0.2590 -0.3263  0.1964
 7426SOL    HW133737   0.258   2.063   7.533 -0.3639  1.9026  0.3094
 7426SOL    HW233738   0.357   2.141   7.457 -1.2914 -0.1280  0.3455
 7427SOL     OW33739   3.682   2.506   2.445 -0.1409 -0.0696  0.4999
 7427SOL    HW133740   3.610   2.491   2.383  1.0716  1.2819 -1.2511
 7427SOL    HW233741   3.721   2.579   2.397 -0.4683 -0.4697 -0.3825
 7428SOL     OW33742   0.148   2.925  16.870 -0.1464  0.3624 -0.2446
 7428SOL    HW133743   0.234   2.889  16.891 -0.2230  0.8055  0.8235
 7428SOL    HW233744   0.159   2.958  16.781 -0.0845 -0.2605 -0.4694
 7429SOL     OW33745   3.600   0.660   2.261 -0.2778  0.0646 -0.4725
 7429SOL    HW133746   3.508   0.638   2.272  0.2163  0.3771  4.2343
 7429SOL    HW233747   3.624   0.598   2.193 -0.6803 -0.5253 -0.0798
 7430SOL     OW33748   1.113   1.421   5.216 -0.1290  0.7825  0.2376
 7430SOL    HW133749   1.049   1.480   5.255 -2.5352 -0.7935 -1.3136
 7430SOL    HW233750   1.198   1.449   5.251 -0.4996 -0.5411  2.1988
 7431SOL     OW33751   0.809   2.162   8.137 -0.1809 -0.1526  0.6730
 7431SOL    HW133752   0.851   2.079   8.162  0.5273  0.1694  0.5519
 7431SOL    HW233753   0.772   2.133   8.054  1.3302  0.5604 -0.2493
 7432SOL     OW33754   3.074   0.775   5.492 -0.0915 -0.3240 -0.1134
 7432SOL    HW133755   3.121   0.834   5.434  1.4161  0.4111  1.8540
 7432SOL    HW233756   3.108   0.689   5.465  1.5091  0.7293 -1.4593
 7433SOL     OW33757   3.163   1.699  16.229  0.2352 -0.2099  0.4035
 7433SOL    HW133758   3.142   1.714  16.137  1.9166 -0.4208 -0.0248
 7433SOL    HW233759   3.255   1.727  16.228  0.2574 -0.2801  0.5677
 7434SOL     OW33760   1.284   1.959  16.520 -0.0420  0.3481 -0.4160
 7434SOL    HW133761   1.235   1.884  16.484 -0.1061 -0.0856  0.5928
 7434SOL    HW233762   1.264   1.962  16.613 -1.0588 -0.4333 -0.6135
 7435SOL     OW33763   2.613   0.586   4.260  0.0962 -0.3499  0.0750
 7435SOL    HW133764   2.541   0.587   4.197  1.9457 -1.7503 -2.0137
 7435SOL    HW233765   2.674   0.637   4.208 -1.0308  2.0014  1.0652
 7436SOL     OW33766   1.754   2.575   2.510  0.5518 -0.4417  0.4696
 7436SOL    HW133767   1.784   2.492   2.473  2.0191  0.5898 -0.6629
 7436SOL    HW233768   1.814   2.636   2.466 -1.0481 -0.3792 -1.6610
 7437SOL     OW33769   1.073   4.192   9.022  0.3456  0.4499  0.1411
 7437SOL    HW133770   1.106   4.137   8.951  0.9264 -1.7973  2.1407
 7437SOL    HW233771   1.066   4.140   9.102 -0.0220  1.8666  1.0220
 7438SOL     OW33772   3.149   1.641   1.560 -0.3517 -0.1124 -0.7571
 7438SOL    HW133773   3.217   1.638   1.492 -0.7570 -0.8427 -1.1276
 7438SOL    HW233774   3.176   1.590   1.636 -0.3893  1.7243  0.4863
 7439SOL     OW33775   4.614   3.884   6.012  0.4652 -0.1237  0.4050
 7439SOL    HW133776   4.641   3.919   5.926  3.0526 -1.8624  0.4990
 7439SOL    HW233777   4.624   3.791   5.990 -0.7218 -0.1179 -0.1904
 7440SOL     OW33778   1.483   1.644  16.463 -0.5174 -0.3123  0.3663
 7440SOL    HW133779   1.467   1.708  16.533  0.7951  1.9922 -1.4249
 7440SOL    HW233780   1.430   1.684  16.393 -2.1396 -2.1890  0.5247
 7441SOL     OW33781   2.433   1.150   3.789 -0.7931 -0.3159  0.1209
 7441SOL    HW133782   2.495   1.078   3.800  3.4634  3.0905 -1.3989
 7441SOL    HW233783   2.435   1.164   3.694  0.0897  0.2675  0.2208
 7442SOL     OW33784   1.924   4.467   1.482 -0.7963  0.2560  0.3076
 7442SOL    HW133785   1.843   4.470   1.432 -0.8494  1.2108  0.4529
 7442SOL    HW233786   1.921   4.557   1.513  0.0478 -0.5832  2.8132
 7443SOL     OW33787   2.150   3.216   8.927  0.2022  0.0595  0.5438
 7443SOL    HW133788   2.079   3.246   8.983  0.0161  1.1744 -0.2896
 7443SOL    HW233789   2.212   3.176   8.987  0.2228 -0.3896  0.2243
 7444SOL     OW33790   0.347   1.905   1.834  0.2169 -0.4887 -0.3485
 7444SOL    HW133791   0.428   1.948   1.807  0.4816 -0.6738  0.1530
 7444SOL    HW233792   0.293   1.983   1.846 -1.2007 -1.3881 -0.7758
 7445SOL     OW33793   3.838   3.118   7.625  0.3529  0.4417  0.4057
 7445SOL    HW133794   3.830   3.023   7.619  0.7922  0.4573 -0.3962
 7445SOL    HW233795   3.748   3.140   7.600  0.7913  0.4011 -1.2136
 7446SOL     OW33796   3.980   4.045   5.636 -0.0491 -0.1089  0.2840
 7446SOL    HW133797   4.033   4.123   5.621  1.6543 -1.0935  1.1473
 7446SOL    HW233798   3.919   4.072   5.704  0.1976 -1.1003  0.9028
 7447SOL     OW33799   2.110   1.647   7.442  0.5611  0.5081  0.0146
 7447SOL    HW133800   2.148   1.566   7.475 -2.5184 -0.7566  0.4700
 7447SOL    HW233801   2.020   1.616   7.429 -0.3488  3.7664 -1.4427
 7448SOL     OW33802   4.694   1.739   8.273  0.4632  0.5646  1.1481
 7448SOL    HW133803   0.006   1.691   8.199  0.8605 -0.2650  1.8772
 7448SOL    HW233804   4.667   1.661   8.323  1.2912 -0.8217 -0.5670
 7449SOL     OW33805   3.882   4.061   2.659  0.1639 -0.4097  0.0500
 7449SOL    HW133806   3.878   3.975   2.618  1.7554 -0.2452 -0.4648
 7449SOL    HW233807   3.975   4.080   2.673 -0.6620  3.5174  0.2437
 7450SOL     OW33808   4.069   2.249   5.352 -0.3468  0.0933  0.1890
 7450SOL    HW133809   4.011   2.321   5.326  2.9612  2.4438 -0.6482
 7450SOL    HW233810   4.067   2.197   5.272  2.2674  2.8236 -1.6562
 7451SOL     OW33811   4.635   1.641  17.059  0.1564  0.6995  0.4854
 7451SOL    HW133812   4.653   1.713  17.120  3.8226  0.5714 -0.4623
 7451SOL    HW233813   4.548   1.663  17.026 -0.4227 -0.2227  1.4192
 7452SOL     OW33814   0.589   2.634   8.497  0.3623 -0.1674  0.9927
 7452SOL    HW133815   0.684   2.624   8.489  0.5498  2.0540  0.3950
 7452SOL    HW233816   0.582   2.646   8.592  0.7386 -1.1674  1.1531
 7453SOL     OW33817   3.251   2.960  17.662  0.0562 -0.6110  0.1256
 7453SOL    HW133818   3.333   3.009  17.656 -0.6405  0.5301 -0.2224
 7453SOL    HW233819   3.219   2.991   0.048 -0.1645 -0.7799  0.1048
 7454SOL     OW33820   2.659   2.739  14.767 -0.4491  0.0637  0.2384
 7454SOL    HW133821   2.682   2.750  14.859  0.3830  0.1242  0.0305
 7454SOL    HW233822   2.579   2.792  14.761  0.0980  0.9896  1.0369
 7455SOL     OW33823   0.294   2.603   5.102  0.3449  0.4098  0.1416
 7455SOL    HW133824   0.286   2.510   5.122  2.0238  0.0757 -0.7542
 7455SOL    HW233825   0.211   2.615   5.056 -0.4921 -0.1680  1.4941
 7456SOL     OW33826   2.810   0.933   4.928  0.2339  0.1339  0.5806
 7456SOL    HW133827   2.757   0.988   4.871  0.8697 -0.6121 -0.7309
 7456SOL    HW233828   2.867   0.998   4.970 -0.7859 -0.6245  3.1257
 7457SOL     OW33829   2.979   4.247   6.966 -0.0435  0.0652 -0.0570
 7457SOL    HW133830   2.985   4.153   6.950 -1.4602 -0.3975  2.1099
 7457SOL    HW233831   2.951   4.235   7.057  0.6427  1.8391  0.3706
 7458SOL     OW33832   2.495   3.470  15.766  0.5013 -0.4255 -0.0875
 7458SOL    HW133833   2.524   3.396  15.819  1.0603  0.0986  0.3376
 7458SOL    HW233834   2.457   3.416  15.696 -0.8000  0.6659 -0.2323
 7459SOL     OW33835   2.379   4.385   1.246 -0.0936 -0.7939 -0.1200
 7459SOL    HW133836   2.320   4.434   1.303  1.1627  1.2640 -0.5636
 7459SOL    HW233837   2.443   4.455   1.231 -1.1416  0.6425  2.1290
 7460SOL     OW33838   2.534   4.133  11.604 -0.0487  0.3790 -0.2924
 7460SOL    HW133839   2.513   4.187  11.681 -1.3183 -1.7896  0.8975
 7460SOL    HW233840   2.572   4.202  11.550  0.2922 -0.1766 -0.7481
 7461SOL     OW33841   4.371   1.653  16.697  0.1255 -0.1027 -0.0184
 7461SOL    HW133842   4.369   1.623  16.788 -0.6715  0.5752  0.1833
 7461SOL    HW233843   4.308   1.595  16.654  0.0600  0.5989 -0.8587
 7462SOL     OW33844   1.659   3.497   8.354 -0.3230  0.2820 -0.2485
 7462SOL    HW133845   1.732   3.452   8.313 -0.0033  1.1627 -0.6286
 7462SOL    HW233846   1.589   3.432   8.348  0.7822 -0.8531 -0.6607
 7463SOL     OW33847   2.058   3.176   9.773 -0.4845  0.0349  0.4875
 7463SOL    HW133848   1.974   3.203   9.809 -1.1817 -1.7909  0.2126
 7463SOL    HW233849   2.113   3.245   9.810  1.0083 -0.6332 -0.4729
 7464SOL     OW33850   1.299   1.290   4.874  0.2795  0.1305  0.6444
 7464SOL    HW133851   1.245   1.358   4.914 -1.5259 -0.7911 -0.2236
 7464SOL    HW233852   1.266   1.283   4.784  1.7313  0.8232  0.0666
 7465SOL     OW33853   0.417   3.891   5.978 -0.2665 -0.2015 -0.0026
 7465SOL    HW133854   0.393   3.914   5.888  0.6007  0.5218 -0.0407
 7465SOL    HW233855   0.384   3.801   5.986 -0.4305  0.0821  2.3925
 7466SOL     OW33856   1.068   3.505   3.042  0.1429  0.2652  0.0510
 7466SOL    HW133857   1.141   3.541   2.990 -0.3149 -0.1639 -0.9001
 7466SOL    HW233858   1.121   3.480   3.118  0.1706  4.0643  1.2726
 7467SOL     OW33859   2.800   3.171   7.721  0.4048 -0.3312  0.3499
 7467SOL    HW133860   2.803   3.232   7.796  2.0910  2.7943 -2.2520
 7467SOL    HW233861   2.712   3.135   7.733  0.2424 -0.4849 -1.3178
 7468SOL     OW33862   0.360   0.710   2.231 -0.0234  0.4557  0.3549
 7468SOL    HW133863   0.343   0.686   2.323 -3.1501 -0.7073 -0.5111
 7468SOL    HW233864   0.417   0.787   2.234 -0.0035  0.4265  0.8493
 7469SOL     OW33865   2.241   2.790  11.522  0.6258 -0.3766 -0.0251
 7469SOL    HW133866   2.317   2.769  11.576 -0.5114 -0.2795  1.5924
 7469SOL    HW233867   2.278   2.804  11.435 -0.2888 -0.6803 -0.4632
 7470SOL     OW33868   0.017   3.216   7.901 -0.5529 -0.2002  0.5360
 7470SOL    HW133869   0.063   3.255   7.975 -0.5318 -0.0045  0.4202
 7470SOL    HW233870   0.091   3.184   7.849 -1.0416  0.5283 -0.5873
 7471SOL     OW33871   1.092   1.962   3.763 -0.1746  0.2243  0.0377
 7471SOL    HW133872   1.052   1.976   3.849  0.9617  0.2923  0.5585
 7471SOL    HW233873   1.026   1.908   3.720 -0.6779  0.7045  0.2061
 7472SOL     OW33874   2.966   1.978   8.171 -0.1379  0.0154 -0.8420
 7472SOL    HW133875   2.886   1.974   8.117 -0.4478  0.1723 -0.3973
 7472SOL    HW233876   3.007   1.899   8.135  2.5515  2.0659 -2.2118
 7473SOL     OW33877   1.863   1.194  13.939 -0.3022 -0.1582  0.4304
 7473SOL    HW133878   1.947   1.175  13.981  0.0835 -2.5305 -1.4038
 7473SOL    HW233879   1.815   1.246  14.004  1.2742  0.6943  0.9087
 7474SOL     OW33880   1.473   4.450   3.891 -0.0235 -0.0162  0.0792
 7474SOL    HW133881   1.532   4.380   3.918 -0.3455  0.1572  1.2434
 7474SOL    HW233882   1.513   4.481   3.810 -0.1407  2.8236  1.1305
 7475SOL     OW33883   3.374   1.945   3.802  0.5093 -0.4258  0.0521
 7475SOL    HW133884   3.462   1.924   3.771  0.9555  0.4610  0.7339
 7475SOL    HW233885   3.389   1.980   3.890 -0.4357  0.5691 -0.1881
 7476SOL     OW33886   4.464   3.996   2.575  0.1789 -0.1729 -0.6973
 7476SOL    HW133887   4.504   3.964   2.656  1.0606 -0.2436 -1.1545
 7476SOL    HW233888   4.379   3.953   2.577  0.9198 -1.5383  1.1672
 7477SOL     OW33889   2.319   1.044  16.470  0.1023  0.0287  0.4209
 7477SOL    HW133890   2.361   0.994  16.400  1.8782  1.2584  0.5933
 7477SOL    HW233891   2.250   0.985  16.500  0.8690  0.5147  3.1383
 7478SOL     OW33892   0.288   0.549   0.058 -0.0411  0.3295  0.3741
 7478SOL    HW133893   0.304   0.620  17.695  2.7958  0.3587  1.1491
 7478SOL    HW233894   0.232   0.587   0.125 -3.1362  1.3316 -2.7910
 7479SOL     OW33895   3.205   0.717   7.554  0.4670  0.9943  0.0308
 7479SOL    HW133896   3.167   0.683   7.473  0.5567 -0.5759  0.6501
 7479SOL    HW233897   3.168   0.659   7.621  0.9267  0.4829 -0.1541
 7480SOL     OW33898   3.793   0.954   5.936 -0.3960  0.2404  0.1265
 7480SOL    HW133899   3.841   1.035   5.922 -1.7733  1.1014  0.3823
 7480SOL    HW233900   3.856   0.886   5.911  0.3707  0.7401  0.7099
 7481SOL     OW33901   4.517   2.343   0.876  0.0642  0.0356 -0.4670
 7481SOL    HW133902   4.427   2.337   0.909  0.2152 -1.5099 -0.3611
 7481SOL    HW233903   4.562   2.302   0.950 -1.2334  0.6056  0.6324
 7482SOL     OW33904   3.707   0.469   6.132 -0.2608 -0.5359  0.4261
 7482SOL    HW133905   3.764   0.537   6.096 -1.6186  0.8190  0.8570
 7482SOL    HW233906   3.621   0.510   6.117  1.2902  1.8173 -2.0531
 7483SOL     OW33907   3.081   0.162  10.291 -0.0137  0.5581  0.2214
 7483SOL    HW133908   3.021   0.222  10.335 -0.2756  0.4895 -0.0413
 7483SOL    HW233909   3.130   0.224  10.238  1.7810 -1.1225 -0.0975
 7484SOL     OW33910   1.964   2.701   6.285 -0.3291 -0.6490 -0.1008
 7484SOL    HW133911   1.977   2.796   6.287 -0.0319 -0.6914 -0.0476
 7484SOL    HW233912   1.981   2.678   6.194  0.2421 -0.5016 -0.0308
 7485SOL     OW33913   2.536   2.733   6.322 -0.3820  0.1666  0.0311
 7485SOL    HW133914   2.455   2.704   6.279 -0.5186 -1.9622  1.7207
 7485SOL    HW233915   2.579   2.771   6.246 -1.2383 -2.7416 -1.8998
 7486SOL     OW33916   3.180   3.492  16.811  0.0032  0.3660  0.4021
 7486SOL    HW133917   3.109   3.533  16.763  1.6636  0.8851 -1.6342
 7486SOL    HW233918   3.163   3.401  16.786  0.2079  0.4569 -0.0864
 7487SOL     OW33919   4.018   1.457   5.783 -0.3624 -1.2050 -0.2900
 7487SOL    HW133920   3.940   1.456   5.839 -0.9314 -0.1639 -1.0584
 7487SOL    HW233921   4.067   1.528   5.825  0.4022 -1.6468 -0.4333
 7488SOL     OW33922   2.129   2.581   6.501 -0.1128 -0.2224 -0.3693
 7488SOL    HW133923   2.166   2.668   6.514 -0.1269 -0.0863 -1.2392
 7488SOL    HW233924   2.097   2.598   6.412 -0.3829  1.3455  0.0400
 7489SOL     OW33925   2.853   4.646   3.473 -0.2527  0.2754  0.7414
 7489SOL    HW133926   2.794   4.717   3.499  0.2879  1.0554 -0.1629
 7489SOL    HW233927   2.853   4.652   3.377  2.3665  0.7066  0.7675
 7490SOL     OW33928   3.321   4.443   8.358 -0.1290 -0.2043 -0.4201
 7490SOL    HW133929   3.388   4.403   8.413 -1.5624  1.0658  2.2181
 7490SOL    HW233930   3.357   4.531   8.356  0.3006 -0.3354  2.0569
 7491SOL     OW33931   4.556   3.657   7.393 -0.1979 -0.1323  0.6560
 7491SOL    HW133932   4.520   3.576   7.359 -0.4798 -0.8458  2.6509
 7491SOL    HW233933   4.648   3.633   7.404  0.7170  3.3534  0.5475
 7492SOL     OW33934   2.761   4.159   2.111  0.0112  0.8589 -0.0341
 7492SOL    HW133935   2.836   4.114   2.071 -0.0282  1.0339 -0.3065
 7492SOL    HW233936   2.715   4.190   2.033  0.6586 -0.3017 -0.8756
 7493SOL     OW33937   0.900   2.667  13.535  0.4472  0.3669 -0.5614
 7493SOL    HW133938   0.967   2.603  13.560  0.9697  0.5643 -1.4273
 7493SOL    HW233939   0.896   2.662  13.439 -1.5898 -0.3592 -0.4256
 7494SOL     OW33940   0.754   3.714   4.116  0.2240  0.0001  0.3026
 7494SOL    HW133941   0.713   3.694   4.032 -0.2743 -0.3430  0.6217
 7494SOL    HW233942   0.795   3.795   4.084 -0.2985 -0.2413 -0.9828
 7495SOL     OW33943   1.004   2.552   0.077 -0.3363 -0.0865 -0.3518
 7495SOL    HW133944   1.021   2.469   0.033 -2.4070 -0.8659  0.3608
 7495SOL    HW233945   1.088   2.582   0.112 -0.4462  0.1939 -0.3231
 7496SOL     OW33946   2.187   0.586  12.408  1.1088  0.2932 -0.0093
 7496SOL    HW133947   2.268   0.541  12.432  0.4832 -0.9579 -0.2405
 7496SOL    HW233948   2.173   0.633  12.490 -1.3072 -3.9276  2.0210
 7497SOL     OW33949   1.390   1.320   4.276  0.0981  0.3055 -0.0624
 7497SOL    HW133950   1.335   1.390   4.311 -0.0453  0.7575 -1.1939
 7497SOL    HW233951   1.340   1.284   4.202 -1.1993 -2.5871  2.2369
 7498SOL     OW33952   3.367   1.853   2.059 -0.0013 -0.2330  0.2886
 7498SOL    HW133953   3.303   1.801   2.108 -1.6340  3.8145  2.3799
 7498SOL    HW233954   3.421   1.783   2.022  1.1441  0.6493  0.2931
 7499SOL     OW33955   0.842   0.535  13.348 -0.0956 -0.1845 -0.4846
 7499SOL    HW133956   0.811   0.614  13.392  0.6466 -0.5537  0.7017
 7499SOL    HW233957   0.930   0.532  13.386 -0.6951  0.5039  0.9367
 7500SOL     OW33958   3.342   0.100  17.116  0.0726  0.7754  0.0711
 7500SOL    HW133959   3.327   0.005  17.117  1.7002  0.5178 -0.9483
 7500SOL    HW233960   3.274   0.135  17.059  1.4696  1.8589 -0.9042
 7501SOL     OW33961   4.648   4.153  15.468 -0.2191 -0.4302  0.4032
 7501SOL    HW133962   4.610   4.104  15.395 -0.0920  1.1660 -0.7374
 7501SOL    HW233963   0.013   4.172  15.439  0.0260 -0.8475  0.8772
 7502SOL     OW33964   0.805   3.863  10.374  0.1188 -0.3113  0.5778
 7502SOL    HW133965   0.833   3.954  10.382  1.0200 -0.4792 -0.6945
 7502SOL    HW233966   0.710   3.868  10.363  0.0375 -1.1984  0.8134
 7503SOL     OW33967   3.994   0.535   1.456  0.1012  0.1380  0.1108
 7503SOL    HW133968   4.036   0.485   1.386 -0.0628  3.0545 -2.0407
 7503SOL    HW233969   3.966   0.615   1.413 -2.5324  0.4293  2.3561
 7504SOL     OW33970   2.212   3.777   6.725  0.4755  0.3912  0.5706
 7504SOL    HW133971   2.144   3.821   6.776 -0.9621 -1.6321  0.3645
 7504SOL    HW233972   2.291   3.825   6.752 -1.1954  3.5699 -0.2119
 7505SOL     OW33973   0.004   2.655  14.280  0.0405 -0.2502  0.2734
 7505SOL    HW133974   4.654   2.595  14.277 -0.1300 -0.0847  1.1812
 7505SOL    HW233975   4.688   2.730  14.236 -1.6052 -0.5912  1.2032
 7506SOL     OW33976   0.348   1.589   0.596 -0.0839 -0.0508 -0.0602
 7506SOL    HW133977   0.423   1.558   0.647  0.5017 -0.3783 -1.1255
 7506SOL    HW233978   0.270   1.567   0.647  0.3582 -2.7058 -0.5270
 7507SOL     OW33979   0.317   2.574  14.631 -0.7010 -0.5259  0.4200
 7507SOL    HW133980   0.234   2.555  14.586 -1.3439  1.9447  0.5769
 7507SOL    HW233981   0.354   2.644  14.577 -1.0899  0.8083  1.8911
 7508SOL     OW33982   0.927   4.567  16.723  0.3148  0.1928  0.3164
 7508SOL    HW133983   0.831   4.569  16.729  0.2339 -0.3806 -0.8108
 7508SOL    HW233984   0.946   4.541  16.814  0.7359  2.9970  1.0350
 7509SOL     OW33985   2.858   1.494  15.741  0.4978 -0.1136  0.3093
 7509SOL    HW133986   2.859   1.440  15.661 -1.1095 -1.3394  1.1101
 7509SOL    HW233987   2.926   1.451  15.793  0.9218 -1.7405 -1.5823
 7510SOL     OW33988   3.977   2.535   3.796  0.6848  0.2946  0.3701
 7510SOL    HW133989   3.937   2.618   3.770  3.1890  0.5451 -2.7362
 7510SOL    HW233990   4.067   2.550   3.764 -0.2233 -1.7460 -3.1843
 7511SOL     OW33991   3.255   1.506   5.341  0.2465  0.3158  0.7030
 7511SOL    HW133992   3.179   1.462   5.377 -0.7134 -0.3258 -2.1246
 7511SOL    HW233993   3.312   1.432   5.322  0.0539 -0.3868  2.9064
 7512SOL     OW33994   2.610   2.738   2.491  0.3522  1.0029 -0.2158
 7512SOL    HW133995   2.666   2.800   2.539 -1.5085  0.7743  2.2977
 7512SOL    HW233996   2.666   2.719   2.416  1.3678  0.9574  0.5506
 7513SOL     OW33997   2.745   2.996   7.515 -0.6026  0.2029  0.4411
 7513SOL    HW133998   2.650   3.001   7.501 -0.4892  1.8039  0.1794
 7513SOL    HW233999   2.751   3.088   7.541 -0.6618 -0.1233  1.5752
 7514SOL     OW34000   4.665   1.606   2.268 -0.0509  0.1056  0.4345
 7514SOL    HW134001   4.657   1.613   2.363 -0.4197 -0.3546  0.4338
 7514SOL    HW234002   0.031   1.637   2.259 -0.2476  0.9649  1.3652
 7515SOL     OW34003   1.458   2.782   6.895 -0.4219  0.2099 -0.1774
 7515SOL    HW134004   1.398   2.710   6.917  0.1195  0.1523  1.1371
 7515SOL    HW234005   1.475   2.802   6.987  1.4739 -0.2543 -0.4210
 7516SOL     OW34006   3.030   0.807   7.069 -0.3298  0.3300  0.0852
 7516SOL    HW134007   3.076   0.738   7.020 -0.4492 -0.2998  0.8601
 7516SOL    HW234008   3.037   0.866   6.994 -0.3069 -1.8484 -1.6261
 7517SOL     OW34009   2.610   0.455  15.552 -0.5166 -0.2401 -0.1154
 7517SOL    HW134010   2.705   0.456  15.547 -0.5058 -2.0374 -0.4436
 7517SOL    HW234011   2.598   0.488  15.463  2.1764  0.7822 -0.0870
 7518SOL     OW34012   0.133   3.040   1.799 -0.3452 -0.1471 -0.4048
 7518SOL    HW134013   0.196   3.095   1.847 -0.4649 -0.7669  0.4660
 7518SOL    HW234014   0.078   3.114   1.773 -0.3221  0.3161  0.8320
 7519SOL     OW34015   2.749   4.665   4.649 -0.2495 -0.6217 -0.4892
 7519SOL    HW134016   2.693   0.008   4.687  0.8878  0.8897 -1.4894
 7519SOL    HW234017   2.766   4.711   4.567 -1.1966  1.0964  0.2791
 7520SOL     OW34018   1.877   0.565   3.077 -0.3038 -0.1881  0.0911
 7520SOL    HW134019   1.828   0.637   3.037 -0.5944 -1.3424 -1.6177
 7520SOL    HW234020   1.948   0.613   3.120  0.9683 -1.0386 -1.0599
 7521SOL     OW34021   3.012   2.753   4.532 -0.8333 -0.1126  0.3564
 7521SOL    HW134022   3.093   2.782   4.575 -0.3975 -0.9500  0.0891
 7521SOL    HW234023   2.972   2.836   4.507 -1.4059 -0.6122 -0.3805
 7522SOL     OW34024   0.329   0.535   1.350  0.2081  0.7435 -0.1033
 7522SOL    HW134025   0.400   0.570   1.295 -0.9836  1.6245 -1.0690
 7522SOL    HW234026   0.277   0.472   1.301  1.1041  1.7582 -2.3759
 7523SOL     OW34027   2.790   2.019   2.619 -0.3204 -0.2864 -0.6471
 7523SOL    HW134028   2.776   2.070   2.539  0.9211  0.5200 -0.3642
 7523SOL    HW234029   2.848   1.950   2.587 -1.0007 -1.7355  1.2708
 7524SOL     OW34030   4.354   0.268   9.096  0.4095 -0.4559  0.3865
 7524SOL    HW134031   4.351   0.212   9.174 -1.3435 -1.3355 -0.3030
 7524SOL    HW234032   4.272   0.311   9.119 -0.3585 -0.2750 -2.6620
 7525SOL     OW34033   2.534   3.546   4.611 -0.5391  0.3725  0.3894
 7525SOL    HW134034   2.609   3.499   4.647  0.1151  1.5640  0.5700
 7525SOL    HW234035   2.466   3.479   4.622 -2.3025  1.9192 -1.1860
 7526SOL     OW34036   0.442   2.864   7.816 -0.2892  0.2050  0.4706
 7526SOL    HW134037   0.370   2.892   7.873  1.0129  2.2639  1.0873
 7526SOL    HW234038   0.406   2.785   7.776 -2.7226  1.6652 -0.2350
 7527SOL     OW34039   2.159   2.487  14.510 -0.0749  0.6387  0.3275
 7527SOL    HW134040   2.194   2.576  14.512 -1.8360  1.3356 -0.0562
 7527SOL    HW234041   2.238   2.433  14.513  0.3674  1.0758 -3.7375
 7528SOL     OW34042   0.017   2.748  17.043 -0.5257  0.7236 -0.0267
 7528SOL    HW134043   4.677   2.704  16.987  0.9928  0.9631 -1.9708
 7528SOL    HW234044   0.045   2.817  16.982  1.5454  1.8092  2.1472
 7529SOL     OW34045   3.412   1.031   3.531 -0.5507 -0.1016  0.0598
 7529SOL    HW134046   3.369   1.079   3.460 -2.6073 -1.6060  0.3033
 7529SOL    HW234047   3.458   0.961   3.485 -0.0597 -0.1407  0.6156
 7530SOL     OW34048   0.683   2.523   3.468 -0.1045 -0.0416  0.0343
 7530SOL    HW134049   0.705   2.431   3.452 -0.9548 -0.6181  2.1300
 7530SOL    HW234050   0.593   2.521   3.502  1.1687  2.3433  3.5040
 7531SOL     OW34051   3.927   3.446   8.936  0.2289  0.3557 -0.3952
 7531SOL    HW134052   3.877   3.400   9.004  1.2685  0.7935  0.6691
 7531SOL    HW234053   4.012   3.403   8.934  0.3108  0.4656  0.5244
 7532SOL     OW34054   2.974   0.152   8.437 -0.0056 -0.2139  0.1883
 7532SOL    HW134055   3.035   0.225   8.425  2.3123 -1.9355  1.3618
 7532SOL    HW234056   3.020   0.109   8.509  0.0457 -2.9618 -1.5037
 7533SOL     OW34057   3.310   0.015   0.268  0.0593 -0.2256  0.2156
 7533SOL    HW134058   3.362   0.073   0.212  0.4719 -0.6502  0.1534
 7533SOL    HW234059   3.230   0.018   0.216 -1.1380 -0.5854  2.0344
 7534SOL     OW34060   2.468   4.165   7.223 -0.0034 -0.5360 -0.6680
 7534SOL    HW134061   2.512   4.233   7.172  0.6494 -0.8870 -0.5703
 7534SOL    HW234062   2.466   4.199   7.313  0.4798 -1.1501 -0.4259
 7535SOL     OW34063   2.478   1.930  11.297 -0.7604  0.6818  0.4471
 7535SOL    HW134064   2.519   2.012  11.271  0.4677  0.7714  2.6564
 7535SOL    HW234065   2.510   1.923  11.387  1.8464  1.1889 -0.4529
 7536SOL     OW34066   0.633   1.698  15.735  0.2150 -0.0191  0.2394
 7536SOL    HW134067   0.710   1.754  15.733  1.4401 -1.7466 -1.9917
 7536SOL    HW234068   0.603   1.731  15.650 -0.6236 -0.0760  0.5086
 7537SOL     OW34069   0.470   3.370   7.684 -0.0748 -0.0544 -0.2697
 7537SOL    HW134070   0.401   3.312   7.653  0.2788  0.4886 -2.0835
 7537SOL    HW234071   0.450   3.389   7.776  1.5816  0.9079 -0.0982
 7538SOL     OW34072   2.782   1.297  13.303 -0.2952  0.6624  0.4091
 7538SOL    HW134073   2.742   1.245  13.373  1.6027 -0.2191  0.8185
 7538SOL    HW234074   2.786   1.234  13.231  1.6289  1.6019 -0.2765
 7539SOL     OW34075   0.429   4.684  11.587 -0.1512 -0.3988  0.1556
 7539SOL    HW134076   0.392   0.029  11.641 -1.0145 -1.3971  0.8595
 7539SOL    HW234077   0.422   4.716  11.497 -1.0980  3.9391  1.7723
 7540SOL     OW34078   3.926   3.592  11.359 -0.4001 -0.0775  0.2055
 7540SOL    HW134079   3.896   3.504  11.338  0.4677 -0.6669  1.4534
 7540SOL    HW234080   3.944   3.627  11.271 -0.4520  1.6047  0.8475
 7541SOL     OW34081   1.197   4.225   6.431  0.7700 -0.1302  0.5349
 7541SOL    HW134082   1.138   4.250   6.502  0.5592 -0.5152  0.4925
 7541SOL    HW234083   1.240   4.306   6.404 -0.2304  0.2022 -0.0723
 7542SOL     OW34084   0.270   1.684   6.914 -0.2755 -0.9823 -0.0133
 7542SOL    HW134085   0.322   1.671   6.835  2.2877  1.1926  1.3358
 7542SOL    HW234086   0.326   1.751   6.952 -4.1022  2.3425 -0.1316
 7543SOL     OW34087   3.566   0.458  10.641  0.3793  0.3139  0.1574
 7543SOL    HW134088   3.471   0.472  10.650  0.5393  0.1684  2.0505
 7543SOL    HW234089   3.564   0.390  10.574 -2.0899  1.0224 -0.5077
 7544SOL     OW34090   4.515   4.160   6.379 -0.2403  0.2927  0.0599
 7544SOL    HW134091   4.597   4.124   6.344 -0.9547 -0.6856 -0.5940
 7544SOL    HW234092   4.550   4.188   6.464 -0.3759  1.0402 -0.1276
 7545SOL     OW34093   3.692   4.260   7.713  0.0292 -0.3836 -0.2337
 7545SOL    HW134094   3.753   4.286   7.782 -0.3304  3.1739 -1.2355
 7545SOL    HW234095   3.614   4.299   7.752 -2.0183 -3.3779 -1.3151
 7546SOL     OW34096   2.501   2.364   8.994 -0.4732  0.3719  0.5366
 7546SOL    HW134097   2.477   2.447   9.034 -0.3714  1.0950 -0.8942
 7546SOL    HW234098   2.444   2.304   9.042 -0.7338 -0.4102 -0.7365
 7547SOL     OW34099   3.983   1.778  14.231 -0.1406 -0.0817 -0.0685
 7547SOL    HW134100   3.984   1.869  14.201  1.7962  0.0260  0.3435
 7547SOL    HW234101   4.049   1.739  14.174 -0.7637  0.3888 -1.1134
 7548SOL     OW34102   0.214   0.870   3.936 -0.1987  0.7229 -0.5228
 7548SOL    HW134103   0.238   0.902   4.022 -0.3727  2.3579 -1.0922
 7548SOL    HW234104   0.128   0.911   3.935 -0.3003  0.5713  1.4902
 7549SOL     OW34105   4.458   1.252   8.418  0.1406 -0.2038 -0.4079
 7549SOL    HW134106   4.530   1.214   8.367 -0.3047 -0.4587 -0.8564
 7549SOL    HW234107   4.423   1.169   8.452 -0.1057  0.9027  2.0009
 7550SOL     OW34108   0.818   4.545   6.081  0.3691 -0.2971 -0.2415
 7550SOL    HW134109   0.821   4.573   5.990  1.3407  0.3578 -0.0063
 7550SOL    HW234110   0.810   4.450   6.077  0.1627 -0.3795  1.7889
 7551SOL     OW34111   4.020   0.618  11.911  0.1391  0.1040 -0.1102
 7551SOL    HW134112   3.952   0.577  11.858 -1.2826  0.2741  1.5849
 7551SOL    HW234113   4.101   0.571  11.890 -0.0388 -0.5266  0.6181
 7552SOL     OW34114   2.924   3.274  17.494 -0.0826 -0.7641 -0.0953
 7552SOL    HW134115   2.887   3.200  17.445 -1.6532 -1.7351  2.5263
 7552SOL    HW234116   3.014   3.267  17.461  0.1032 -2.0637  0.6970
 7553SOL     OW34117   3.727   0.426   7.091 -0.2947  0.5471 -0.0277
 7553SOL    HW134118   3.693   0.354   7.038 -1.1753  1.2022 -0.3378
 7553SOL    HW234119   3.771   0.474   7.021  0.2291  0.5296  0.2871
 7554SOL     OW34120   0.511   1.472   4.720 -0.9959  0.2139  0.1301
 7554SOL    HW134121   0.446   1.527   4.678  0.6767  1.4287 -0.8240
 7554SOL    HW234122   0.592   1.509   4.687 -2.6690  2.7712 -1.0564
 7555SOL     OW34123   1.027   0.371  13.153  0.3110  0.0459 -0.1537
 7555SOL    HW134124   1.052   0.418  13.073  2.1165 -1.1681 -0.3092
 7555SOL    HW234125   1.044   0.445  13.211  1.3832 -0.9427  0.7994
 7556SOL     OW34126   3.031   0.976   3.441 -0.3014  0.2068 -0.3653
 7556SOL    HW134127   2.947   1.019   3.457  0.4227  1.2566  0.6901
 7556SOL    HW234128   3.055   1.010   3.355 -0.8947  1.7970  0.0856
 7557SOL     OW34129   1.609   3.028   2.842  0.5796 -0.1928 -0.0161
 7557SOL    HW134130   1.539   3.082   2.878  0.5456 -0.8297  0.8625
 7557SOL    HW234131   1.617   3.069   2.756 -0.0660  0.2400  0.1359
 7558SOL     OW34132   3.943   2.605   6.714  0.3826 -0.1100  0.2322
 7558SOL    HW134133   3.885   2.557   6.656  1.2483 -0.3003 -0.4835
 7558SOL    HW234134   3.998   2.531   6.739 -0.2759 -1.5909 -2.7846
 7559SOL     OW34135   2.026   3.720   1.453  0.0394 -0.0858  0.4647
 7559SOL    HW134136   2.050   3.808   1.423 -1.8681 -0.1146 -1.1420
 7559SOL    HW234137   2.071   3.670   1.385 -0.8166 -1.9588  1.2766
 7560SOL     OW34138   1.014   3.816   4.840  0.7151 -0.4858 -0.6220
 7560SOL    HW134139   1.077   3.832   4.910 -0.5739 -0.0197  0.4358
 7560SOL    HW234140   1.076   3.778   4.778  2.2774  0.1513  0.5658
 7561SOL     OW34141   4.398   2.125   0.205 -0.0492  0.7001  0.1943
 7561SOL    HW134142   4.359   2.190   0.147  0.7597  0.2550 -0.8565
 7561SOL    HW234143   4.454   2.174   0.266  1.2646 -0.5378  0.0050
 7562SOL     OW34144   0.046   1.343   2.412  0.0172 -0.3541 -0.5946
 7562SOL    HW134145   4.700   1.397   2.377  0.2311 -0.0298 -0.5168
 7562SOL    HW234146   0.061   1.277   2.344  0.7957  0.0011 -0.7625
 7563SOL     OW34147   0.837   4.270   6.134 -0.4857 -0.1731  0.4067
 7563SOL    HW134148   0.779   4.199   6.106 -1.3528  0.6735  0.0621
 7563SOL    HW234149   0.828   4.256   6.228  0.5226 -0.6791  0.4301
 7564SOL     OW34150   1.290   0.819   3.116 -0.7177 -0.6425 -0.5861
 7564SOL    HW134151   1.363   0.810   3.055  0.0369  0.2127  0.1783
 7564SOL    HW234152   1.270   0.911   3.099 -2.3706 -0.5380  1.9168
 7565SOL     OW34153   4.214   2.298   6.352  0.0307 -0.2491  0.0999
 7565SOL    HW134154   4.300   2.335   6.369 -0.3712  1.7177 -2.1924
 7565SOL    HW234155   4.160   2.376   6.348 -1.1139 -1.0077  0.6084
 7566SOL     OW34156   2.570   2.149   7.063  0.3141 -0.4591 -0.0164
 7566SOL    HW134157   2.632   2.222   7.063 -2.0872  1.5971 -1.0350
 7566SOL    HW234158   2.598   2.089   7.132  0.5348 -2.5114 -1.8981
 7567SOL     OW34159   2.580   4.209   1.914 -0.1890  0.1315 -0.3986
 7567SOL    HW134160   2.528   4.142   1.870  1.1867 -0.9028 -0.4759
 7567SOL    HW234161   2.628   4.245   1.839 -1.7010  0.4417 -1.2107
 7568SOL     OW34162   0.350   0.350   3.484 -0.2433 -0.3753 -0.9010
 7568SOL    HW134163   0.276   0.406   3.460  0.8349  0.2429 -2.7692
 7568SOL    HW234164   0.361   0.371   3.577 -0.3683 -1.5479 -0.6262
 7569SOL     OW34165   1.019   3.084  14.768 -0.9835  0.2824  0.2381
 7569SOL    HW134166   1.028   2.999  14.726  0.0944 -0.3868  1.8392
 7569SOL    HW234167   1.025   3.128  14.683  1.0645  0.0978  0.2977
 7570SOL     OW34168   4.060   1.419  14.374  0.0063 -0.2186  0.6140
 7570SOL    HW134169   4.027   1.384  14.457 -2.3331  1.6433  0.4667
 7570SOL    HW234170   3.973   1.406  14.337  0.3474 -0.0805 -0.2289
 7571SOL     OW34171   3.708   1.447  14.841  0.2154  0.4457 -0.3799
 7571SOL    HW134172   3.759   1.527  14.828 -1.4927  1.5903 -0.1676
 7571SOL    HW234173   3.734   1.409  14.757  1.7257 -0.3261  0.4557
 7572SOL     OW34174   2.030   2.761  16.477 -0.0656 -0.3592 -0.0262
 7572SOL    HW134175   2.011   2.840  16.528  2.4733 -0.2647  0.7628
 7572SOL    HW234176   2.109   2.795  16.434  1.0657 -1.7338  0.9565
 7573SOL     OW34177   3.873   0.005  12.948 -0.4007 -0.1285  0.6213
 7573SOL    HW134178   3.786   4.708  12.982 -1.2742 -0.3033 -1.7477
 7573SOL    HW234179   3.930   4.691  13.014 -2.4056  0.5314  2.7464
 7574SOL     OW34180   4.003   4.520   2.514 -0.1439 -0.7320 -0.6066
 7574SOL    HW134181   4.047   4.598   2.481 -6.0820  2.3603 -1.1207
 7574SOL    HW234182   3.931   4.557   2.565  0.8365 -0.5526  0.6218
 7575SOL     OW34183   0.224   3.624   7.806 -0.1731  0.6596 -0.4231
 7575SOL    HW134184   0.248   3.678   7.731 -1.5943  0.8053 -0.7870
 7575SOL    HW234185   0.174   3.561   7.753 -0.1412 -0.4622  0.8969
 7576SOL     OW34186   3.197   1.037   4.707  0.6145 -0.2225  0.0485
 7576SOL    HW134187   3.292   1.046   4.703  0.4302  0.2944 -2.9889
 7576SOL    HW234188   3.171   0.990   4.628 -1.8873  0.8327  0.2271
 7577SOL     OW34189   1.997   4.620   8.866 -0.3814 -0.0617  0.0437
 7577SOL    HW134190   1.990   4.686   8.935 -0.7641  0.9801 -1.0048
 7577SOL    HW234191   1.904   4.607   8.849 -0.1455 -1.4745 -0.1615
 7578SOL     OW34192   0.319   2.620   3.818 -0.0793  0.1622  0.0993
 7578SOL    HW134193   0.239   2.669   3.798 -1.6637 -3.1587 -1.7246
 7578SOL    HW234194   0.362   2.687   3.871  1.7103 -0.3695 -0.6819
 7579SOL     OW34195   2.882   3.960   8.001 -0.1310 -0.1909 -0.2619
 7579SOL    HW134196   2.821   4.028   8.029 -0.2126 -0.1912 -0.4402
 7579SOL    HW234197   2.821   3.907   7.950 -0.0332 -0.2504 -0.3153
 7580SOL     OW34198   0.442   2.471  12.305  0.5413  0.0119 -0.2937
 7580SOL    HW134199   0.471   2.546  12.254 -0.1511  0.8110  0.4952
 7580SOL    HW234200   0.516   2.455  12.363  1.5819  0.7641 -1.4067
 7581SOL     OW34201   1.611   3.992   8.229 -0.0549 -0.5060 -0.0333
 7581SOL    HW134202   1.603   3.901   8.257  1.2424 -1.0259 -1.3259
 7581SOL    HW234203   1.703   3.999   8.203 -0.1136  1.2721  0.2457
 7582SOL     OW34204   2.418   0.969  14.250  0.2212 -0.1922  0.2849
 7582SOL    HW134205   2.379   0.995  14.167 -1.5300  0.3723  1.2824
 7582SOL    HW234206   2.346   0.913  14.278  0.2023 -0.4252 -0.2283
 7583SOL     OW34207   1.484   2.568   3.293 -0.1869 -0.1046 -0.2863
 7583SOL    HW134208   1.441   2.629   3.353 -1.2492 -0.4420 -0.6981
 7583SOL    HW234209   1.470   2.490   3.347  0.9310 -1.0641 -1.3796
 7584SOL     OW34210   2.495   0.986   6.801 -0.1886 -0.2524  0.4003
 7584SOL    HW134211   2.537   0.907   6.768  0.1699  0.5994 -1.1730
 7584SOL    HW234212   2.535   1.056   6.751 -0.7162  2.2705  3.5354
 7585SOL     OW34213   1.694   0.259  13.621  0.0970  0.2799 -0.4144
 7585SOL    HW134214   1.717   0.263  13.714 -2.6949  1.6756  0.2427
 7585SOL    HW234215   1.623   0.195  13.626  0.4577  0.0817  2.2641
 7586SOL     OW34216   2.426   2.638  10.505  0.5905  0.2924  0.7779
 7586SOL    HW134217   2.441   2.560  10.558 -1.4578 -0.3772  0.3935
 7586SOL    HW234218   2.349   2.673  10.551 -0.1940 -2.3370  1.5115
 7587SOL     OW34219   0.508   1.064   0.103 -0.2650 -0.5811  0.4831
 7587SOL    HW134220   0.556   1.104   0.175  0.3641 -0.4534 -0.0074
 7587SOL    HW234221   0.581   1.044   0.045 -1.3318 -1.4936 -0.5609
 7588SOL     OW34222   4.138   4.657   6.966  0.0285 -0.0502 -0.5918
 7588SOL    HW134223   4.159   4.694   6.881  0.7647 -0.6707 -0.6861
 7588SOL    HW234224   4.047   4.637   6.948 -0.1508 -1.8714  2.2438
 7589SOL     OW34225   2.916   2.810   3.156  0.5016  0.2586 -0.3687
 7589SOL    HW134226   2.826   2.843   3.146  1.0218  1.7794 -0.1163
 7589SOL    HW234227   2.922   2.739   3.093  2.7844  0.8738 -0.8356
 7590SOL     OW34228   2.458   3.742   8.972  0.6681 -0.5433 -0.4118
 7590SOL    HW134229   2.460   3.729   9.067 -1.1099 -0.9632 -0.4267
 7590SOL    HW234230   2.369   3.777   8.966 -0.5410 -3.9867 -2.1517
 7591SOL     OW34231   4.580   3.291   9.022  0.2948 -0.1383 -0.0751
 7591SOL    HW134232   4.675   3.301   9.023  0.4436 -1.4529 -0.3408
 7591SOL    HW234233   4.553   3.265   9.110 -0.9854 -2.0537 -1.0253
 7592SOL     OW34234   1.355   2.534   3.059 -0.2630  0.3265 -0.2632
 7592SOL    HW134235   1.341   2.447   3.021  1.4151 -0.0643  0.0069
 7592SOL    HW234236   1.411   2.518   3.135 -0.7404 -0.6049 -0.1001
 7593SOL     OW34237   3.917   0.322  15.987  0.4310 -0.0606 -0.4889
 7593SOL    HW134238   3.951   0.254  16.045  0.1225  0.1180 -0.1003
 7593SOL    HW234239   3.895   0.252  15.925  0.5969  0.6836 -1.3975
 7594SOL     OW34240   4.335   1.228   2.074  0.3368  0.0055  0.1773
 7594SOL    HW134241   4.415   1.276   2.096  0.9511 -0.5864 -0.7623
 7594SOL    HW234242   4.317   1.176   2.152  0.5340  1.1190  0.9503
 7595SOL     OW34243   2.969   3.185   2.232 -0.9529 -0.4067 -0.0700
 7595SOL    HW134244   3.010   3.112   2.186  1.0421 -0.6341  2.0714
 7595SOL    HW234245   2.914   3.143   2.298  0.6961 -0.1386  1.4569
 7596SOL     OW34246   2.644   1.739  12.250 -0.2729 -0.1174  0.3069
 7596SOL    HW134247   2.574   1.804  12.255 -2.8575 -2.8341 -0.2552
 7596SOL    HW234248   2.710   1.775  12.308 -1.2790 -0.2335  1.5297
 7597SOL     OW34249   1.419   0.186   8.799 -0.0209 -0.1886  0.3961
 7597SOL    HW134250   1.478   0.188   8.723 -0.5607 -0.7379 -0.0418
 7597SOL    HW234251   1.348   0.234   8.756 -1.4358 -0.9842  1.8572
 7598SOL     OW34252   2.259   4.374   6.468 -0.4592 -0.3235  0.0581
 7598SOL    HW134253   2.337   4.413   6.508  0.5728 -1.3946 -0.9109
 7598SOL    HW234254   2.205   4.453   6.469 -2.5459 -1.7602  1.0754
 7599SOL     OW34255   3.127   1.536   8.141 -0.0742 -0.0907 -0.4075
 7599SOL    HW134256   3.145   1.453   8.185 -1.5303 -0.3526 -0.3237
 7599SOL    HW234257   3.211   1.582   8.149 -0.4525  0.7297 -1.0662
 7600SOL     OW34258   4.273   3.874   5.749 -0.7590  0.3709  0.0444
 7600SOL    HW134259   4.180   3.885   5.731 -0.9065  1.5206  1.5401
 7600SOL    HW234260   4.281   3.914   5.836 -1.5622  0.4122  0.1015
 7601SOL     OW34261   1.931   3.931   5.623 -0.1125  0.0661  0.3828
 7601SOL    HW134262   1.895   3.947   5.710 -3.1002  0.0745 -0.8441
 7601SOL    HW234263   2.024   3.941   5.645  0.0696 -0.6646 -0.0612
 7602SOL     OW34264   3.582   0.423  14.808 -0.2202 -0.0762  0.3256
 7602SOL    HW134265   3.647   0.371  14.760 -0.5911 -0.3103  0.0647
 7602SOL    HW234266   3.640   0.486  14.850  0.9546 -0.5918 -0.5115
 7603SOL     OW34267   3.357   1.280   4.487  0.4123  0.7578  0.1082
 7603SOL    HW134268   3.378   1.218   4.556 -2.6269 -1.5280 -0.9908
 7603SOL    HW234269   3.297   1.336   4.536 -0.6862 -0.0239 -0.3400
 7604SOL     OW34270   0.226   3.622   5.063  0.2982  0.3758  0.1994
 7604SOL    HW134271   0.321   3.616   5.056  0.1037 -1.6301 -0.7587
 7604SOL    HW234272   0.219   3.711   5.098  2.6421  0.5945  0.1449
 7605SOL     OW34273   0.246   0.310   6.021 -0.3188  0.0747 -0.5969
 7605SOL    HW134274   0.209   0.363   6.092 -0.8324 -0.8762 -0.1512
 7605SOL    HW234275   0.229   0.221   6.052  3.4464 -1.5451 -3.2430
 7606SOL     OW34276   0.908   1.459   3.371 -0.0124  0.4379 -0.2756
 7606SOL    HW134277   0.861   1.376   3.368  1.1630 -0.1372 -2.6093
 7606SOL    HW234278   0.905   1.492   3.281 -0.4514 -2.5735 -1.3434
 7607SOL     OW34279   1.344   1.684   3.612 -0.1954 -0.0922  0.1102
 7607SOL    HW134280   1.404   1.643   3.550 -0.8049 -0.7725 -0.0313
 7607SOL    HW234281   1.258   1.644   3.600 -0.1559  0.1705 -1.0384
 7608SOL     OW34282   3.186   4.717  14.842 -0.3758 -0.1230 -0.2146
 7608SOL    HW134283   3.175   4.715  14.937  0.5422  0.3475 -0.1005
 7608SOL    HW234284   3.116   4.662  14.806 -2.2020  1.8455  0.3398
 7609SOL     OW34285   4.353   2.450   7.861 -0.0722  0.1680  0.9510
 7609SOL    HW134286   4.308   2.505   7.925  0.2222 -0.4813  1.7091
 7609SOL    HW234287   4.356   2.503   7.781 -0.5958  1.0425  1.5107
 7610SOL     OW34288   0.046   1.021   5.181  0.4926 -0.8604 -0.3745
 7610SOL    HW134289   4.686   0.990   5.147  0.3155 -0.2740 -0.4676
 7610SOL    HW234290   0.106   1.010   5.107 -1.6110  2.3275 -2.5829
 7611SOL     OW34291   4.550   3.206  12.412  0.2809 -0.4733 -1.1584
 7611SOL    HW134292   4.622   3.150  12.384 -0.4286 -1.0148 -1.9273
 7611SOL    HW234293   4.559   3.279  12.350  0.8490 -1.6120 -2.4031
 7612SOL     OW34294   0.706   4.657   0.078  0.0020 -0.1891 -0.7003
 7612SOL    HW134295   0.690   4.658   0.172 -0.5552 -0.4842 -0.7867
 7612SOL    HW234296   0.776   4.720   0.061 -0.1110  0.4229  1.1878
 7613SOL     OW34297   3.324   3.702   7.793 -0.7073 -0.4032 -0.1711
 7613SOL    HW134298   3.247   3.726   7.742 -0.5927  1.1297  0.3862
 7613SOL    HW234299   3.278   3.663   7.868  0.3227 -0.2745  0.5289
 7614SOL     OW34300   0.107   0.245  16.932  0.3009 -0.8155 -0.1339
 7614SOL    HW134301   0.122   0.310  16.863  1.2206 -0.7593  0.1280
 7614SOL    HW234302   0.194   0.233  16.969  0.0378 -1.6246  0.2015
 7615SOL     OW34303   0.884   0.820   4.970  0.1166  0.0590 -0.0267
 7615SOL    HW134304   0.860   0.823   5.062  0.2681 -1.0695  0.0482
 7615SOL    HW234305   0.801   0.846   4.930  0.1911  1.3980  0.7104
 7616SOL     OW34306   3.580   0.205  12.441  0.3520  0.6319 -0.3689
 7616SOL    HW134307   3.669   0.175  12.420  0.9361  1.1840  1.3356
 7616SOL    HW234308   3.547   0.129  12.488  0.3683  0.1629 -1.1130
 7617SOL     OW34309   0.671   0.523   6.459  0.7665  0.0457 -0.1217
 7617SOL    HW134310   0.692   0.521   6.366  1.9883  1.6656  0.1235
 7617SOL    HW234311   0.607   0.452   6.461 -0.6864  1.3464 -0.1346
 7618SOL     OW34312   1.370   1.965  11.443 -0.1555 -0.3751  0.4858
 7618SOL    HW134313   1.321   2.040  11.412  1.3773  1.1529  1.7738
 7618SOL    HW234314   1.410   2.006  11.519 -3.6523  1.7039  1.1815
 7619SOL     OW34315   4.601   1.261   0.581 -0.3789  0.2220 -0.0615
 7619SOL    HW134316   4.601   1.226   0.492 -0.7561 -0.7910  0.3265
 7619SOL    HW234317   4.530   1.213   0.625  0.5665 -0.8475  0.2888
 7620SOL     OW34318   4.337   0.205   4.767 -0.3232  0.0006  0.3705
 7620SOL    HW134319   4.335   0.275   4.702  2.9409  0.6959  0.9646
 7620SOL    HW234320   4.255   0.216   4.815 -2.0139 -1.9422 -2.0941
 7621SOL     OW34321   1.511   2.506   5.946  0.1635 -0.0198 -0.1384
 7621SOL    HW134322   1.416   2.506   5.935  0.0251 -1.5723  1.0873
 7621SOL    HW234323   1.527   2.581   5.889  2.0915 -1.9605 -2.1636
 7622SOL     OW34324   4.326   3.981   5.988 -0.2855  0.3946 -0.0231
 7622SOL    HW134325   4.345   4.071   6.015  0.3953  0.1488  0.3273
 7622SOL    HW234326   4.368   3.938   6.063 -1.9695 -1.9328 -0.4419
 7623SOL     OW34327   3.904   0.115  15.792 -0.3706  0.0499 -0.4877
 7623SOL    HW134328   3.914   0.020  15.798 -0.8160 -0.1545 -2.8634
 7623SOL    HW234329   3.875   0.128  15.701  1.1596 -1.5190 -1.2140
 7624SOL     OW34330   0.426   2.892   8.182  0.1359 -0.2431  0.3704
 7624SOL    HW134331   0.379   2.831   8.124  0.8745  0.0868 -0.5606
 7624SOL    HW234332   0.415   2.847   8.266  1.2252  2.5748  1.9987
 7625SOL     OW34333   3.462   1.526   7.334  0.4659 -0.3779 -0.4887
 7625SOL    HW134334   3.498   1.462   7.395  0.0313 -0.1825 -0.0300
 7625SOL    HW234335   3.371   1.497   7.339  0.4364 -0.1726  0.2317
 7626SOL     OW34336   2.014   0.556   6.441 -0.0103  0.0439  0.6430
 7626SOL    HW134337   1.983   0.466   6.451  1.8415 -0.6937 -0.2424
 7626SOL    HW234338   1.959   0.589   6.370 -1.2872  1.7511  2.4121
 7627SOL     OW34339   1.705   4.224   8.676  0.3969 -0.2866  0.2321
 7627SOL    HW134340   1.777   4.251   8.733 -0.5729 -0.3336  1.4775
 7627SOL    HW234341   1.629   4.260   8.721  0.3993  0.3776 -0.3001
 7628SOL     OW34342   2.107   4.602  17.589 -0.3436 -0.1873  0.1176
 7628SOL    HW134343   2.013   4.596  17.604 -0.5190 -0.2118 -0.9947
 7628SOL    HW234344   2.117   4.557  17.505 -3.3149  1.9325 -1.4073
 7629SOL     OW34345   1.650   2.710   7.838  0.0282  0.2479 -0.3361
 7629SOL    HW134346   1.592   2.787   7.838  0.5127  0.6081 -0.1478
 7629SOL    HW234347   1.707   2.744   7.770  1.4144 -0.8140  0.2960
 7630SOL     OW34348   1.189   1.429   8.480 -0.5035  0.4579  0.0567
 7630SOL    HW134349   1.230   1.439   8.566 -2.4035  1.7556  0.7987
 7630SOL    HW234350   1.254   1.481   8.432 -1.2729  2.2271  0.9210
 7631SOL     OW34351   3.613   0.226   6.305  0.3536 -0.1233 -0.1633
 7631SOL    HW134352   3.527   0.217   6.266  1.2175 -0.3551 -1.9877
 7631SOL    HW234353   3.648   0.292   6.245 -0.3160  1.7994  1.5664
 7632SOL     OW34354   2.849   3.980  11.628  0.2893  0.2633  0.0065
 7632SOL    HW134355   2.775   3.940  11.674 -0.6633 -0.8728 -2.5429
 7632SOL    HW234356   2.808   4.036  11.562  1.5532  0.3206 -0.7286
 7633SOL     OW34357   2.619   1.334   7.123  0.5701  0.0415 -0.5045
 7633SOL    HW134358   2.581   1.410   7.167 -0.5499 -1.3756  0.9774
 7633SOL    HW234359   2.672   1.289   7.189 -0.6274 -1.3188 -0.4731
 7634SOL     OW34360   4.601   1.637  11.065  0.1427  0.7130 -0.1687
 7634SOL    HW134361   4.609   1.680  10.980 -1.1345 -0.7521 -1.0078
 7634SOL    HW234362   4.511   1.608  11.053  0.2073  1.1706 -1.8156
 7635SOL     OW34363   0.178   3.551  13.471  0.3673  0.3885  0.4371
 7635SOL    HW134364   0.113   3.491  13.433 -0.0754  1.5092 -0.5513
 7635SOL    HW234365   0.118   3.620  13.501  1.4447  1.7000 -0.4726
 7636SOL     OW34366   3.992   0.778   6.519 -0.3894 -0.3441 -0.1082
 7636SOL    HW134367   3.963   0.810   6.605 -0.6960 -0.3990 -0.1914
 7636SOL    HW234368   3.980   0.684   6.530  0.3262 -0.4107  0.1274
 7637SOL     OW34369   0.132   3.885   4.172 -0.3023  0.1010  0.4710
 7637SOL    HW134370   0.223   3.908   4.193 -0.8723  0.8934  2.0889
 7637SOL    HW234371   0.085   3.897   4.255  0.2771 -0.8717  0.9450
 7638SOL     OW34372   3.237   3.259   4.924 -0.2626 -0.6673 -0.7826
 7638SOL    HW134373   3.210   3.197   4.857 -2.5742 -0.3305 -0.1629
 7638SOL    HW234374   3.276   3.334   4.879 -2.2140 -0.1982 -1.6767
 7639SOL     OW34375   1.295   0.590   3.607 -0.2819  0.4042  0.1770
 7639SOL    HW134376   1.241   0.606   3.529  1.1193 -0.5361 -0.9876
 7639SOL    HW234377   1.317   0.497   3.599 -0.3547  0.3200  0.9550
 7640SOL     OW34378   4.405   1.485   6.055 -0.6175 -0.1499 -0.0421
 7640SOL    HW134379   4.435   1.409   6.005 -0.2521 -1.1944  1.7691
 7640SOL    HW234380   4.333   1.453   6.108 -0.6531  0.4868  0.2938
 7641SOL     OW34381   2.240   3.627   6.196  0.4384 -0.2809 -0.2782
 7641SOL    HW134382   2.335   3.629   6.190  0.6036 -0.8738  1.9910
 7641SOL    HW234383   2.212   3.686   6.126  0.0885  2.4388  2.1511
 7642SOL     OW34384   3.460   0.017  12.605 -0.5501  0.4645 -0.4300
 7642SOL    HW134385   3.502   4.657  12.622 -1.0159  0.3221 -0.0108
 7642SOL    HW234386   3.399   0.028  12.677  2.3796  2.3524  1.7495
 7643SOL     OW34387   0.696   1.264   3.285  0.0833 -0.1027  0.0255
 7643SOL    HW134388   0.710   1.256   3.190 -0.4989 -1.7400  0.0777
 7643SOL    HW234389   0.668   1.176   3.311 -0.4042  0.6042  1.8733
 7644SOL     OW34390   0.681   4.131   8.427 -0.0334  0.2592 -0.1776
 7644SOL    HW134391   0.620   4.205   8.433 -0.8376 -0.3906 -0.3054
 7644SOL    HW234392   0.733   4.139   8.507 -3.2641 -0.6186  2.0528
 7645SOL     OW34393   3.079   0.472  11.556  0.1166  0.0945 -0.2622
 7645SOL    HW134394   3.127   0.491  11.476  1.9801 -0.7019  0.6614
 7645SOL    HW234395   3.149   0.451  11.618  1.5715  2.5142 -1.1085
 7646SOL     OW34396   2.404   0.897  13.659 -0.0951 -0.0067  0.3714
 7646SOL    HW134397   2.493   0.893  13.626 -0.1708 -1.6349  0.3549
 7646SOL    HW234398   2.353   0.963  13.612  0.4042  0.4820  0.5233
 7647SOL     OW34399   3.512   0.751   4.891  0.2389 -0.2203  0.4211
 7647SOL    HW134400   3.580   0.785   4.948  0.2846 -1.1201  0.9069
 7647SOL    HW234401   3.555   0.744   4.806 -1.0991  0.0808 -0.2862
 7648SOL     OW34402   3.479   2.157  13.542 -0.1979  0.0354  0.1498
 7648SOL    HW134403   3.416   2.167  13.470 -0.6140 -0.0709  0.4949
 7648SOL    HW234404   3.487   2.062  13.545 -1.0909 -0.0883 -1.9226
 7649SOL     OW34405   3.859   2.191   8.413 -0.3810 -0.2535 -0.2221
 7649SOL    HW134406   3.838   2.106   8.450 -0.3336  0.1360  0.6908
 7649SOL    HW234407   3.829   2.253   8.479  0.7759 -0.0113  0.0731
 7650SOL     OW34408   2.906   2.058   8.696  0.1257 -0.2203  0.5949
 7650SOL    HW134409   2.962   2.113   8.751  0.7132  0.9564 -1.1687
 7650SOL    HW234410   2.888   1.986   8.756 -0.1925 -1.2348 -0.7306
 7651SOL     OW34411   3.390   3.638   4.115 -0.0573  0.5041  0.4077
 7651SOL    HW134412   3.484   3.637   4.099 -0.0865  0.0264  0.2831
 7651SOL    HW234413   3.369   3.720   4.071  0.6944  0.7217  0.4429
 7652SOL     OW34414   3.765   0.377   8.069 -0.3294  0.0269  0.3032
 7652SOL    HW134415   3.782   0.341   7.982  0.9422  0.1278  0.5096
 7652SOL    HW234416   3.841   0.336   8.110 -1.5688 -3.9791 -1.4195
 7653SOL     OW34417   3.668   2.387   5.385  0.0580  0.2137  0.2972
 7653SOL    HW134418   3.743   2.391   5.325  0.7785 -1.4406  1.0784
 7653SOL    HW234419   3.602   2.334   5.341 -0.1852  0.1070  0.7865
 7654SOL     OW34420   1.900   3.588   7.728  1.2406 -0.0512  0.1289
 7654SOL    HW134421   1.868   3.639   7.653  1.1288  3.7460  2.7466
 7654SOL    HW234422   1.824   3.543   7.764  1.3911 -1.5703 -1.4762
 7655SOL     OW34423   1.046   3.574   7.746 -0.3749  0.3392  0.5626
 7655SOL    HW134424   1.063   3.661   7.782  3.7027  0.2303 -1.1551
 7655SOL    HW234425   1.054   3.591   7.652 -1.4600  1.3800  0.6557
 7656SOL     OW34426   0.665   1.761  11.656 -0.3065  0.4395  0.2270
 7656SOL    HW134427   0.750   1.734  11.622 -1.0834 -0.0040 -1.3326
 7656SOL    HW234428   0.661   1.850  11.621  0.4597 -0.7422 -2.8744
 7657SOL     OW34429   0.710   2.918   5.516  0.1024 -0.4009  0.2378
 7657SOL    HW134430   0.626   2.937   5.557 -1.4432 -0.1317 -3.1227
 7657SOL    HW234431   0.744   3.007   5.513 -0.3053 -0.2068  1.3539
 7658SOL     OW34432   3.743   2.621   8.418 -0.2949 -0.6444  0.0395
 7658SOL    HW134433   3.669   2.682   8.413  1.8061  2.1164  2.4081
 7658SOL    HW234434   3.762   2.613   8.325  3.1066  1.3727  0.5475
 7659SOL     OW34435   3.404   3.334  16.368 -0.2753  0.4834 -0.5192
 7659SOL    HW134436   3.366   3.248  16.385 -1.5683  1.2460  0.4664
 7659SOL    HW234437   3.497   3.317  16.382 -0.5345 -1.6719 -1.3603
 7660SOL     OW34438   2.741   4.115   4.455  0.1043  0.1778 -0.1740
 7660SOL    HW134439   2.811   4.149   4.510 -0.5123  1.6613 -0.3003
 7660SOL    HW234440   2.673   4.181   4.467 -0.7889 -0.4788 -1.5877
 7661SOL     OW34441   1.203   3.556   6.968 -0.0883  0.3780 -0.5234
 7661SOL    HW134442   1.159   3.532   7.050 -0.2063 -0.7431 -0.9094
 7661SOL    HW234443   1.222   3.469   6.931 -1.8651  0.1460 -0.9062
 7662SOL     OW34444   4.694   3.066  11.031 -0.1682 -0.1378 -0.0401
 7662SOL    HW134445   4.716   3.103  10.946 -0.2046 -0.1871 -0.0709
 7662SOL    HW234446   0.056   3.035  11.058 -0.5460  1.2304  2.7708
 7663SOL     OW34447   3.634   1.980   7.147 -0.2477 -0.4760  0.1609
 7663SOL    HW134448   3.606   1.905   7.200  0.2684 -0.2433  0.7705
 7663SOL    HW234449   3.579   1.974   7.070 -0.7753  0.8976  0.4434
 7664SOL     OW34450   0.074   3.601   4.035 -0.1834  0.1698 -0.0195
 7664SOL    HW134451   0.081   3.693   4.062  1.2435 -0.7086  2.7235
 7664SOL    HW234452   0.164   3.573   4.052 -0.9102 -2.7458 -1.0600
 7665SOL     OW34453   2.748   3.653  10.009 -0.4661 -0.3696  0.3032
 7665SOL    HW134454   2.666   3.647   9.959  0.0071  2.4442 -0.8016
 7665SOL    HW234455   2.732   3.567  10.049 -0.7708 -2.0787 -3.4930
 7666SOL     OW34456   1.667   2.334  11.676  0.0148  0.2530  0.3627
 7666SOL    HW134457   1.693   2.422  11.704  1.4541 -0.6328  1.7295
 7666SOL    HW234458   1.744   2.308  11.626 -0.9641  2.4507 -2.3589
 7667SOL     OW34459   3.941   3.389  16.315 -0.1112 -0.0845  0.8920
 7667SOL    HW134460   3.935   3.389  16.219  2.2515 -3.1038  0.7726
 7667SOL    HW234461   4.033   3.366  16.319 -0.2407 -0.8754 -0.7874
 7668SOL     OW34462   2.122   3.316   3.500 -0.6101 -0.4353 -0.5044
 7668SOL    HW134463   2.043   3.364   3.523  1.4216  1.5758  2.3863
 7668SOL    HW234464   2.096   3.227   3.479  1.1719 -1.4797  1.6201
 7669SOL     OW34465   2.393   3.634   0.492 -0.4212 -0.6214 -0.2228
 7669SOL    HW134466   2.349   3.691   0.429  1.2150  0.9702  0.0619
 7669SOL    HW234467   2.482   3.631   0.456 -0.7870 -0.2911 -1.1647
 7670SOL     OW34468   1.443   0.858   5.284 -0.3570 -0.2485  0.4318
 7670SOL    HW134469   1.428   0.950   5.305 -1.6580 -0.6792  1.3577
 7670SOL    HW234470   1.382   0.849   5.211 -0.9418  0.1268  0.8698
 7671SOL     OW34471   4.589   1.535  14.016 -0.7489 -0.1801  0.1697
 7671SOL    HW134472   4.637   1.601  13.966 -0.3783  0.6535  1.6188
 7671SOL    HW234473   4.575   1.468  13.949  0.2757 -1.6614  1.4217
 7672SOL     OW34474   0.947   1.040  10.813 -0.6066 -0.5306  0.1400
 7672SOL    HW134475   0.862   0.997  10.817 -1.8824  1.9239 -0.6483
 7672SOL    HW234476   1.009   0.967  10.807  1.0489  0.6863  2.4310
 7673SOL     OW34477   2.351   3.141   1.623 -0.2089  0.5336  0.3050
 7673SOL    HW134478   2.274   3.139   1.680  0.3039  1.0661  1.0285
 7673SOL    HW234479   2.407   3.205   1.667 -1.5964 -1.3275  4.7477
 7674SOL     OW34480   1.359   1.019   7.211  0.3933 -0.5216 -0.4758
 7674SOL    HW134481   1.453   1.036   7.198  0.2666 -1.3143 -2.3008
 7674SOL    HW234482   1.355   0.996   7.304  1.5650 -1.7366 -0.7211
 7675SOL     OW34483   0.655   2.301   7.743  0.1854 -0.0750  0.1845
 7675SOL    HW134484   0.735   2.324   7.696  0.4122 -1.8385 -0.2914
 7675SOL    HW234485   0.636   2.220   7.695  0.2725  0.2584 -0.4224
 7676SOL     OW34486   1.859   0.825   4.427  0.7096 -0.1384  0.2845
 7676SOL    HW134487   1.930   0.877   4.388 -1.0553  1.5953 -0.6330
 7676SOL    HW234488   1.902   0.786   4.503 -0.0584 -0.2522  0.6554
 7677SOL     OW34489   3.638   0.356   5.324 -0.0414  0.7346  0.2412
 7677SOL    HW134490   3.728   0.367   5.356 -0.3211  4.5470 -0.2657
 7677SOL    HW234491   3.593   0.433   5.358  0.5725  0.7013  1.1345
 7678SOL     OW34492   0.595   3.787   2.911  0.6905 -0.0397 -0.1774
 7678SOL    HW134493   0.672   3.841   2.894  2.7449 -3.0366 -0.3701
 7678SOL    HW234494   0.615   3.698   2.882  1.7116  0.1405 -0.0202
 7679SOL     OW34495   3.023   2.218   3.100 -0.0462 -0.1664  0.0825
 7679SOL    HW134496   2.934   2.189   3.122 -0.3602  0.9538  0.3202
 7679SOL    HW234497   3.030   2.205   3.005  0.0126  1.6900 -0.1667
 7680SOL     OW34498   0.173   2.877   7.843 -0.0303  0.0325  0.2056
 7680SOL    HW134499   0.163   2.876   7.939  0.1431  1.3807  0.2432
 7680SOL    HW234500   0.110   2.815   7.809 -0.8608 -0.6981  3.0611
 7681SOL     OW34501   0.140   4.410   0.810  0.0014  0.2297 -0.2852
 7681SOL    HW134502   0.196   4.368   0.876  0.4209  1.1777 -0.0355
 7681SOL    HW234503   0.174   4.499   0.821 -2.9260  1.3048 -0.0044
 7682SOL     OW34504   1.059   1.238  17.342 -0.0260 -0.5724 -0.3515
 7682SOL    HW134505   1.111   1.166  17.307  0.7027 -0.0653 -0.3048
 7682SOL    HW234506   1.121   1.291  17.392  0.6156  1.1818 -2.9888
 7683SOL     OW34507   4.105   3.713   2.696  0.1211  0.4789 -0.0161
 7683SOL    HW134508   4.107   3.619   2.676 -0.0773  0.8158 -1.5927
 7683SOL    HW234509   4.063   3.739   2.614 -1.7833  0.5407  0.9848
 7684SOL     OW34510   4.355   2.534   5.467  0.1732  0.4375  0.6191
 7684SOL    HW134511   4.287   2.589   5.428 -0.3371 -1.7535 -1.5506
 7684SOL    HW234512   4.336   2.538   5.561 -0.4324  1.1140  0.4707
 7685SOL     OW34513   2.023   0.547   2.737 -0.6267 -0.1557 -0.0221
 7685SOL    HW134514   2.097   0.552   2.798  0.2103 -1.2334 -0.9604
 7685SOL    HW234515   1.998   0.455   2.729  2.9146 -1.1066 -0.1931
 7686SOL     OW34516   2.096   2.241   9.333  0.0813 -0.4895  0.4465
 7686SOL    HW134517   2.031   2.311   9.327  0.7864  0.1141 -0.1534
 7686SOL    HW234518   2.046   2.161   9.347  2.0017 -2.0947 -1.7104
 7687SOL     OW34519   0.249   1.671   6.224 -0.0430 -0.1888  0.1256
 7687SOL    HW134520   0.186   1.721   6.172  1.5957 -0.3141 -2.0280
 7687SOL    HW234521   0.205   1.677   6.308 -0.8059  1.3234 -0.3698
 7688SOL     OW34522   0.587   4.640   4.725 -0.0221 -0.2099 -0.3869
 7688SOL    HW134523   0.676   4.668   4.706  0.9112 -2.3287  0.8466
 7688SOL    HW234524   0.571   4.584   4.649  1.3277  0.6511 -1.2961
 7689SOL     OW34525   4.110   1.735   2.368 -0.2314 -0.0829  0.1617
 7689SOL    HW134526   4.132   1.710   2.278 -2.1814  0.8724 -0.5677
 7689SOL    HW234527   4.016   1.729   2.352 -0.8167 -0.7385  3.6547
 7690SOL     OW34528   1.622   3.206   5.031  0.0349 -0.0545 -0.0530
 7690SOL    HW134529   1.692   3.155   5.073  1.2128 -0.5371 -2.6133
 7690SOL    HW234530   1.595   3.147   4.961 -1.4899 -0.5950  0.9856
 7691SOL     OW34531   1.464   4.330   1.319  0.2542 -1.0719  0.0712
 7691SOL    HW134532   1.467   4.267   1.247 -2.4866 -0.9975 -0.1275
 7691SOL    HW234533   1.537   4.389   1.300 -1.4609  1.3568  1.0420
 7692SOL     OW34534   1.890   2.890   6.852 -0.2554 -0.1435  0.1708
 7692SOL    HW134535   1.881   2.803   6.890  2.2548 -0.6016 -0.2735
 7692SOL    HW234536   1.861   2.870   6.763 -1.8305 -2.5148  1.2323
 7693SOL     OW34537   0.523   0.241  16.619 -0.3353 -0.2669  0.6110
 7693SOL    HW134538   0.538   0.251  16.525  1.8735 -3.2983  0.6332
 7693SOL    HW234539   0.591   0.179  16.644  0.4364 -1.1245 -3.7003
 7694SOL     OW34540   3.947   0.497   7.544 -0.4265  0.6005  0.1525
 7694SOL    HW134541   3.883   0.426   7.548  1.0851 -0.7984 -0.4244
 7694SOL    HW234542   3.969   0.492   7.451  0.9495  1.3451  0.4357
 7695SOL     OW34543   1.141   0.144   2.771 -0.0153 -0.4784 -0.4555
 7695SOL    HW134544   1.145   0.123   2.678 -0.4969 -1.4162 -0.2579
 7695SOL    HW234545   1.184   0.071   2.815 -0.9451 -1.7980 -1.7184
 7696SOL     OW34546   4.472   0.048   8.282 -0.2726 -0.4448  1.0648
 7696SOL    HW134547   4.496   4.680   8.271 -0.1572 -0.3054  0.1531
 7696SOL    HW234548   4.476   0.066   8.376  1.6281 -1.3047  1.1535
 7697SOL     OW34549   2.607   4.441   4.476  0.0349  0.3162 -0.0021
 7697SOL    HW134550   2.565   4.360   4.502 -0.1673  0.1374 -0.8773
 7697SOL    HW234551   2.606   4.484   4.562 -1.0630  0.8004 -0.2553
 7698SOL     OW34552   2.472   4.023   9.080 -0.2785  0.2076 -0.4233
 7698SOL    HW134553   2.525   4.100   9.058 -0.0885  0.3895  0.6725
 7698SOL    HW234554   2.535   3.954   9.060 -0.4778 -0.6116  1.8238
 7699SOL     OW34555   1.747   3.897  16.190 -0.0801 -0.7625  0.3783
 7699SOL    HW134556   1.714   3.984  16.210 -1.8204 -1.6893  1.5954
 7699SOL    HW234557   1.816   3.920  16.128  2.1318 -2.6899  2.0931
 7700SOL     OW34558   1.035   4.509  12.139 -0.4766  0.2476 -0.8276
 7700SOL    HW134559   1.128   4.510  12.117 -0.5534 -0.6236 -1.1861
 7700SOL    HW234560   1.024   4.417  12.164 -2.2457  1.7509  4.0825
 7701SOL     OW34561   1.154   2.096   4.430 -0.1894  0.2915  0.0922
 7701SOL    HW134562   1.092   2.048   4.485 -0.3043  0.0445 -0.2534
 7701SOL    HW234563   1.239   2.076   4.469  0.4989  1.1715 -0.9504
 7702SOL     OW34564   4.574   1.573  17.444 -0.1955 -0.5430 -0.2040
 7702SOL    HW134565   4.612   1.652  17.405  0.1301 -0.9653 -0.7397
 7702SOL    HW234566   4.633   1.508  17.407 -1.4763 -1.8182  0.0100
 7703SOL     OW34567   4.230   2.077   0.449 -0.0712  0.7848  1.2971
 7703SOL    HW134568   4.277   2.111   0.374  2.5955 -2.4617  1.5156
 7703SOL    HW234569   4.154   2.135   0.439  1.4232  2.2614 -1.3609
 7704SOL     OW34570   2.121   3.522   8.843  0.5389  0.8473 -0.2044
 7704SOL    HW134571   2.157   3.435   8.824 -0.5321  0.6140 -1.1477
 7704SOL    HW234572   2.029   3.497   8.849  0.4516  1.2328 -0.0043
 7705SOL     OW34573   1.385   1.696   3.198 -0.1940 -0.2616  0.8334
 7705SOL    HW134574   1.326   1.769   3.182 -0.0133  0.2956  2.8052
 7705SOL    HW234575   1.392   1.673   3.105  0.8465  1.6097  0.4506
 7706SOL     OW34576   3.140   1.284   8.240  0.0670  0.0158  0.0293
 7706SOL    HW134577   3.230   1.254   8.253  0.1846 -0.8353 -2.6795
 7706SOL    HW234578   3.108   1.269   8.329 -0.3384 -1.2944 -0.3376
 7707SOL     OW34579   0.704   2.431  14.920  0.2639  0.5577 -0.6731
 7707SOL    HW134580   0.632   2.453  14.861  1.3746 -3.2443 -3.4115
 7707SOL    HW234581   0.769   2.492  14.886 -0.9350  3.1814  1.7248
 7708SOL     OW34582   3.113   2.711   5.841  0.0665  0.4626  0.1227
 7708SOL    HW134583   3.174   2.768   5.889  0.0820  0.0325  0.6131
 7708SOL    HW234584   3.173   2.659   5.787 -0.0990 -1.0716  1.4120
 7709SOL     OW34585   1.447   3.326   2.866 -0.7123 -0.4356  0.0672
 7709SOL    HW134586   1.506   3.399   2.848 -1.9053  0.4248 -0.3654
 7709SOL    HW234587   1.374   3.374   2.904 -1.5467 -0.9004 -0.9446
 7710SOL     OW34588   3.750   0.811  11.993  0.0909 -0.4736  1.1509
 7710SOL    HW134589   3.734   0.834  11.901 -1.5432  2.0792  2.0592
 7710SOL    HW234590   3.818   0.745  11.982 -0.2823 -0.5848 -0.5196
 7711SOL     OW34591   2.290   3.897   8.337 -0.0133 -0.4261  0.4016
 7711SOL    HW134592   2.329   3.950   8.267  0.8410 -1.4270  0.1263
 7711SOL    HW234593   2.254   3.972   8.384 -0.8722  0.3448 -1.4855
 7712SOL     OW34594   3.672   1.196   3.302 -0.0753  0.1774 -0.2407
 7712SOL    HW134595   3.679   1.177   3.209  1.4510 -0.7736  0.0717
 7712SOL    HW234596   3.645   1.288   3.297  2.7018  0.8914 -2.0934
 7713SOL     OW34597   3.065   0.850   2.518  0.2301 -0.3355 -0.2458
 7713SOL    HW134598   3.027   0.921   2.570  0.4520  0.1551 -0.7548
 7713SOL    HW234599   3.058   0.879   2.427 -2.6581 -4.1871 -1.2268
 7714SOL     OW34600   0.498   1.098   6.623 -0.1843 -0.3944  0.0751
 7714SOL    HW134601   0.592   1.102   6.604 -0.2065  0.3171  0.1235
 7714SOL    HW234602   0.473   1.011   6.592  2.5782 -0.8276 -0.9367
 7715SOL     OW34603   3.460   3.697  13.802 -0.9962  0.5575  0.5841
 7715SOL    HW134604   3.523   3.764  13.831  2.3065 -2.1563 -0.3225
 7715SOL    HW234605   3.408   3.689  13.882 -0.6560 -1.9226  0.5627
 7716SOL     OW34606   4.657   4.274   6.105  0.2600  0.3202 -0.1748
 7716SOL    HW134607   0.022   4.250   6.080  0.8594  2.3229  0.0206
 7716SOL    HW234608   4.647   4.226   6.187 -2.3408  2.4161  0.7339
 7717SOL     OW34609   3.816   0.824  10.074 -0.2186 -0.6552  0.0257
 7717SOL    HW134610   3.849   0.862  10.155  0.7855 -0.8517 -0.2843
 7717SOL    HW234611   3.820   0.904  10.021 -1.3212  0.4798  1.6786
 7718SOL     OW34612   3.547   3.217  14.964  0.1331  0.2926  0.1000
 7718SOL    HW134613   3.627   3.266  14.947 -0.0713  0.0057 -1.7514
 7718SOL    HW234614   3.566   3.205  15.057  1.3960 -1.7889 -0.4199
 7719SOL     OW34615   2.652   0.416   8.292  0.7073 -0.3950 -0.0313
 7719SOL    HW134616   2.693   0.401   8.377 -1.3109  0.1353  1.0605
 7719SOL    HW234617   2.624   0.506   8.309  2.2860  0.2578 -0.9090
 7720SOL     OW34618   3.580   2.863  10.413  0.3333  0.4590  0.3303
 7720SOL    HW134619   3.502   2.906  10.447  0.7581  1.2970  0.2425
 7720SOL    HW234620   3.648   2.885  10.476 -1.1536  4.0035  0.6438
 7721SOL     OW34621   0.927   3.138   2.386 -0.4305  0.0943 -0.0348
 7721SOL    HW134622   1.016   3.107   2.368 -0.3171  0.0236  0.6411
 7721SOL    HW234623   0.896   3.058   2.429 -0.7237 -0.1934 -0.7765
 7722SOL     OW34624   3.003   1.464   8.564  0.0832 -0.5385 -0.1705
 7722SOL    HW134625   2.938   1.524   8.600 -2.7985 -3.7414 -0.1281
 7722SOL    HW234626   3.041   1.525   8.500 -0.5842  0.1088  0.0508
 7723SOL     OW34627   1.919   0.496   7.997  0.2538 -0.4758 -0.1698
 7723SOL    HW134628   1.958   0.425   8.049 -1.8979 -0.3572  1.6538
 7723SOL    HW234629   1.915   0.458   7.910 -2.3115  0.5486 -0.4984
 7724SOL     OW34630   2.757   4.119   5.688  0.6005 -0.3655 -0.1593
 7724SOL    HW134631   2.842   4.085   5.661 -0.8544 -0.7339 -4.1567
 7724SOL    HW234632   2.697   4.049   5.664 -0.5869  0.5665  0.0702
 7725SOL     OW34633   0.629   1.667   7.451  0.0446  0.0911  0.1645
 7725SOL    HW134634   0.537   1.678   7.478  0.2187 -0.2235  0.8912
 7725SOL    HW234635   0.626   1.584   7.404  1.0214  0.7293 -1.0194
 7726SOL     OW34636   3.781   4.621   5.421 -0.0462 -0.3764  0.1290
 7726SOL    HW134637   3.808   4.572   5.344 -0.2545 -0.0723 -0.1369
 7726SOL    HW234638   3.751   4.547   5.474  0.0873  0.7047  1.7013
 7727SOL     OW34639   2.001   1.512   7.101  0.0146  0.5282  0.0281
 7727SOL    HW134640   1.939   1.542   7.167 -1.7896 -0.4555 -1.2406
 7727SOL    HW234641   2.082   1.512   7.154 -0.5969  0.5817  0.9696
 7728SOL     OW34642   3.378   0.377   3.002 -0.2986 -0.4403 -0.1625
 7728SOL    HW134643   3.286   0.353   3.006 -0.6397  1.1946  2.3418
 7728SOL    HW234644   3.376   0.467   2.970 -1.1744  0.5978  2.8031
 7729SOL     OW34645   3.594   3.225   8.436  0.0663  0.3699  0.1642
 7729SOL    HW134646   3.523   3.174   8.396 -0.6063 -0.3001  2.1677
 7729SOL    HW234647   3.558   3.254   8.520  3.1455 -0.0163  1.6173
 7730SOL     OW34648   4.390   1.960   7.317  0.3248  0.3344  0.4907
 7730SOL    HW134649   4.409   2.042   7.271  0.4449 -0.7668 -1.4230
 7730SOL    HW234650   4.450   1.902   7.270 -0.8224  0.7985 -1.5551
 7731SOL     OW34651   1.932   4.026   0.900  0.2757  0.1052  0.0276
 7731SOL    HW134652   1.975   3.943   0.920  1.6203  0.7368 -0.2638
 7731SOL    HW234653   1.861   3.996   0.844 -0.7239 -0.2277  1.4877
 7732SOL     OW34654   4.596   0.929   5.976  0.3072  0.0823  0.1577
 7732SOL    HW134655   4.689   0.906   5.976  0.7620  1.8892 -0.4031
 7732SOL    HW234656   4.552   0.845   5.992  0.9327 -0.1984  0.4049
 7733SOL     OW34657   4.703   1.297   6.437  0.4961  0.5355 -0.2179
 7733SOL    HW134658   4.618   1.342   6.445  0.3540 -0.1770  2.3649
 7733SOL    HW234659   0.028   1.350   6.499  0.3172 -0.5631  0.8700
 7734SOL     OW34660   3.927   3.721   0.067 -0.2202  0.6319  0.5329
 7734SOL    HW134661   4.019   3.712   0.044  0.6217  0.3259  3.9961
 7734SOL    HW234662   3.927   3.691   0.158 -2.6249 -0.2135  0.2487
 7735SOL     OW34663   3.293   2.977  17.265 -0.1906  0.2533 -0.5277
 7735SOL    HW134664   3.247   2.894  17.252 -0.2373  0.1531  0.2768
 7735SOL    HW234665   3.377   2.948  17.301 -0.6720 -1.6411 -0.9446
 7736SOL     OW34666   3.400   1.072   2.378  0.0360  0.2679 -0.3249
 7736SOL    HW134667   3.368   1.151   2.421 -0.7393  0.2407 -0.8613
 7736SOL    HW234668   3.382   1.007   2.446  2.0036  1.6214  1.5120
 7737SOL     OW34669   3.935   1.465   3.819  0.7306  0.0649  0.1310
 7737SOL    HW134670   3.954   1.523   3.893 -0.8415  1.1155 -0.2850
 7737SOL    HW234671   3.845   1.487   3.792  1.1440  2.7303  0.8591
 7738SOL     OW34672   1.794   0.990   4.688 -0.2048 -0.0030  0.0503
 7738SOL    HW134673   1.745   0.998   4.606 -0.1129 -0.8534 -0.0970
 7738SOL    HW234674   1.763   1.057   4.749 -0.0836  1.4405 -1.4747
 7739SOL     OW34675   3.042   3.068  11.139  0.0310 -0.0056  0.1830
 7739SOL    HW134676   3.003   2.984  11.112  0.4633 -0.4689  0.9845
 7739SOL    HW234677   3.067   3.100  11.053  0.6203 -2.3399 -0.5095
 7740SOL     OW34678   3.434   1.358   8.666 -1.0048 -0.6662  0.0613
 7740SOL    HW134679   3.416   1.419   8.594  2.1406  0.5979  0.3648
 7740SOL    HW234680   3.499   1.305   8.619  0.8576  1.3024  0.4438
 7741SOL     OW34681   3.986   4.472  16.882 -0.0046 -0.4468  0.3271
 7741SOL    HW134682   3.962   4.472  16.974  1.1961  2.1305  0.6477
 7741SOL    HW234683   3.911   4.520  16.846  0.7836 -0.3870 -1.2641
 7742SOL     OW34684   0.441   2.772   3.179  0.0756  1.0307  0.1537
 7742SOL    HW134685   0.412   2.863   3.172  0.2761  1.2645  2.3569
 7742SOL    HW234686   0.364   2.725   3.147  0.7097 -0.4796  0.8327
 7743SOL     OW34687   2.991   2.110   6.037 -0.3711  0.8390  0.0915
 7743SOL    HW134688   2.975   2.026   6.079 -0.4535  0.9660  0.3135
 7743SOL    HW234689   3.085   2.110   6.017  0.2792 -0.8499  3.2250
 7744SOL     OW34690   4.520   3.332   8.266  0.7607  0.2430  0.1153
 7744SOL    HW134691   4.501   3.341   8.359  3.9761  1.2919  0.6691
 7744SOL    HW234692   4.544   3.424   8.255 -0.2016  0.6478  1.3591
 7745SOL     OW34693   1.413   3.211   9.772  0.2132  0.0858 -0.1687
 7745SOL    HW134694   1.391   3.134   9.719 -2.7500  0.9235 -0.1790
 7745SOL    HW234695   1.323   3.242   9.761  1.1366  2.9991  0.4621
 7746SOL     OW34696   3.692   3.236   9.038  0.4428 -0.3829  0.5631
 7746SOL    HW134697   3.603   3.258   9.010  0.5283  0.7765  1.2006
 7746SOL    HW234698   3.703   3.253   9.131  1.0381 -2.0766  0.8014
 7747SOL     OW34699   0.134   1.827   5.474  0.0510  0.4043 -0.0823
 7747SOL    HW134700   0.152   1.830   5.568  0.0584 -0.6021 -0.0513
 7747SOL    HW234701   0.061   1.764   5.478  1.0855 -0.8892 -1.3107
 7748SOL     OW34702   3.017   0.920   7.517 -0.0364  0.1532  1.0639
 7748SOL    HW134703   3.052   0.961   7.438 -0.0223  0.6603  1.3370
 7748SOL    HW234704   3.083   0.852   7.529  0.5363  0.5982  0.4055
 7749SOL     OW34705   0.465   3.173  12.986  0.0939 -0.3363 -0.1007
 7749SOL    HW134706   0.487   3.236  12.917  1.1922  0.8002  1.2720
 7749SOL    HW234707   0.391   3.215  13.030 -1.0164 -0.8010 -1.5464
 7750SOL     OW34708   2.043   1.054   2.624 -0.0464 -0.1897  0.0925
 7750SOL    HW134709   2.016   0.970   2.661  0.5580 -0.4437 -0.0503
 7750SOL    HW234710   1.958   1.096   2.638  0.4009  0.9592 -0.5975
 7751SOL     OW34711   3.494   3.988   3.082  0.5233  0.1791 -0.2121
 7751SOL    HW134712   3.543   3.990   3.164 -0.4347 -0.7677  0.3882
 7751SOL    HW234713   3.407   4.011   3.114  0.7875  1.9367 -0.7883
 7752SOL     OW34714   3.497   0.353   8.421 -0.8471 -0.3030  0.1065
 7752SOL    HW134715   3.521   0.268   8.383 -1.2495 -0.3611 -0.0165
 7752SOL    HW234716   3.547   0.347   8.502 -2.4893  0.9844  1.1855
 7753SOL     OW34717   0.403   3.518   3.727 -0.1787  0.6052 -0.2500
 7753SOL    HW134718   0.310   3.519   3.748 -0.1841 -0.6391 -0.2596
 7753SOL    HW234719   0.425   3.435   3.769 -1.1268  0.0226 -0.9173
 7754SOL     OW34720   4.497   3.440   4.014  0.3071 -0.4926  0.1359
 7754SOL    HW134721   4.560   3.508   3.992 -0.5898 -0.4335 -2.2282
 7754SOL    HW234722   4.412   3.482   4.004  0.2367 -0.6788 -0.0526
 7755SOL     OW34723   2.897   3.826   4.205 -0.2268 -0.2749 -0.2958
 7755SOL    HW134724   2.912   3.866   4.120  1.9254  0.1038  0.2590
 7755SOL    HW234725   2.939   3.740   4.200  0.4911 -0.1040  2.5063
 7756SOL     OW34726   4.106   4.665  11.514  0.2583  0.1767 -0.4647
 7756SOL    HW134727   4.071   4.643  11.427 -1.9752  2.8710 -0.2621
 7756SOL    HW234728   4.139   0.024  11.478  0.0547  1.0705  1.4396
 7757SOL     OW34729   3.694   0.760   5.108 -0.5313  0.2866  0.5824
 7757SOL    HW134730   3.696   0.669   5.077  0.4468  0.3181  0.5571
 7757SOL    HW234731   3.784   0.784   5.127  0.1143 -1.9681  0.4021
 7758SOL     OW34732   0.259   3.827  10.250  0.6335  0.1292  0.3978
 7758SOL    HW134733   0.232   3.735  10.243 -2.2097  1.2097 -2.6061
 7758SOL    HW234734   0.192   3.872  10.302  2.3726  0.1721  2.6269
 7759SOL     OW34735   1.073   2.669   7.574 -0.5531 -0.0197 -0.6189
 7759SOL    HW134736   1.167   2.679   7.566 -0.6540  0.8815 -0.6722
 7759SOL    HW234737   1.050   2.620   7.495 -1.4496  0.9641 -0.9592
 7760SOL     OW34738   2.454   2.236  13.444  0.2878 -0.6431 -0.5880
 7760SOL    HW134739   2.359   2.241  13.428  0.1810  1.2849  0.6748
 7760SOL    HW234740   2.484   2.322  13.416 -0.4200 -1.0331 -2.5962
 7761SOL     OW34741   0.257   3.037   6.674 -0.1520 -0.1804 -0.0482
 7761SOL    HW134742   0.327   3.086   6.718  1.0487 -1.2898 -0.7242
 7761SOL    HW234743   0.291   2.948   6.673 -2.0372 -0.8760 -0.3936
 7762SOL     OW34744   2.692   1.412   4.937  0.2845  0.2198  0.1746
 7762SOL    HW134745   2.756   1.390   5.005  1.3350  2.0210 -0.2246
 7762SOL    HW234746   2.607   1.391   4.974  1.4809 -0.9586  2.2188
 7763SOL     OW34747   4.198   3.579   7.896  0.4697 -0.5726 -0.1989
 7763SOL    HW134748   4.289   3.560   7.875  0.7383 -1.2445  1.5445
 7763SOL    HW234749   4.174   3.616   7.811  1.8028 -2.1703 -1.2677
 7764SOL     OW34750   0.860   2.626  14.813  0.0513 -0.0892  0.0792
 7764SOL    HW134751   0.913   2.653  14.738 -0.4552 -0.2055 -0.3209
 7764SOL    HW234752   0.921   2.653  14.882  1.3868 -2.4225 -0.1720
 7765SOL     OW34753   1.543   0.216   7.140  0.5007  0.1057  0.0192
 7765SOL    HW134754   1.455   0.203   7.105  1.1863 -1.0668 -1.3021
 7765SOL    HW234755   1.572   0.130   7.170 -0.5664 -0.1512  0.3069
 7766SOL     OW34756   3.627   2.299   8.276  0.4499  0.3566  0.4909
 7766SOL    HW134757   3.715   2.310   8.313  0.3713  1.0975  0.4743
 7766SOL    HW234758   3.649   2.286   8.184 -1.0555 -2.0795  0.4881
 7767SOL     OW34759   4.671   0.606  16.937 -0.1716  0.2916  0.2906
 7767SOL    HW134760   4.683   0.619  16.843  1.5275 -0.2572  0.4244
 7767SOL    HW234761   4.585   0.566  16.940  0.1579 -0.3950  0.6466
 7768SOL     OW34762   1.648   3.095  17.674 -0.7132 -0.3897  0.5726
 7768SOL    HW134763   1.724   3.149  17.653 -1.5859  1.0901  1.2890
 7768SOL    HW234764   1.636   3.116   0.067 -0.2524 -0.6491  0.6919
 7769SOL     OW34765   0.864   4.547   4.080  0.6849  0.5436  0.0480
 7769SOL    HW134766   0.823   4.505   4.155  2.9729 -1.9820 -0.1310
 7769SOL    HW234767   0.788   4.587   4.037  0.8522  1.3973  0.5501
 7770SOL     OW34768   3.936   4.577   8.119 -0.7268 -0.3395  0.3412
 7770SOL    HW134769   3.935   4.524   8.198  1.2369  0.3360  0.8270
 7770SOL    HW234770   4.019   4.625   8.117  0.1342 -1.8188  0.6268
 7771SOL     OW34771   1.909   1.510   5.588 -0.7195  0.1822  0.1123
 7771SOL    HW134772   1.821   1.508   5.625 -0.6724 -0.7664  0.1699
 7771SOL    HW234773   1.919   1.597   5.549 -0.5091  0.5407  0.9543
 7772SOL     OW34774   4.029   0.588   2.591  0.1243  0.0543 -0.9671
 7772SOL    HW134775   3.937   0.609   2.609 -0.1024  0.4424 -2.5326
 7772SOL    HW234776   4.030   0.493   2.602  3.0890  0.0864 -1.0646
 7773SOL     OW34777   0.094   4.284  11.662  0.3511  0.4999 -0.0811
 7773SOL    HW134778   0.174   4.310  11.616  0.5885 -0.2086 -0.0749
 7773SOL    HW234779   0.132   4.241  11.739  0.5004  0.5103 -0.1487
 7774SOL     OW34780   4.670   4.230   0.118 -0.0478  0.6473  0.4278
 7774SOL    HW134781   4.672   4.207   0.025  1.7781  0.6116  0.4822
 7774SOL    HW234782   0.037   4.252   0.137 -0.1912 -0.0978  1.9844
 7775SOL     OW34783   3.252   0.429   7.491  0.4826 -0.4102  0.1863
 7775SOL    HW134784   3.276   0.476   7.411  0.0797 -0.1674  0.2064
 7775SOL    HW234785   3.333   0.436   7.542  0.6040 -0.9663  0.0654
 7776SOL     OW34786   1.950   1.154  11.695 -0.5614 -0.1329  0.8121
 7776SOL    HW134787   2.007   1.083  11.726 -1.8921 -0.4706  2.4896
 7776SOL    HW234788   1.961   1.145  11.600  2.8128  0.3114  1.1597
 7777SOL     OW34789   4.276   3.604  14.630 -0.1477  0.5752  0.0792
 7777SOL    HW134790   4.331   3.664  14.579 -1.0707  0.4619 -1.0528
 7777SOL    HW234791   4.230   3.671  14.682 -0.0059 -0.0841  1.0478
 7778SOL     OW34792   4.554   3.834   0.040 -0.1119 -0.0970  0.2022
 7778SOL    HW134793   4.474   3.871   0.004 -0.0416 -0.4343 -0.3012
 7778SOL    HW234794   4.544   3.856   0.132 -0.6328 -2.0374  0.6242
 7779SOL     OW34795   2.195   2.755   2.220  0.0274  0.3396  0.4505
 7779SOL    HW134796   2.254   2.807   2.275  2.1374 -2.5523  0.8913
 7779SOL    HW234797   2.187   2.798   2.135  0.0219  1.3162  0.9429
 7780SOL     OW34798   2.392   3.584   2.785 -0.1430  0.5773  0.0586
 7780SOL    HW134799   2.361   3.534   2.860  1.6956 -0.6239  0.0300
 7780SOL    HW234800   2.334   3.551   2.717 -0.6918 -0.1217  0.8650
 7781SOL     OW34801   3.743   1.831   7.482  0.0143 -0.2066 -0.0682
 7781SOL    HW134802   3.783   1.777   7.414  3.2083 -0.2705  1.8509
 7781SOL    HW234803   3.689   1.767   7.528 -1.2846  2.4461  2.0809
 7782SOL     OW34804   1.380   0.807  10.873 -0.6650  0.1276  0.7119
 7782SOL    HW134805   1.401   0.901  10.869  2.0442 -0.4692  0.6562
 7782SOL    HW234806   1.412   0.782  10.787  2.4128 -0.5101  2.0098
 7783SOL     OW34807   4.696   2.346  12.921  0.3080  0.3893 -0.4541
 7783SOL    HW134808   4.625   2.312  12.866 -1.1381  4.4867 -1.0817
 7783SOL    HW234809   4.654   2.362  13.005 -1.5935  0.9300 -1.5156
 7784SOL     OW34810   0.283   3.196  15.585 -0.2973 -0.0157 -0.4305
 7784SOL    HW134811   0.197   3.176  15.546 -0.5706  0.4142 -0.0437
 7784SOL    HW234812   0.310   3.116  15.630 -0.0221  2.1470  3.2525
 7785SOL     OW34813   1.535   3.473   1.064 -0.0174 -0.3235 -0.0211
 7785SOL    HW134814   1.604   3.505   1.005  0.2037 -0.1647  0.3244
 7785SOL    HW234815   1.467   3.535   1.038 -2.3051 -2.7390  0.2023
 7786SOL     OW34816   3.271   2.321   6.004 -0.3721 -0.1869 -0.3991
 7786SOL    HW134817   3.290   2.249   6.064 -1.1731  0.1803  0.2984
 7786SOL    HW234818   3.358   2.355   5.981 -0.2396 -0.0242  0.3497
 7787SOL     OW34819   3.211   2.439   8.290  0.0989 -0.1916  0.0295
 7787SOL    HW134820   3.232   2.526   8.257  0.1447 -0.1562  0.1509
 7787SOL    HW234821   3.257   2.430   8.374  0.7010 -2.0111 -0.4921
 7788SOL     OW34822   2.837   3.187  10.782 -0.2818 -0.3792 -0.5809
 7788SOL    HW134823   2.746   3.186  10.751 -0.7433 -1.1879  0.7983
 7788SOL    HW234824   2.849   3.095  10.807  0.8818  0.1073  0.5938
 7789SOL     OW34825   0.337   4.578   2.073  0.4820  0.0625 -0.1836
 7789SOL    HW134826   0.329   4.580   1.978  0.0533  1.3609 -0.1186
 7789SOL    HW234827   0.272   4.646   2.090 -0.7844 -0.5776 -2.4582
 7790SOL     OW34828   1.190   1.620   8.046  0.0791  0.0994  0.1368
 7790SOL    HW134829   1.257   1.672   8.090  0.5369 -1.3910  1.2032
 7790SOL    HW234830   1.206   1.641   7.954  0.3773  0.1503  0.2001
 7791SOL     OW34831   3.911   1.378   9.184 -0.8388 -0.0120 -0.0938
 7791SOL    HW134832   3.861   1.424   9.251 -2.0727  0.1902 -1.1573
 7791SOL    HW234833   4.003   1.384   9.211 -0.6599 -1.2101 -0.3932
 7792SOL     OW34834   1.640   2.064   0.701 -0.5634  0.3325  0.1653
 7792SOL    HW134835   1.661   2.148   0.742 -0.7747  1.7448 -2.6722
 7792SOL    HW234836   1.714   2.006   0.721 -0.8779 -0.2575 -0.3518
 7793SOL     OW34837   0.272   4.547   1.803  0.6331 -0.3174 -0.0780
 7793SOL    HW134838   0.177   4.538   1.810  0.8340 -2.5792 -0.5009
 7793SOL    HW234839   0.273   4.562   1.708  2.3541 -1.2331 -0.2039
 7794SOL     OW34840   2.804   3.507   8.713  0.2516  0.3919  0.4627
 7794SOL    HW134841   2.754   3.458   8.648 -0.0565  0.4277  0.6726
 7794SOL    HW234842   2.738   3.521   8.781  1.9432 -0.9042  2.3600
 7795SOL     OW34843   4.539   3.315   4.750 -0.1328 -0.0447 -0.1488
 7795SOL    HW134844   4.595   3.392   4.747  0.9219 -0.7734  0.7907
 7795SOL    HW234845   4.533   3.295   4.657  1.7584  1.1997 -0.5324
 7796SOL     OW34846   1.494   0.851  16.738 -0.0267 -0.1833  0.2195
 7796SOL    HW134847   1.543   0.779  16.778 -1.3294 -2.0510 -1.5878
 7796SOL    HW234848   1.553   0.925  16.749  0.6877 -0.0131 -4.7663
 7797SOL     OW34849   3.871   4.579  15.703 -0.1024 -0.1876  0.3472
 7797SOL    HW134850   3.808   4.613  15.640 -1.2125 -1.4145  0.8033
 7797SOL    HW234851   3.830   4.495  15.724  1.8663 -1.5269 -1.2141
 7798SOL     OW34852   4.241   4.339   7.011 -0.7512 -0.3401 -0.1265
 7798SOL    HW134853   4.214   4.371   7.097 -2.0553 -0.6949 -0.4056
 7798SOL    HW234854   4.299   4.266   7.031  0.3637  0.0780 -1.8114
 7799SOL     OW34855   0.267   0.356   2.689  0.3345  0.3115  0.3178
 7799SOL    HW134856   0.328   0.413   2.735 -0.7121  1.7486 -0.0812
 7799SOL    HW234857   0.302   0.269   2.708 -0.8802 -0.1780  0.3559
 7800SOL     OW34858   1.920   2.115   0.180  0.4798 -0.4763 -0.2492
 7800SOL    HW134859   1.848   2.074   0.228  2.1797 -1.2180  1.6709
 7800SOL    HW234860   1.975   2.041   0.155  0.7484 -0.4217  0.1716
 7801SOL     OW34861   1.178   1.043   8.906  0.1898  0.6942 -0.4438
 7801SOL    HW134862   1.159   1.056   8.999  2.6524  1.7663 -0.0718
 7801SOL    HW234863   1.273   1.032   8.914  0.0309 -0.6315 -0.3659
 7802SOL     OW34864   3.818   2.698  10.822 -0.1466  0.6835 -0.2523
 7802SOL    HW134865   3.862   2.619  10.789 -0.1860  0.8142 -0.6161
 7802SOL    HW234866   3.854   2.716  10.908 -0.4496 -1.2536  0.2863
 7803SOL     OW34867   1.590   1.780   9.332 -0.2379  0.0614  0.1762
 7803SOL    HW134868   1.524   1.816   9.391 -0.8221 -2.7707  1.2642
 7803SOL    HW234869   1.599   1.691   9.367  0.0305 -0.6132 -1.5871
 7804SOL     OW34870   3.588   0.569   2.994  0.2884  0.5559  0.1928
 7804SOL    HW134871   3.548   0.497   3.042  0.8664  0.4799  0.5575
 7804SOL    HW234872   3.654   0.512   2.953  0.0772  1.3946 -1.3265
 7805SOL     OW34873   0.683   1.983   5.474 -0.1939 -0.0845 -0.2125
 7805SOL    HW134874   0.742   1.959   5.546  1.0315 -0.8819 -1.4634
 7805SOL    HW234875   0.604   1.951   5.517 -1.2713 -0.0334 -2.1731
 7806SOL     OW34876   3.086   3.199   8.041  0.1267  0.4284  0.6837
 7806SOL    HW134877   3.150   3.129   8.050 -0.7198 -0.9055 -3.8117
 7806SOL    HW234878   3.141   3.276   8.031 -0.0217  0.5497  0.7990
 7807SOL     OW34879   3.716   2.587  13.551  0.1550  0.3363 -0.3126
 7807SOL    HW134880   3.777   2.516  13.571  1.0228  1.0840 -0.3017
 7807SOL    HW234881   3.635   2.546  13.522 -1.1918  2.5687  0.3441
 7808SOL     OW34882   0.668   0.668   6.775 -0.7717  0.2531  0.0481
 7808SOL    HW134883   0.627   0.604   6.717  1.0432 -1.2686  0.4633
 7808SOL    HW234884   0.757   0.635   6.782 -1.8499 -2.4098  1.0945
 7809SOL     OW34885   3.255   1.747   6.043  0.1698 -0.5786  0.1715
 7809SOL    HW134886   3.300   1.765   5.961  0.3927  0.9195  0.6306
 7809SOL    HW234887   3.318   1.793   6.099  1.2090 -0.4510 -1.1020
 7810SOL     OW34888   2.642   3.350   5.760  0.2860  0.1063 -0.0708
 7810SOL    HW134889   2.591   3.425   5.790 -0.3300  0.8216 -2.8968
 7810SOL    HW234890   2.574   3.291   5.730 -0.6961  0.1188  2.1241
 7811SOL     OW34891   1.301   2.952   9.935 -0.6606  0.1869  0.2294
 7811SOL    HW134892   1.323   2.867   9.897  0.2221 -0.0691  1.3009
 7811SOL    HW234893   1.340   3.015   9.875  1.5875 -0.5742  0.8847
 7812SOL     OW34894   4.229   4.355   3.788  0.3837  0.0273  0.6467
 7812SOL    HW134895   4.235   4.450   3.780  0.4346 -0.1962 -1.9077
 7812SOL    HW234896   4.158   4.334   3.728 -1.6332  0.8344  2.7371
 7813SOL     OW34897   4.079   2.950   6.008  0.1679 -0.1840 -0.1910
 7813SOL    HW134898   4.125   2.942   6.092  1.7108  1.0756 -0.9126
 7813SOL    HW234899   3.996   2.986   6.041  1.4514 -1.0641  3.9944
 7814SOL     OW34900   3.199   0.750   6.273  0.1219  0.3747  0.3571
 7814SOL    HW134901   3.266   0.691   6.307 -0.1956 -0.2549 -0.0933
 7814SOL    HW234902   3.124   0.728   6.328 -0.2771  2.1005  0.4890
 7815SOL     OW34903   0.221   3.390   0.977 -0.1815 -0.8530  0.0719
 7815SOL    HW134904   0.143   3.445   0.979 -1.1691 -2.2208 -0.2777
 7815SOL    HW234905   0.278   3.448   0.927 -2.4338 -0.3425 -1.8992
 7816SOL     OW34906   1.493   0.169   2.900  0.0097  0.5486 -0.1023
 7816SOL    HW134907   1.428   0.100   2.913 -0.7223  1.3193  0.2858
 7816SOL    HW234908   1.446   0.249   2.920  2.2196  1.4063  1.7678
 7817SOL     OW34909   1.052   3.064   8.265  0.6567  0.0311  0.3972
 7817SOL    HW134910   1.100   3.140   8.296  1.2499 -0.0961 -0.2217
 7817SOL    HW234911   1.013   3.092   8.182  0.7558  1.3797  0.8153
 7818SOL     OW34912   3.128   4.537  11.468 -0.1954 -0.1972  0.1059
 7818SOL    HW134913   3.117   4.534  11.563 -0.8696  0.5246  0.0506
 7818SOL    HW234914   3.219   4.508  11.462  0.4754  1.4207  2.4734
 7819SOL     OW34915   4.602   2.920   4.790 -0.3589  0.3021  0.0481
 7819SOL    HW134916   4.632   2.887   4.705  0.0369  0.1983  0.2229
 7819SOL    HW234917   4.524   2.967   4.763 -1.0401 -0.6288  0.4068
 7820SOL     OW34918   1.424   1.544  12.797  0.3288  0.3975 -0.0936
 7820SOL    HW134919   1.421   1.449  12.785 -1.5814  0.5807 -0.9116
 7820SOL    HW234920   1.479   1.537  12.875  0.9943 -1.4926 -0.7413
 7821SOL     OW34921   3.628   1.886  17.112  0.8050  0.3914  0.3108
 7821SOL    HW134922   3.721   1.892  17.089  1.2028 -0.0595  1.7790
 7821SOL    HW234923   3.602   1.970  17.075 -0.7377 -0.4641 -0.5142
 7822SOL     OW34924   2.172   0.475  16.247 -0.6694 -0.1502 -0.4338
 7822SOL    HW134925   2.111   0.422  16.297  2.0103 -1.5665  1.3404
 7822SOL    HW234926   2.146   0.456  16.157 -1.3011  0.2453 -0.3329
 7823SOL     OW34927   0.169   2.655   1.854  0.6872 -0.1321 -0.0372
 7823SOL    HW134928   0.136   2.567   1.875  3.4703 -1.3621 -0.8264
 7823SOL    HW234929   0.118   2.709   1.915 -1.8000 -0.3824 -1.9122
 7824SOL     OW34930   0.612   3.537   3.173  0.0691  0.1245  0.5289
 7824SOL    HW134931   0.565   3.526   3.091 -1.1502  2.4241  0.9262
 7824SOL    HW234932   0.540   3.574   3.224 -1.2098 -0.7721 -0.6456
 7825SOL     OW34933   3.662   4.037   7.540  0.4287 -0.2768  0.4408
 7825SOL    HW134934   3.575   4.003   7.560  0.0985  1.2006  1.4992
 7825SOL    HW234935   3.670   4.118   7.591  0.6010  0.1650 -0.2842
 7826SOL     OW34936   4.464   4.562   3.696  0.5576 -0.5383 -0.3548
 7826SOL    HW134937   4.497   4.499   3.632  1.0241 -0.2603 -0.3917
 7826SOL    HW234938   4.419   4.625   3.639 -2.5576 -2.9426 -0.5514
 7827SOL     OW34939   1.762   2.949   5.893 -1.0293  0.4057  0.4101
 7827SOL    HW134940   1.770   2.855   5.876 -0.5816  0.8206 -1.5500
 7827SOL    HW234941   1.784   2.969   5.803 -2.9360 -0.2361 -0.1965
 7828SOL     OW34942   4.370   4.498   6.820  0.2185 -0.0743 -0.7699
 7828SOL    HW134943   4.308   4.480   6.890 -1.1754 -0.6590 -2.1377
 7828SOL    HW234944   4.338   4.585   6.794 -2.3767 -0.6784  0.3866
 7829SOL     OW34945   3.706   3.031   5.321  0.6290  0.3036 -0.8396
 7829SOL    HW134946   3.689   3.093   5.250  0.3816  0.4577 -0.6440
 7829SOL    HW234947   3.661   3.075   5.393  1.7108  1.6746 -1.0010
 7830SOL     OW34948   3.675   3.073   3.786 -0.0305 -0.0590 -0.5581
 7830SOL    HW134949   3.580   3.078   3.773 -0.1882  1.0551  1.0546
 7830SOL    HW234950   3.678   3.088   3.881  1.4745  1.6084 -0.8881
 7831SOL     OW34951   2.303   1.197  17.384 -0.3064 -0.1699 -0.5343
 7831SOL    HW134952   2.349   1.114  17.396  0.5942  0.3171 -0.6208
 7831SOL    HW234953   2.218   1.155  17.377 -1.1484  1.1297  1.6545
 7832SOL     OW34954   0.107   2.414   1.600 -1.0959  0.7351 -0.3712
 7832SOL    HW134955   0.043   2.343   1.601 -0.3185  0.0372  1.0451
 7832SOL    HW234956   0.066   2.482   1.547 -2.6955  0.1477  0.0975
 7833SOL     OW34957   1.853   3.411   3.582 -0.3613  0.0643  0.1725
 7833SOL    HW134958   1.798   3.480   3.546 -0.1655  0.1440  0.0281
 7833SOL    HW234959   1.822   3.344   3.521  0.9408 -0.5563  0.1983
 7834SOL     OW34960   1.505   1.289   5.758  0.1239  0.2637  0.3224
 7834SOL    HW134961   1.450   1.258   5.686  0.0075  0.9018  0.1355
 7834SOL    HW234962   1.433   1.288   5.822  1.2375 -3.8309  1.4851
 7835SOL     OW34963   0.699   2.423   8.198  0.0034 -0.4259  0.1421
 7835SOL    HW134964   0.752   2.354   8.157  0.3044  0.8548 -1.6254
 7835SOL    HW234965   0.687   2.490   8.131 -1.8427  0.4680  1.3619
 7836SOL     OW34966   0.811   2.936   2.901  0.1593  0.5677 -0.0514
 7836SOL    HW134967   0.794   2.914   2.810 -3.6500  1.4633  0.4244
 7836SOL    HW234968   0.883   2.874   2.908 -1.8170 -1.8070 -0.4255
 7837SOL     OW34969   3.528   4.497   3.560 -0.1546  0.5857  0.1738
 7837SOL    HW134970   3.531   4.567   3.625 -1.6712  0.3829  0.4647
 7837SOL    HW234971   3.618   4.464   3.568  0.7178  3.4355  1.9514
 7838SOL     OW34972   4.566   1.874   6.910 -0.1818 -0.4327  0.5292
 7838SOL    HW134973   4.504   1.824   6.858  1.8059 -1.3585 -0.9444
 7838SOL    HW234974   4.518   1.956   6.926 -0.0463 -0.2736  0.1297
 7839SOL     OW34975   2.968   2.241   3.699 -0.1535 -0.4323 -0.4943
 7839SOL    HW134976   3.005   2.253   3.787 -0.7429 -0.2937 -0.2624
 7839SOL    HW234977   2.974   2.145   3.696 -1.4254 -0.6291  2.5601
 7840SOL     OW34978   2.384   2.890   2.389  0.1792  0.8852  0.0751
 7840SOL    HW134979   2.457   2.829   2.380 -1.3525 -0.9002 -0.2458
 7840SOL    HW234980   2.391   2.919   2.480 -0.0110  0.4372  0.2347
 7841SOL     OW34981   3.211   3.635   3.762  0.0154 -0.6122  0.0527
 7841SOL    HW134982   3.191   3.642   3.669  2.7196  0.9651 -0.4062
 7841SOL    HW234983   3.294   3.587   3.768  0.6357  0.5706  0.8532
 7842SOL     OW34984   3.863   3.499   8.287  0.3821  0.2850 -0.5660
 7842SOL    HW134985   3.931   3.441   8.255  0.4950 -0.2917  0.7323
 7842SOL    HW234986   3.868   3.482   8.381 -0.6649 -2.4752 -1.0034
 7843SOL     OW34987   0.470   1.386   7.735 -0.3146  0.2438  0.1153
 7843SOL    HW134988   0.521   1.380   7.654  0.1074  0.1082  0.3914
 7843SOL    HW234989   0.471   1.293   7.757 -0.1030 -0.1414 -1.5272
 7844SOL     OW34990   2.197   0.808  13.380 -0.2532  0.3354  0.0500
 7844SOL    HW134991   2.128   0.745  13.361  1.1287 -1.9616  2.7122
 7844SOL    HW234992   2.150   0.892  13.380 -2.4803 -0.9055 -0.5612
 7845SOL     OW34993   2.881   3.006   4.189  0.7964  0.0042 -0.4040
 7845SOL    HW134994   2.800   3.014   4.240  0.3271 -1.7864 -0.8747
 7845SOL    HW234995   2.842   3.023   4.102  0.7818  0.2177 -0.3572
 7846SOL     OW34996   3.598   3.792  16.541 -0.4488 -0.0211 -0.4630
 7846SOL    HW134997   3.584   3.770  16.633  1.6018  1.4150  0.1925
 7846SOL    HW234998   3.619   3.885  16.535  0.6362 -0.1591  0.9033
 7847SOL     OW34999   3.538   2.033   5.926  0.0724  0.7996  0.5114
 7847SOL    HW135000   3.611   2.043   5.866  0.2540  0.9573  0.7557
 7847SOL    HW235001   3.565   2.074   6.009 -1.1051 -0.5697  1.5824
 7848SOL     OW35002   0.693   2.955   2.639  0.8314 -0.9665 -0.3789
 7848SOL    HW135003   0.644   2.877   2.611 -1.3768 -0.0223  0.8918
 7848SOL    HW235004   0.619   3.006   2.672  2.0919 -0.3300  1.4795
 7849SOL     OW35005   3.572   4.007   1.352  0.2994 -0.0287  0.7200
 7849SOL    HW135006   3.569   3.913   1.334  1.9359  0.3706 -1.6083
 7849SOL    HW235007   3.656   4.035   1.317  0.8664 -1.9026  0.6056
 7850SOL     OW35008   2.293   1.447   2.282 -0.5426  0.2377  0.2271
 7850SOL    HW135009   2.328   1.534   2.299  0.6614 -0.1470 -0.3495
 7850SOL    HW235010   2.244   1.423   2.362 -0.3352  0.7224  0.4965
 7851SOL     OW35011   2.673   2.993  12.053 -0.2384  0.4438  0.0103
 7851SOL    HW135012   2.699   2.936  11.981  0.9656  0.2671  0.5982
 7851SOL    HW235013   2.584   3.020  12.028 -0.0192  0.9797 -0.1907
 7852SOL     OW35014   0.252   1.122  11.503 -0.1368 -0.1283 -0.1469
 7852SOL    HW135015   0.237   1.193  11.440  0.1146 -0.0963 -0.1701
 7852SOL    HW235016   0.344   1.102  11.491 -0.3926 -1.2887 -0.1353
 7853SOL     OW35017   0.424   4.321   6.716 -0.2591 -0.3829  0.2632
 7853SOL    HW135018   0.329   4.329   6.728 -0.4264 -2.6867  0.4686
 7853SOL    HW235019   0.460   4.388   6.774 -1.7178  1.1921 -0.6434
 7854SOL     OW35020   4.426   0.492  11.732  0.3844 -0.0253 -0.2089
 7854SOL    HW135021   4.440   0.442  11.812 -0.2853  2.3993  1.4453
 7854SOL    HW235022   4.409   0.575  11.776  2.0207  0.0918  0.2161
 7855SOL     OW35023   0.018   3.033   8.946  0.1114 -0.4170 -0.1942
 7855SOL    HW135024   0.018   3.117   8.991 -1.0626 -1.3729  1.5974
 7855SOL    HW235025   4.655   3.023   8.909  1.1741  0.0074 -2.8174
 7856SOL     OW35026   4.374   1.047  10.834 -0.1986 -0.4010  0.3074
 7856SOL    HW135027   4.420   0.974  10.792 -0.2960 -0.4511  0.2872
 7856SOL    HW235028   4.452   1.099  10.852 -0.8812  0.3555  1.0836
 7857SOL     OW35029   1.525   3.359   4.380  0.1133 -0.3132  0.5557
 7857SOL    HW135030   1.471   3.337   4.304 -0.0448 -1.9160  1.1145
 7857SOL    HW235031   1.527   3.454   4.374  2.1469 -0.3695  0.5174
 7858SOL     OW35032   0.246   2.984  12.158 -0.2176  0.7795 -0.2255
 7858SOL    HW135033   0.189   3.059  12.140 -1.3193  0.0854  0.3226
 7858SOL    HW235034   0.303   3.000  12.083  0.5639 -1.3274 -0.0787
 7859SOL     OW35035   4.079   3.431  17.025  0.3117  0.4267  0.2357
 7859SOL    HW135036   4.107   3.368  17.092  1.1138  1.1824  0.6063
 7859SOL    HW235037   4.136   3.502  17.053  2.5844 -1.6831  1.0001
 7860SOL     OW35038   0.503   4.638   6.223 -0.1829  0.6084 -0.1572
 7860SOL    HW135039   0.452   4.560   6.244  0.3099  0.3956  0.2409
 7860SOL    HW235040   0.558   4.614   6.149 -1.2649 -0.1637 -0.7038
 7861SOL     OW35041   1.697   1.037   4.067  0.0045  0.3924 -0.0585
 7861SOL    HW135042   1.638   1.022   3.993  0.4282 -0.6857 -0.1735
 7861SOL    HW235043   1.649   0.985   4.132 -0.4099  0.6504 -0.1578
 7862SOL     OW35044   4.181   3.414   8.739 -0.8522  0.3949 -0.3478
 7862SOL    HW135045   4.237   3.352   8.786  1.2034  3.1529  0.8819
 7862SOL    HW235046   4.191   3.389   8.648 -1.3533  0.2070 -0.3525
 7863SOL     OW35047   1.968   3.901   6.850 -0.1958 -0.2182 -0.3059
 7863SOL    HW135048   1.954   3.879   6.942 -0.9496 -1.0778 -0.6207
 7863SOL    HW235049   1.885   3.867   6.816  0.1857 -0.8439 -0.6165
 7864SOL     OW35050   2.334   0.480   5.324 -0.2965 -0.3844  0.2204
 7864SOL    HW135051   2.265   0.482   5.391  1.1848  1.8665  1.6628
 7864SOL    HW235052   2.326   0.565   5.281 -0.8080  0.3399  1.7484
 7865SOL     OW35053   1.897   4.103  16.046 -0.4328  0.0420  0.3758
 7865SOL    HW135054   1.955   4.125  16.119  0.2916  0.8768 -0.4510
 7865SOL    HW235055   1.958   4.055  15.990 -1.2673 -0.9375  0.3280
 7866SOL     OW35056   0.900   2.860   2.467 -0.1297  0.0585 -0.2147
 7866SOL    HW135057   0.945   2.795   2.521  2.6733  0.8864 -1.5457
 7866SOL    HW235058   0.807   2.842   2.478 -0.1248  1.4466  2.0383
 7867SOL     OW35059   4.621   0.119  16.813  0.0250  0.1093  0.3523
 7867SOL    HW135060   4.602   0.212  16.800  1.4172  0.3506  0.0597
 7867SOL    HW235061   4.700   0.121  16.868  1.2461 -0.4871 -1.3595
 7868SOL     OW35062   0.484   2.534   2.698  0.4265 -0.5235 -0.6081
 7868SOL    HW135063   0.395   2.568   2.712  1.0878  0.5984  0.8616
 7868SOL    HW235064   0.481   2.514   2.605 -0.4010 -0.9549 -0.4918
 7869SOL     OW35065   1.169   1.680  16.691  0.4608  0.2207 -0.2831
 7869SOL    HW135066   1.221   1.603  16.666  0.8147  0.3001  0.2218
 7869SOL    HW235067   1.129   1.699  16.606  0.0331  0.0324 -0.1276
 7870SOL     OW35068   2.933   2.544   3.048  0.0329 -0.3625  0.2436
 7870SOL    HW135069   2.966   2.504   3.129  0.1488  0.8872  0.8190
 7870SOL    HW235070   3.003   2.518   2.988 -1.1564 -4.0878  0.4722
 7871SOL     OW35071   1.114   0.746   4.359 -0.1472 -0.3025  0.2136
 7871SOL    HW135072   1.023   0.774   4.372  0.5502  0.8788  2.4051
 7871SOL    HW235073   1.153   0.830   4.337 -2.1684  0.7560  0.6436
 7872SOL     OW35074   1.596   1.924   7.707 -0.4923  0.2578 -0.3322
 7872SOL    HW135075   1.669   1.985   7.690 -0.9102  0.7769 -0.2666
 7872SOL    HW235076   1.572   1.964   7.790 -0.8869 -1.3771  0.3361
 7873SOL     OW35077   4.406   2.027  13.057 -0.6665  0.2843  0.4817
 7873SOL    HW135078   4.375   2.038  13.146 -0.0755  1.7579  0.5015
 7873SOL    HW235079   4.474   1.960  13.069 -1.5126 -0.8659 -1.1453
 7874SOL     OW35080   2.137   1.717  15.502 -0.3933  0.3298 -0.2283
 7874SOL    HW135081   2.046   1.706  15.473 -0.6309 -0.7746  0.9399
 7874SOL    HW235082   2.122   1.758  15.588  0.9938  0.4940 -0.0666
 7875SOL     OW35083   3.875   2.559   8.169  0.2562 -0.2966 -0.4739
 7875SOL    HW135084   3.932   2.500   8.218  1.6551  0.7475 -0.8507
 7875SOL    HW235085   3.826   2.493   8.119 -1.1126 -0.6215  1.2905
 7876SOL     OW35086   2.416   3.671   6.514 -0.1181 -0.2724 -0.5548
 7876SOL    HW135087   2.325   3.692   6.536 -0.7267 -1.7273 -1.6863
 7876SOL    HW235088   2.404   3.620   6.434  2.1799  2.5274 -2.6748
 7877SOL     OW35089   4.486   0.356  16.688  0.1180 -0.0528 -0.2222
 7877SOL    HW135090   4.543   0.417  16.642  0.9154 -1.0083 -0.5060
 7877SOL    HW235091   4.445   0.322  16.609  2.2142  0.4872 -1.5581
 7878SOL     OW35092   1.708   2.332   6.786 -0.0965 -0.4347  0.2927
 7878SOL    HW135093   1.800   2.358   6.779  0.0202 -1.9521 -3.7820
 7878SOL    HW235094   1.679   2.344   6.696 -0.8043  0.0067  0.5817
 7879SOL     OW35095   2.978   0.705   3.793 -0.0000  0.6926  0.5456
 7879SOL    HW135096   2.891   0.713   3.754  0.5023  1.1466 -0.4987
 7879SOL    HW235097   2.970   0.766   3.867  0.3784 -0.4286  1.5058
 7880SOL     OW35098   3.261   0.611  17.643  0.4698  0.5025 -0.2131
 7880SOL    HW135099   3.241   0.588   0.034 -2.0200 -0.3356 -0.9576
 7880SOL    HW235100   3.339   0.665  17.654 -0.0227  1.0935  0.3914
 7881SOL     OW35101   2.830   0.073   3.696  0.0033  0.5097  0.2346
 7881SOL    HW135102   2.861   0.152   3.651  0.7778 -1.5601 -2.8050
 7881SOL    HW235103   2.877   0.010   3.641  1.1041 -0.4308  2.2248
 7882SOL     OW35104   4.661   2.942   3.822  0.0836 -0.3393 -0.0538
 7882SOL    HW135105   4.636   2.913   3.910 -0.4884  0.5265  0.0708
 7882SOL    HW235106   4.571   2.967   3.799  0.3053 -0.7311 -1.3572
 7883SOL     OW35107   1.704   4.108   6.067 -0.2260 -0.2101 -0.0872
 7883SOL    HW135108   1.680   4.152   6.149  0.7640 -1.8345  1.1053
 7883SOL    HW235109   1.669   4.162   5.997  2.2886  1.1336 -0.3152
 7884SOL     OW35110   1.091   0.005   7.304 -0.6618 -0.2305  0.4040
 7884SOL    HW135111   1.008   0.030   7.346 -0.9685  1.1957 -1.0298
 7884SOL    HW235112   1.056   4.691   7.224  0.4593  1.4257 -0.8840
 7885SOL     OW35113   0.880   3.505   5.929 -0.2820 -0.0209  0.0714
 7885SOL    HW135114   0.969   3.487   5.960 -0.5677 -0.2556  0.7706
 7885SOL    HW235115   0.834   3.539   6.006  1.7677  1.1308  0.8066
 7886SOL     OW35116   1.466   2.474   2.080 -0.4171  0.1964 -0.2656
 7886SOL    HW135117   1.398   2.473   2.012  0.9081 -0.0475 -1.5785
 7886SOL    HW235118   1.410   2.481   2.157  0.1716  2.4334 -0.0529
 7887SOL     OW35119   1.146   2.989  16.056  0.1400  0.1766  0.7758
 7887SOL    HW135120   1.110   2.913  16.101  0.3432 -0.0556  0.5381
 7887SOL    HW235121   1.182   2.949  15.977 -2.9105  0.6473 -0.8501
 7888SOL     OW35122   1.642   3.312   6.078 -0.0264  0.1418 -0.0159
 7888SOL    HW135123   1.607   3.401   6.079  3.0815  1.3509  1.4302
 7888SOL    HW235124   1.709   3.310   6.147  0.7538  0.6583 -0.7640
 7889SOL     OW35125   0.358   4.398   6.216 -0.7140  0.4935  0.2642
 7889SOL    HW135126   0.339   4.335   6.147  2.9925  0.2043 -0.4928
 7889SOL    HW235127   0.272   4.385   6.256  0.0594  1.8885  2.3515
 7890SOL     OW35128   1.350   2.975   9.643 -0.5508  0.0332  0.3509
 7890SOL    HW135129   1.267   2.962   9.597 -0.1362  1.1619 -0.7213
 7890SOL    HW235130   1.372   2.894   9.690  1.2680  1.6464  2.2754
 7891SOL     OW35131   0.804   2.464  12.923 -0.2792  0.0007 -0.2090
 7891SOL    HW135132   0.804   2.517  12.843 -1.6097 -2.2244 -1.6956
 7891SOL    HW235133   0.766   2.526  12.985 -0.6260  0.4208 -0.8414
 7892SOL     OW35134   3.413   0.780   5.460 -0.8858  0.2383  0.7843
 7892SOL    HW135135   3.363   0.805   5.382  0.7644  0.8025 -0.0780
 7892SOL    HW235136   3.495   0.825   5.442  0.3115 -2.7336 -1.1682
 7893SOL     OW35137   4.172   1.108  11.291  0.1382  0.6181 -0.1917
 7893SOL    HW135138   4.143   1.066  11.373 -1.8120 -0.7687 -1.5773
 7893SOL    HW235139   4.260   1.139  11.313 -0.2115  1.1612  0.4137
 7894SOL     OW35140   4.188   3.295  17.261 -0.0257  0.0357 -0.1527
 7894SOL    HW135141   4.216   3.234  17.329 -1.4786 -1.8832 -1.2676
 7894SOL    HW235142   4.171   3.368  17.320  4.6140  0.5844  0.4706
 7895SOL     OW35143   2.503   0.785   7.388 -0.4299  0.4628  0.9512
 7895SOL    HW135144   2.557   0.848   7.340  0.2313  0.4366  1.6458
 7895SOL    HW235145   2.415   0.814   7.365  1.1209  4.4861  0.0808
 7896SOL     OW35146   2.120   1.354   7.407  0.1205 -0.1865 -0.2161
 7896SOL    HW135147   2.208   1.382   7.381  0.8049 -0.6885  1.5571
 7896SOL    HW235148   2.102   1.278   7.352 -0.0483 -0.8747  0.7931
 7897SOL     OW35149   0.043   1.026   5.607  0.5196  0.3123 -0.3669
 7897SOL    HW135150   4.724   0.941   5.597  0.6216  0.3079 -0.7751
 7897SOL    HW235151   0.011   1.081   5.535  0.2938  0.6722  0.0123
 7898SOL     OW35152   0.100   2.143   2.422  0.2476  0.5228 -0.2403
 7898SOL    HW135153   0.010   2.112   2.412 -0.0941  0.5512  2.5323
 7898SOL    HW235154   0.144   2.092   2.355 -0.1582  1.6292 -1.3457
 7899SOL     OW35155   2.956   0.496   6.928  0.3393  0.2929 -0.0185
 7899SOL    HW135156   2.944   0.415   6.879 -0.5745 -0.5923  1.6577
 7899SOL    HW235157   3.028   0.540   6.883  0.9270 -1.7806 -1.0802
 7900SOL     OW35158   4.665   0.615   4.600 -0.1601  0.0937 -0.1035
 7900SOL    HW135159   4.663   0.522   4.579 -1.4881  0.4867 -1.8015
 7900SOL    HW235160   0.021   0.637   4.553 -1.4945  0.3251 -2.2615
 7901SOL     OW35161   4.574   3.906  10.680 -0.5387 -0.8441  0.4272
 7901SOL    HW135162   4.587   3.877  10.590  0.0309  1.2815 -0.1803
 7901SOL    HW235163   4.479   3.909  10.695 -0.8757 -1.6951 -1.5344
 7902SOL     OW35164   3.386   4.691   0.718 -0.1818 -0.0849  0.0503
 7902SOL    HW135165   3.411   4.616   0.664 -1.6869  0.0714 -0.8508
 7902SOL    HW235166   3.294   4.697   0.692 -0.5022 -1.9468  0.7246
 7903SOL     OW35167   3.186   3.621   4.905  0.4580  0.0126 -0.3954
 7903SOL    HW135168   3.265   3.624   4.851  2.0523  1.2057  2.0285
 7903SOL    HW235169   3.226   3.670   4.977  0.7194 -0.1811 -0.4094
 7904SOL     OW35170   1.768   1.132   7.887  0.1977 -0.5202 -0.5570
 7904SOL    HW135171   1.754   1.226   7.903  2.1414 -0.3255  0.1158
 7904SOL    HW235172   1.862   1.128   7.867  0.6900  2.4667  1.0919
 7905SOL     OW35173   0.431   0.081   7.114  0.1274  0.4537 -0.3615
 7905SOL    HW135174   0.424   0.169   7.150  0.4591  0.6972 -0.9026
 7905SOL    HW235175   0.490   0.032   7.172  0.3797  1.0920 -0.0790
 7906SOL     OW35176   1.089   3.780   7.110 -0.1630 -0.4904  0.1591
 7906SOL    HW135177   1.135   3.723   7.172  0.9608  1.0648  0.7608
 7906SOL    HW235178   1.068   3.714   7.043  0.4361  0.1950 -0.7045
 7907SOL     OW35179   3.438   1.405   6.617  0.3778 -0.3907  0.1123
 7907SOL    HW135180   3.419   1.333   6.678  0.0631 -0.1424  0.3045
 7907SOL    HW235181   3.533   1.414   6.619  0.2833  0.7354 -0.7310
 7908SOL     OW35182   3.456   1.372   2.243  0.0044 -0.4933  0.0165
 7908SOL    HW135183   3.424   1.292   2.200  0.7681 -0.0315 -1.4139
 7908SOL    HW235184   3.380   1.399   2.294 -1.2631 -2.2068 -0.9424
 7909SOL     OW35185   1.565   0.384   0.664  0.0624  0.3408  0.4408
 7909SOL    HW135186   1.586   0.362   0.573 -0.4658 -4.2090  1.3876
 7909SOL    HW235187   1.598   0.473   0.662  0.6349  0.1295  0.2566
 7910SOL     OW35188   0.603   4.374   0.397 -0.4069 -0.5296  0.1889
 7910SOL    HW135189   0.585   4.459   0.357  1.1638 -0.1692  0.2609
 7910SOL    HW235190   0.526   4.333   0.358  0.1962 -0.8726 -0.6292
 7911SOL     OW35191   2.058   1.307   8.658  0.0649 -0.8665 -0.3547
 7911SOL    HW135192   2.135   1.291   8.712 -1.6586 -0.4084  2.2076
 7911SOL    HW235193   1.987   1.285   8.718  2.2658 -1.0631  2.1611
 7912SOL     OW35194   2.403   2.965   5.939  0.6693 -0.6629  0.1150
 7912SOL    HW135195   2.333   2.901   5.931  0.4777 -0.7509  2.6236
 7912SOL    HW235196   2.356   3.042   5.907 -0.2714 -1.2920 -0.0087
 7913SOL     OW35197   2.892   1.045  12.000 -0.5043 -0.7923  0.1999
 7913SOL    HW135198   2.878   0.954  11.973 -1.4529 -0.0751 -1.7314
 7913SOL    HW235199   2.800   1.065  12.014  0.2226  1.4894  1.7630
 7914SOL     OW35200   1.987   3.050   7.505 -0.2323 -0.0112 -0.4638
 7914SOL    HW135201   2.005   3.118   7.439 -0.7799  1.1865  0.6089
 7914SOL    HW235202   2.068   3.000   7.507 -1.5562 -2.1346 -0.0746
 7915SOL     OW35203   1.882   4.711   7.503 -0.2998 -0.4485 -0.2910
 7915SOL    HW135204   1.973   0.004   7.482 -1.4251  2.7064 -2.5292
 7915SOL    HW235205   1.883   4.651   7.578  1.8590 -0.0666 -0.0239
 7916SOL     OW35206   2.875   1.873   8.892  0.0748 -0.3061 -0.0803
 7916SOL    HW135207   2.952   1.843   8.941 -0.1295 -0.1160  0.3542
 7916SOL    HW235208   2.826   1.913   8.963  2.2574  0.9150  0.7273
 7917SOL     OW35209   3.410   3.288   8.665 -0.5653 -0.3201 -0.2738
 7917SOL    HW135210   3.354   3.303   8.589 -0.4131  0.2817 -0.2672
 7917SOL    HW235211   3.374   3.343   8.735  1.8935 -2.6725  2.8985
 7918SOL     OW35212   3.641   2.758   1.034 -0.0246 -0.3685 -0.0115
 7918SOL    HW135213   3.604   2.813   1.103 -0.6621  2.3009 -2.5007
 7918SOL    HW235214   3.561   2.732   0.990  0.6018  0.1190 -1.4142
 7919SOL     OW35215   4.425   0.038   3.472  0.2963  0.4021  0.7423
 7919SOL    HW135216   4.364   0.016   3.401  0.3511 -0.2579  0.8962
 7919SOL    HW235217   4.393   0.126   3.494 -3.1346 -0.1870 -1.7801
 7920SOL     OW35218   3.312   2.123   2.029 -0.2014 -0.6556  0.2618
 7920SOL    HW135219   3.363   2.114   2.110  0.5946 -0.7611 -0.2502
 7920SOL    HW235220   3.340   2.037   1.996  3.6989  0.7644 -0.0453
 7921SOL     OW35221   0.765   3.121  17.105  0.0336 -0.2310 -0.0585
 7921SOL    HW135222   0.802   3.178  17.172  2.7780 -0.5853 -1.2686
 7921SOL    HW235223   0.701   3.067  17.151 -2.4362  0.4091 -2.6983
 7922SOL     OW35224   4.320   2.118  12.815  0.4328 -0.2758  0.2089
 7922SOL    HW135225   4.317   2.027  12.787  1.5849 -0.2626  0.0403
 7922SOL    HW235226   4.320   2.098  12.909 -2.7249  0.7263  0.4305
 7923SOL     OW35227   3.905   4.191   9.879  0.2767 -0.0478 -0.3873
 7923SOL    HW135228   4.001   4.197   9.880  0.1964  1.0273  1.1724
 7923SOL    HW235229   3.881   4.191   9.786 -0.4955  1.7169 -0.2037
 7924SOL     OW35230   0.359   4.065  14.789 -0.0694  1.2183  0.3438
 7924SOL    HW135231   0.420   4.053  14.862  1.7409 -1.4901 -1.6033
 7924SOL    HW235232   0.393   3.995  14.733 -2.8193 -0.1150  0.3698
 7925SOL     OW35233   2.086   0.402   8.866  0.0232  0.1702  0.0171
 7925SOL    HW135234   1.998   0.373   8.843 -0.0213  0.4054 -0.1116
 7925SOL    HW235235   2.129   0.332   8.915 -0.4593 -0.3307 -0.2810
 7926SOL     OW35236   1.604   2.283   0.480 -0.4013 -0.5144 -0.1338
 7926SOL    HW135237   1.567   2.228   0.549 -1.2511  0.7355  0.3975
 7926SOL    HW235238   1.696   2.275   0.503 -0.1639  2.2611 -0.1377
 7927SOL     OW35239   4.626   1.684   2.511 -0.4026  0.3469  0.2324
 7927SOL    HW135240   4.533   1.693   2.494 -1.0626 -1.8894  2.8075
 7927SOL    HW235241   4.627   1.757   2.573  3.7249  0.4618  0.0329
 7928SOL     OW35242   1.866   1.372   2.244  0.0112 -0.0361 -0.3413
 7928SOL    HW135243   1.856   1.337   2.332 -1.6317  1.4044  0.0452
 7928SOL    HW235244   1.959   1.352   2.230  0.0835  0.8165 -1.0690
 7929SOL     OW35245   1.513   1.883   2.776  0.0072  0.1335  0.1286
 7929SOL    HW135246   1.538   1.949   2.841 -0.1985  0.1123  0.2299
 7929SOL    HW235247   1.529   1.934   2.697  1.4321  3.5005  2.6025
 7930SOL     OW35248   4.383   0.427  12.432 -0.6017  0.3182 -0.0925
 7930SOL    HW135249   4.402   0.471  12.349 -3.1523  2.1522  0.2901
 7930SOL    HW235250   4.290   0.442  12.448 -0.3848  0.8424  0.6737
 7931SOL     OW35251   0.033   3.659   2.344 -0.1351 -0.1933  0.4313
 7931SOL    HW135252   0.084   3.737   2.324 -1.5319  1.0776  1.8575
 7931SOL    HW235253   0.100   3.625   2.403 -0.6577 -0.8344  0.6555
 7932SOL     OW35254   2.300   2.581   3.715 -0.3884 -0.3257 -0.0333
 7932SOL    HW135255   2.331   2.638   3.785  0.7812 -0.1823 -0.6634
 7932SOL    HW235256   2.284   2.648   3.648 -1.1370 -0.0976  0.3743
 7933SOL     OW35257   3.139   4.389   0.932  0.4232  0.3032 -0.2066
 7933SOL    HW135258   3.105   4.477   0.913 -2.1111 -0.4526  0.8363
 7933SOL    HW235259   3.178   4.376   0.846  0.7027  2.8586 -0.4705
 7934SOL     OW35260   4.033   2.085   2.418  0.0755 -0.3849 -0.8636
 7934SOL    HW135261   4.092   2.063   2.490  0.2427  1.2508 -0.5021
 7934SOL    HW235262   4.043   2.180   2.413 -0.5724 -0.2961 -0.4553
 7935SOL     OW35263   4.015   0.516   5.077  0.4622  0.3617  0.8694
 7935SOL    HW135264   3.988   0.565   5.154 -2.5739 -0.3171  0.2376
 7935SOL    HW235265   3.928   0.506   5.039  1.1021 -0.9390 -0.2846
 7936SOL     OW35266   0.927   1.839   0.444  0.0667 -0.3308  0.3254
 7936SOL    HW135267   0.935   1.925   0.402  1.4537  0.3227  1.9379
 7936SOL    HW235268   0.847   1.807   0.403 -0.9109  0.0178  1.9851
 7937SOL     OW35269   2.738   0.134   4.215  0.3304  0.4337 -0.5181
 7937SOL    HW135270   2.660   0.079   4.229 -0.5560  1.8580  0.1207
 7937SOL    HW235271   2.727   0.158   4.123 -0.3092 -1.5008 -0.9621
 7938SOL     OW35272   0.759   1.216   3.010 -0.4743  0.3124  0.7617
 7938SOL    HW135273   0.801   1.302   3.000 -1.9534  0.6743 -2.3015
 7938SOL    HW235274   0.706   1.208   2.931 -0.4143  0.1551  0.7365
 7939SOL     OW35275   1.122   3.579   2.622  0.4270 -0.1589  0.3580
 7939SOL    HW135276   1.114   3.485   2.637 -0.8332 -0.0461  0.4248
 7939SOL    HW235277   1.164   3.578   2.537  0.5500 -0.1608  0.4193
 7940SOL     OW35278   0.991   2.263   1.648  0.3312 -0.2527 -0.7078
 7940SOL    HW135279   0.982   2.330   1.580 -3.2932 -1.3626 -1.3097
 7940SOL    HW235280   1.042   2.199   1.598  0.4229 -0.3891 -0.4366
 7941SOL     OW35281   1.839   0.248   9.612  0.0147 -0.0348  0.3967
 7941SOL    HW135282   1.830   0.287   9.526  1.5262  2.3311  1.3274
 7941SOL    HW235283   1.778   0.174   9.606 -0.6879  0.4426  1.4928
 7942SOL     OW35284   1.629   0.678   0.607  0.4931  0.5678 -0.3215
 7942SOL    HW135285   1.679   0.712   0.533 -0.8828  1.3661 -0.8920
 7942SOL    HW235286   1.679   0.689   0.687  0.4134 -0.5046 -0.1215
 7943SOL     OW35287   0.683   2.250   3.279  0.0907 -0.0845  0.1226
 7943SOL    HW135288   0.730   2.238   3.196  0.4771  0.5236  0.2524
 7943SOL    HW235289   0.594   2.264   3.247 -0.3312  1.8869  2.1546
 7944SOL     OW35290   0.072   2.117   3.787 -0.5442 -0.1155 -0.0232
 7944SOL    HW135291   0.086   2.210   3.806  0.6040 -0.3824  0.4232
 7944SOL    HW235292   0.157   2.077   3.798 -0.2387  0.4269 -0.4038
 7945SOL     OW35293   3.434   3.038   4.879  0.6725  0.0797  0.3954
 7945SOL    HW135294   3.371   2.966   4.886  1.8907 -1.1374 -1.1725
 7945SOL    HW235295   3.387   3.119   4.902 -1.3658 -0.3955 -2.0087
 7946SOL     OW35296   4.495   2.970   8.841  0.4131  0.1566 -0.0998
 7946SOL    HW135297   4.512   2.902   8.776  0.7410  0.1599 -0.0182
 7946SOL    HW235298   4.428   2.929   8.895 -0.5287  2.0034  0.1447
 7947SOL     OW35299   0.082   4.035   2.477  0.0198  0.1790  0.2726
 7947SOL    HW135300   0.032   4.005   2.553  2.5699  1.1329  2.3210
 7947SOL    HW235301   0.014   4.061   2.414  1.0170  1.0767 -0.4435
 7948SOL     OW35302   0.962   0.309   1.154 -0.0201  0.4004  0.7978
 7948SOL    HW135303   0.880   0.343   1.120 -0.0370  1.3210  1.7648
 7948SOL    HW235304   0.991   0.264   1.075 -4.0116  0.9617 -0.9887
 7949SOL     OW35305   3.289   4.077  13.988 -0.3979 -0.3694  0.3735
 7949SOL    HW135306   3.229   4.003  13.994 -0.4575 -0.6020 -2.9104
 7949SOL    HW235307   3.294   4.101  14.081 -0.1866 -0.1770  0.3114
 7950SOL     OW35308   4.451   0.134  11.717 -0.2986 -0.3445 -0.1278
 7950SOL    HW135309   4.388   0.070  11.749 -0.4307  0.4792  1.3219
 7950SOL    HW235310   4.459   0.195  11.791  0.5242  0.4425 -0.8583
 7951SOL     OW35311   3.155   3.075  14.800  0.2291 -0.1071  0.1770
 7951SOL    HW135312   3.222   3.123  14.751  1.2923 -2.0471 -0.2712
 7951SOL    HW235313   3.209   3.009  14.843  0.5082  0.0209  0.0237
 7952SOL     OW35314   4.304   3.671   7.161  0.0829 -0.0151  0.0051
 7952SOL    HW135315   4.239   3.627   7.106 -0.3450  1.1413 -0.4091
 7952SOL    HW235316   4.309   3.597   7.221 -1.4837 -0.6560 -0.6478
 7953SOL     OW35317   1.720   0.302   4.590  0.3598 -0.4670  0.0341
 7953SOL    HW135318   1.676   0.387   4.591 -2.6185 -2.0144  1.7774
 7953SOL    HW235319   1.811   0.325   4.609  0.6052 -1.8398  0.5282
 7954SOL     OW35320   2.458   2.790   8.459 -0.4771  0.3659 -0.1552
 7954SOL    HW135321   2.480   2.732   8.532 -0.2661  0.2116 -0.3431
 7954SOL    HW235322   2.460   2.875   8.502  0.3751 -0.3494  1.2519
 7955SOL     OW35323   3.142   1.088  16.579 -0.5765  0.0106 -0.2131
 7955SOL    HW135324   3.103   1.051  16.500 -0.1041  0.9542 -0.8928
 7955SOL    HW235325   3.069   1.128  16.626  1.4595 -0.4825  3.3641
 7956SOL     OW35326   3.669   3.796   0.158  0.1202  0.0699 -0.0819
 7956SOL    HW135327   3.727   3.817   0.232  1.1667  0.7957 -1.1183
 7956SOL    HW235328   3.734   3.752   0.104  1.6546 -1.5098  3.0373
 7957SOL     OW35329   2.492   0.667   8.849 -0.4459 -0.0889 -0.8533
 7957SOL    HW135330   2.431   0.671   8.775 -0.5604 -0.2518 -0.7676
 7957SOL    HW235331   2.531   0.754   8.842 -0.4019 -0.1153 -0.9467
 7958SOL     OW35332   1.840   2.486   7.238 -0.4667  0.2490 -0.0148
 7958SOL    HW135333   1.912   2.500   7.299 -0.6483 -1.2700  0.5356
 7958SOL    HW235334   1.761   2.484   7.291 -0.3824 -0.4886  0.0776
 7959SOL     OW35335   2.283   0.394  10.728 -0.3796  0.9813 -0.4357
 7959SOL    HW135336   2.196   0.422  10.700 -0.3165  1.0240 -0.5908
 7959SOL    HW235337   2.329   0.388  10.644 -0.3555 -1.7699 -0.2101
 7960SOL     OW35338   2.410   0.191   4.005 -0.3437  0.2411 -0.2091
 7960SOL    HW135339   2.441   0.219   4.091 -1.5973 -0.8877  0.6057
 7960SOL    HW235340   2.350   0.264   3.994  0.4778  0.5712 -2.6279
 7961SOL     OW35341   2.792   0.690   4.085  0.2824  0.4752  0.2464
 7961SOL    HW135342   2.860   0.756   4.072  0.8374 -0.1613 -0.0845
 7961SOL    HW235343   2.797   0.652   3.997 -0.8062 -0.8348  0.7584
 7962SOL     OW35344   0.936   4.432   1.183  0.4929 -0.0516 -0.4381
 7962SOL    HW135345   1.030   4.411   1.190  0.5418  0.5725  0.7548
 7962SOL    HW235346   0.895   4.349   1.158  1.7781 -1.2226  1.3488
 7963SOL     OW35347   1.527   0.334   6.668  0.2032 -0.1200  0.6188
 7963SOL    HW135348   1.591   0.351   6.737  0.4390  0.0604  0.3542
 7963SOL    HW235349   1.564   0.256   6.626  0.9743  0.5552  0.0491
 7964SOL     OW35350   2.900   1.495   4.141 -0.4434  0.3484  0.0791
 7964SOL    HW135351   2.865   1.503   4.052 -1.2164 -2.4014  0.1256
 7964SOL    HW235352   2.821   1.525   4.186 -0.4596  0.4576 -0.0216
 7965SOL     OW35353   2.222   1.511   4.563 -0.8151 -0.7091 -0.0079
 7965SOL    HW135354   2.200   1.503   4.470  0.6470  1.5533 -0.5366
 7965SOL    HW235355   2.312   1.478   4.562 -1.5537 -2.7610 -2.9097
 7966SOL     OW35356   4.081   3.359   4.182  0.2564 -0.0957  0.1044
 7966SOL    HW135357   4.114   3.271   4.163 -1.8971 -0.4485 -2.0599
 7966SOL    HW235358   4.001   3.363   4.130 -0.2108  0.0848  0.8408
 7967SOL     OW35359   2.928   3.132   1.693 -0.0127  0.0425 -0.2178
 7967SOL    HW135360   2.981   3.186   1.751  0.1212  0.1318 -0.4233
 7967SOL    HW235361   2.899   3.201   1.633 -1.8073  1.5328  2.3736
 7968SOL     OW35362   4.704   4.459   4.589  0.0736 -0.4663  0.3717
 7968SOL    HW135363   0.068   4.433   4.612 -0.0417 -2.3254 -1.2912
 7968SOL    HW235364   4.710   4.552   4.611  0.9622 -0.3781 -0.2668
 7969SOL     OW35365   2.739   4.307   1.704  0.0785 -0.4723 -0.1895
 7969SOL    HW135366   2.702   4.391   1.731  1.4213  0.0223  0.1376
 7969SOL    HW235367   2.771   4.322   1.615 -1.2152 -0.1931 -0.6046
 7970SOL     OW35368   3.198   2.089   8.421 -0.1744  0.0005  0.1861
 7970SOL    HW135369   3.181   2.161   8.482 -0.5100 -1.6033  2.0192
 7970SOL    HW235370   3.268   2.039   8.464  0.7330 -0.0551 -1.3616
 7971SOL     OW35371   1.397   3.515   8.728  0.0059 -0.3799 -0.4298
 7971SOL    HW135372   1.447   3.489   8.805 -1.2659  1.5735  1.0447
 7971SOL    HW235373   1.315   3.553   8.760  0.4765  0.5725 -0.3911
 7972SOL     OW35374   2.752   4.521   7.444 -0.5828  0.6357 -0.1402
 7972SOL    HW135375   2.775   4.428   7.438 -3.2781  0.0499 -1.4512
 7972SOL    HW235376   2.773   4.539   7.352 -0.2839  0.4506 -0.1083
 7973SOL     OW35377   1.480   1.927   0.361 -0.2936  0.2589 -0.0260
 7973SOL    HW135378   1.418   1.969   0.302 -0.6668 -1.3285 -0.7618
 7973SOL    HW235379   1.508   1.865   0.293  0.3716 -0.3625  0.8096
 7974SOL     OW35380   3.279   2.521   7.019 -0.1972  0.0807  0.0435
 7974SOL    HW135381   3.186   2.514   7.037 -0.5510 -1.6188 -2.4249
 7974SOL    HW235382   3.287   2.610   6.986  1.0709  0.5986  1.7582
 7975SOL     OW35383   1.461   4.118   4.212 -0.2687 -0.3116  0.1412
 7975SOL    HW135384   1.471   4.155   4.300  0.2560  0.7757 -0.3654
 7975SOL    HW235385   1.518   4.180   4.166 -0.1783 -1.2710 -1.0359
 7976SOL     OW35386   2.650   2.546   6.950 -0.0237 -0.2630  0.1239
 7976SOL    HW135387   2.590   2.478   6.921 -2.7210  1.0479  2.6351
 7976SOL    HW235388   2.666   2.608   6.878 -0.8280 -0.0890  0.0977
 7977SOL     OW35389   2.975   4.632   4.116 -0.0649 -0.3767 -0.0274
 7977SOL    HW135390   2.926   4.683   4.051 -1.0193 -0.0984  0.9093
 7977SOL    HW235391   2.934   4.546   4.114 -1.1291  0.1199  0.0647
 7978SOL     OW35392   2.968   2.946   8.184 -0.0678 -0.3030  0.3504
 7978SOL    HW135393   3.003   2.906   8.104  1.0780  0.7564  0.3237
 7978SOL    HW235394   2.946   2.866   8.232  1.0797  1.3539  3.6725
 7979SOL     OW35395   0.868   1.139   8.412  0.2758 -0.0256  0.3010
 7979SOL    HW135396   0.881   1.234   8.414 -1.1547  0.1895 -0.9097
 7979SOL    HW235397   0.794   1.146   8.352  0.0746 -2.1388  0.2845
 7980SOL     OW35398   2.365   1.928   2.211  0.8386 -0.0753 -0.2269
 7980SOL    HW135399   2.397   1.991   2.147 -0.2054  1.6813  0.9510
 7980SOL    HW235400   2.300   1.982   2.257  0.4854 -1.5097  0.9762
 7981SOL     OW35401   2.263   3.618   5.273  0.1414  0.3982  0.1187
 7981SOL    HW135402   2.313   3.551   5.225 -0.2177  0.1210  0.1330
 7981SOL    HW235403   2.203   3.644   5.204  1.2255  0.2015 -0.9014
 7982SOL     OW35404   0.722   4.659   6.381  0.4144  0.1287 -0.0492
 7982SOL    HW135405   0.757   4.572   6.396 -0.3523 -0.4311 -1.6144
 7982SOL    HW235406   0.673   4.652   6.299 -0.3716  1.8901  0.2493
 7983SOL     OW35407   3.265   4.405   9.550 -0.0607  0.0075  0.0506
 7983SOL    HW135408   3.330   4.374   9.613 -1.6526 -0.9595  1.2100
 7983SOL    HW235409   3.188   4.386   9.604 -0.9743  0.2397 -1.1578
 7984SOL     OW35410   3.971   2.624   2.474 -0.3007  0.2613 -0.4639
 7984SOL    HW135411   3.939   2.677   2.401 -0.9166  0.8838  0.2578
 7984SOL    HW235412   3.889   2.621   2.523  0.0573  0.7373  0.1650
 7985SOL     OW35413   4.718   0.573   6.074 -0.1085 -0.2733  0.5092
 7985SOL    HW135414   0.050   0.648   6.057 -0.0934 -0.4255 -0.1203
 7985SOL    HW235415   0.029   0.539   6.155 -0.7648 -1.1166  0.4490
 7986SOL     OW35416   3.917   3.846   2.453 -0.0342  0.9075  0.0442
 7986SOL    HW135417   3.942   3.776   2.392  0.8536 -1.6225  3.2804
 7986SOL    HW235418   3.857   3.896   2.398 -1.7103 -2.2536 -1.0483
 7987SOL     OW35419   0.097   0.416  12.821 -0.4430 -0.5592 -0.2279
 7987SOL    HW135420   0.146   0.468  12.886  1.1002  0.0449 -1.8701
 7987SOL    HW235421   0.124   0.327  12.845 -1.5936 -1.1822 -1.2402
 7988SOL     OW35422   1.912   0.243   7.245  0.0728 -0.4181 -0.0539
 7988SOL    HW135423   1.903   0.339   7.249 -0.3207 -0.4742  0.4081
 7988SOL    HW235424   1.867   0.221   7.163 -0.0942 -0.1629 -0.0338
 7989SOL     OW35425   4.376   1.527   8.217 -0.4286  0.0112 -0.0065
 7989SOL    HW135426   4.413   1.512   8.130 -1.0896 -1.6148 -0.0145
 7989SOL    HW235427   4.456   1.522   8.269 -0.5928 -0.2303  0.2228
 7990SOL     OW35428   1.825   2.884   7.364 -0.0688 -0.2761 -0.1779
 7990SOL    HW135429   1.892   2.925   7.419  0.7901 -0.8679 -0.8016
 7990SOL    HW235430   1.764   2.958   7.372  0.2247 -0.2603  1.8975
 7991SOL     OW35431   1.593   0.143   0.441 -0.0909 -0.0898  0.3460
 7991SOL    HW135432   1.592   0.049   0.461 -2.6820 -0.5097 -1.7411
 7991SOL    HW235433   1.524   0.141   0.374  0.4680  1.9948 -0.2834
 7992SOL     OW35434   0.664   2.091  15.501  0.3298  0.2311  0.4161
 7992SOL    HW135435   0.572   2.112  15.516  0.6302  1.7043  0.1208
 7992SOL    HW235436   0.683   2.019  15.561  1.7428 -0.3918 -0.7605
 7993SOL     OW35437   1.900   0.375  13.497  0.0819  0.0213  0.2718
 7993SOL    HW135438   1.833   0.316  13.533  0.2263 -0.5461 -0.3863
 7993SOL    HW235439   1.969   0.364  13.562 -0.8541 -1.4301  1.0389
 7994SOL     OW35440   0.959   1.923   2.144 -0.2064 -0.0362 -0.1615
 7994SOL    HW135441   0.962   1.915   2.240  3.2479  0.7540 -0.2139
 7994SOL    HW235442   0.881   1.872   2.123  1.5110 -3.4130  1.6538
 7995SOL     OW35443   4.265   3.998   6.753  0.0388  0.2734  0.3680
 7995SOL    HW135444   4.289   3.992   6.845  0.7086 -1.1949  0.1060
 7995SOL    HW235445   4.326   3.941   6.705  1.3601  2.5868 -0.6883
 7996SOL     OW35446   1.051   1.321   6.060 -0.1672  0.3317  0.1056
 7996SOL    HW135447   1.029   1.251   6.121 -0.9124  0.8243  0.4047
 7996SOL    HW235448   0.967   1.356   6.029  0.2714  1.3327  0.0181
 7997SOL     OW35449   0.689   0.050   8.286 -0.3033  0.2506  0.4036
 7997SOL    HW135450   0.703   4.684   8.258  2.0074  0.2617  1.5994
 7997SOL    HW235451   0.689   0.088   8.199 -2.1160 -0.6212  0.0123
 7998SOL     OW35452   1.657   4.463   8.371 -0.0543  0.2198  0.2985
 7998SOL    HW135453   1.675   4.442   8.463  1.7941  1.4325  0.2319
 7998SOL    HW235454   1.748   4.481   8.345 -0.3533  0.1330 -0.8043
 7999SOL     OW35455   1.298   3.842  14.696  0.4930  0.5950 -0.8644
 7999SOL    HW135456   1.211   3.820  14.663  1.9459 -0.4163 -3.9847
 7999SOL    HW235457   1.320   3.765  14.748  3.6230  2.3268  0.3785
 8000SOL     OW35458   3.798   4.230   8.118 -0.2386  0.0716  0.0984
 8000SOL    HW135459   3.809   4.206   8.211 -0.7933  2.0303  0.6707
 8000SOL    HW235460   3.811   4.145   8.075  1.3007  0.1638  0.3635
 8001SOL     OW35461   1.071   2.131   3.510  0.0968 -0.0052 -0.2878
 8001SOL    HW135462   1.107   2.057   3.559 -0.4409 -1.0254 -1.4364
 8001SOL    HW235463   0.987   2.098   3.478 -0.2144  1.5188 -1.0164
 8002SOL     OW35464   3.757   4.078  15.036  0.4273  0.0462 -0.4342
 8002SOL    HW135465   3.819   4.090  15.109 -2.9189  0.8641  2.2880
 8002SOL    HW235466   3.790   3.998  14.996 -2.4441 -0.5527 -1.5859
 8003SOL     OW35467   1.539   3.854  13.325  0.1862  0.0347 -0.2340
 8003SOL    HW135468   1.470   3.876  13.263 -1.0053  1.2443  1.5379
 8003SOL    HW235469   1.592   3.933  13.329  2.3777 -1.4878  1.1558
 8004SOL     OW35470   2.325   4.297   2.798  0.0329  0.1762  0.3680
 8004SOL    HW135471   2.271   4.336   2.729  2.1508  0.5284 -1.0910
 8004SOL    HW235472   2.396   4.361   2.793  0.2378 -0.0122  0.8416
 8005SOL     OW35473   3.232   4.312   0.679  0.1527 -0.2491  0.0182
 8005SOL    HW135474   3.197   4.240   0.626  2.8797  0.1156 -2.2991
 8005SOL    HW235475   3.246   4.385   0.619 -1.8464  1.7137  1.9441
 8006SOL     OW35476   1.664   1.358   0.005  0.5402  0.2090 -0.7157
 8006SOL    HW135477   1.754   1.388   0.018 -0.3183  3.1612 -1.6109
 8006SOL    HW235478   1.688   1.274  17.666  0.1927 -0.9511  1.5780
 8007SOL     OW35479   2.699   1.426   5.276  0.2307  0.1726 -0.2054
 8007SOL    HW135480   2.614   1.414   5.233 -1.0168 -0.4637  2.4496
 8007SOL    HW235481   2.687   1.358   5.342 -0.3675 -0.5270 -1.0428
 8008SOL     OW35482   0.060   0.508   1.475 -0.0605 -0.1675 -0.0417
 8008SOL    HW135483   0.061   0.589   1.424 -0.4610  0.5920  1.1418
 8008SOL    HW235484   0.149   0.476   1.464 -0.4705 -1.8756  1.4522
 8009SOL     OW35485   2.667   1.072  13.758  0.8274 -0.2015 -0.0307
 8009SOL    HW135486   2.722   1.013  13.810  3.0920  0.9940 -1.0488
 8009SOL    HW235487   2.630   1.130  13.825  2.2804  1.8051 -0.9469
 8010SOL     OW35488   2.018   3.910  12.711 -0.4408 -0.0008 -0.0536
 8010SOL    HW135489   2.090   3.847  12.708 -1.6400 -1.4158  0.6972
 8010SOL    HW235490   2.001   3.927  12.618  0.1983 -0.3836 -0.2431
 8011SOL     OW35491   0.794   2.693  14.357  0.0556 -0.8765  0.3005
 8011SOL    HW135492   0.813   2.751  14.430 -0.4130  0.7251 -0.8546
 8011SOL    HW235493   0.838   2.745  14.290 -0.5596 -2.0263 -0.9911
 8012SOL     OW35494   3.007   0.677   3.083  0.1412  0.1114 -0.4893
 8012SOL    HW135495   2.987   0.768   3.104 -0.0669 -0.4184  1.6122
 8012SOL    HW235496   3.081   0.657   3.140  0.2566 -2.6507 -1.6196
 8013SOL     OW35497   1.598   1.956   3.831 -0.0682  1.5960 -0.0743
 8013SOL    HW135498   1.657   2.030   3.846 -0.0977  1.2541  1.7182
 8013SOL    HW235499   1.526   1.981   3.889 -1.0672  0.0367 -0.6566
 8014SOL     OW35500   2.152   0.370   2.380 -0.0220  0.3631  0.9094
 8014SOL    HW135501   2.183   0.389   2.292  3.3221 -1.6190  1.6562
 8014SOL    HW235502   2.069   0.416   2.371 -0.6510 -0.9798 -0.2327
 8015SOL     OW35503   0.825   4.135  15.071  0.2809 -0.2258 -0.4504
 8015SOL    HW135504   0.810   4.093  14.986  0.5541 -1.6120  0.1841
 8015SOL    HW235505   0.920   4.137  15.083  0.1715  0.9122  0.1836
 8016SOL     OW35506   4.091   4.086   4.672 -0.0634 -0.0663  0.2924
 8016SOL    HW135507   4.029   4.140   4.721  0.8924  3.3862 -2.2820
 8016SOL    HW235508   4.170   4.116   4.717  1.2156 -1.3839 -1.0787
 8017SOL     OW35509   4.232   0.168   9.838 -0.0560 -0.7637  0.4199
 8017SOL    HW135510   4.230   0.264   9.842  1.3510 -0.7742  1.3616
 8017SOL    HW235511   4.154   0.157   9.784  0.6170  0.1122 -0.7292
 8018SOL     OW35512   0.286   2.201   2.596  0.6391 -0.2368  0.2637
 8018SOL    HW135513   0.363   2.177   2.544 -0.8168 -0.4557 -1.8219
 8018SOL    HW235514   0.214   2.198   2.532 -1.3487 -0.4350  2.5256
 8019SOL     OW35515   3.996   2.167  11.282  0.6502 -0.3744 -0.0724
 8019SOL    HW135516   3.907   2.152  11.249 -0.3112  1.0116  1.9150
 8019SOL    HW235517   4.057   2.161  11.209  1.9698  0.3776  0.9706
 8020SOL     OW35518   0.352   0.197  11.699  0.9248 -0.5226  0.2472
 8020SOL    HW135519   0.401   0.223  11.621  1.3074  2.0299  1.3206
 8020SOL    HW235520   0.263   0.216  11.670  2.0288  0.8692 -2.3372
 8021SOL     OW35521   3.051   3.848   0.552  0.0504 -0.9091  0.1818
 8021SOL    HW135522   3.075   3.806   0.470  1.5902 -2.9712  1.6817
 8021SOL    HW235523   3.003   3.773   0.588 -0.7717  0.3631  1.7566
 8022SOL     OW35524   2.208   3.441   2.938 -0.0017 -0.0358  0.0064
 8022SOL    HW135525   2.150   3.371   2.968  1.0707 -0.7564  0.4141
 8022SOL    HW235526   2.181   3.519   2.985 -1.9888 -1.2363  0.8224
 8023SOL     OW35527   1.616   1.421   6.941  0.3312  0.1075 -0.2298
 8023SOL    HW135528   1.523   1.399   6.930 -0.1525  1.7781  0.4830
 8023SOL    HW235529   1.650   1.449   6.856  0.0532 -0.8460 -0.6531
 8024SOL     OW35530   0.208   0.103  10.418  0.1665  0.2916  0.0548
 8024SOL    HW135531   0.125   0.121  10.374  0.4873  2.2848  0.2562
 8024SOL    HW235532   0.259   0.184  10.423  2.0349 -0.8966  0.1650
 8025SOL     OW35533   3.158   1.693   9.865  0.6525  0.5188  0.1442
 8025SOL    HW135534   3.211   1.744   9.926 -0.1893  0.5366  0.8513
 8025SOL    HW235535   3.072   1.693   9.906  0.3032  0.3723 -0.5857
 8026SOL     OW35536   4.125   1.263   2.819  0.8179 -0.4823  0.0053
 8026SOL    HW135537   4.085   1.216   2.746 -3.3708  1.8472  0.7642
 8026SOL    HW235538   4.205   1.301   2.782  1.5911 -2.1375  0.0045
 8027SOL     OW35539   3.354   1.946   5.210  0.5044  0.4163 -0.6011
 8027SOL    HW135540   3.356   1.860   5.169 -1.5711  1.3099 -2.5866
 8027SOL    HW235541   3.283   1.989   5.163 -1.5226 -1.2578  0.9691
 8028SOL     OW35542   4.363   2.789   3.195  0.0893 -0.0169 -0.2132
 8028SOL    HW135543   4.410   2.706   3.186  0.1766  0.1213 -1.0398
 8028SOL    HW235544   4.381   2.817   3.284 -0.5984 -0.7872  0.1769
 8029SOL     OW35545   3.790   2.542   7.448  0.0188 -0.1636  0.3250
 8029SOL    HW135546   3.751   2.472   7.395  0.2518  1.1339 -1.5733
 8029SOL    HW235547   3.773   2.503   7.533 -1.5818  0.2274  0.1884
 8030SOL     OW35548   2.356   2.107   5.678 -0.1942  0.2596  0.5308
 8030SOL    HW135549   2.394   2.107   5.591 -1.8345 -2.6063 -0.1894
 8030SOL    HW235550   2.396   2.032   5.722 -0.0306  0.2457  0.3574
 8031SOL     OW35551   1.101   1.903  15.700 -0.3889 -0.1863  0.4472
 8031SOL    HW135552   1.122   1.965  15.630 -0.4462 -1.0509 -0.3359
 8031SOL    HW235553   1.181   1.908  15.751  1.0445  0.7851 -1.8905
 8032SOL     OW35554   4.317   1.020   0.898 -0.6121 -0.0771  0.2650
 8032SOL    HW135555   4.328   1.114   0.909  0.6360 -0.0215 -1.5187
 8032SOL    HW235556   4.316   1.005   0.803  1.2278 -0.6587  0.3307
 8033SOL     OW35557   1.684   3.000  13.390 -0.6899 -0.3863  1.1639
 8033SOL    HW135558   1.710   2.911  13.412  1.6887  0.4135  1.6236
 8033SOL    HW235559   1.651   3.020  13.478  2.4674  5.5069  1.0153
 8034SOL     OW35560   3.576   0.649   8.358 -0.0180 -0.1531  0.6103
 8034SOL    HW135561   3.558   0.664   8.265  0.8332 -1.4120  0.2512
 8034SOL    HW235562   3.566   0.554   8.368 -0.0826 -0.1503  0.5740
 8035SOL     OW35563   1.153   3.960  17.009 -0.0755 -0.3731 -0.5667
 8035SOL    HW135564   1.164   3.894  16.942  0.0178  0.2575 -1.1722
 8035SOL    HW235565   1.238   4.002  17.019 -0.7901  0.9176  0.1044
 8036SOL     OW35566   0.548   3.448   2.888  0.5299 -0.3090 -0.0845
 8036SOL    HW135567   0.537   3.357   2.917 -0.1528  0.2076  1.2633
 8036SOL    HW235568   0.636   3.448   2.850  0.8514 -1.8603  0.6739
 8037SOL     OW35569   4.077   4.526  10.583  0.4179 -0.5020  0.7349
 8037SOL    HW135570   3.993   4.571  10.596 -0.3047 -1.2237 -1.4316
 8037SOL    HW235571   4.142   4.573  10.636 -0.4851  1.1660  0.3670
 8038SOL     OW35572   2.819   0.549   2.457 -0.0703  0.0969 -1.1305
 8038SOL    HW135573   2.783   0.474   2.504 -1.8331  1.9683  0.4731
 8038SOL    HW235574   2.777   0.623   2.501  0.2609 -0.1362 -0.4209
 8039SOL     OW35575   1.627   4.117   7.216  0.1945 -0.3546  0.3014
 8039SOL    HW135576   1.597   4.060   7.144 -1.1845  2.1149 -1.0739
 8039SOL    HW235577   1.568   4.191   7.201 -0.5225 -1.3198 -1.7073
 8040SOL     OW35578   4.664   4.570   8.104  0.1436  0.1882 -0.5156
 8040SOL    HW135579   4.589   4.558   8.162 -0.2352 -0.7431 -1.1960
 8040SOL    HW235580   4.621   4.551   8.020 -0.5299  0.1857 -0.1692
 8041SOL     OW35581   4.492   2.296   3.557  0.1564 -0.0016 -0.3910
 8041SOL    HW135582   4.398   2.277   3.555  0.2382 -0.2307 -1.9459
 8041SOL    HW235583   4.523   2.209   3.530  1.7342  0.5128 -0.2574
 8042SOL     OW35584   4.193   3.377   8.462  0.0589  0.0209 -0.3832
 8042SOL    HW135585   4.135   3.302   8.448  2.1175 -1.5506 -0.6058
 8042SOL    HW235586   4.190   3.419   8.376 -0.1416 -0.3043 -0.5368
 8043SOL     OW35587   4.015   3.194   2.457  0.4381  0.8446  0.2654
 8043SOL    HW135588   3.996   3.147   2.376 -1.5309 -0.6390  1.5782
 8043SOL    HW235589   4.096   3.153   2.488  1.0867  0.5122 -1.8618
 8044SOL     OW35590   4.370   2.143  13.626 -0.5694 -0.1233 -0.3179
 8044SOL    HW135591   4.352   2.108  13.539  1.1103  0.6300 -0.9820
 8044SOL    HW235592   4.440   2.208  13.612 -1.8186  1.3138  0.0883
 8045SOL     OW35593   3.334   2.343   7.998  0.1067  0.3291  0.2839
 8045SOL    HW135594   3.262   2.406   8.000 -0.8367 -0.7193 -0.7228
 8045SOL    HW235595   3.289   2.264   8.030  0.1571  0.3955  0.5194
 8046SOL     OW35596   3.444   2.590   1.823 -0.3020 -0.2833  0.3828
 8046SOL    HW135597   3.396   2.514   1.856  1.4463 -1.8753 -0.6935
 8046SOL    HW235598   3.380   2.653   1.855  1.5432  1.6544  0.2511
 8047SOL     OW35599   2.750   1.940  13.669  0.2643 -0.2602  0.0958
 8047SOL    HW135600   2.795   2.018  13.700  0.2858 -0.2151 -0.0504
 8047SOL    HW235601   2.665   1.969  13.701  0.7140  0.7523  0.3730
 8048SOL     OW35602   1.635   1.939   8.026 -0.1355  0.5061  0.3374
 8048SOL    HW135603   1.713   1.885   8.022 -0.1763  0.3767  1.3101
 8048SOL    HW235604   1.624   1.964   8.118 -1.0974  1.5037 -0.0476
 8049SOL     OW35605   4.049   1.596   4.567 -0.8187  0.2797  0.3233
 8049SOL    HW135606   4.140   1.575   4.590 -0.6622  0.9052  0.2598
 8049SOL    HW235607   4.013   1.613   4.654  1.4898  0.1710  1.3124
 8050SOL     OW35608   0.633   0.334  14.805 -0.4263 -0.2373  0.0755
 8050SOL    HW135609   0.685   0.407  14.841 -1.2850 -0.6007  2.0859
 8050SOL    HW235610   0.557   0.332  14.864 -1.8378  0.2863 -1.7592
 8051SOL     OW35611   1.679   1.134   5.914  0.0063  0.7238 -0.7216
 8051SOL    HW135612   1.673   1.214   5.966  0.2214 -0.2480  0.8130
 8051SOL    HW235613   1.610   1.159   5.853 -1.3471  0.9619  0.9137
 8052SOL     OW35614   0.225   2.827   5.259  0.0161 -0.3842  0.2326
 8052SOL    HW135615   0.130   2.837   5.264 -0.1538 -0.3885 -2.8713
 8052SOL    HW235616   0.236   2.740   5.219  2.0818 -0.1465  0.2656
 8053SOL     OW35617   2.007   1.162   3.350  0.0867 -0.2289 -0.0201
 8053SOL    HW135618   1.920   1.198   3.365  0.1674 -1.5872  3.8877
 8053SOL    HW235619   2.057   1.185   3.429 -1.3807 -0.9247  1.1040
 8054SOL     OW35620   3.454   1.985  14.144 -0.7170 -0.4978 -0.0927
 8054SOL    HW135621   3.547   1.996  14.164 -0.6272 -0.5262 -0.5022
 8054SOL    HW235622   3.419   1.962  14.230  2.0946  0.5287  1.3526
 8055SOL     OW35623   0.074   0.979  11.659  0.4735 -0.4825 -0.8301
 8055SOL    HW135624   0.134   1.004  11.588 -1.0532  1.3307 -1.4769
 8055SOL    HW235625   0.115   0.902  11.698  2.1236  0.9590  0.2681
 8056SOL     OW35626   3.184   1.515   2.992 -0.0180  0.3953 -0.0332
 8056SOL    HW135627   3.156   1.605   2.979 -0.5920  0.3307  0.7461
 8056SOL    HW235628   3.239   1.494   2.916 -0.6280  0.3190 -0.4582
 8057SOL     OW35629   3.308   2.878   9.036  0.0180  0.0144 -0.2256
 8057SOL    HW135630   3.395   2.912   9.053 -0.5970  1.6340 -0.3064
 8057SOL    HW235631   3.268   2.925   9.109 -0.8777 -1.2996  0.1386
 8058SOL     OW35632   2.936   0.896   3.963  0.1456  0.3894  0.3653
 8058SOL    HW135633   2.944   0.953   3.887  2.5891 -0.6499 -0.1483
 8058SOL    HW235634   3.017   0.903   4.014  0.2477 -0.7608  0.3464
 8059SOL     OW35635   4.611   2.018   4.670 -0.4802  0.6004  0.0183
 8059SOL    HW135636   4.552   1.976   4.607 -0.4944 -1.5478  1.4820
 8059SOL    HW235637   4.597   1.956   4.741 -0.1661 -0.7861 -1.1333
 8060SOL     OW35638   3.295   2.809   4.260 -0.0864 -0.1930 -0.2321
 8060SOL    HW135639   3.240   2.855   4.323  0.2970 -0.8643  0.5900
 8060SOL    HW235640   3.382   2.849   4.272 -0.5904  0.8401 -0.0455
 8061SOL     OW35641   0.864   2.696  13.252 -0.0522 -0.2582 -0.1788
 8061SOL    HW135642   0.918   2.754  13.199  0.7679 -0.7934  0.0729
 8061SOL    HW235643   0.774   2.728  13.243  0.4725  1.2805  0.0093
 8062SOL     OW35644   2.245   1.180   5.906  0.3020 -0.3951 -0.2829
 8062SOL    HW135645   2.152   1.184   5.927  0.4885  2.1015  0.0795
 8062SOL    HW235646   2.272   1.140   5.989  2.7915  1.5881 -0.1501
 8063SOL     OW35647   4.526   2.827   2.419  0.5512  0.0271 -0.0776
 8063SOL    HW135648   4.565   2.905   2.379 -1.8718  0.5308 -1.4407
 8063SOL    HW235649   4.561   2.825   2.508 -2.4638 -1.1791  1.0926
 8064SOL     OW35650   1.520   0.896   4.239 -0.3458  0.3624 -0.4736
 8064SOL    HW135651   1.488   0.826   4.182 -0.1571 -1.1321  1.2787
 8064SOL    HW235652   1.437   0.935   4.267 -0.2247  1.3650 -1.5131
 8065SOL     OW35653   1.812   3.937   0.546  0.2050 -0.1090  0.4814
 8065SOL    HW135654   1.896   3.909   0.582 -0.0824 -1.3383  0.2268
 8065SOL    HW235655   1.759   3.941   0.626 -2.1721 -0.3479 -1.0755
 8066SOL     OW35656   4.417   4.723  11.163 -0.0082  0.0575 -0.2817
 8066SOL    HW135657   4.471   4.702  11.087  1.4749  1.2726  0.4450
 8066SOL    HW235658   4.443   4.657  11.227 -0.4935 -0.4698 -0.6212
 8067SOL     OW35659   1.121   3.684   8.868  0.5592 -0.1832  0.1394
 8067SOL    HW135660   1.151   3.761   8.819  1.2544 -1.1810 -1.0163
 8067SOL    HW235661   1.059   3.716   8.933 -0.0143  1.2786 -1.1197
 8068SOL     OW35662   2.700   3.218   9.886 -0.5301  0.5484 -0.2225
 8068SOL    HW135663   2.718   3.190   9.796  0.5491  0.5896 -0.0230
 8068SOL    HW235664   2.691   3.310   9.861  0.9369  0.9669  0.8404
 8069SOL     OW35665   3.345   2.386  15.758 -0.2950 -0.1634 -0.0141
 8069SOL    HW135666   3.347   2.332  15.836  1.2000 -1.9781 -1.3024
 8069SOL    HW235667   3.374   2.325  15.690  0.7042  0.7577 -0.4302
 8070SOL     OW35668   2.439   1.545  11.559  0.5746  0.8531  0.4141
 8070SOL    HW135669   2.384   1.511  11.489 -0.5605  1.9870  0.7496
 8070SOL    HW235670   2.466   1.464  11.601  0.5102 -0.2563 -1.7087
 8071SOL     OW35671   3.329   3.719  12.343  0.4193 -0.4402  0.2384
 8071SOL    HW135672   3.342   3.733  12.437  1.6431  0.9406 -0.1480
 8071SOL    HW235673   3.236   3.739  12.331  0.6044 -0.3027 -0.8848
 8072SOL     OW35674   2.444   4.511   8.546 -0.0361 -0.2397 -0.0409
 8072SOL    HW135675   2.468   4.595   8.508  0.0322  1.1188  3.0137
 8072SOL    HW235676   2.430   4.541   8.636  1.0821  3.6792 -1.1894
 8073SOL     OW35677   0.031   1.834   6.113 -0.1646  0.5885  0.5628
 8073SOL    HW135678   0.053   1.925   6.135 -1.8743  0.5476  2.3761
 8073SOL    HW235679   4.704   1.855   6.035 -1.2953 -1.6948  0.7248
 8074SOL     OW35680   4.097   0.393   7.044 -0.1428  0.5104  0.0665
 8074SOL    HW135681   4.066   0.445   7.119 -0.0192  0.6032  0.0529
 8074SOL    HW235682   4.033   0.323   7.054  0.5298  0.0702  1.2819
 8075SOL     OW35683   4.578   0.553   0.945  0.1321  0.1919  0.3424
 8075SOL    HW135684   4.639   0.498   0.895  1.1308  2.3476 -0.8438
 8075SOL    HW235685   4.616   0.570   1.031  0.8934 -1.3812  0.3207
 8076SOL     OW35686   3.633   0.317   3.807 -0.2910 -0.3386  0.0072
 8076SOL    HW135687   3.648   0.373   3.884 -0.9138  1.5963 -1.2653
 8076SOL    HW235688   3.654   0.228   3.832  1.3258  0.1775  0.4528
 8077SOL     OW35689   0.720   2.972   7.820 -0.0987  0.0011  0.4790
 8077SOL    HW135690   0.683   2.884   7.830 -0.4793  0.2554  1.3300
 8077SOL    HW235691   0.638   3.021   7.815 -0.8258 -1.0239  2.4755
 8078SOL     OW35692   0.292   4.550   1.546  0.7286  0.5014 -0.2433
 8078SOL    HW135693   0.377   4.508   1.535  0.7685  0.8948 -1.4543
 8078SOL    HW235694   0.243   4.501   1.481  1.1149 -1.8980  1.2952
 8079SOL     OW35695   2.772   1.437   3.328 -0.3700 -0.4234  0.0293
 8079SOL    HW135696   2.812   1.408   3.246  2.1534 -1.2718  1.5509
 8079SOL    HW235697   2.764   1.350   3.365  1.6191 -0.2263  0.9650
 8080SOL     OW35698   1.717   0.779   5.385 -0.1000 -0.1065  0.0100
 8080SOL    HW135699   1.691   0.750   5.472  1.2909 -2.8069 -0.4481
 8080SOL    HW235700   1.637   0.800   5.337  0.5403  0.0031 -1.0243
 8081SOL     OW35701   0.808   1.578   4.679 -0.6009  0.0613  0.2607
 8081SOL    HW135702   0.864   1.512   4.720  1.5261  0.8335 -1.3838
 8081SOL    HW235703   0.818   1.643   4.748  0.1225 -0.0173  0.2379
 8082SOL     OW35704   3.499   0.294  17.031  0.2511 -0.3530 -0.3197
 8082SOL    HW135705   3.441   0.351  16.981  0.3516  0.9538  1.0620
 8082SOL    HW235706   3.437   0.227  17.061  1.3349 -0.0796  2.5241
 8083SOL     OW35707   4.660   0.281   3.788  0.2942  0.0615 -0.2104
 8083SOL    HW135708   4.606   0.330   3.727 -0.3424  0.1794  0.4453
 8083SOL    HW235709   0.011   0.250   3.738  0.8613 -1.0847  1.3534
 8084SOL     OW35710   2.876   3.228   7.161 -0.8057 -0.0339 -0.1744
 8084SOL    HW135711   2.900   3.293   7.095  1.6224  0.9058  1.6048
 8084SOL    HW235712   2.818   3.175   7.106 -1.9909 -0.5578  1.5655
 8085SOL     OW35713   1.283   2.723   4.589  0.1314  0.5843  0.2064
 8085SOL    HW135714   1.194   2.730   4.624 -0.7004 -1.1826 -1.5654
 8085SOL    HW235715   1.286   2.809   4.548  2.9361  0.9797  1.2611
 8086SOL     OW35716   3.982   2.286  10.521  0.2600  0.1159  0.0090
 8086SOL    HW135717   3.988   2.305  10.427 -0.4208  0.2620 -0.0064
 8086SOL    HW235718   3.907   2.228  10.513 -0.8452  1.3549  1.3201
 8087SOL     OW35719   2.723   2.141  10.250 -0.3089  0.3350  0.1148
 8087SOL    HW135720   2.672   2.185  10.182 -1.9796 -1.7807  0.0056
 8087SOL    HW235721   2.791   2.101  10.195  0.7747  0.3125  1.4900
 8088SOL     OW35722   2.500   2.135   3.777 -0.2047  0.2522  0.3041
 8088SOL    HW135723   2.456   2.192   3.714  0.4927  0.9807  0.4872
 8088SOL    HW235724   2.539   2.202   3.833 -0.9654  1.1209 -0.2110
 8089SOL     OW35725   4.054   0.428  11.620  0.3165  0.0952 -0.0422
 8089SOL    HW135726   4.141   0.392  11.605  0.4054  0.4246 -0.3246
 8089SOL    HW235727   4.026   0.390  11.704  1.1796  0.7094  0.5198
 8090SOL     OW35728   3.561   3.057  16.216 -0.6066 -0.3446  0.1296
 8090SOL    HW135729   3.583   2.964  16.220 -2.9356 -0.9706 -1.4334
 8090SOL    HW235730   3.632   3.090  16.270 -0.1160 -0.6284 -0.3456
 8091SOL     OW35731   3.560   2.108   5.281  0.0400 -0.5708  0.0840
 8091SOL    HW135732   3.496   2.040   5.258 -1.2674  1.2130 -1.6015
 8091SOL    HW235733   3.512   2.186   5.252 -1.9573 -1.4188  1.0680
 8092SOL     OW35734   1.790   2.268   7.089  0.2485 -0.0854  0.1829
 8092SOL    HW135735   1.799   2.334   7.158 -0.6143  1.6255 -1.3386
 8092SOL    HW235736   1.698   2.247   7.073  0.8851 -1.2545 -1.9221
 8093SOL     OW35737   3.689   3.501   4.139 -0.2155  0.1354  0.0364
 8093SOL    HW135738   3.694   3.585   4.093 -2.4798  0.3367  0.1464
 8093SOL    HW235739   3.767   3.456   4.106  1.1670  1.8038  1.0518
 8094SOL     OW35740   0.002   3.774  13.497 -0.0591 -0.5625 -0.1668
 8094SOL    HW135741   4.705   3.863  13.525 -1.2909 -1.6876  2.4674
 8094SOL    HW235742   4.663   3.727  13.552 -1.4291  1.9317  0.3869
 8095SOL     OW35743   1.232   3.183  12.887  0.4362 -0.1902 -0.3771
 8095SOL    HW135744   1.142   3.158  12.867 -0.2462  1.8020  0.1949
 8095SOL    HW235745   1.213   3.217  12.974  0.4649 -0.6692 -0.1816
 8096SOL     OW35746   1.603   1.705   5.879 -0.1510 -0.0533 -0.3763
 8096SOL    HW135747   1.659   1.772   5.918 -0.1394  1.8751 -3.7366
 8096SOL    HW235748   1.544   1.760   5.828 -0.8681  0.4973  1.0562
 8097SOL     OW35749   1.194   0.317   8.703  0.1384  0.0430 -0.0082
 8097SOL    HW135750   1.117   0.269   8.733  0.7397  0.2720  1.8925
 8097SOL    HW235751   1.161   0.338   8.615 -1.5093  0.1889  0.6400
 8098SOL     OW35752   4.299   3.249  17.663  0.1333 -0.1062 -0.3542
 8098SOL    HW135753   4.318   3.343  17.665 -1.8796  0.2814  0.4398
 8098SOL    HW235754   4.204   3.253  17.678 -0.0131 -1.3848 -0.8884
 8099SOL     OW35755   2.116   2.820  16.141 -0.7489  0.1022  0.1744
 8099SOL    HW135756   2.090   2.767  16.066 -0.7267 -1.0849  0.9955
 8099SOL    HW235757   2.203   2.853  16.121 -0.6354 -0.2705  0.0590
 8100SOL     OW35758   2.168   1.138   5.000 -0.9169 -0.6289  0.3795
 8100SOL    HW135759   2.091   1.081   5.002 -1.1115 -0.4417 -1.4026
 8100SOL    HW235760   2.133   1.212   4.951  0.1329 -0.8508 -0.7106
 8101SOL     OW35761   1.172   1.873   7.407  0.2774  0.4834 -0.1052
 8101SOL    HW135762   1.242   1.915   7.457  1.3230 -1.1542 -0.2243
 8101SOL    HW235763   1.210   1.843   7.325 -3.9687  0.7139 -2.1780
 8102SOL     OW35764   1.030   0.012  11.943 -0.0684  0.2115 -0.3764
 8102SOL    HW135765   1.007   4.674  12.012 -1.1422 -0.8357 -1.6867
 8102SOL    HW235766   1.117   0.043  11.964 -0.2438  1.1921 -1.1147
 8103SOL     OW35767   3.392   4.238   2.379 -0.4356  0.6508  0.6687
 8103SOL    HW135768   3.416   4.172   2.444  1.6145  0.9729  0.2227
 8103SOL    HW235769   3.340   4.305   2.423 -1.1765  1.1083 -0.9122
 8104SOL     OW35770   0.584   0.727   7.057  0.5621  0.3864 -0.2121
 8104SOL    HW135771   0.594   0.737   6.962  0.4226 -0.3914 -0.3059
 8104SOL    HW235772   0.489   0.717   7.067  0.8722 -2.1747  0.0237
 8105SOL     OW35773   2.315   3.985   3.068  0.2892 -0.7035 -0.0607
 8105SOL    HW135774   2.361   4.066   3.049  0.1004 -0.4683  0.4871
 8105SOL    HW235775   2.378   3.932   3.116 -1.5379 -0.6787  2.3842
 8106SOL     OW35776   1.783   4.407   6.015 -0.6322 -0.7284 -0.0936
 8106SOL    HW135777   1.749   4.368   5.935 -1.0610  0.4521 -0.4862
 8106SOL    HW235778   1.710   4.427   6.073  0.8718 -1.1269  1.9415
 8107SOL     OW35779   2.869   0.424   7.363  0.0998  0.2928  0.2766
 8107SOL    HW135780   2.844   0.508   7.402 -1.0968 -0.3228  0.7989
 8107SOL    HW235781   2.834   0.426   7.274  2.1502  0.2884 -0.5463
 8108SOL     OW35782   2.404   2.519   7.900 -0.1231  0.2333 -0.4428
 8108SOL    HW135783   2.439   2.432   7.884 -1.6965 -0.5964  0.6368
 8108SOL    HW235784   2.395   2.518   7.995 -1.2656 -0.5192 -0.5633
 8109SOL     OW35785   4.302   1.292   1.041 -0.5112 -0.4582 -0.1219
 8109SOL    HW135786   4.292   1.351   1.116  0.4862 -3.3013  2.2901
 8109SOL    HW235787   4.211   1.262   1.050 -0.4972 -1.0019 -1.7733
 8110SOL     OW35788   0.695   0.538  14.594  0.3602 -0.4778 -0.0759
 8110SOL    HW135789   0.638   0.614  14.581  1.1021 -0.0423 -0.7571
 8110SOL    HW235790   0.629   0.483  14.638 -1.0165  0.8325 -0.5044
 8111SOL     OW35791   4.296   2.354   6.939  0.7667 -0.7850 -0.1657
 8111SOL    HW135792   4.211   2.388   6.965  1.7390 -0.2670  2.3111
 8111SOL    HW235793   4.325   2.438   6.903  2.2199 -0.6498  1.2972
 8112SOL     OW35794   0.803   1.738   4.903  0.0189 -0.3537 -0.2729
 8112SOL    HW135795   0.710   1.761   4.905  0.4393  1.6208 -2.5778
 8112SOL    HW235796   0.805   1.725   4.998 -3.8326  4.6308  0.4630
 8113SOL     OW35797   1.325   1.748  16.240  0.3923 -0.2849 -0.1847
 8113SOL    HW135798   1.385   1.766  16.167 -0.9733 -0.0712 -1.2438
 8113SOL    HW235799   1.240   1.773  16.204  0.0516 -2.1602 -0.6397
 8114SOL     OW35800   4.471   3.955  11.398 -0.5667 -0.1281 -0.4421
 8114SOL    HW135801   4.530   3.957  11.474 -2.2367  0.3185  0.8402
 8114SOL    HW235802   4.527   3.947  11.321  1.1900 -2.2034  1.0462
 8115SOL     OW35803   0.035   0.418   3.119  0.7374 -0.3195 -0.0193
 8115SOL    HW135804   0.008   0.486   3.058 -0.1607 -1.0211 -0.3941
 8115SOL    HW235805   4.700   0.344   3.112  0.2749 -0.0988  1.5286
 8116SOL     OW35806   4.250   1.302   5.725 -0.6998 -0.2891 -0.0043
 8116SOL    HW135807   4.205   1.367   5.779 -1.7592 -0.5722 -0.5407
 8116SOL    HW235808   4.289   1.244   5.791 -1.1134  1.0810  1.4461
 8117SOL     OW35809   0.539   4.125   3.001  0.1396  0.3926 -0.2251
 8117SOL    HW135810   0.461   4.151   2.951  0.6562 -0.8025 -1.6460
 8117SOL    HW235811   0.598   4.146   2.929 -0.8550  1.4660 -0.7265
 8118SOL     OW35812   2.264   0.632  14.774 -0.1610 -0.3389  0.2027
 8118SOL    HW135813   2.320   0.653  14.699 -0.2996 -1.0727 -0.1054
 8118SOL    HW235814   2.303   0.680  14.847 -0.7178  0.5849 -0.1147
 8119SOL     OW35815   2.603   3.854  14.471 -0.0245 -0.3313 -0.3402
 8119SOL    HW135816   2.692   3.830  14.498  0.7946 -0.9391 -3.5200
 8119SOL    HW235817   2.623   3.899  14.389 -0.0778 -1.2354 -0.8504
 8120SOL     OW35818   1.642   4.410   6.315 -0.3790 -0.3154 -0.8230
 8120SOL    HW135819   1.707   4.345   6.341 -1.4470 -1.7100 -1.6747
 8120SOL    HW235820   1.571   4.350   6.293  0.7072 -1.6141 -0.7233
 8121SOL     OW35821   2.739   3.742   0.864  0.1484 -0.1230  0.1781
 8121SOL    HW135822   2.735   3.808   0.795 -0.0439 -1.1942 -0.8272
 8121SOL    HW235823   2.670   3.778   0.919 -0.6561 -0.2680 -0.7439
 8122SOL     OW35824   1.336   1.666  17.120  0.2509 -0.5597 -0.0366
 8122SOL    HW135825   1.357   1.748  17.164  0.2876 -0.5289 -0.1108
 8122SOL    HW235826   1.245   1.661  17.148  0.3877 -1.5054  0.2510
 8123SOL     OW35827   1.701   0.220   2.136  0.2427 -0.0690 -0.1676
 8123SOL    HW135828   1.789   0.254   2.150  0.3111 -0.9201  1.5374
 8123SOL    HW235829   1.666   0.245   2.221  0.3994  0.6604 -0.3190
 8124SOL     OW35830   2.889   1.077   3.750  0.0243 -0.3192 -0.4287
 8124SOL    HW135831   2.937   1.158   3.769  1.2021 -1.0548 -0.2706
 8124SOL    HW235832   2.963   1.022   3.726 -0.6882 -0.9994 -1.0580
 8125SOL     OW35833   4.237   2.767   8.920  0.3527  0.4758  0.2530
 8125SOL    HW135834   4.243   2.730   9.009 -0.0799 -1.7854 -0.6582
 8125SOL    HW235835   4.161   2.824   8.929  0.2727  0.6066 -1.2884
 8126SOL     OW35836   1.660   1.859   5.366  0.3499  0.0402 -0.0685
 8126SOL    HW135837   1.699   1.940   5.400  1.7518  0.7672 -3.3557
 8126SOL    HW235838   1.741   1.812   5.348  0.8780  1.0476 -0.3593
 8127SOL     OW35839   1.028   0.870   6.006 -0.2227  0.2418 -0.3789
 8127SOL    HW135840   1.104   0.856   5.949 -0.8934 -0.6194 -1.0676
 8127SOL    HW235841   0.972   0.875   5.929  0.2248  0.1104 -0.7156
 8128SOL     OW35842   4.691   1.478   9.525  0.1026 -0.1796  0.4632
 8128SOL    HW135843   4.673   1.490   9.432  0.2585  0.4437  0.5076
 8128SOL    HW235844   4.604   1.477   9.564 -0.4168  2.8423 -0.6051
 8129SOL     OW35845   0.288   3.214  16.450 -0.5083 -0.2360 -0.1025
 8129SOL    HW135846   0.374   3.204  16.409 -0.3712  1.5182 -0.2408
 8129SOL    HW235847   0.240   3.250  16.375 -0.5471  0.4341  0.2418
 8130SOL     OW35848   1.057   0.186   3.142  0.0153 -0.0885 -0.3603
 8130SOL    HW135849   1.103   0.178   3.225  0.6839 -0.6475 -0.7891
 8130SOL    HW235850   1.117   0.244   3.096  1.2795 -1.4108 -0.3943
 8131SOL     OW35851   2.827   0.099   7.367 -0.2360  0.2705  0.3407
 8131SOL    HW135852   2.793   0.059   7.447  0.1757  0.6441  0.7003
 8131SOL    HW235853   2.894   0.154   7.409  1.2234 -1.3302  0.1433
 8132SOL     OW35854   0.505   4.671   5.942  0.4324  0.1518  0.5592
 8132SOL    HW135855   0.537   4.708   5.860  0.0673  0.5886  0.6146
 8132SOL    HW235856   0.481   4.581   5.917  1.2137 -0.2950  1.4044
 8133SOL     OW35857   0.770   2.383   8.658  0.2034  0.5419 -0.7958
 8133SOL    HW135858   0.718   2.329   8.600  1.4750 -0.5526 -0.9155
 8133SOL    HW235859   0.786   2.463   8.608 -1.5812 -0.3052 -2.7101
 8134SOL     OW35860   1.583   1.004   9.799 -0.7930 -0.1322 -0.0001
 8134SOL    HW135861   1.626   0.934   9.849 -0.7269 -1.1684 -1.5316
 8134SOL    HW235862   1.653   1.069   9.804 -3.1044  2.3491  0.0638
 8135SOL     OW35863   0.286   1.372   4.876  0.3472  0.3545 -0.0790
 8135SOL    HW135864   0.330   1.426   4.942 -0.1879  0.4245  0.2251
 8135SOL    HW235865   0.355   1.376   4.810  1.8276 -2.2301  1.3419
 8136SOL     OW35866   2.229   0.106  10.590  0.5045  0.5900  0.6863
 8136SOL    HW135867   2.293   0.121  10.521  2.2852 -2.6526  1.6272
 8136SOL    HW235868   2.282   0.122  10.668  1.5953  0.8262 -0.1071
 8137SOL     OW35869   3.629   3.034  17.164  0.0318 -0.4794 -0.6164
 8137SOL    HW135870   3.602   3.109  17.218 -0.7174 -0.0367 -1.6157
 8137SOL    HW235871   3.574   3.059  17.090 -0.6635 -1.1261 -0.3237
 8138SOL     OW35872   1.418   2.652  16.661  0.0864  0.6547 -0.0840
 8138SOL    HW135873   1.409   2.737  16.618  0.7661  1.0503  0.5615
 8138SOL    HW235874   1.391   2.587  16.595 -1.3032  0.7635  0.3717
 8139SOL     OW35875   2.285   0.655   3.798 -0.2118  0.2700 -0.6342
 8139SOL    HW135876   2.251   0.575   3.759  0.7736 -0.3304 -0.2675
 8139SOL    HW235877   2.216   0.718   3.778 -0.1135 -0.1847 -2.4067
 8140SOL     OW35878   3.133   2.296   3.900  0.5474  0.0236  0.4032
 8140SOL    HW135879   3.152   2.389   3.884  0.4227  0.3059  1.8385
 8140SOL    HW235880   3.169   2.287   3.989  1.4908  2.2316  0.2371
 8141SOL     OW35881   0.368   3.454  13.644  0.0084  0.0099  0.0264
 8141SOL    HW135882   0.426   3.411  13.581  0.8831  2.6470 -0.9468
 8141SOL    HW235883   0.295   3.478  13.587 -0.7689 -2.0305  0.1431
 8142SOL     OW35884   4.101   1.753   8.100  0.2577  0.3888 -0.3370
 8142SOL    HW135885   4.191   1.752   8.133  0.2448  0.3145 -0.3051
 8142SOL    HW235886   4.073   1.835   8.140 -0.2728 -0.1045  0.2843
 8143SOL     OW35887   0.023   2.679   8.482 -0.3099  0.0411  0.0616
 8143SOL    HW135888   0.051   2.693   8.392 -2.3868  1.7777 -0.3301
 8143SOL    HW235889   0.038   2.764   8.524 -1.3286  0.7587 -1.0249
 8144SOL     OW35890   4.167   0.035   1.010 -0.1467 -0.4095  0.0499
 8144SOL    HW135891   4.133   0.084   1.084  0.7065 -1.5834  1.2217
 8144SOL    HW235892   4.145   4.669   1.031 -1.2887 -0.1019  0.1295
 8145SOL     OW35893   1.245   1.052   7.871 -0.8403  0.7767  0.2843
 8145SOL    HW135894   1.328   1.005   7.862 -0.0943  2.1618 -0.0229
 8145SOL    HW235895   1.271   1.139   7.841 -1.9439  0.6969 -0.8943
 8146SOL     OW35896   2.176   0.698   7.116  0.0373  0.1341  0.5347
 8146SOL    HW135897   2.090   0.740   7.104  0.1089  0.4354  1.0395
 8146SOL    HW235898   2.207   0.749   7.191 -0.5381  1.8784 -0.4071
 8147SOL     OW35899   0.351   0.640  17.235 -0.1883  0.0439 -1.3674
 8147SOL    HW135900   0.374   0.552  17.265  0.0179  0.2177 -1.0096
 8147SOL    HW235901   0.438   0.677  17.249 -0.8892  0.8050  0.9714
 8148SOL     OW35902   4.504   0.486   9.027  0.9223 -0.2934 -0.4106
 8148SOL    HW135903   4.438   0.425   9.059 -0.0233  0.1149 -1.5629
 8148SOL    HW235904   4.446   0.548   8.982  0.4873 -0.7407 -0.4599
 8149SOL     OW35905   1.443   3.461   5.902  0.5336  0.2530  0.1981
 8149SOL    HW135906   1.502   3.503   5.965  3.0863 -1.5323 -0.9650
 8149SOL    HW235907   1.376   3.418   5.954 -0.9258  2.6019  0.2398
 8150SOL     OW35908   2.126   0.514  15.760  0.1259  0.2071 -0.3946
 8150SOL    HW135909   2.149   0.521  15.667  1.7640  1.8345  0.1294
 8150SOL    HW235910   2.059   0.582  15.767  1.1919  1.0732  1.3190
 8151SOL     OW35911   3.449   1.607   6.356  0.2726  0.2998  0.6344
 8151SOL    HW135912   3.538   1.607   6.390  0.6467 -0.3602 -0.3624
 8151SOL    HW235913   3.465   1.552   6.279  1.6440  2.1018 -0.3523
 8152SOL     OW35914   2.209   0.708   4.283 -0.0054  0.2642  0.3461
 8152SOL    HW135915   2.257   0.662   4.215  1.8426  1.7830  0.6225
 8152SOL    HW235916   2.188   0.789   4.236  1.4113  1.4927  1.7702
 8153SOL     OW35917   3.305   0.125   5.851 -0.1333  0.6883  0.0127
 8153SOL    HW135918   3.267   0.143   5.937 -0.1186  0.2149  0.1167
 8153SOL    HW235919   3.322   0.214   5.821 -0.2480  0.4482 -0.7462
 8154SOL     OW35920   3.561   0.097   8.060 -0.0149 -0.4013  0.0655
 8154SOL    HW135921   3.559   0.008   8.026  0.8122  0.5489 -2.4657
 8154SOL    HW235922   3.654   0.105   8.081 -0.2838 -0.4168  1.3035
 8155SOL     OW35923   0.804   0.339   3.139 -0.0720  0.0857 -0.1832
 8155SOL    HW135924   0.889   0.306   3.167 -0.6306 -2.4967 -1.5321
 8155SOL    HW235925   0.797   0.259   3.088 -0.0520 -0.1634  0.2013
 8156SOL     OW35926   3.592   3.270   7.663 -0.3295  0.1945 -0.3403
 8156SOL    HW135927   3.584   3.319   7.582  2.9219 -0.2992 -0.9326
 8156SOL    HW235928   3.500   3.269   7.692 -0.6358  0.2199 -1.3244
 8157SOL     OW35929   1.100   2.181   0.199 -0.2886 -0.4475 -0.2974
 8157SOL    HW135930   1.007   2.200   0.209 -0.2061 -0.0106 -0.3375
 8157SOL    HW235931   1.140   2.259   0.238  1.0514 -0.7515 -1.0711
 8158SOL     OW35932   1.919   4.460  15.504 -0.2007  0.3350 -0.0932
 8158SOL    HW135933   1.883   4.372  15.518  0.2654  0.4299  1.5960
 8158SOL    HW235934   1.968   4.473  15.585  0.2798 -0.5425 -0.2362
 8159SOL     OW35935   4.546   2.478   8.242  0.1737 -0.0803  0.1393
 8159SOL    HW135936   4.509   2.566   8.241  0.3195 -0.0139  0.6069
 8159SOL    HW235937   4.573   2.474   8.150  2.7672 -1.0272  0.9452
 8160SOL     OW35938   1.469   1.134  17.555 -0.0754 -0.4673 -0.1502
 8160SOL    HW135939   1.478   1.068  17.486 -0.3043 -0.8439  0.1761
 8160SOL    HW235940   1.558   1.149  17.587 -0.2098  0.4417 -0.1922
 8161SOL     OW35941   2.885   3.470  16.623 -0.3722 -0.0142  0.1403
 8161SOL    HW135942   2.834   3.471  16.542  1.1356 -0.0542 -0.8037
 8161SOL    HW235943   2.970   3.507  16.597 -1.5278  1.1922 -1.9663
 8162SOL     OW35944   0.767   0.984   5.781  0.5229 -0.4235 -0.3483
 8162SOL    HW135945   0.715   1.030   5.847 -1.2020 -1.2465 -1.1320
 8162SOL    HW235946   0.734   0.894   5.791 -0.6567  0.0314 -0.0923
 8163SOL     OW35947   3.437   3.558   2.831  0.1196 -0.0210  0.1898
 8163SOL    HW135948   3.519   3.550   2.879  1.4052  1.2353 -1.7833
 8163SOL    HW235949   3.460   3.624   2.765 -0.0257  0.4466  0.6135
 8164SOL     OW35950   0.213   0.726   3.577 -0.4046  0.9933  0.2692
 8164SOL    HW135951   0.125   0.765   3.578 -1.8686 -2.2736 -1.8098
 8164SOL    HW235952   0.194   0.647   3.628  2.2586  0.7264  0.8458
 8165SOL     OW35953   4.591   3.934   7.209  0.4469  0.2528 -0.3739
 8165SOL    HW135954   4.656   3.955   7.276 -1.6398  0.1740  1.6415
 8165SOL    HW235955   4.524   3.997   7.234  0.9674  0.7416 -0.2067
 8166SOL     OW35956   1.200   1.731  10.513  0.0212 -0.0747 -0.4854
 8166SOL    HW135957   1.183   1.745  10.607  0.3878 -0.2180 -0.3977
 8166SOL    HW235958   1.294   1.726  10.528 -0.1259  2.0191  1.2462
 8167SOL     OW35959   0.108   2.493   6.635 -0.0738 -0.8118  0.3841
 8167SOL    HW135960   0.106   2.529   6.547  1.8543 -0.3904  0.5122
 8167SOL    HW235961   0.044   2.424   6.617  1.3241 -1.5644 -1.6256
 8168SOL     OW35962   1.384   3.391  15.545  0.0901  0.8141  0.6899
 8168SOL    HW135963   1.404   3.337  15.622 -0.9594  1.8173  1.6596
 8168SOL    HW235964   1.437   3.466  15.572 -1.5669  2.1703  0.1694
 8169SOL     OW35965   3.003   1.478   6.364  0.3147  0.3798 -0.6321
 8169SOL    HW135966   3.071   1.411   6.360  1.5721  1.6878 -1.0720
 8169SOL    HW235967   3.059   1.555   6.353  0.9223  0.1783  1.0052
 8170SOL     OW35968   3.052   4.282   3.226 -0.2817 -0.2015  0.3373
 8170SOL    HW135969   3.019   4.296   3.315 -0.7108  1.6927 -0.1256
 8170SOL    HW235970   3.115   4.354   3.228 -0.3199 -0.1917  1.6199
 8171SOL     OW35971   4.103   4.325   1.957  0.1463 -0.6969 -0.4385
 8171SOL    HW135972   4.012   4.338   1.931  0.8712 -0.7973 -3.0245
 8171SOL    HW235973   4.102   4.342   2.052  3.5187  0.5328 -0.5940
 8172SOL     OW35974   3.914   0.112   5.528  0.0923  0.3167  0.3470
 8172SOL    HW135975   4.000   0.108   5.486  0.7331 -1.7073  1.8797
 8172SOL    HW235976   3.862   0.043   5.487  0.4068 -0.1138  0.6817
 8173SOL     OW35977   2.138   4.404   4.667  0.1955 -1.0226 -0.0629
 8173SOL    HW135978   2.079   4.427   4.740 -2.9674  1.6352 -3.4594
 8173SOL    HW235979   2.173   4.490   4.644 -0.0277 -0.9891 -0.2753
 8174SOL     OW35980   0.513   3.555  17.357 -0.6985  0.1149  0.9147
 8174SOL    HW135981   0.547   3.618  17.420 -0.1898  1.3983 -0.6551
 8174SOL    HW235982   0.419   3.570  17.365 -0.5315  0.7890  1.6214
 8175SOL     OW35983   2.449   4.570   1.896 -1.0770  0.4300  0.5615
 8175SOL    HW135984   2.388   4.622   1.949 -0.2923  0.0722  1.8246
 8175SOL    HW235985   2.406   4.559   1.812  0.1524  0.2368 -0.0439
 8176SOL     OW35986   1.663   0.380   5.472  0.0627 -0.2209  0.5140
 8176SOL    HW135987   1.748   0.336   5.472  0.1796 -0.0062 -0.4723
 8176SOL    HW235988   1.659   0.431   5.391  1.8343 -0.5069  0.2462
 8177SOL     OW35989   4.157   3.565  12.186 -0.1406  0.4127 -0.2850
 8177SOL    HW135990   4.120   3.523  12.108  2.0802 -0.3431 -0.9606
 8177SOL    HW235991   4.087   3.540  12.247  0.1410  0.0483 -0.1063
 8178SOL     OW35992   1.871   1.469   9.147 -0.3184 -0.1206 -0.1955
 8178SOL    HW135993   1.780   1.454   9.171 -0.0257 -1.6154 -0.0004
 8178SOL    HW235994   1.896   1.378   9.128  1.1556  0.3976 -0.7542
 8179SOL     OW35995   0.842   2.905   4.056  0.2347 -0.7668  0.1840
 8179SOL    HW135996   0.781   2.967   4.016  1.4415 -0.1915 -0.7770
 8179SOL    HW235997   0.820   2.823   4.012 -3.6510  1.1060 -1.3990
 8180SOL     OW35998   4.064   1.984   2.704 -0.8973  0.0096 -0.6782
 8180SOL    HW135999   3.978   2.020   2.683 -0.0886  2.5705  0.4696
 8180SOL    HW236000   4.063   1.961   2.797  0.2738  1.7901 -0.2297
 8181SOL     OW36001   2.964   2.425   9.185 -0.1369 -0.1847 -0.0841
 8181SOL    HW136002   2.999   2.420   9.096  0.5087 -2.6300  0.2986
 8181SOL    HW236003   2.979   2.516   9.210 -1.6379  0.0191  0.0873
 8182SOL     OW36004   3.481   4.360   3.213  0.3652  0.0301 -0.4036
 8182SOL    HW136005   3.523   4.296   3.271 -1.7342  0.1208  1.2101
 8182SOL    HW236006   3.512   4.320   3.131 -1.6030 -2.4619  0.0455
 8183SOL     OW36007   1.754   3.528  10.562  0.3916  0.3024 -0.1111
 8183SOL    HW136008   1.764   3.467  10.635 -2.1243  0.6999  0.5873
 8183SOL    HW236009   1.835   3.506  10.517  0.3141 -1.8357  0.7854
 8184SOL     OW36010   1.904   2.452   9.314 -0.5397  0.3538  0.4552
 8184SOL    HW136011   1.942   2.525   9.363  0.4787 -0.2198  0.5064
 8184SOL    HW236012   1.813   2.482   9.320 -0.8787 -0.5296 -0.2543
 8185SOL     OW36013   2.023   0.889   5.313  0.0703  0.3475 -0.4830
 8185SOL    HW136014   2.086   0.892   5.384 -0.1356 -0.9850 -0.2337
 8185SOL    HW236015   1.949   0.844   5.354  0.3218 -1.1057 -1.5862
 8186SOL     OW36016   1.951   0.325  12.721  0.0929 -0.4052 -0.2317
 8186SOL    HW136017   1.857   0.310  12.710 -0.2683  0.4119  1.7818
 8186SOL    HW236018   1.978   0.333  12.629  0.9834 -0.4397  0.0271
 8187SOL     OW36019   2.958   4.023   9.275  0.3885  0.1146  0.3612
 8187SOL    HW136020   3.036   4.063   9.314  0.2617  1.9753 -1.2495
 8187SOL    HW236021   2.968   4.051   9.184  0.7622 -1.2073  0.0048
 8188SOL     OW36022   0.053   0.254  12.171  0.2773  0.4980 -0.2696
 8188SOL    HW136023   4.690   0.251  12.134  0.0307 -0.1810  0.3720
 8188SOL    HW236024   0.106   0.255  12.091 -1.4030  0.7443 -1.3841
 8189SOL     OW36025   4.459   0.522   0.057  0.6741 -0.2198  0.0798
 8189SOL    HW136026   4.466   0.573   0.137  1.2911 -0.6474  0.2928
 8189SOL    HW236027   4.484   0.434   0.086 -0.1170 -0.1236  1.0642
 8190SOL     OW36028   2.239   4.605   2.669 -0.1379 -0.2315  0.1127
 8190SOL    HW136029   2.170   4.591   2.604 -0.0256  1.5061 -0.3889
 8190SOL    HW236030   2.189   4.630   2.747  1.1849  1.1076  0.5206
 8191SOL     OW36031   2.049   3.360   6.055 -0.3770  0.1131  0.2402
 8191SOL    HW136032   2.025   3.452   6.056  0.6566  0.3905  0.6763
 8191SOL    HW236033   1.962   3.324   6.071 -0.0076  0.1025  2.2609
 8192SOL     OW36034   2.361   0.868  13.921  0.3064  0.3626  0.4166
 8192SOL    HW136035   2.372   0.895  13.830  1.6226 -0.4874  0.3098
 8192SOL    HW236036   2.429   0.800  13.923  0.9250  1.0295  2.1080
 8193SOL     OW36037   0.565   2.199  15.165  0.7075  0.6207  0.0784
 8193SOL    HW136038   0.522   2.188  15.250 -3.0373 -3.7486 -2.3460
 8193SOL    HW236039   0.496   2.160  15.112  0.8044 -0.2237  0.5747
 8194SOL     OW36040   3.124   0.725  14.081  0.0949 -0.2972  0.6016
 8194SOL    HW136041   3.104   0.766  13.997  1.5095  0.6243  0.7115
 8194SOL    HW236042   3.201   0.680  14.047 -0.3002 -1.0601  0.7325
 8195SOL     OW36043   4.535   0.015   4.831 -0.0583  0.2528  0.2062
 8195SOL    HW136044   4.526   0.027   4.926  1.7727  1.0948  0.2806
 8195SOL    HW236045   4.471   0.079   4.800 -1.8104 -0.7182  1.8615
 8196SOL     OW36046   0.708   1.920  15.237  0.9028  0.1772  0.3422
 8196SOL    HW136047   0.733   1.927  15.145 -1.0906 -1.1202 -0.3160
 8196SOL    HW236048   0.729   2.008  15.267 -1.8106  0.8513  0.3368
 8197SOL     OW36049   1.179   2.947  14.354 -0.4437 -0.1636 -0.1271
 8197SOL    HW136050   1.132   2.884  14.299 -0.2322 -0.5723  0.1599
 8197SOL    HW236051   1.125   3.026  14.350 -2.2444 -1.3872 -0.4383
 8198SOL     OW36052   1.354   3.140   8.001 -0.0374  0.2155  0.1811
 8198SOL    HW136053   1.321   3.057   8.035 -0.6420 -0.2154 -1.4478
 8198SOL    HW236054   1.275   3.173   7.958 -1.1981 -0.7905  1.5192
 8199SOL     OW36055   0.441   3.879  14.607  0.0874 -0.0942 -0.3138
 8199SOL    HW136056   0.490   3.891  14.525 -0.0722 -1.7848 -0.6558
 8199SOL    HW236057   0.467   3.787  14.620  2.7375  1.0772  2.8224
 8200SOL     OW36058   0.544   4.580   1.281  0.3247 -0.1921  0.3073
 8200SOL    HW136059   0.584   4.557   1.365 -1.9367 -0.7224  1.2325
 8200SOL    HW236060   0.541   4.494   1.238 -0.3735 -0.5460  1.0688
 8201SOL     OW36061   1.557   1.256  12.276 -0.4309  0.4265 -0.6935
 8201SOL    HW136062   1.493   1.262  12.347  0.3819  0.5724  0.0233
 8201SOL    HW236063   1.502   1.240  12.199 -2.3788 -2.4092  1.3096
 8202SOL     OW36064   4.139   0.203   6.290  0.2144 -0.0569  0.0670
 8202SOL    HW136065   4.222   0.231   6.251  0.4099 -1.8826 -0.8035
 8202SOL    HW236066   4.084   0.264   6.241  1.0755 -0.6030 -1.5964
 8203SOL     OW36067   2.308   1.008  10.571  0.4297  0.0255  0.0129
 8203SOL    HW136068   2.403   1.011  10.579  0.5696 -0.9624 -1.2711
 8203SOL    HW236069   2.293   1.013  10.477 -1.0377  0.3866  0.2506
 8204SOL     OW36070   0.197   0.773  12.137 -0.1685  0.0349  0.4608
 8204SOL    HW136071   0.242   0.698  12.175  1.0519  0.9066  0.7187
 8204SOL    HW236072   0.107   0.746  12.121 -0.3016  0.6512  0.1443
 8205SOL     OW36073   1.687   1.457  16.356  0.3453 -0.6157 -0.8997
 8205SOL    HW136074   1.619   1.425  16.297 -0.5625  2.4845 -1.5618
 8205SOL    HW236075   1.643   1.519  16.415  0.7204 -1.6315  0.4667
 8206SOL     OW36076   1.749   2.899   1.767 -0.3929  0.5372  0.0392
 8206SOL    HW136077   1.787   2.833   1.825  1.0801  1.5233  0.1815
 8206SOL    HW236078   1.680   2.847   1.725  0.2792  0.3288 -0.8192
 8207SOL     OW36079   3.861   4.007  13.947  0.8745 -0.5598 -0.2084
 8207SOL    HW136080   3.782   3.953  13.949  0.2332  0.4275  0.6770
 8207SOL    HW236081   3.836   4.092  13.982  1.2516 -1.4396  2.2030
 8208SOL     OW36082   0.302   0.130   5.594  0.1622  0.2462 -0.0480
 8208SOL    HW136083   0.327   0.109   5.504 -0.7467  0.3052 -0.3153
 8208SOL    HW236084   0.378   0.097   5.642 -0.0742 -0.6708 -0.2986
 8209SOL     OW36085   1.654   1.787   0.619  0.5646 -0.4954  0.0474
 8209SOL    HW136086   1.659   1.710   0.676 -0.9674 -0.7341 -0.1495
 8209SOL    HW236087   1.722   1.759   0.557 -0.5373 -1.2257 -0.8265
 8210SOL     OW36088   3.814   1.699   6.151 -0.2252 -0.2904  0.1946
 8210SOL    HW136089   3.907   1.686   6.135 -0.2868 -1.9064  1.1802
 8210SOL    HW236090   3.788   1.760   6.082  1.1385  0.1261  0.0494
 8211SOL     OW36091   3.158   2.708   6.155 -0.0480 -0.5636  0.1375
 8211SOL    HW136092   3.222   2.682   6.090 -0.0437 -0.0982 -0.0428
 8211SOL    HW236093   3.128   2.625   6.192 -0.9682  0.1117  0.9073
 8212SOL     OW36094   2.363   1.898  12.128  0.1915  0.2843 -0.2291
 8212SOL    HW136095   2.287   1.922  12.075 -0.8615 -0.6682  0.8347
 8212SOL    HW236096   2.421   1.934  12.061  0.3024  0.4334 -0.0530
 8213SOL     OW36097   0.953   2.989  16.957  0.2442 -0.3995  0.1013
 8213SOL    HW136098   0.868   3.023  16.983  0.4751  2.0975 -2.4359
 8213SOL    HW236099   0.936   2.895  16.968  0.7142 -0.6951 -1.6165
 8214SOL     OW36100   2.634   1.056   7.222  0.0458 -0.1148 -0.0479
 8214SOL    HW136101   2.667   1.011   7.144  1.0213 -1.3582  1.0824
 8214SOL    HW236102   2.716   1.081   7.264 -0.5103 -0.1612  1.0579
 8215SOL     OW36103   4.240   3.985   8.598  0.5164 -0.0395 -0.4754
 8215SOL    HW136104   4.196   3.923   8.539  0.9536  0.0467 -0.8911
 8215SOL    HW236105   4.170   4.050   8.597 -1.3977 -2.1190 -0.1595
 8216SOL     OW36106   2.384   0.761   5.231  0.1245  0.3582  0.4930
 8216SOL    HW136107   2.372   0.778   5.137 -0.0119  0.1612  0.4748
 8216SOL    HW236108   2.444   0.830   5.259 -0.9234  2.3055 -1.9525
 8217SOL     OW36109   2.615   2.749   8.239 -0.1472  0.4060 -0.6550
 8217SOL    HW136110   2.545   2.774   8.298  0.2281 -0.5617  0.1995
 8217SOL    HW236111   2.638   2.832   8.197 -0.1823  1.5870  1.6868
 8218SOL     OW36112   3.569   3.827   8.348  0.2293  0.3959  0.0283
 8218SOL    HW136113   3.662   3.805   8.348 -0.0398 -0.6975 -1.3973
 8218SOL    HW236114   3.547   3.810   8.257  1.1762 -3.2983  0.5076
 8219SOL     OW36115   2.071   2.743  13.379  0.2110  0.2818  0.7882
 8219SOL    HW136116   2.051   2.816  13.322  1.8982  0.9419  1.0343
 8219SOL    HW236117   2.024   2.769  13.459 -0.9337 -2.1691  0.9094
 8220SOL     OW36118   3.180   2.501   4.453 -0.1635 -0.1824  0.9111
 8220SOL    HW136119   3.182   2.594   4.476 -3.3048 -0.1086  0.8676
 8220SOL    HW236120   3.144   2.464   4.534  2.7736 -1.2782  1.6790
 8221SOL     OW36121   3.978   3.624   6.707 -0.7773 -0.7089 -0.2506
 8221SOL    HW136122   4.000   3.716   6.691 -0.2104 -1.4049 -3.4482
 8221SOL    HW236123   3.883   3.635   6.715 -0.0632  3.8044  1.6270
 8222SOL     OW36124   0.421   0.290  14.969 -0.0383 -0.3910 -0.2453
 8222SOL    HW136125   0.333   0.253  14.969 -0.3823  0.4378  0.4248
 8222SOL    HW236126   0.397   0.376  15.004  0.5079  0.7732 -2.7390
 8223SOL     OW36127   3.385   1.111   3.785 -0.6391  0.4242  0.2626
 8223SOL    HW136128   3.421   1.196   3.761  1.4251 -0.8330 -1.1030
 8223SOL    HW236129   3.409   1.068   3.703  0.3028 -1.1663  1.3699
 8224SOL     OW36130   2.417   3.093   8.467  0.1874  0.1051  0.2379
 8224SOL    HW136131   2.322   3.108   8.470 -0.3205 -3.0271  0.3107
 8224SOL    HW236132   2.429   3.095   8.372 -1.9834  2.1424  0.0286
 8225SOL     OW36133   0.378   1.194   7.313 -0.1661 -0.2757 -0.5124
 8225SOL    HW136134   0.413   1.154   7.233  1.4837 -0.1498  0.1377
 8225SOL    HW236135   0.283   1.187   7.304 -0.0724 -3.5270  0.9165
 8226SOL     OW36136   0.427   3.042  11.964 -0.2084  0.4778 -0.0851
 8226SOL    HW136137   0.470   2.963  11.932 -2.7320 -1.4201  1.2334
 8226SOL    HW236138   0.499   3.086  12.009 -0.7543  0.2282  1.0065
 8227SOL     OW36139   3.648   3.693   2.199  0.0261  0.1208 -0.5965
 8227SOL    HW136140   3.642   3.612   2.249 -0.1714 -0.4651 -1.5665
 8227SOL    HW236141   3.567   3.692   2.148 -1.3848  1.6984  1.6403
 8228SOL     OW36142   4.213   3.500   2.057 -0.2412 -0.0535 -0.0282
 8228SOL    HW136143   4.241   3.429   1.999 -3.1461 -0.5129 -0.8496
 8228SOL    HW236144   4.162   3.458   2.125  1.1449  0.1990  1.1739
 8229SOL     OW36145   3.234   0.625   3.203  0.2563  0.1756  0.3863
 8229SOL    HW136146   3.299   0.556   3.214 -1.3947 -1.3447  0.5553
 8229SOL    HW236147   3.223   0.657   3.293  1.3949 -1.4472  1.1153
 8230SOL     OW36148   3.660   1.095   6.853 -0.6839  0.1313  0.5870
 8230SOL    HW136149   3.681   1.168   6.912 -1.0772 -0.2802  1.2387
 8230SOL    HW236150   3.704   1.117   6.771  1.6647 -1.4237  1.4332
 8231SOL     OW36151   0.123   0.220   8.735 -0.6572  0.1922  0.4797
 8231SOL    HW136152   0.057   0.226   8.666  1.0399 -0.0937 -1.1725
 8231SOL    HW236153   0.203   0.199   8.686 -1.1280  0.2334 -0.3146
 8232SOL     OW36154   0.070   1.272  14.119  0.8086  0.0003  0.0010
 8232SOL    HW136155   4.700   1.260  14.108  1.2033 -2.5180 -0.8097
 8232SOL    HW236156   0.069   1.349  14.175 -1.3296  0.9675 -1.3890
 8233SOL     OW36157   2.254   4.701   6.772 -0.4298 -0.2582  0.4323
 8233SOL    HW136158   2.176   4.650   6.748  1.5404 -1.8021 -2.6422
 8233SOL    HW236159   2.260   0.036   6.698 -0.2134 -1.9343 -0.8850
 8234SOL     OW36160   3.574   0.080   6.741  1.1956  0.2174 -0.2220
 8234SOL    HW136161   3.585   4.718   6.701 -0.3728 -1.3560  2.7247
 8234SOL    HW236162   3.598   0.142   6.672  2.9361  2.5365  2.4386
 8235SOL     OW36163   2.530   0.882   4.620 -0.6266 -0.0271  0.0713
 8235SOL    HW136164   2.491   0.901   4.535  1.1149 -0.9005 -0.9054
 8235SOL    HW236165   2.572   0.799   4.598  0.1674  0.3163  0.2971
 8236SOL     OW36166   3.427   2.303   8.895 -0.0413 -0.2048 -0.8000
 8236SOL    HW136167   3.400   2.383   8.940 -1.3140 -1.6477  1.0425
 8236SOL    HW236168   3.373   2.309   8.817 -0.7895 -1.3712 -0.3677
 8237SOL     OW36169   4.165   3.740   4.239  0.2414 -0.3211  0.4221
 8237SOL    HW136170   4.175   3.761   4.332 -1.5906 -0.2224  0.5982
 8237SOL    HW236171   4.211   3.818   4.208 -0.6987  0.0043 -0.1189
 8238SOL     OW36172   3.102   3.486   7.271 -0.0816  0.2434  0.0294
 8238SOL    HW136173   3.190   3.520   7.257  0.1965 -0.2730  0.5044
 8238SOL    HW236174   3.114   3.395   7.298  0.2743 -0.3523 -2.1665
 8239SOL     OW36175   0.382   3.438   0.680  0.5637  0.1126  0.0301
 8239SOL    HW136176   0.458   3.380   0.689  0.2314 -0.3831 -0.4079
 8239SOL    HW236177   0.421   3.506   0.625  1.3526 -1.4806 -1.3847
 8240SOL     OW36178   1.268   0.982  10.590 -0.2298  0.3601 -0.3839
 8240SOL    HW136179   1.301   1.057  10.541  0.1265  1.4244  1.4824
 8240SOL    HW236180   1.269   1.016  10.679  1.1365  0.4920 -0.4431
 8241SOL     OW36181   4.531   0.245  13.573  0.8361 -0.1994  0.0547
 8241SOL    HW136182   4.528   0.222  13.480  0.6472 -1.9712  0.5090
 8241SOL    HW236183   4.611   0.198  13.594  0.5390 -0.4182  0.6929
 8242SOL     OW36184   1.985   3.829  11.154  0.3397  0.0217 -0.0684
 8242SOL    HW136185   2.048   3.813  11.084 -0.9091 -1.2052 -0.9206
 8242SOL    HW236186   2.031   3.890  11.212 -3.2394  2.0968  0.5683
 8243SOL     OW36187   0.053   0.145  15.764  0.0097  0.2678  0.3389
 8243SOL    HW136188   0.018   0.145  15.853  1.7220  1.1646  1.0093
 8243SOL    HW236189   4.715   0.099  15.709 -0.4339  1.8837 -0.5269
 8244SOL     OW36190   2.294   2.642   9.716  0.7899 -0.0169 -0.1201
 8244SOL    HW136191   2.339   2.726   9.708  1.1026 -0.1461  0.3167
 8244SOL    HW236192   2.271   2.643   9.809  1.9083  0.2109  0.1500
 8245SOL     OW36193   4.150   4.444   2.733 -0.5150 -0.4865 -0.0335
 8245SOL    HW136194   4.122   4.454   2.642 -0.6608  0.3361  0.0980
 8245SOL    HW236195   4.065   4.435   2.777 -0.2443  2.1615  1.0183
 8246SOL     OW36196   1.131   4.654   6.983  0.0042 -0.1641  0.1290
 8246SOL    HW136197   1.091   4.676   6.900  0.5587 -0.5845 -0.2538
 8246SOL    HW236198   1.073   4.585   7.015 -0.6735  0.5739  0.4909
 8247SOL     OW36199   4.252   0.146   0.513  0.4320 -0.5424 -0.0364
 8247SOL    HW136200   4.230   0.213   0.577  0.5453  0.2138 -0.7869
 8247SOL    HW236201   4.313   0.198   0.460  0.5486  0.0840  0.7231
 8248SOL     OW36202   2.341   1.694   8.388  0.0512  0.3437  0.4193
 8248SOL    HW136203   2.390   1.771   8.414  1.2606 -1.0901  2.3949
 8248SOL    HW236204   2.392   1.665   8.312 -2.5289  2.0094 -1.9599
 8249SOL     OW36205   2.259   2.775  13.178 -0.4508 -0.2154  0.1639
 8249SOL    HW136206   2.254   2.816  13.264  3.2116  0.2162  0.1749
 8249SOL    HW236207   2.201   2.821  13.117  0.4587  0.2873 -0.3419
 8250SOL     OW36208   3.577   3.818   8.043 -0.3341 -0.1095 -0.3186
 8250SOL    HW136209   3.650   3.774   8.087  1.2749  1.4631 -1.4117
 8250SOL    HW236210   3.510   3.750   8.039 -0.2526 -0.1809 -0.4993
 8251SOL     OW36211   1.339   4.494  10.927  0.0313  0.1330  0.0107
 8251SOL    HW136212   1.407   4.476  10.991 -0.0314 -0.0226  0.0351
 8251SOL    HW236213   1.295   4.409  10.920 -1.0635  0.7004  0.0809
 8252SOL     OW36214   0.917   1.407   8.444 -0.0025 -0.4961 -0.1136
 8252SOL    HW136215   1.008   1.426   8.468 -0.2630  0.7831 -0.1188
 8252SOL    HW236216   0.883   1.455   8.520 -0.3693  2.3933 -2.0910
 8253SOL     OW36217   0.209   4.239   6.968  0.6526  0.1478 -0.6495
 8253SOL    HW136218   0.128   4.290   6.968 -0.0252 -0.8983  2.3730
 8253SOL    HW236219   0.182   4.178   7.038 -0.2298 -0.7696 -1.7819
 8254SOL     OW36220   3.158   1.887   7.080 -0.7302 -0.4701 -0.4309
 8254SOL    HW136221   3.080   1.935   7.053 -0.7761 -0.0039  0.5294
 8254SOL    HW236222   3.136   1.885   7.174  0.5088 -1.9058 -0.1601
 8255SOL     OW36223   3.280   3.407   7.673  0.0988 -0.4199 -0.4443
 8255SOL    HW136224   3.290   3.313   7.662  0.7925 -0.3726 -0.2100
 8255SOL    HW236225   3.327   3.414   7.756 -1.5604  1.1062  0.3563
 8256SOL     OW36226   0.403   2.810   2.543  0.3110  0.1705  0.2404
 8256SOL    HW136227   0.338   2.807   2.472  0.9227  1.7182 -0.3865
 8256SOL    HW236228   0.481   2.765   2.512 -0.4531 -2.2510  1.8550
 8257SOL     OW36229   4.615   4.054   8.834 -0.8778  0.2283  0.2075
 8257SOL    HW136230   4.606   4.067   8.929  0.8827 -1.2829  0.5888
 8257SOL    HW236231   4.537   4.000   8.816 -0.7503  1.5257 -4.1583
 8258SOL     OW36232   0.957   3.409   3.502 -0.0942 -0.3699  0.4376
 8258SOL    HW136233   0.902   3.377   3.431 -0.3660  2.1115 -0.4358
 8258SOL    HW236234   1.028   3.458   3.460 -0.6201 -0.2404 -0.2858
 8259SOL     OW36235   3.407   1.248  14.531 -0.0229  0.0255  0.1836
 8259SOL    HW136236   3.357   1.319  14.572  0.1503 -0.6145  1.4972
 8259SOL    HW236237   3.337   1.190  14.500 -1.4924  2.1850 -0.5387
 8260SOL     OW36238   1.602   3.673  14.933 -0.1069 -0.3261 -0.1850
 8260SOL    HW136239   1.600   3.630  14.847 -0.7545  3.1898 -1.9381
 8260SOL    HW236240   1.543   3.746  14.918  1.6267  0.8471 -1.3497
 8261SOL     OW36241   1.659   2.478   2.975  0.1701  0.4045  0.3250
 8261SOL    HW136242   1.651   2.572   2.993 -1.2866  0.1478  1.0684
 8261SOL    HW236243   1.745   2.480   2.935  0.4209 -1.9685  0.7148
 8262SOL     OW36244   2.392   4.588   7.504  0.5335 -0.2028 -0.5776
 8262SOL    HW136245   2.385   4.590   7.408  1.2970  1.6881 -0.5904
 8262SOL    HW236246   2.418   4.679   7.516  0.7034 -0.3133 -0.0988
 8263SOL     OW36247   0.359   0.793   6.166  0.2264  0.3882 -0.0285
 8263SOL    HW136248   0.407   0.876   6.167 -1.4483  1.3578 -0.2510
 8263SOL    HW236249   0.376   0.760   6.254  1.4092  2.1358  0.3987
 8264SOL     OW36250   4.702   4.538   6.232  0.0497 -0.1376  0.0871
 8264SOL    HW136251   4.672   4.470   6.171 -2.1340 -1.4764  2.6130
 8264SOL    HW236252   4.683   4.619   6.186  3.0877  1.7832  2.2742
 8265SOL     OW36253   1.193   1.002  17.298 -0.0452 -0.3329 -0.0977
 8265SOL    HW136254   1.282   0.991  17.264 -0.1570 -0.9272 -0.2046
 8265SOL    HW236255   1.195   0.961  17.385  0.0013  1.0117  0.5315
 8266SOL     OW36256   0.417   4.066  10.548  0.5266  0.0633  0.0215
 8266SOL    HW136257   0.395   4.159  10.542  2.0183  0.4512  0.7024
 8266SOL    HW236258   0.405   4.059  10.643 -2.1548  0.1185 -0.2903
 8267SOL     OW36259   3.987   0.964   2.532  0.0902 -0.4072  0.6426
 8267SOL    HW136260   3.902   0.955   2.488  1.0390 -2.8596 -0.6567
 8267SOL    HW236261   4.037   0.903   2.478  2.2763  0.2320  1.9590
 8268SOL     OW36262   1.894   4.120  17.075  0.2880 -0.1884 -0.1789
 8268SOL    HW136263   1.867   4.028  17.072  0.0320 -0.1162 -0.0309
 8268SOL    HW236264   1.829   4.150  17.138  2.1503  1.0774  1.1470
 8269SOL     OW36265   0.836   0.879   3.433 -0.1644 -0.3752 -0.1232
 8269SOL    HW136266   0.831   0.858   3.340  1.6260 -0.5394 -0.1799
 8269SOL    HW236267   0.899   0.951   3.429 -0.7639  0.0980 -0.9316
 8270SOL     OW36268   3.658   0.809  15.829  0.5017  0.3383 -0.3651
 8270SOL    HW136269   3.678   0.717  15.843 -0.6050 -0.1328 -1.9505
 8270SOL    HW236270   3.719   0.846  15.893  0.2206  1.4002 -0.6992
 8271SOL     OW36271   3.420   1.792   5.823  0.0295  0.5249  0.2093
 8271SOL    HW136272   3.496   1.834   5.863  2.0602 -1.4337 -1.6061
 8271SOL    HW236273   3.439   1.815   5.732 -2.4571  3.5700  0.4610
 8272SOL     OW36274   4.386   3.443  14.015  0.2592  0.3762 -0.1663
 8272SOL    HW136275   4.463   3.499  14.017  0.0195  0.6224  2.2034
 8272SOL    HW236276   4.311   3.499  13.995 -1.0818 -1.6225 -0.7176
 8273SOL     OW36277   3.528   2.537   4.419 -0.3087  0.2707  0.4149
 8273SOL    HW136278   3.617   2.559   4.446  0.9022 -1.1932 -2.4516
 8273SOL    HW236279   3.524   2.574   4.331  0.4976  2.3157  1.2315
 8274SOL     OW36280   1.392   2.402   3.932 -0.6716 -0.1574  0.1010
 8274SOL    HW136281   1.342   2.482   3.917  2.2603  1.6421 -0.1543
 8274SOL    HW236282   1.375   2.347   3.856  0.4080 -1.2185  0.6218
 8275SOL     OW36283   1.436   4.334   7.634 -0.4881  0.4167 -0.3717
 8275SOL    HW136284   1.463   4.414   7.588  1.8635  0.3114  0.7818
 8275SOL    HW236285   1.488   4.275   7.579 -2.0628  0.5790 -1.9960
 8276SOL     OW36286   0.208   0.249  11.932 -0.1803 -0.6036  0.2880
 8276SOL    HW136287   0.254   0.186  11.986 -0.8498  1.3111  3.1124
 8276SOL    HW236288   0.260   0.248  11.851 -2.4648  0.7995 -1.2174
 8277SOL     OW36289   2.909   3.246   4.529  0.1341  0.2776  0.4684
 8277SOL    HW136290   2.858   3.326   4.540 -0.9812 -0.3450 -0.2249
 8277SOL    HW236291   2.842   3.190   4.567  0.2998 -1.1545 -1.3842
 8278SOL     OW36292   1.198   3.355   6.510 -0.0501  0.0071  0.2993
 8278SOL    HW136293   1.129   3.290   6.525 -0.4914  0.1818 -0.9690
 8278SOL    HW236294   1.274   3.318   6.556 -0.7638 -0.4716  1.1163
 8279SOL     OW36295   3.177   4.669  14.111  0.2645 -0.4474 -0.1437
 8279SOL    HW136296   3.210   0.000  14.040  1.5440  0.2135  0.9672
 8279SOL    HW236297   3.121   0.006  14.159  1.2707 -0.7622  1.4544
 8280SOL     OW36298   3.123   3.156   1.873  0.0323 -0.2537 -0.2644
 8280SOL    HW136299   3.208   3.142   1.831 -0.5526 -3.2255 -0.4834
 8280SOL    HW236300   3.130   3.106   1.954 -1.5077 -1.3694 -0.8125
 8281SOL     OW36301   2.979   2.096   6.520 -0.2617 -0.8477 -0.0725
 8281SOL    HW136302   2.974   2.156   6.594 -0.0238 -2.0413  0.9132
 8281SOL    HW236303   2.890   2.061   6.512 -1.3367  1.7503  0.8202
 8282SOL     OW36304   1.032   2.329  13.137 -0.2108  0.0027  0.2927
 8282SOL    HW136305   1.042   2.423  13.120 -2.1144  0.0654 -0.3935
 8282SOL    HW236306   1.034   2.297  13.046 -0.6946  1.6265 -0.2878
 8283SOL     OW36307   0.096   1.289   3.047 -0.0741  0.0894  1.1934
 8283SOL    HW136308   0.039   1.260   3.118  1.9736  0.1163  2.8321
 8283SOL    HW236309   0.035   1.355   3.013 -1.6228 -0.6569  2.5260
 8284SOL     OW36310   0.591   3.790   4.543  0.1415  0.2813  0.6099
 8284SOL    HW136311   0.637   3.808   4.461  0.1243  0.9265  0.7429
 8284SOL    HW236312   0.652   3.830   4.605 -0.6053 -0.4043  1.7856
 8285SOL     OW36313   2.917   0.263   6.789 -0.4280  0.5333 -0.0980
 8285SOL    HW136314   2.828   0.256   6.755 -0.4988 -0.6265  0.3094
 8285SOL    HW236315   2.933   0.170   6.805  3.1530  1.1819  0.0654
 8286SOL     OW36316   0.503   3.532   6.296 -0.0396  0.5267  0.0500
 8286SOL    HW136317   0.408   3.542   6.291 -0.3804 -2.4225  0.8823
 8286SOL    HW236318   0.504   3.437   6.289 -0.2383  0.5399 -0.1443
 8287SOL     OW36319   3.478   2.680  15.914  0.6978 -0.3504  0.0437
 8287SOL    HW136320   3.444   2.626  15.986 -2.5018  0.4805 -0.8431
 8287SOL    HW236321   3.512   2.606  15.864  1.8885  1.1150 -1.3173
 8288SOL     OW36322   2.018   0.870   3.358  0.1315 -0.2057  0.4849
 8288SOL    HW136323   1.941   0.857   3.414 -0.7900  0.3973 -0.6345
 8288SOL    HW236324   1.992   0.959   3.334  1.6819 -0.0503 -0.5919
 8289SOL     OW36325   0.162   0.316   7.071  0.0719  0.0285 -0.2463
 8289SOL    HW136326   0.256   0.329   7.081 -0.1204  1.6966 -0.6930
 8289SOL    HW236327   0.137   0.327   7.163  1.6432 -2.0084  0.4470
 8290SOL     OW36328   0.535   3.850  10.432  0.1710  0.0684  0.6796
 8290SOL    HW136329   0.494   3.927  10.470 -0.2192  0.5779 -0.7775
 8290SOL    HW236330   0.476   3.843  10.357  0.4352  4.9134  0.0266
 8291SOL     OW36331   0.604   3.397   5.851 -0.1649  0.6938  0.2839
 8291SOL    HW136332   0.683   3.445   5.879  0.7204 -0.1230 -0.8081
 8291SOL    HW236333   0.614   3.312   5.894  1.0574  0.7881  0.2000
 8292SOL     OW36334   3.989   3.847  10.895  0.4787 -0.1909 -0.0647
 8292SOL    HW136335   4.043   3.925  10.906  0.8974 -0.4312 -0.3995
 8292SOL    HW236336   3.903   3.889  10.886  0.6293  0.4077  1.3186
 8293SOL     OW36337   3.721   0.989   7.746  0.1526  0.0825 -0.1616
 8293SOL    HW136338   3.665   0.975   7.822 -1.1241 -0.5455 -1.2152
 8293SOL    HW236339   3.765   1.071   7.767  2.4294 -1.2737  0.3275
 8294SOL     OW36340   3.874   4.402   3.779  0.0319  0.0625  0.0383
 8294SOL    HW136341   3.799   4.350   3.807  0.2357 -1.2779 -1.8790
 8294SOL    HW236342   3.849   4.427   3.690 -1.1124  0.9690  0.6209
 8295SOL     OW36343   0.105   3.373   8.364  0.1658  0.3897  0.0155
 8295SOL    HW136344   0.186   3.387   8.314  0.0790  1.5000  0.1696
 8295SOL    HW236345   0.040   3.362   8.295  0.6200 -2.1178  0.0084
 8296SOL     OW36346   4.534   4.037   9.109 -0.0107 -0.2861  0.2445
 8296SOL    HW136347   4.457   3.981   9.099 -0.0879  0.1573 -1.7210
 8296SOL    HW236348   4.593   3.979   9.156 -0.3657 -1.0199 -0.2171
 8297SOL     OW36349   1.736   1.912   9.131  0.2766  0.0054 -0.5642
 8297SOL    HW136350   1.675   1.856   9.083 -0.0960 -0.8332  0.8876
 8297SOL    HW236351   1.736   1.862   9.212 -0.8382 -3.5486 -2.7456
 8298SOL     OW36352   3.951   2.596   3.151 -0.1472  0.8763  0.9076
 8298SOL    HW136353   3.877   2.539   3.133  1.0214 -0.3822  0.0875
 8298SOL    HW236354   4.008   2.531   3.193 -0.9617  0.2022  0.9589
 8299SOL     OW36355   0.202   4.031  12.801  0.0237 -0.2248  0.2478
 8299SOL    HW136356   0.171   4.058  12.887  1.4235 -2.8279  1.5573
 8299SOL    HW236357   0.134   4.064  12.743 -0.6599  0.6238  1.5292
 8300SOL     OW36358   3.137   1.485   7.614  0.0908 -0.7757 -0.1807
 8300SOL    HW136359   3.057   1.466   7.663  0.2440 -2.8008 -0.7146
 8300SOL    HW236360   3.198   1.416   7.641 -0.9348 -3.1931 -4.0097
 8301SOL     OW36361   3.655   0.714   7.093 -0.0922 -0.4450  0.2591
 8301SOL    HW136362   3.587   0.760   7.142 -1.3879 -2.7082  0.6072
 8301SOL    HW236363   3.692   0.796   7.063  1.4031 -0.3168  2.4757
 8302SOL     OW36364   0.914   4.340   3.663 -0.4060  0.2540  0.4387
 8302SOL    HW136365   0.880   4.293   3.739  1.7038  0.5061  1.5285
 8302SOL    HW236366   0.857   4.418   3.665  0.4236  0.8807 -0.6359
 8303SOL     OW36367   4.497   4.231   3.833 -0.2375  0.2130  0.0241
 8303SOL    HW136368   4.493   4.169   3.760  2.2844 -0.5185  0.4874
 8303SOL    HW236369   4.418   4.284   3.835 -0.0861  0.4587 -0.5876
 8304SOL     OW36370   2.569   2.198  14.473 -0.3902  0.5835 -0.4929
 8304SOL    HW136371   2.503   2.256  14.433 -0.2200  0.9085 -0.3052
 8304SOL    HW236372   2.587   2.251  14.551  0.0498  0.2128 -0.3444
 8305SOL     OW36373   0.003   2.903   6.539 -0.3452 -0.1164  0.2396
 8305SOL    HW136374   0.061   2.955   6.596 -0.5961 -2.0902  2.3183
 8305SOL    HW236375   0.013   2.946   6.454 -0.2650 -0.2934  0.1601
 8306SOL     OW36376   3.713   0.109  10.948 -0.1597  0.3357  0.2248
 8306SOL    HW136377   3.781   0.133  10.885 -0.3321  0.6591  0.1610
 8306SOL    HW236378   3.637   0.161  10.922  1.5905  2.3632 -0.7786
 8307SOL     OW36379   1.809   3.612   9.674 -0.4813  0.2686 -0.2818
 8307SOL    HW136380   1.815   3.562   9.592  0.5473  1.5890 -1.0149
 8307SOL    HW236381   1.809   3.701   9.639  1.9755  0.0369 -0.8306
 8308SOL     OW36382   0.718   1.841   4.541  0.0990  0.1955  0.3207
 8308SOL    HW136383   0.801   1.885   4.520  0.8306 -1.5963 -0.5226
 8308SOL    HW236384   0.738   1.784   4.614 -0.8453 -1.7575 -0.9519
 8309SOL     OW36385   1.549   1.496   6.559  0.1943 -0.1519 -0.1535
 8309SOL    HW136386   1.597   1.562   6.509 -1.2459  0.5792 -0.5903
 8309SOL    HW236387   1.562   1.414   6.512 -1.2492 -0.0349 -0.7688
 8310SOL     OW36388   1.083   3.507   4.424  0.8125  0.0531 -0.1803
 8310SOL    HW136389   1.087   3.529   4.331  0.2133  0.7226 -0.0461
 8310SOL    HW236390   1.032   3.580   4.458 -0.5954 -1.7689  1.6101
 8311SOL     OW36391   2.402   3.404   9.004 -0.3451  0.8531 -0.8684
 8311SOL    HW136392   2.414   3.372   9.093 -2.7921  0.4730 -0.6653
 8311SOL    HW236393   2.322   3.456   9.016 -1.0246 -0.1124 -1.1500
 8312SOL     OW36394   2.388   2.576   4.701 -0.0303  0.3191 -0.3313
 8312SOL    HW136395   2.303   2.616   4.685 -0.4653  0.1116  1.4044
 8312SOL    HW236396   2.365   2.493   4.743 -0.5103  1.2054  1.1458
 8313SOL     OW36397   4.377   1.778   5.032  0.4531 -0.0932  0.3052
 8313SOL    HW136398   4.308   1.713   5.021  0.3978  0.0777 -0.3742
 8313SOL    HW236399   4.332   1.843   5.086  3.8999  0.7952  2.1625
 8314SOL     OW36400   0.285   2.316  13.580 -0.5415  0.0431  0.1794
 8314SOL    HW136401   0.317   2.254  13.646 -1.8144 -0.3514  0.4266
 8314SOL    HW236402   0.368   2.348  13.544  1.0889 -3.6026  0.6545
 8315SOL     OW36403   1.491   3.839  16.818  0.2198  0.1078  0.7096
 8315SOL    HW136404   1.482   3.771  16.885 -0.1689 -2.2401 -1.7120
 8315SOL    HW236405   1.556   3.801  16.760 -0.5028 -2.8548  1.8228
 8316SOL     OW36406   2.357   1.617   6.443  0.0957  0.2160  0.0058
 8316SOL    HW136407   2.436   1.633   6.493 -0.2829  0.4347  0.5309
 8316SOL    HW236408   2.289   1.661   6.495  0.4475 -0.1722  0.7978
 8317SOL     OW36409   0.188   4.489  10.141 -0.0388  0.2563  0.1438
 8317SOL    HW136410   0.146   4.554  10.198 -0.7599  1.2264 -1.4837
 8317SOL    HW236411   0.124   4.421  10.123 -1.7146  1.3437  2.0245
 8318SOL     OW36412   4.597   4.330   0.520  0.0900 -0.1952  0.1081
 8318SOL    HW136413   4.534   4.294   0.458 -0.6181 -0.8726  1.2213
 8318SOL    HW236414   4.598   4.424   0.500 -1.9709 -0.2358 -0.1504
 8319SOL     OW36415   1.559   0.423   4.259 -0.1595  0.2263  0.2863
 8319SOL    HW136416   1.465   0.432   4.276 -0.6817  0.3079 -2.6393
 8319SOL    HW236417   1.590   0.492   4.318  0.9306  1.6874 -2.0056
 8320SOL     OW36418   4.204   4.120   6.306  0.5053  0.6753  0.4814
 8320SOL    HW136419   4.241   4.168   6.380  2.8434  0.9626 -0.8804
 8320SOL    HW236420   4.261   4.149   6.235  0.3557 -2.5354 -0.9406
 8321SOL     OW36421   1.198   2.442   4.606 -0.0785  0.2663  0.1524
 8321SOL    HW136422   1.247   2.519   4.579 -1.8239  1.3635  0.1256
 8321SOL    HW236423   1.272   2.383   4.622 -0.4938 -0.5177 -0.8258
 8322SOL     OW36424   1.442   3.222   5.427 -0.1024 -0.4142  0.5126
 8322SOL    HW136425   1.503   3.284   5.468 -1.0231  0.0871  1.1412
 8322SOL    HW236426   1.388   3.199   5.503 -0.6694 -1.9008 -0.3256
 8323SOL     OW36427   1.227   0.865   5.830  0.0458  0.2713 -0.0198
 8323SOL    HW136428   1.218   0.861   5.735  0.7439  0.0107 -0.0726
 8323SOL    HW236429   1.316   0.832   5.836 -0.1786 -0.5573 -1.2492
 8324SOL     OW36430   1.873   2.278   7.832  0.1596  0.4218  0.6978
 8324SOL    HW136431   1.787   2.319   7.840  0.4238  1.0048  0.5186
 8324SOL    HW236432   1.886   2.268   7.926  0.5887 -0.6959  0.5194
 8325SOL     OW36433   2.194   3.326   6.495  0.0984 -0.6764  0.1234
 8325SOL    HW136434   2.121   3.264   6.501 -1.3528  0.9431 -0.7541
 8325SOL    HW236435   2.152   3.396   6.546  1.4667  0.0979  0.1853
 8326SOL     OW36436   3.667   4.576   6.599  0.1260 -0.4351  0.1858
 8326SOL    HW136437   3.745   4.523   6.581 -0.6034 -0.9040 -1.5305
 8326SOL    HW236438   3.672   4.641   6.530 -1.6805  0.6192  1.0728
 8327SOL     OW36439   0.588   0.771   6.399 -0.4981 -0.2782 -0.6915
 8327SOL    HW136440   0.599   0.678   6.418 -0.8807 -0.6424 -2.2394
 8327SOL    HW236441   0.539   0.795   6.477 -0.0983 -0.6278 -0.3308
 8328SOL     OW36442   2.687   3.934   6.528  0.3387 -0.1630 -0.0911
 8328SOL    HW136443   2.707   3.874   6.456 -0.6099 -0.7873  0.1627
 8328SOL    HW236444   2.652   3.877   6.597 -0.3777  1.2892  0.7368
 8329SOL     OW36445   0.073   0.425  17.421 -0.2517  0.3628 -0.5767
 8329SOL    HW136446   0.034   0.480  17.353  0.3309  0.9894 -0.4111
 8329SOL    HW236447   0.029   0.460  17.498 -0.8754  0.2153 -0.8660
 8330SOL     OW36448   1.315   1.008   9.644 -0.8102 -0.4670  0.1089
 8330SOL    HW136449   1.394   1.007   9.698 -0.6858 -1.0303 -0.0913
 8330SOL    HW236450   1.245   1.035   9.704 -1.1712 -0.3357 -0.3765
 8331SOL     OW36451   3.865   4.638   3.910 -0.5756 -0.1305 -0.2069
 8331SOL    HW136452   3.775   4.662   3.889 -0.3146  0.4129 -0.7085
 8331SOL    HW236453   3.873   4.546   3.885  0.9985 -0.0068 -0.1524
 8332SOL     OW36454   3.372   3.736  12.630  0.1292 -0.1881 -0.1993
 8332SOL    HW136455   3.392   3.720  12.722  2.2827 -1.0878 -0.8293
 8332SOL    HW236456   3.461   3.749  12.599 -0.9612  0.5644 -3.0249
 8333SOL     OW36457   3.549   4.469   0.273  0.2550  0.1355  0.0048
 8333SOL    HW136458   3.478   4.530   0.293 -0.8850 -0.5891 -1.7531
 8333SOL    HW236459   3.512   4.404   0.212  0.4671 -1.4146  1.5197
 8334SOL     OW36460   2.845   0.650   3.455  0.2976 -0.0510  0.2571
 8334SOL    HW136461   2.928   0.693   3.476 -0.6115  1.1178  1.3993
 8334SOL    HW236462   2.880   0.575   3.407 -0.6514 -1.2361  1.4372
 8335SOL     OW36463   2.625   3.897  11.474 -0.8720  0.3590 -0.2147
 8335SOL    HW136464   2.542   3.888  11.427  0.1413  2.1364 -2.3513
 8335SOL    HW236465   2.606   3.978  11.520  1.3314 -0.5654  2.3156
 8336SOL     OW36466   0.758   3.859   5.209  0.1706 -0.7002  0.0411
 8336SOL    HW136467   0.793   3.809   5.283 -1.4701  0.5290  1.6506
 8336SOL    HW236468   0.667   3.870   5.237  0.0469 -1.2097 -0.1796
 8337SOL     OW36469   4.258   0.022   6.744 -0.3054  0.4120  0.0576
 8337SOL    HW136470   4.322   0.092   6.757 -2.5477  2.5757 -0.4835
 8337SOL    HW236471   4.200   0.053   6.673  0.1987  2.3468  0.4967
 8338SOL     OW36472   1.895   1.492   4.629  0.2570 -0.2950  0.2463
 8338SOL    HW136473   1.943   1.432   4.687 -2.2380 -1.0269  1.5640
 8338SOL    HW236474   1.806   1.457   4.631 -0.2282  0.9308  0.2275
 8339SOL     OW36475   4.118   4.082  10.955  0.1615 -0.1539 -0.4116
 8339SOL    HW136476   4.123   4.159  11.012  2.8409 -2.0618  1.8961
 8339SOL    HW236477   4.210   4.077  10.932  0.7707 -0.7158  2.2058
 8340SOL     OW36478   0.480   1.768   6.114  0.3076  0.4314 -0.9322
 8340SOL    HW136479   0.495   1.828   6.187  1.9522 -0.4855 -0.5398
 8340SOL    HW236480   0.399   1.730   6.148 -0.6991  2.7056 -0.7335
 8341SOL     OW36481   4.510   0.191   0.736  0.1787 -0.1981  0.3120
 8341SOL    HW136482   4.587   0.230   0.775  0.3271 -0.6687  0.4932
 8341SOL    HW236483   4.538   0.100   0.727 -1.1770 -0.7251  1.2837
 8342SOL     OW36484   0.023   2.992  17.218  0.1884  0.6176 -0.2862
 8342SOL    HW136485   0.007   2.936  17.142 -0.6987  0.2822  0.1495
 8342SOL    HW236486   0.063   2.935  17.285 -1.8553  0.4519  0.8011
 8343SOL     OW36487   1.322   4.373   6.070  0.2026  0.0919  0.1377
 8343SOL    HW136488   1.363   4.442   6.018 -1.4502 -0.0693 -1.3940
 8343SOL    HW236489   1.242   4.356   6.019 -0.6115 -2.8238  2.3897
 8344SOL     OW36490   0.236   3.951  17.629 -0.0157 -0.1213 -0.4152
 8344SOL    HW136491   0.320   3.915  17.660 -0.5946 -0.8557  0.3045
 8344SOL    HW236492   0.257   3.964  17.537  1.5210 -2.0250 -0.3216
 8345SOL     OW36493   2.086   0.667   4.513 -0.0336  0.5932  0.0571
 8345SOL    HW136494   2.162   0.670   4.572 -3.1176  0.7952  4.0366
 8345SOL    HW236495   2.118   0.679   4.424 -0.9995 -1.4862 -0.5702
 8346SOL     OW36496   4.360   2.327   8.566  0.2027  0.4675  0.9211
 8346SOL    HW136497   4.399   2.266   8.504 -1.8493  0.3906 -0.2830
 8346SOL    HW236498   4.402   2.309   8.651  1.1706  2.8499  0.9749
 8347SOL     OW36499   0.136   0.068   0.521 -0.1253 -0.2969 -0.0846
 8347SOL    HW136500   0.165   0.063   0.613  3.9264  1.8596 -1.2178
 8347SOL    HW236501   0.197   0.128   0.478 -0.1937 -1.1110 -1.3107
 8348SOL     OW36502   0.025   2.085   6.464  0.1931 -0.0314 -0.3235
 8348SOL    HW136503   0.027   2.095   6.369  1.1746 -3.0849 -0.6273
 8348SOL    HW236504   0.004   2.176   6.487 -2.0109 -0.7739  0.6407
 8349SOL     OW36505   2.436   1.360   1.921  0.2763 -0.4028 -0.1533
 8349SOL    HW136506   2.369   1.298   1.890 -0.4923 -0.0262  0.7451
 8349SOL    HW236507   2.447   1.415   1.844  0.4367  1.2902  1.0775
 8350SOL     OW36508   3.414   2.170   3.410  0.2015 -0.1595 -0.0770
 8350SOL    HW136509   3.359   2.150   3.487 -0.6645  1.6934 -0.2174
 8350SOL    HW236510   3.474   2.234   3.449 -1.0604  0.7673  0.3615
 8351SOL     OW36511   0.841   3.299   3.992 -0.3649  0.0202  0.2700
 8351SOL    HW136512   0.870   3.356   3.920  1.1282 -0.1789  0.7154
 8351SOL    HW236513   0.922   3.257   4.020  0.0702  0.7295  0.0768
 8352SOL     OW36514   2.392   1.036   0.143  0.1307 -0.5411  0.0966
 8352SOL    HW136515   2.427   0.948   0.130  1.5831 -0.0570  0.8213
 8352SOL    HW236516   2.300   1.025   0.119  0.9399 -1.4669 -2.5784
 8353SOL     OW36517   2.767   4.249  13.134  0.0190 -0.2378  0.4716
 8353SOL    HW136518   2.785   4.218  13.223  1.2717 -0.8184  0.0197
 8353SOL    HW236519   2.792   4.341  13.136 -0.3452 -0.1551  1.1442
 8354SOL     OW36520   4.677   1.843   7.709  0.8245 -0.4568 -0.6230
 8354SOL    HW136521   4.609   1.821   7.772  0.2938 -0.8297 -1.3247
 8354SOL    HW236522   0.032   1.817   7.757 -0.4117 -3.1676 -0.0215
 8355SOL     OW36523   4.103   1.474  15.602 -0.4243 -0.1476  0.1147
 8355SOL    HW136524   4.155   1.492  15.680 -1.5681  0.7878  0.6456
 8355SOL    HW236525   4.072   1.560  15.576  2.7399  1.0959  0.4059
 8356SOL     OW36526   3.989   1.785   8.608  0.3777  0.1544 -0.4925
 8356SOL    HW136527   3.995   1.810   8.700  0.5757 -0.2776 -0.3892
 8356SOL    HW236528   4.050   1.847   8.567  0.6659 -0.3138 -0.7732
 8357SOL     OW36529   3.594   3.516   3.190  0.5774  0.6008 -0.7691
 8357SOL    HW136530   3.663   3.544   3.251  0.6669 -1.9541  0.3174
 8357SOL    HW236531   3.610   3.568   3.112  0.1667  1.6467 -0.1506
 8358SOL     OW36532   3.532   2.749   8.298  0.0122  0.3771  0.9791
 8358SOL    HW136533   3.479   2.764   8.376 -0.4675  0.8030  0.5701
 8358SOL    HW236534   3.483   2.679   8.253 -0.8189  0.1023  2.3237
 8359SOL     OW36535   0.604   0.545   1.260 -0.1201 -0.5301 -0.3218
 8359SOL    HW136536   0.643   0.598   1.190 -1.9991  2.5459  0.9750
 8359SOL    HW236537   0.627   0.595   1.338 -1.0007 -2.2075  1.0217
 8360SOL     OW36538   2.932   2.742   4.256 -0.1473 -0.1363  0.3667
 8360SOL    HW136539   2.907   2.832   4.235  0.5533  0.6238  2.7723
 8360SOL    HW236540   2.905   2.741   4.348 -2.6994  0.4546 -0.3829
 8361SOL     OW36541   3.577   3.983   9.212 -0.6686 -0.5656 -0.4109
 8361SOL    HW136542   3.618   3.919   9.155 -0.5751 -1.8151  1.0594
 8361SOL    HW236543   3.623   3.965   9.294  2.1232 -3.8758 -2.7089
 8362SOL     OW36544   0.932   1.731   5.971 -0.0282 -0.4222  0.0953
 8362SOL    HW136545   1.003   1.667   5.957  0.4146  0.1511 -0.2825
 8362SOL    HW236546   0.912   1.767   5.885  1.5550 -2.4794 -1.1456
 8363SOL     OW36547   0.004   3.517  11.409 -0.1397 -0.0893  0.0974
 8363SOL    HW136548   4.692   3.437  11.373  1.3969 -0.9733  0.5121
 8363SOL    HW236549   4.670   3.529  11.484 -0.5809  1.1348 -0.4376
 8364SOL     OW36550   0.386   4.158   8.150 -0.0477  0.2676 -0.0603
 8364SOL    HW136551   0.480   4.176   8.144  0.2578 -1.5228 -0.7348
 8364SOL    HW236552   0.372   4.104   8.073 -0.9332  0.0721  0.2383
 8365SOL     OW36553   2.873   4.177   4.718  0.4672  0.2390  0.6925
 8365SOL    HW136554   2.963   4.181   4.686  0.6606 -0.5487  1.1318
 8365SOL    HW236555   2.851   4.266   4.745  1.8689  1.1863 -1.3027
 8366SOL     OW36556   0.948   1.976   2.794  0.4002 -0.8957  0.3519
 8366SOL    HW136557   1.017   2.040   2.808 -0.4149  0.4130 -1.6020
 8366SOL    HW236558   0.878   2.034   2.763 -0.5928 -1.7148  1.0375
 8367SOL     OW36559   2.255   0.538   6.578 -0.2487 -0.5667  0.7098
 8367SOL    HW136560   2.185   0.527   6.513  0.4529  1.4651 -0.4013
 8367SOL    HW236561   2.329   0.555   6.520 -0.4008 -1.4432  0.2493
 8368SOL     OW36562   4.015   0.115  10.452 -0.2783  0.5263 -0.3517
 8368SOL    HW136563   4.109   0.126  10.466 -0.2604 -0.6378  0.4010
 8368SOL    HW236564   4.004   0.066  10.370 -2.9064  0.7789 -0.1457
 8369SOL     OW36565   2.712   3.551   6.886 -0.2041 -0.1446  0.1034
 8369SOL    HW136566   2.663   3.479   6.845 -0.9994 -1.4390  3.2823
 8369SOL    HW236567   2.713   3.523   6.978 -0.8970 -0.6704 -0.0481
 8370SOL     OW36568   1.280   4.393  11.879  0.8353 -0.0070 -0.0081
 8370SOL    HW136569   1.224   4.324  11.914 -2.1266  0.7986 -3.1382
 8370SOL    HW236570   1.249   4.407  11.789  0.5138 -0.8386 -0.0268
 8371SOL     OW36571   0.786   2.182  12.950  0.4219 -0.1118  0.2145
 8371SOL    HW136572   0.725   2.164  13.021  0.1811 -0.8691 -0.1877
 8371SOL    HW236573   0.788   2.278  12.954 -1.4858 -0.0836  0.2236
 8372SOL     OW36574   0.648   3.997   4.934 -0.0725  0.0970  0.0033
 8372SOL    HW136575   0.711   4.018   5.003 -1.5319  1.5865  0.8810
 8372SOL    HW236576   0.618   4.087   4.917 -0.0992 -0.4923 -2.9713
 8373SOL     OW36577   0.337   3.792  15.401 -0.3528  0.0865 -0.2583
 8373SOL    HW136578   0.324   3.885  15.379  2.2581  0.8216  1.2777
 8373SOL    HW236579   0.271   3.751  15.346 -2.0543  2.1344  0.2360
 8374SOL     OW36580   4.338   3.822   1.110 -0.0439  0.2580  0.1724
 8374SOL    HW136581   4.299   3.836   1.024 -0.7360 -4.5261 -0.3201
 8374SOL    HW236582   4.290   3.876   1.173 -2.1280 -0.0480 -1.1287
 8375SOL     OW36583   2.383   3.964   6.822 -0.4658  0.0145  0.5675
 8375SOL    HW136584   2.466   3.933   6.860 -0.6638  1.0284  1.8354
 8375SOL    HW236585   2.330   3.988   6.898 -0.6868  0.0097  0.4117
 8376SOL     OW36586   2.395   1.441   1.658  0.0302 -0.8364  0.4393
 8376SOL    HW136587   2.359   1.513   1.607 -0.7711 -1.2850  0.3751
 8376SOL    HW236588   2.362   1.370   1.603 -2.5311  1.9393 -1.6303
 8377SOL     OW36589   3.544   2.679  10.923 -0.3570 -0.1759  0.5264
 8377SOL    HW136590   3.633   2.664  10.892 -1.0868 -0.8175 -1.2834
 8377SOL    HW236591   3.551   2.774  10.912  0.2980 -0.1818  0.9232
 8378SOL     OW36592   4.457   4.121   7.828 -0.6481  0.7860  0.7065
 8378SOL    HW136593   4.404   4.187   7.873  0.8046  1.2422  1.7561
 8378SOL    HW236594   4.404   4.042   7.831  1.7219 -0.8944 -2.4211
 8379SOL     OW36595   0.730   1.034   4.260 -0.8303  0.0093  0.1346
 8379SOL    HW136596   0.680   1.103   4.304 -0.1901  0.6689 -0.1764
 8379SOL    HW236597   0.737   0.974   4.335  1.7317 -0.1405 -0.2455
 8380SOL     OW36598   1.272   3.148   5.242  0.0166 -0.1606 -0.1532
 8380SOL    HW136599   1.208   3.148   5.313 -0.7353  0.0332 -0.8269
 8380SOL    HW236600   1.353   3.159   5.292 -0.3032 -0.4376  0.4220
 8381SOL     OW36601   3.521   0.422   7.616  0.2226  0.6508 -0.6277
 8381SOL    HW136602   3.548   0.333   7.636 -2.4548 -0.6365 -2.7550
 8381SOL    HW236603   3.561   0.437   7.531  0.3067 -0.4773 -0.7857
 8382SOL     OW36604   0.023   3.483  15.342  0.1802 -0.3466 -0.1919
 8382SOL    HW136605   0.072   3.536  15.280  0.5851 -0.6995 -0.1752
 8382SOL    HW236606   4.677   3.547  15.349 -0.0261 -0.6922  0.9647
 8383SOL     OW36607   1.281   2.024   2.429  0.0551 -0.1963  0.1983
 8383SOL    HW136608   1.259   1.937   2.462  1.6897 -1.3485 -1.7451
 8383SOL    HW236609   1.351   2.057   2.484 -0.0536 -1.8490  1.3423
 8384SOL     OW36610   0.113   3.885   1.832  0.4165  0.2739 -0.2941
 8384SOL    HW136611   0.044   3.833   1.873 -0.2460  0.2355 -1.4479
 8384SOL    HW236612   0.121   3.842   1.746 -0.1871 -0.8382  0.2032
 8385SOL     OW36613   3.432   3.983  12.848  0.2535 -0.1915 -0.1395
 8385SOL    HW136614   3.339   3.974  12.826 -0.4021  1.0885  2.1130
 8385SOL    HW236615   3.424   4.048  12.918 -2.1339  0.2043 -0.7783
 8386SOL     OW36616   1.022   2.458   1.432 -0.2334  1.0872 -0.4507
 8386SOL    HW136617   0.976   2.539   1.413 -0.6640  1.0896  0.6116
 8386SOL    HW236618   1.106   2.468   1.386 -0.3095  1.5892 -0.4780
 8387SOL     OW36619   3.187   3.339   9.143 -0.0805  0.0117 -0.2581
 8387SOL    HW136620   3.125   3.269   9.124 -1.9982  1.5617  0.3670
 8387SOL    HW236621   3.155   3.362   9.230 -0.1838 -1.2346  0.0374
 8388SOL     OW36622   1.281   3.744   5.589 -0.1733  0.5642 -0.0998
 8388SOL    HW136623   1.358   3.687   5.587 -0.8806 -0.3621 -0.3736
 8388SOL    HW236624   1.314   3.819   5.538 -3.3887  0.6873 -1.9592
 8389SOL     OW36625   4.523   2.090   5.307 -0.0892  0.2487  0.1550
 8389SOL    HW136626   4.474   2.168   5.283 -3.3414 -1.0614  2.3902
 8389SOL    HW236627   4.454   2.026   5.289  0.4840  0.2083 -1.8281
 8390SOL     OW36628   0.788   3.248   6.204 -0.2146  0.1656 -0.3169
 8390SOL    HW136629   0.715   3.227   6.145 -0.5321 -1.1639  0.5592
 8390SOL    HW236630   0.756   3.339   6.208  0.8788  0.6315 -2.2535
 8391SOL     OW36631   3.564   2.889  11.232  0.1094  0.0558  0.2240
 8391SOL    HW136632   3.480   2.842  11.238  0.6331 -1.1620 -1.7304
 8391SOL    HW236633   3.619   2.852  11.301  0.7248 -2.5223 -1.6210
 8392SOL     OW36634   0.286   4.244   3.936  0.3715 -0.2795  0.3877
 8392SOL    HW136635   0.311   4.237   3.844 -4.9780 -1.0111 -1.0028
 8392SOL    HW236636   0.212   4.305   3.933 -0.1973 -0.9378  1.0368
 8393SOL     OW36637   1.106   4.011   0.619 -0.8510 -0.2632  0.0669
 8393SOL    HW136638   1.075   4.089   0.573  2.6586  0.5465 -0.8594
 8393SOL    HW236639   1.142   3.949   0.555 -1.1782 -0.0368 -0.3385
 8394SOL     OW36640   1.713   3.916   0.786 -0.2339  0.4390 -0.5660
 8394SOL    HW136641   1.639   3.965   0.822  0.1925 -0.0723  1.0355
 8394SOL    HW236642   1.672   3.830   0.791 -3.3204  1.8094 -2.1923
 8395SOL     OW36643   2.672   0.432   6.622 -0.0458  0.3007  0.0501
 8395SOL    HW136644   2.685   0.497   6.692  2.5245  0.1963 -0.3133
 8395SOL    HW236645   2.635   0.367   6.680  3.4255 -0.4529  1.4548
 8396SOL     OW36646   3.582   0.797   9.163  0.1605 -0.0452 -0.5257
 8396SOL    HW136647   3.502   0.820   9.210  0.4403 -2.0592  0.9219
 8396SOL    HW236648   3.552   0.825   9.077 -0.4621  2.9089  0.6633
 8397SOL     OW36649   0.856   4.254   0.412 -0.5262 -0.1599  0.6579
 8397SOL    HW136650   0.768   4.289   0.399  0.1593  0.7005 -1.5855
 8397SOL    HW236651   0.852   4.237   0.506 -0.6614  0.1595  0.7086
 8398SOL     OW36652   3.671   0.874   3.702 -0.0945 -0.2208  0.1437
 8398SOL    HW136653   3.679   0.931   3.625  0.0023 -0.3266  0.0758
 8398SOL    HW236654   3.669   0.940   3.772 -2.1687  0.1385 -0.2443
 8399SOL     OW36655   1.448   4.402   1.652 -0.0611 -0.3052 -0.1733
 8399SOL    HW136656   1.479   4.331   1.709  0.5237  0.2862  0.2394
 8399SOL    HW236657   1.429   4.356   1.570  1.6949 -0.8921 -0.2340
 8400SOL     OW36658   2.480   4.518   2.943 -0.2227  0.6146 -0.0931
 8400SOL    HW136659   2.490   4.613   2.937  2.6943  0.3733  0.9835
 8400SOL    HW236660   2.495   4.502   3.036  3.4917  2.2891 -0.3904
 8401SOL     OW36661   2.026   0.085   1.069 -0.0427  0.2082 -0.2202
 8401SOL    HW136662   2.047   0.164   1.021  2.0510  0.2039  0.6871
 8401SOL    HW236663   1.938   0.065   1.036  0.9382 -0.5844 -2.3213
 8402SOL     OW36664   3.061   4.494  13.883  0.7417  0.6733 -0.1715
 8402SOL    HW136665   3.128   4.507  13.950  1.0776  0.1921 -0.4151
 8402SOL    HW236666   3.076   4.401  13.872 -2.1501 -0.2812  3.8232
 8403SOL     OW36667   4.488   0.656   0.288  0.3474  0.0918 -0.0052
 8403SOL    HW136668   4.520   0.600   0.359  0.3952 -1.2073 -1.0469
 8403SOL    HW236669   4.491   0.741   0.331 -1.4712  0.5547 -0.8050
 8404SOL     OW36670   3.291   2.590  14.805  0.3889 -0.7207  0.0935
 8404SOL    HW136671   3.244   2.614  14.726 -0.5753  0.3258  0.9894
 8404SOL    HW236672   3.384   2.605  14.785  0.2357  0.0890  0.0151
 8405SOL     OW36673   1.864   4.506   8.577  0.0032 -0.9440  0.1066
 8405SOL    HW136674   1.934   4.442   8.591  1.6443  0.8691  0.2860
 8405SOL    HW236675   1.828   4.515   8.665  0.4165 -0.4760  0.2354
 8406SOL     OW36676   3.786   2.885  15.182 -0.2046 -0.2049  0.3347
 8406SOL    HW136677   3.807   2.889  15.089  1.0679  1.2142  0.6775
 8406SOL    HW236678   3.866   2.883  15.235  0.0639  0.1121 -0.0605
 8407SOL     OW36679   1.082   3.054   7.604 -0.2438 -0.9126  0.3890
 8407SOL    HW136680   1.121   3.005   7.676 -0.7956 -1.9289 -0.0013
 8407SOL    HW236681   1.162   3.084   7.561 -0.6036  1.9524  1.7436
 8408SOL     OW36682   2.309   2.573   9.418  0.1168 -0.1459 -0.4551
 8408SOL    HW136683   2.216   2.578   9.442 -0.3444 -0.4435 -2.1902
 8408SOL    HW236684   2.353   2.585   9.502  0.1370  0.6158 -0.5751
 8409SOL     OW36685   4.339   1.410   5.276  0.1222  0.1067 -0.1975
 8409SOL    HW136686   4.350   1.505   5.279 -0.0122  0.2055 -2.2609
 8409SOL    HW236687   4.256   1.400   5.229  1.0827  1.3446 -2.1991
 8410SOL     OW36688   1.726   4.525   6.558 -0.9446 -0.2911 -0.4955
 8410SOL    HW136689   1.689   4.501   6.473  0.0133 -0.3678 -0.8889
 8410SOL    HW236690   1.760   4.441   6.587  3.5046  2.2339  1.5375
 8411SOL     OW36691   1.378   0.667   5.499 -0.0366 -0.1033 -0.3625
 8411SOL    HW136692   1.384   0.746   5.445 -1.8155 -0.3066 -0.8597
 8411SOL    HW236693   1.293   0.684   5.539 -0.0758  1.2037 -1.0284
 8412SOL     OW36694   2.265   1.403  10.871  0.3117 -0.0009 -0.2211
 8412SOL    HW136695   2.345   1.400  10.924  1.2854  0.4128 -1.6742
 8412SOL    HW236696   2.259   1.497  10.857 -4.6113 -0.4413 -1.3338
 8413SOL     OW36697   0.359   2.767   8.421 -0.2917 -0.5040 -0.4925
 8413SOL    HW136698   0.431   2.705   8.431  0.1190 -0.2877 -2.0314
 8413SOL    HW236699   0.348   2.801   8.509 -1.1281 -0.4559 -0.6191
 8414SOL     OW36700   3.253   3.737   8.467 -0.0559  0.5408  0.0824
 8414SOL    HW136701   3.263   3.744   8.562 -1.5259 -2.7499  0.4617
 8414SOL    HW236702   3.272   3.826   8.439  2.3020 -0.2870 -0.9240
 8415SOL     OW36703   1.215   1.331   9.005  0.7188  0.3833 -0.1766
 8415SOL    HW136704   1.285   1.289   8.954  0.5924  0.3045 -0.2832
 8415SOL    HW236705   1.194   1.264   9.070  0.3244  0.7119  0.0378
 8416SOL     OW36706   0.719   1.012  17.622 -0.5331  0.1227  0.0846
 8416SOL    HW136707   0.807   1.043  17.600 -0.9124  3.1331  2.8131
 8416SOL    HW236708   0.734   0.920  17.641 -0.3220  0.4865  1.6182
 8417SOL     OW36709   0.975   1.995   7.659 -0.2256 -0.1830  0.9596
 8417SOL    HW136710   0.908   1.933   7.631  0.4453 -0.9260  1.0168
 8417SOL    HW236711   1.030   1.982   7.581 -2.3206  1.2398 -0.7611
 8418SOL     OW36712   4.541   4.373   1.981 -0.3168  0.1776  0.7365
 8418SOL    HW136713   4.461   4.405   1.940 -0.1450  1.8859  1.7562
 8418SOL    HW236714   4.519   4.376   2.075  0.4058 -2.3688  0.9834
 8419SOL     OW36715   2.176   1.147   7.164 -0.6140 -0.0434 -0.0206
 8419SOL    HW136716   2.128   1.106   7.092  0.2454  2.2687 -1.8838
 8419SOL    HW236717   2.262   1.137   7.124 -0.9166 -1.9910 -0.1973
 8420SOL     OW36718   3.329   3.469   4.329 -0.3764 -0.3383  0.2062
 8420SOL    HW136719   3.358   3.518   4.253 -0.7437 -1.4767 -0.6629
 8420SOL    HW236720   3.238   3.494   4.319  0.3115  1.8539 -0.3983
 8421SOL     OW36721   0.496   1.805   2.981  0.2310 -0.1551 -0.1470
 8421SOL    HW136722   0.583   1.845   2.986  0.7558 -1.0134 -2.5731
 8421SOL    HW236723   0.517   1.712   2.973  1.2723 -0.0260  0.9622
 8422SOL     OW36724   3.898   1.858   4.440  0.3055  0.1199  0.4757
 8422SOL    HW136725   3.807   1.842   4.468  0.8408  0.2256  2.2797
 8422SOL    HW236726   3.947   1.791   4.489  2.6087  0.2191 -1.7281
 8423SOL     OW36727   2.744   2.639   5.514  0.3002 -0.3432  0.3975
 8423SOL    HW136728   2.817   2.604   5.565 -1.1750 -1.9133  1.4401
 8423SOL    HW236729   2.749   2.579   5.440  2.5184  0.9185 -0.4746
 8424SOL     OW36730   1.762   0.449   8.614 -0.5386  0.4785  0.0061
 8424SOL    HW136731   1.806   0.495   8.543  1.3951  1.1839  1.6651
 8424SOL    HW236732   1.681   0.416   8.576 -0.5511  1.5536 -0.9002
 8425SOL     OW36733   2.514   0.955   3.106 -0.4392 -0.2000 -0.0024
 8425SOL    HW136734   2.441   0.971   3.165 -0.8889  2.9341 -1.4227
 8425SOL    HW236735   2.563   0.896   3.163  1.2403  0.9379 -0.2629
 8426SOL     OW36736   3.553   3.124   3.184  0.3817  0.3435  0.4593
 8426SOL    HW136737   3.508   3.104   3.102 -0.4677 -0.2094  1.0640
 8426SOL    HW236738   3.517   3.209   3.207  1.8901 -0.4285  5.6256
 8427SOL     OW36739   1.517   2.138  12.061 -0.2768  0.6644  0.1972
 8427SOL    HW136740   1.584   2.099  12.004 -1.3746 -0.2194 -0.4789
 8427SOL    HW236741   1.553   2.114  12.146 -2.8806  1.7681  1.6111
 8428SOL     OW36742   2.310   0.781   1.800 -0.7540  0.4039  0.1425
 8428SOL    HW136743   2.324   0.736   1.717 -1.6103  0.7085 -0.1682
 8428SOL    HW236744   2.248   0.848   1.771 -1.3241 -0.0757  0.2685
 8429SOL     OW36745   0.496   3.397  12.823  0.1324 -0.0439  0.0217
 8429SOL    HW136746   0.413   3.435  12.792  0.3174  0.9783  0.7686
 8429SOL    HW236747   0.551   3.403  12.745 -0.8511 -1.8888 -0.8117
 8430SOL     OW36748   3.750   4.684   1.280 -0.2850  0.2895  0.3330
 8430SOL    HW136749   3.749   4.689   1.376  1.2424 -0.1993  0.3706
 8430SOL    HW236750   3.698   4.604   1.276 -1.4531  0.9814  1.6619
 8431SOL     OW36751   0.956   2.795   3.230  0.1002 -0.1416 -0.7446
 8431SOL    HW136752   0.862   2.783   3.215  0.0387 -0.3350 -0.2053
 8431SOL    HW236753   0.984   2.714   3.272 -1.1401 -1.0963 -1.7730
 8432SOL     OW36754   4.077   2.314   7.619 -0.3618  0.0265 -0.0367
 8432SOL    HW136755   4.005   2.254   7.641 -1.1436 -0.2577 -3.3960
 8432SOL    HW236756   4.069   2.373   7.694  0.7085  1.8332 -1.3676
 8433SOL     OW36757   4.011   1.016   1.309  0.6417  0.3426 -0.1889
 8433SOL    HW136758   4.008   0.994   1.216 -0.6125  1.3373 -0.3847
 8433SOL    HW236759   3.954   1.092   1.305  1.0682  0.6110 -1.1658
 8434SOL     OW36760   2.791   3.201  12.506 -0.0184  0.4035 -0.6216
 8434SOL    HW136761   2.869   3.220  12.453 -0.5695  0.2296 -1.4843
 8434SOL    HW236762   2.762   3.292  12.517 -0.1899  0.3147 -0.3543
 8435SOL     OW36763   1.060   4.397   9.257  0.2853  0.3679  0.5504
 8435SOL    HW136764   1.001   4.418   9.184 -0.2006  1.1424  1.1803
 8435SOL    HW236765   1.061   4.482   9.300  1.6671 -0.5785  2.3605
 8436SOL     OW36766   3.861   3.825  17.530 -0.5887  0.0039  0.4469
 8436SOL    HW136767   3.890   3.793  17.615  3.7179  0.3099 -0.9021
 8436SOL    HW236768   3.893   3.915  17.535 -2.1017  0.5657 -0.0464
 8437SOL     OW36769   3.340   1.820  15.541  0.3225  0.3906  0.1300
 8437SOL    HW136770   3.272   1.886  15.528  0.3413  0.0026 -1.8785
 8437SOL    HW236771   3.298   1.747  15.496  1.2444 -1.8524  2.8517
 8438SOL     OW36772   3.506   3.060   8.788  0.2454 -0.0758  0.1839
 8438SOL    HW136773   3.467   3.145   8.769  0.4664 -0.4168 -1.7620
 8438SOL    HW236774   3.554   3.049   8.706 -0.0172 -1.4047  0.2050
 8439SOL     OW36775   1.059   3.419   5.692 -0.0960  0.3741 -0.0560
 8439SOL    HW136776   1.152   3.398   5.683  0.1031  0.2199  2.5570
 8439SOL    HW236777   1.055   3.397   5.785  0.2733 -2.6953 -0.7500
 8440SOL     OW36778   4.320   1.660  12.080 -0.1332  0.2694 -0.1574
 8440SOL    HW136779   4.345   1.612  12.159 -0.0761  2.6097  1.2309
 8440SOL    HW236780   4.375   1.612  12.017 -1.6910 -2.1566  0.3204
 8441SOL     OW36781   3.414   0.935   3.990  0.2898  0.1512 -0.2677
 8441SOL    HW136782   3.390   1.009   3.934 -3.2276  2.1834  3.8799
 8441SOL    HW236783   3.421   0.867   3.923  0.5744 -1.0765  0.9975
 8442SOL     OW36784   3.193   0.574   1.809  0.3160 -0.6346  0.5592
 8442SOL    HW136785   3.210   0.603   1.898  1.5845  2.0717 -0.5584
 8442SOL    HW236786   3.136   0.647   1.783  0.4414 -0.2524  1.3489
 8443SOL     OW36787   2.219   2.997  13.363  0.1778  0.0974 -0.6179
 8443SOL    HW136788   2.215   2.965  13.453 -0.3730  0.0373 -0.6642
 8443SOL    HW236789   2.126   3.016  13.347  0.0950  0.8403  0.8076
 8444SOL     OW36790   1.565   2.392  12.485 -0.1808  0.2149  0.6372
 8444SOL    HW136791   1.540   2.417  12.396  0.0244  0.7844  0.7398
 8444SOL    HW236792   1.615   2.460  12.531  0.4440  0.0471  0.2011
 8445SOL     OW36793   1.269   2.283   2.958  0.0924  0.2227 -0.5275
 8445SOL    HW136794   1.221   2.222   2.902  1.5671  0.8192 -2.4378
 8445SOL    HW236795   1.342   2.229   2.987  0.0310  1.0606  1.2292
 8446SOL     OW36796   2.974   1.173   9.998 -0.4615 -0.1240  0.5248
 8446SOL    HW136797   3.051   1.221  10.031 -1.7606  1.6238  1.0138
 8446SOL    HW236798   2.922   1.249   9.970  0.7641  0.2618 -0.7290
 8447SOL     OW36799   4.190   1.343   8.123  0.5258  0.0901  0.5006
 8447SOL    HW136800   4.254   1.409   8.152  0.9700  0.3195 -0.9806
 8447SOL    HW236801   4.151   1.314   8.205 -0.2677  0.2492  0.1812
 8448SOL     OW36802   3.774   4.063  15.680 -0.8183  0.2690  0.0669
 8448SOL    HW136803   3.724   3.982  15.691  0.4762 -0.7057 -1.3361
 8448SOL    HW236804   3.842   4.027  15.624  0.2952  1.0675  0.9128
 8449SOL     OW36805   2.173   1.392   3.144  0.6430  0.0283 -0.5056
 8449SOL    HW136806   2.228   1.347   3.208  0.4367  0.8815  0.2731
 8449SOL    HW236807   2.135   1.459   3.202 -0.9245 -1.6797  0.4282
 8450SOL     OW36808   3.477   3.489   3.706  0.2889 -0.3804  0.2595
 8450SOL    HW136809   3.566   3.456   3.694  0.7311  0.7714  0.4299
 8450SOL    HW236810   3.423   3.448   3.637 -0.6542  0.7173  0.3509
 8451SOL     OW36811   2.398   2.934   4.386 -0.7058  0.0613 -0.3273
 8451SOL    HW136812   2.424   2.849   4.352 -2.7334 -1.4597  1.9228
 8451SOL    HW236813   2.391   2.974   4.299 -2.2935  1.5490  0.4756
 8452SOL     OW36814   3.304   2.247   2.949 -0.0675  0.7796 -0.0030
 8452SOL    HW136815   3.369   2.252   3.019  1.1761  1.2611 -1.1940
 8452SOL    HW236816   3.235   2.211   3.004  2.5729 -0.6855  2.3262
 8453SOL     OW36817   0.545   4.136  14.999  0.1787  0.0324  0.1462
 8453SOL    HW136818   0.557   4.081  15.077  1.9387  1.2373  0.7326
 8453SOL    HW236819   0.484   4.199  15.037  2.2220  0.6970  2.3240
 8454SOL     OW36820   2.895   3.221   5.406  0.0076  0.0729  0.0458
 8454SOL    HW136821   2.908   3.174   5.489  1.2710  0.8496  0.2910
 8454SOL    HW236822   2.802   3.241   5.414  0.1774  1.2440 -1.0629
 8455SOL     OW36823   0.502   3.629   8.319  0.1050 -1.0352 -1.1296
 8455SOL    HW136824   0.526   3.719   8.342  0.2111 -0.9413 -1.6076
 8455SOL    HW236825   0.591   3.599   8.300 -0.8044 -2.7576 -2.6721
 8456SOL     OW36826   4.273   3.905   7.824 -0.3485  0.6568 -0.1703
 8456SOL    HW136827   4.190   3.953   7.815 -1.2432 -0.4808  1.9436
 8456SOL    HW236828   4.253   3.840   7.757 -0.6367 -1.1196  1.6518
 8457SOL     OW36829   1.667   1.965  13.089 -0.3242 -0.0101 -0.0878
 8457SOL    HW136830   1.579   1.957  13.052 -0.0031  0.3366 -0.9403
 8457SOL    HW236831   1.702   1.876  13.084  0.6711  0.3043  1.5559
 8458SOL     OW36832   2.906   4.462  10.732  0.4472  0.1651 -0.3235
 8458SOL    HW136833   2.949   4.547  10.745  0.0162  0.5869 -1.7122
 8458SOL    HW236834   2.951   4.432  10.653  1.1342  2.3172 -0.7452
 8459SOL     OW36835   2.227   2.643  14.189  0.2272 -0.8345 -0.0271
 8459SOL    HW136836   2.184   2.566  14.225 -0.5423 -0.5597 -0.3655
 8459SOL    HW236837   2.252   2.684  14.272  3.3535 -0.8433 -0.9408
 8460SOL     OW36838   2.728   3.704   4.909  0.0235 -0.2309 -0.7845
 8460SOL    HW136839   2.777   3.778   4.874  0.0437 -0.2238 -0.7410
 8460SOL    HW236840   2.638   3.719   4.880  0.7917 -1.2919 -3.7714
 8461SOL     OW36841   3.816   4.300   1.495 -0.2544 -0.7700 -0.3736
 8461SOL    HW136842   3.822   4.335   1.406 -1.0931 -2.0998 -0.9601
 8461SOL    HW236843   3.721   4.313   1.505  0.5472  2.2929  3.1575
 8462SOL     OW36844   2.532   1.764   7.466 -0.2576 -0.8735  0.2830
 8462SOL    HW136845   2.592   1.734   7.535  1.2094 -0.6222 -0.8922
 8462SOL    HW236846   2.472   1.815   7.521 -0.8682 -1.5046  0.1910
 8463SOL     OW36847   0.173   2.774  12.314 -0.7628  0.3170 -0.0092
 8463SOL    HW136848   0.203   2.844  12.256  3.2810 -2.0841 -0.7480
 8463SOL    HW236849   0.203   2.700  12.263 -1.3302 -0.4815  0.8099
 8464SOL     OW36850   3.131   0.934   1.906 -0.5275  0.3907  0.4036
 8464SOL    HW136851   3.052   0.956   1.956 -0.1725  1.0918  0.6624
 8464SOL    HW236852   3.135   0.843   1.935  0.9901  0.0391 -0.9248
 8465SOL     OW36853   0.369   0.485   7.387  0.3559 -0.5467  0.3685
 8465SOL    HW136854   0.393   0.573   7.360  0.0670 -1.1461 -1.8561
 8465SOL    HW236855   0.432   0.459   7.454 -0.3365 -0.4804  1.0384
 8466SOL     OW36856   3.410   1.488   8.901 -0.2205  0.3499 -0.2326
 8466SOL    HW136857   3.361   1.564   8.869 -1.1835  0.5891  1.8348
 8466SOL    HW236858   3.442   1.461   8.815 -2.6542 -0.2355 -0.9526
 8467SOL     OW36859   2.952   4.283   3.482 -0.4945  0.7031 -0.2667
 8467SOL    HW136860   3.018   4.283   3.552  0.6014 -0.7680 -1.2992
 8467SOL    HW236861   2.892   4.215   3.515  0.2861  0.2513  0.2266
 8468SOL     OW36862   1.786   2.257   4.914  0.0514 -0.1951 -0.1419
 8468SOL    HW136863   1.829   2.174   4.933 -1.5235 -0.7918  0.8684
 8468SOL    HW236864   1.807   2.258   4.821 -0.3122  1.2530 -0.2155
 8469SOL     OW36865   1.926   3.807   7.093  0.2933 -0.1979 -0.3602
 8469SOL    HW136866   1.863   3.744   7.125  0.6475 -0.2006  0.3296
 8469SOL    HW236867   1.918   3.887   7.145  2.1217 -1.1502  1.3785
 8470SOL     OW36868   2.489   2.034  11.927 -0.5650  0.5895 -0.4080
 8470SOL    HW136869   2.556   2.088  11.887  1.2741 -0.6884  0.9293
 8470SOL    HW236870   2.408   2.073  11.895 -0.0945  2.0675  0.2337
 8471SOL     OW36871   0.717   4.484  15.332  0.0106  0.3705  0.1343
 8471SOL    HW136872   0.681   4.496  15.244 -0.2999  1.9375  0.4700
 8471SOL    HW236873   0.666   4.549  15.380 -0.1948  0.6217 -0.4233
 8472SOL     OW36874   3.825   2.397   5.162  0.2888  0.4135  0.2465
 8472SOL    HW136875   3.844   2.313   5.121 -0.1587  0.0757  0.7204
 8472SOL    HW236876   3.817   2.448   5.082  0.2220  1.2650  0.7935
 8473SOL     OW36877   3.815   1.273   6.236 -0.5684  0.4050 -0.2305
 8473SOL    HW136878   3.872   1.243   6.165  0.4166  1.9340 -0.0807
 8473SOL    HW236879   3.761   1.194   6.243 -0.3445  0.1642 -1.1930
 8474SOL     OW36880   3.812   4.663   5.918 -0.4365  0.4332 -0.6447
 8474SOL    HW136881   3.798   0.023   5.962 -0.0570 -0.0301  0.3589
 8474SOL    HW236882   3.743   4.680   5.853 -2.8858 -2.7620  1.1083
 8475SOL     OW36883   1.758   2.437  17.652  0.3127  0.1841 -0.1755
 8475SOL    HW136884   1.848   2.406  17.660  0.1702  0.2528  1.7155
 8475SOL    HW236885   1.737   2.448   0.046  2.1982 -1.9547  0.4852
 8476SOL     OW36886   2.226   0.081   6.167 -0.3616  0.4607 -0.5231
 8476SOL    HW136887   2.202   0.015   6.232  1.5612  1.6519  1.3870
 8476SOL    HW236888   2.141   0.126   6.166 -0.3524  0.5582  2.2841
 8477SOL     OW36889   1.862   0.318   1.837  0.1949  0.2199 -0.2969
 8477SOL    HW136890   1.895   0.305   1.927 -3.1232 -0.0169  0.8836
 8477SOL    HW236891   1.774   0.348   1.858  0.2222  0.5216 -0.6323
 8478SOL     OW36892   2.907   2.311   6.693 -0.3548  0.4170 -0.5796
 8478SOL    HW136893   2.824   2.322   6.739  1.0564  0.3016  1.9461
 8478SOL    HW236894   2.915   2.400   6.661 -0.8627  0.9750  0.8482
 8479SOL     OW36895   0.071   2.615   1.412  0.3109 -0.0894  0.0485
 8479SOL    HW136896   0.163   2.631   1.388 -0.4019  0.3391 -2.3603
 8479SOL    HW236897   0.047   2.704   1.437 -2.6319 -0.9881  0.3779
 8480SOL     OW36898   2.485   0.985   7.878  1.0005 -0.3563 -0.1614
 8480SOL    HW136899   2.542   0.983   7.802  0.1506  1.0285 -0.8291
 8480SOL    HW236900   2.488   0.899   7.919 -0.9402 -0.0437  0.6192
 8481SOL     OW36901   4.655   0.585   2.917 -0.3672  0.0260 -0.3289
 8481SOL    HW136902   4.691   0.659   2.869 -0.1956 -0.5700 -1.1160
 8481SOL    HW236903   4.566   0.583   2.881  0.0640 -0.1358 -1.3649
 8482SOL     OW36904   0.178   3.532   8.898  0.8637  0.2052 -0.0285
 8482SOL    HW136905   0.135   3.468   8.954 -0.5902  1.2593  0.0607
 8482SOL    HW236906   0.202   3.598   8.962  2.8827 -0.9391  0.4066
 8483SOL     OW36907   3.754   3.119  16.736  0.5415 -0.2689  0.3738
 8483SOL    HW136908   3.659   3.130  16.741  0.5355 -0.2729  0.2539
 8483SOL    HW236909   3.782   3.211  16.739 -0.2164 -0.0674  1.2459
 8484SOL     OW36910   3.426   3.959  11.113 -0.8055  0.0988  0.1958
 8484SOL    HW136911   3.335   3.931  11.115 -0.1823 -2.0338 -1.2328
 8484SOL    HW236912   3.441   4.001  11.028  0.7325  0.1216  0.4705
 8485SOL     OW36913   3.939   3.617  14.753  0.2528  0.5646 -0.1984
 8485SOL    HW136914   3.928   3.599  14.846 -0.5074 -2.6245 -0.9112
 8485SOL    HW236915   4.002   3.689  14.751  0.6741  0.2168  0.6069
 8486SOL     OW36916   0.340   3.137   3.732  0.5182  0.0797 -0.5230
 8486SOL    HW136917   0.419   3.174   3.693  0.8227  0.5262  0.5406
 8486SOL    HW236918   0.374   3.056   3.770 -0.0793 -0.2295 -0.6413
 8487SOL     OW36919   3.836   1.178  17.146  0.4712  0.5347  0.3876
 8487SOL    HW136920   3.877   1.102  17.105  0.2045  0.6758 -0.1378
 8487SOL    HW236921   3.819   1.222  17.063 -1.3476 -0.4608  0.2399
 8488SOL     OW36922   2.283   1.550   7.061  0.5196  0.6440  0.1454
 8488SOL    HW136923   2.359   1.588   7.017  0.0538  0.7680 -0.5487
 8488SOL    HW236924   2.213   1.611   7.036 -0.1067  0.4061  1.3092
 8489SOL     OW36925   1.337   3.067   5.690 -0.0500 -0.3171 -0.2542
 8489SOL    HW136926   1.340   3.004   5.763  0.3747 -0.7386 -0.6346
 8489SOL    HW236927   1.325   3.152   5.731  1.5031  0.0675 -0.6255
 8490SOL     OW36928   0.710   3.061   3.152 -0.1148  0.5225  0.0890
 8490SOL    HW136929   0.724   3.004   3.076  0.5327 -0.0351  0.6209
 8490SOL    HW236930   0.785   3.120   3.146 -1.0683  1.7082 -0.0241
 8491SOL     OW36931   0.952   1.709  10.408 -0.1153 -0.3607 -0.4319
 8491SOL    HW136932   1.031   1.703  10.462 -1.5056  1.5327  1.7719
 8491SOL    HW236933   0.915   1.794  10.429  0.1675  0.0535 -1.6077
 8492SOL     OW36934   3.945   1.495   8.595 -0.4477 -0.2778  0.2172
 8492SOL    HW136935   3.979   1.584   8.597  1.2581 -0.9332  0.1829
 8492SOL    HW236936   4.023   1.442   8.582 -0.5747  0.2138 -2.5592
 8493SOL     OW36937   1.149   3.410   5.186 -0.0395 -0.4343  0.2996
 8493SOL    HW136938   1.197   3.327   5.193 -0.4878 -0.8238 -1.2324
 8493SOL    HW236939   1.152   3.428   5.092 -0.9136  0.9999  0.5518
 8494SOL     OW36940   0.535   4.021  16.481  0.2955  0.2442  0.5378
 8494SOL    HW136941   0.516   3.929  16.499  0.8887 -0.5645 -3.0341
 8494SOL    HW236942   0.451   4.064  16.500  2.1065  3.1934  1.9810
 8495SOL     OW36943   4.646   0.302  17.162 -0.2732 -0.0574  0.3803
 8495SOL    HW136944   4.696   0.383  17.169 -1.4741  0.9442 -2.7173
 8495SOL    HW236945   4.668   0.273  17.074 -1.3504 -2.4319  0.8866
 8496SOL     OW36946   3.094   4.706   4.633 -0.7358 -0.2856  0.8633
 8496SOL    HW136947   3.177   4.699   4.587 -1.3331 -0.7250 -0.1577
 8496SOL    HW236948   3.029   4.723   4.565 -0.0601  0.5235  0.4120
 8497SOL     OW36949   2.299   0.636  13.608  0.9370 -0.3522  0.8296
 8497SOL    HW136950   2.306   0.629  13.513 -0.8386 -2.3457  0.8313
 8497SOL    HW236951   2.345   0.718  13.623 -0.3276  0.1155  2.2017
 8498SOL     OW36952   1.542   2.420   7.506 -0.6010  0.0155 -0.2289
 8498SOL    HW136953   1.615   2.471   7.470 -0.2432 -0.5089 -0.2494
 8498SOL    HW236954   1.475   2.480   7.539  0.3676  1.6412 -1.2091
 8499SOL     OW36955   3.457   0.094   8.338 -0.0495 -0.0090 -0.3957
 8499SOL    HW136956   3.473   0.000   8.349  0.2819  0.2290  1.0632
 8499SOL    HW236957   3.472   0.097   8.243 -0.7727 -0.8264 -0.5358
 8500SOL     OW36958   1.274   0.509   8.287 -0.2498 -0.6595  0.2058
 8500SOL    HW136959   1.288   0.604   8.279 -1.8302 -0.4506 -0.1956
 8500SOL    HW236960   1.327   0.476   8.215 -0.9684 -0.7781 -0.2762
 8501SOL     OW36961   3.886   3.190   9.870 -0.1048  0.2251  0.3199
 8501SOL    HW136962   3.799   3.220   9.843 -0.2437 -0.5686 -0.1153
 8501SOL    HW236963   3.944   3.263   9.852  3.6844 -3.1036 -0.9455
 8502SOL     OW36964   3.510   3.276  10.372 -0.0137 -0.3479  0.6162
 8502SOL    HW136965   3.435   3.298  10.317  0.4818 -1.1091 -0.3485
 8502SOL    HW236966   3.562   3.220  10.315 -2.5806  1.4876 -3.4694
 8503SOL     OW36967   3.677   4.081  12.667  0.8185  0.7298 -0.3605
 8503SOL    HW136968   3.752   4.136  12.692  0.5186  0.2787  1.5623
 8503SOL    HW236969   3.688   4.109  12.576  0.8864  1.5202 -0.1138
 8504SOL     OW36970   3.183   1.671   2.163  0.1223  0.9304 -0.1733
 8504SOL    HW136971   3.121   1.613   2.208  1.7246 -0.0572  0.7816
 8504SOL    HW236972   3.135   1.697   2.085  0.4068  0.4997 -0.4904
 8505SOL     OW36973   3.322   0.576   5.044 -0.1596 -0.3024 -0.3498
 8505SOL    HW136974   3.263   0.520   4.993 -0.1071  0.4124 -1.1880
 8505SOL    HW236975   3.378   0.618   4.979  0.9626 -2.0956 -0.5575
 8506SOL     OW36976   2.227   0.791   9.004  0.5026 -0.6080 -0.3941
 8506SOL    HW136977   2.195   0.789   8.914 -1.1275 -4.0588  0.2722
 8506SOL    HW236978   2.283   0.868   9.011 -0.8360  0.4318 -1.0672
 8507SOL     OW36979   0.908   0.483   4.001  0.2432 -0.3499 -0.7749
 8507SOL    HW136980   0.900   0.440   4.086  2.0059  0.4463 -0.2026
 8507SOL    HW236981   0.896   0.575   4.025  0.6406 -0.2345 -1.0134
 8508SOL     OW36982   2.314   2.492   3.227 -0.5004 -0.7680  0.1037
 8508SOL    HW136983   2.295   2.428   3.158  1.2880 -0.0313 -1.0814
 8508SOL    HW236984   2.227   2.523   3.251  0.3980  1.9909 -0.1972
 8509SOL     OW36985   4.165   3.642  11.437 -0.0979 -0.0987 -0.3200
 8509SOL    HW136986   4.073   3.637  11.414 -0.2151 -1.6421  0.4963
 8509SOL    HW236987   4.175   3.555  11.475 -2.1144  0.0663  0.5560
 8510SOL     OW36988   2.399   1.450  12.494 -0.2008 -0.4770 -0.9574
 8510SOL    HW136989   2.328   1.508  12.466 -2.5336 -2.5201  0.7087
 8510SOL    HW236990   2.469   1.456  12.429  0.0600  0.4447 -0.5815
 8511SOL     OW36991   4.517   0.134  13.324  0.1722  0.0283  0.1807
 8511SOL    HW136992   4.517   0.038  13.324  0.2585  0.0162 -1.5671
 8511SOL    HW236993   4.604   0.139  13.282  1.3592 -1.2754  2.4712
 8512SOL     OW36994   4.627   3.139   6.074 -0.2141 -0.3640  0.4774
 8512SOL    HW136995   4.572   3.215   6.054 -1.8601 -2.4169 -2.8591
 8512SOL    HW236996   4.592   3.079   6.008  0.9497 -0.8061  0.2593
 8513SOL     OW36997   3.227   3.184  16.836  0.7783  0.6605 -0.2110
 8513SOL    HW136998   3.224   3.092  16.864 -1.6521  1.2416  1.4294
 8513SOL    HW236999   3.154   3.177  16.775  2.0730  1.9747 -1.9155
 8514SOL     OW37000   0.043   0.390   2.538  0.1395  0.6484 -0.3072
 8514SOL    HW137001   0.029   0.305   2.497  0.8960  1.6322 -2.5682
 8514SOL    HW237002   0.126   0.381   2.585  1.1533 -1.5216 -2.5500
 8515SOL     OW37003   4.682   3.274  11.308  0.2719 -0.5038 -0.3049
 8515SOL    HW137004   0.038   3.226  11.324  1.9692  2.4489  0.0514
 8515SOL    HW237005   4.645   3.219  11.239 -0.5816  0.2550 -0.4562
 8516SOL     OW37006   0.592   1.897   3.599  0.7940 -0.0818 -0.2464
 8516SOL    HW137007   0.521   1.929   3.655 -0.2018 -0.6495 -1.1982
 8516SOL    HW237008   0.662   1.905   3.664 -1.0309 -0.4427  1.7690
 8517SOL     OW37009   2.411   0.103  13.145  0.3712  0.0817  0.6170
 8517SOL    HW137010   2.436   0.021  13.187 -0.9320 -1.0440 -0.7609
 8517SOL    HW237011   2.336   0.073  13.093  1.5817 -0.1376 -1.0127
 8518SOL     OW37012   0.585   0.266   6.852  0.1152 -0.7758 -0.1919
 8518SOL    HW137013   0.491   0.249   6.842 -0.1341  2.0188 -2.4997
 8518SOL    HW237014   0.610   0.241   6.941  0.3639 -1.6513 -0.5020
 8519SOL     OW37015   0.966   4.084   2.761 -0.0899 -0.0652 -0.2248
 8519SOL    HW137016   1.023   4.014   2.729  2.7954  1.4544  1.5397
 8519SOL    HW237017   1.017   4.130   2.828  1.3067 -3.5497  1.0657
 8520SOL     OW37018   0.809   1.784  12.250  0.4340 -0.3492 -0.4978
 8520SOL    HW137019   0.790   1.875  12.274 -1.4644 -1.2921  1.5560
 8520SOL    HW237020   0.794   1.792  12.155  2.5585 -3.7167 -1.1328
 8521SOL     OW37021   1.097   3.839   7.811  0.1735 -0.6246 -0.1649
 8521SOL    HW137022   1.048   3.888   7.744  2.1240  2.1715  0.4383
 8521SOL    HW237023   1.087   3.898   7.886  1.8149  0.0903 -0.4982
 8522SOL     OW37024   3.747   4.306  11.318 -0.4110  0.5403  0.8478
 8522SOL    HW137025   3.659   4.323  11.351 -0.4852 -0.4175  1.1403
 8522SOL    HW237026   3.733   4.305  11.224  1.0386 -0.9200  0.6504
 8523SOL     OW37027   2.263   2.354   7.316 -0.1829  0.3212  0.3986
 8523SOL    HW137028   2.339   2.357   7.374  0.3072 -1.7299 -0.1441
 8523SOL    HW237029   2.266   2.264   7.285 -1.0663  0.1886  0.7072
 8524SOL     OW37030   3.948   2.770   8.679  0.2087  0.4168 -1.1302
 8524SOL    HW137031   3.899   2.687   8.682  1.9848 -0.6007 -0.5127
 8524SOL    HW237032   3.936   2.804   8.767  0.1613 -1.8522 -0.2667
 8525SOL     OW37033   3.686   1.985   6.298  0.3941  0.6695  0.0413
 8525SOL    HW137034   3.676   2.044   6.224 -1.8790  0.8939  0.4973
 8525SOL    HW237035   3.690   2.050   6.368 -0.6365  0.7775  0.0005
 8526SOL     OW37036   0.843   0.166  12.462 -0.3090 -0.2564  0.5842
 8526SOL    HW137037   0.819   0.246  12.507 -1.9806  0.2853 -1.2651
 8526SOL    HW237038   0.762   0.116  12.475 -0.8445 -0.0477 -1.9516
 8527SOL     OW37039   1.759   2.599   6.421  0.1918 -0.2618 -0.0756
 8527SOL    HW137040   1.697   2.641   6.362  2.1239  0.5895 -1.5089
 8527SOL    HW237041   1.838   2.626   6.374 -0.4192  0.1455 -0.8567
 8528SOL     OW37042   1.296   3.573   2.903  0.2630 -0.3580 -0.1201
 8528SOL    HW137043   1.265   3.579   2.812 -1.1826 -0.0001  0.3815
 8528SOL    HW237044   1.389   3.593   2.905  0.4161 -0.9913 -1.1159
 8529SOL     OW37045   3.444   2.186   3.972 -0.0524  0.0833 -0.0541
 8529SOL    HW137046   3.349   2.178   3.984 -0.2001  1.2958 -0.4160
 8529SOL    HW237047   3.450   2.244   3.896 -0.4113 -1.8982 -1.6169
 8530SOL     OW37048   2.288   1.637  17.441  0.0855  0.3961  0.1322
 8530SOL    HW137049   2.198   1.645  17.408 -0.2768 -1.3756  0.6839
 8530SOL    HW237050   2.304   1.557  17.390  0.8576  0.4421  0.3056
 8531SOL     OW37051   4.437   3.803  15.615 -0.2582 -0.5053 -0.9570
 8531SOL    HW137052   4.511   3.768  15.566  0.7417  0.2309 -0.0046
 8531SOL    HW237053   4.476   3.815  15.702  0.3108 -2.5127 -0.9396
 8532SOL     OW37054   0.530   4.325   1.183  0.0842 -0.2834 -0.1674
 8532SOL    HW137055   0.490   4.374   1.111  0.2520 -0.6096 -0.4862
 8532SOL    HW237056   0.475   4.247   1.177 -2.0878  1.1614  1.1101
 8533SOL     OW37057   1.280   0.788  10.415 -0.5269  0.3210  0.2670
 8533SOL    HW137058   1.205   0.735  10.440  1.5213 -2.7069  0.0648
 8533SOL    HW237059   1.276   0.852  10.485 -1.1891  2.6447 -1.8760
 8534SOL     OW37060   1.334   3.626   0.985  0.2661 -0.7564  0.4465
 8534SOL    HW137061   1.320   3.709   1.033 -0.0888 -0.2173 -0.5935
 8534SOL    HW237062   1.244   3.613   0.955  0.9153 -0.2366 -1.6879
 8535SOL     OW37063   1.822   1.788   4.676 -0.4384  0.3262 -0.0935
 8535SOL    HW137064   1.887   1.743   4.622 -1.3215 -0.8182 -0.2215
 8535SOL    HW237065   1.821   1.728   4.750  4.1448 -1.6554 -1.6075
 8536SOL     OW37066   3.868   2.227   4.598  0.6200 -0.4721  0.1670
 8536SOL    HW137067   3.815   2.178   4.661 -0.6018  1.3019  0.5452
 8536SOL    HW237068   3.925   2.272   4.660  1.4546 -2.0469  0.5397
 8537SOL     OW37069   1.023   4.715   8.751  0.4738  0.6841 -0.2995
 8537SOL    HW137070   1.006   0.083   8.767  1.0343  0.6742  0.3444
 8537SOL    HW237071   1.004   0.000   8.658  0.2245  1.2890 -0.1847
 8538SOL     OW37072   2.220   2.188   9.555 -0.2080 -0.4220  0.3182
 8538SOL    HW137073   2.309   2.207   9.527 -1.2696  0.7313 -2.3275
 8538SOL    HW237074   2.173   2.225   9.480 -0.8161  0.1147  0.9653
 8539SOL     OW37075   2.220   1.413   4.309 -0.6454 -0.0032  0.0744
 8539SOL    HW137076   2.211   1.472   4.234 -1.3722 -0.8556 -0.5146
 8539SOL    HW237077   2.286   1.357   4.267  1.2369  1.8803  0.5267
 8540SOL     OW37078   2.126   1.438  17.000 -0.2279 -0.0096  0.4310
 8540SOL    HW137079   2.036   1.463  16.977 -0.4074  0.2240  1.4058
 8540SOL    HW237080   2.184   1.423  16.925  1.2949  3.2060  0.9860
 8541SOL     OW37081   0.206   2.310   2.175  0.2988  0.0589 -0.0508
 8541SOL    HW137082   0.267   2.270   2.112 -1.8494 -1.8582 -0.9581
 8541SOL    HW237083   0.128   2.254   2.174  0.7327 -0.5526 -0.2059
 8542SOL     OW37084   0.163   1.254   3.860  0.0382 -0.1017  0.4140
 8542SOL    HW137085   0.127   1.194   3.926 -0.9597  1.6705  1.4729
 8542SOL    HW237086   0.086   1.303   3.832 -2.3281 -1.6639  4.2229
 8543SOL     OW37087   3.625   1.142   7.318 -0.0214 -0.0984  0.4418
 8543SOL    HW137088   3.618   1.063   7.371 -3.1875 -0.5513 -0.6744
 8543SOL    HW237089   3.580   1.207   7.372 -2.5513 -2.5043  1.2062
 8544SOL     OW37090   4.556   3.022  15.518  0.1590 -0.2073  0.0159
 8544SOL    HW137091   4.594   2.948  15.565 -0.4790  0.5396  1.7243
 8544SOL    HW237092   4.611   3.034  15.440 -1.4136  3.4571 -0.5388
 8545SOL     OW37093   2.392   3.139  12.056 -0.0501  0.3578 -0.2669
 8545SOL    HW137094   2.313   3.192  12.057  0.4415  1.0860 -0.4400
 8545SOL    HW237095   2.389   3.083  12.133 -0.3459 -0.5789 -0.9450
 8546SOL     OW37096   2.415   3.878  11.320 -0.5097 -0.2909 -0.2761
 8546SOL    HW137097   2.412   3.814  11.249 -2.5566 -0.8361  0.2939
 8546SOL    HW237098   2.381   3.955  11.275 -1.3907 -0.9482 -0.7421
 8547SOL     OW37099   3.861   2.920   3.356 -0.4079  0.2796  0.3140
 8547SOL    HW137100   3.831   2.892   3.270 -0.0215 -1.1163  0.6488
 8547SOL    HW237101   3.923   2.986   3.326  0.6235 -0.9419 -0.1929
 8548SOL     OW37102   3.538   1.524   9.574 -0.1590 -0.4751  0.0658
 8548SOL    HW137103   3.466   1.513   9.511 -1.2112  1.0748  1.0006
 8548SOL    HW237104   3.529   1.441   9.621 -2.6768  0.1521  0.7250
 8549SOL     OW37105   4.108   0.393   6.789 -0.3118 -0.3907  0.3903
 8549SOL    HW137106   4.056   0.315   6.771  0.3909 -1.1837  1.7939
 8549SOL    HW237107   4.100   0.398   6.884 -0.2216  1.2834  0.3091
 8550SOL     OW37108   4.506   0.415  10.814 -0.0350 -0.6664  0.1662
 8550SOL    HW137109   4.521   0.471  10.890  0.3515 -0.0245 -0.3762
 8550SOL    HW237110   4.584   0.360  10.823 -1.4357 -2.3302  2.0521
 8551SOL     OW37111   4.447   4.489  11.346  0.1305 -0.1623 -0.4087
 8551SOL    HW137112   4.486   4.538  11.418 -4.0055  2.2542  0.2021
 8551SOL    HW237113   4.514   4.425  11.325 -0.3572 -0.4750 -1.0305
 8552SOL     OW37114   4.214   2.152   4.848  0.2990 -0.1022 -0.0892
 8552SOL    HW137115   4.286   2.175   4.790 -1.3615  1.8781 -1.3644
 8552SOL    HW237116   4.150   2.216   4.816 -0.8504 -0.7841  0.8321
 8553SOL     OW37117   1.144   3.041   2.861 -0.2019 -0.4915 -0.6479
 8553SOL    HW137118   1.227   2.994   2.873 -0.1341 -0.4975 -1.1482
 8553SOL    HW237119   1.077   2.981   2.829 -0.2696 -0.7183 -0.0819
 8554SOL     OW37120   1.543   0.568  11.053 -0.9080  0.1668 -0.3370
 8554SOL    HW137121   1.569   0.657  11.077  1.1015 -0.4803 -0.1202
 8554SOL    HW237122   1.557   0.521  11.135 -1.7637  0.9552  0.2607
 8555SOL     OW37123   0.511   0.122   1.577  0.4463  0.2856  0.0482
 8555SOL    HW137124   0.444   0.182   1.610 -1.9885 -0.4852 -3.3736
 8555SOL    HW237125   0.531   0.161   1.492 -1.6232  0.2079 -0.5000
 8556SOL     OW37126   4.150   0.784   3.568 -0.4199  0.0796  0.2180
 8556SOL    HW137127   4.155   0.775   3.473  0.0857  0.2456  0.2291
 8556SOL    HW237128   4.054   0.780   3.567 -0.3866 -1.4289  1.8495
 8557SOL     OW37129   0.831   0.330   8.427  0.1749  0.0585  0.1320
 8557SOL    HW137130   0.857   0.409   8.475  0.5008 -0.1367  0.2821
 8557SOL    HW237131   0.892   0.338   8.354 -1.0518  1.0837 -0.7652
 8558SOL     OW37132   1.035   0.307   6.167  0.3169 -0.0415  0.4526
 8558SOL    HW137133   1.091   0.241   6.208 -0.9400 -0.5308  1.3718
 8558SOL    HW237134   0.997   0.348   6.244  1.7188 -1.1356  1.7355
 8559SOL     OW37135   3.103   3.375  16.445 -0.4840 -0.1931  0.6271
 8559SOL    HW137136   3.089   3.318  16.369  0.0140  0.3150  0.1663
 8559SOL    HW237137   3.148   3.450  16.408  0.9469 -0.7906  1.1652
 8560SOL     OW37138   2.977   1.367   1.106  0.2565 -0.0602  0.2403
 8560SOL    HW137139   3.064   1.354   1.067  0.3670  0.4493  0.3194
 8560SOL    HW237140   2.950   1.458   1.095  3.0520  0.3735 -3.0843
 8561SOL     OW37141   2.219   1.614   4.825 -0.0155 -0.2188 -0.0075
 8561SOL    HW137142   2.135   1.646   4.858  0.1394  1.6573 -1.4195
 8561SOL    HW237143   2.215   1.574   4.738 -0.3576  0.8524 -0.4856
 8562SOL     OW37144   1.022   3.717   5.602  0.2652  0.5532 -0.4387
 8562SOL    HW137145   1.005   3.647   5.665  1.2464 -1.4216 -2.3561
 8562SOL    HW237146   1.118   3.724   5.600  0.3325  0.4680  1.9765
 8563SOL     OW37147   0.095   2.678   3.080  0.5247 -0.0879 -1.1958
 8563SOL    HW137148   0.008   2.642   3.097  0.1728  0.8166 -1.1058
 8563SOL    HW237149   0.137   2.593   3.097 -0.9936 -0.0366  2.8033
 8564SOL     OW37150   4.053   4.382   2.269 -0.2703  0.7139  0.2214
 8564SOL    HW137151   4.045   4.446   2.340 -3.1347  1.6617 -0.9602
 8564SOL    HW237152   3.962   4.355   2.255  0.8786 -3.5024  1.0064
 8565SOL     OW37153   1.302   1.347  17.484  0.4040  0.1349  0.2748
 8565SOL    HW137154   1.370   1.280  17.490  0.6265  0.0357 -3.1100
 8565SOL    HW237155   1.319   1.396  17.564  0.5997  2.6361 -1.3104
 8566SOL     OW37156   4.302   4.568   8.090  0.4593  0.1196 -0.2452
 8566SOL    HW137157   4.354   4.547   8.167  1.3417  0.0820 -0.8587
 8566SOL    HW237158   4.261   4.652   8.109  1.4887  0.5443  0.0915
 8567SOL     OW37159   2.405   1.049   8.662  0.0582 -0.5751  0.2805
 8567SOL    HW137160   2.351   1.052   8.583 -1.8883  2.2252  1.7194
 8567SOL    HW237161   2.483   1.099   8.636 -0.2080  0.3950  1.3612
 8568SOL     OW37162   0.567   2.168   4.806 -0.0202  0.3515  0.3165
 8568SOL    HW137163   0.644   2.112   4.799 -0.5060 -0.0799 -1.4181
 8568SOL    HW237164   0.514   2.116   4.866  1.5506  0.2988  1.6688
 8569SOL     OW37165   3.546   0.154   3.001 -0.6513 -0.0664 -0.2818
 8569SOL    HW137166   3.478   0.220   2.989 -1.7289 -0.8897  1.2258
 8569SOL    HW237167   3.604   0.167   3.076 -2.3442 -0.9348  1.1848
 8570SOL     OW37168   3.690   0.155   2.777 -0.1641  0.2842  0.1862
 8570SOL    HW137169   3.629   0.188   2.711 -0.3668  2.9418  1.7129
 8570SOL    HW237170   3.638   0.161   2.857 -0.5781  0.6720 -0.1086
 8571SOL     OW37171   0.304   2.306   6.204 -0.1481  0.4985 -0.3120
 8571SOL    HW137172   0.240   2.378   6.194 -0.2906  0.6049  1.4931
 8571SOL    HW237173   0.301   2.296   6.299  2.3004 -0.6469 -0.3781
 8572SOL     OW37174   2.367   2.387   8.571 -0.0542  0.0993 -0.5048
 8572SOL    HW137175   2.345   2.371   8.663 -1.9490 -0.5466 -1.0579
 8572SOL    HW237176   2.411   2.471   8.578 -1.3193  0.6094  1.3249
 8573SOL     OW37177   4.533   1.107   4.634 -0.2256 -0.2017  0.0435
 8573SOL    HW137178   4.447   1.108   4.593 -0.7306 -0.6728  1.0827
 8573SOL    HW237179   4.520   1.042   4.704 -0.7807 -0.0118  0.1156
 8574SOL     OW37180   4.415   1.369   4.275 -0.4914 -0.3046  0.5183
 8574SOL    HW137181   4.467   1.346   4.198 -2.1098 -2.6076  0.0960
 8574SOL    HW237182   4.409   1.463   4.262 -0.8090 -0.0934  2.1980
 8575SOL     OW37183   0.140   3.573   2.585  0.2193  0.3761  0.8315
 8575SOL    HW137184   0.164   3.655   2.629  2.9213 -0.3752  0.7799
 8575SOL    HW237185   0.221   3.531   2.613  0.7275 -0.0924 -1.2914
 8576SOL     OW37186   1.181   4.459  12.847  0.0724 -0.1692 -0.5474
 8576SOL    HW137187   1.089   4.443  12.824  0.7458 -0.9145 -2.6708
 8576SOL    HW237188   1.217   4.403  12.779 -1.5811 -1.4104 -0.4142
 8577SOL     OW37189   3.720   4.356   1.233  0.5096  0.1926 -0.0265
 8577SOL    HW137190   3.731   4.262   1.218  0.2345  0.0442  0.6867
 8577SOL    HW237191   3.666   4.389   1.161 -1.5718  0.7404  1.7784
 8578SOL     OW37192   2.324   1.247   3.309  0.4142  0.8782  0.1546
 8578SOL    HW137193   2.269   1.271   3.383 -1.8888  2.0442 -1.9226
 8578SOL    HW237194   2.403   1.295   3.334  1.3594 -0.6344  0.0664
 8579SOL     OW37195   3.078   3.291   3.863  0.5117  0.1253  0.4947
 8579SOL    HW137196   3.061   3.221   3.926  2.5585  0.4045  1.3847
 8579SOL    HW237197   3.094   3.365   3.922 -0.4792  0.0226  0.8786
 8580SOL     OW37198   4.588   3.127  16.894  0.2440  0.3268  0.1744
 8580SOL    HW137199   4.653   3.058  16.912  1.5953  1.5339 -0.0424
 8580SOL    HW237200   4.508   3.101  16.940  2.0513  1.0157  3.7163
 8581SOL     OW37201   2.311   2.246   6.000 -0.7116  0.1068  0.0563
 8581SOL    HW137202   2.337   2.160   5.967  1.8183  0.7630  0.2696
 8581SOL    HW237203   2.221   2.230   6.027 -0.9259 -3.3153 -2.6391
 8582SOL     OW37204   2.856   1.129   1.229  0.1083 -0.1728 -0.0601
 8582SOL    HW137205   2.842   1.190   1.301  2.2127 -0.3664  0.5105
 8582SOL    HW237206   2.907   1.183   1.169  2.3297 -1.3936  0.7432
 8583SOL     OW37207   1.249   0.680  13.824 -0.4435 -0.3716 -0.3937
 8583SOL    HW137208   1.311   0.696  13.753  0.3578  1.0153  0.5990
 8583SOL    HW237209   1.311   0.700  13.895 -0.4101 -0.2809 -0.4489
 8584SOL     OW37210   1.411   0.000   4.399 -0.6552 -0.2535  0.0431
 8584SOL    HW137211   1.427   4.709   4.306  2.1147 -0.3693  0.5517
 8584SOL    HW237212   1.454   0.085   4.403 -0.2263 -0.5049  0.6259
 8585SOL     OW37213   2.181   2.840   1.954  0.3560  0.2560  0.1108
 8585SOL    HW137214   2.269   2.815   1.925  1.4323  3.7616  0.3695
 8585SOL    HW237215   2.160   2.915   1.898  2.1750  2.2064  2.0235
 8586SOL     OW37216   4.161   0.078   8.145  0.7490  0.2279 -0.0903
 8586SOL    HW137217   4.195   0.104   8.231 -1.2560 -2.5690  1.5155
 8586SOL    HW237218   4.115   0.158   8.118  0.9835 -0.0509 -1.2974
 8587SOL     OW37219   4.197   0.922   8.140  0.2628 -0.5159 -0.3672
 8587SOL    HW137220   4.270   0.917   8.078  1.9851 -2.7364  1.8387
 8587SOL    HW237221   4.222   0.862   8.210  0.2788 -1.4243 -1.1389
 8588SOL     OW37222   0.150   0.379   8.957  0.3550 -0.0911 -0.0682
 8588SOL    HW137223   0.147   0.320   8.882  2.3036 -1.3661  0.8403
 8588SOL    HW237224   0.245   0.390   8.960  0.1731  0.9149  1.5501
 8589SOL     OW37225   0.598   0.538   7.796  0.2436 -0.2761  0.2355
 8589SOL    HW137226   0.646   0.484   7.859  1.6570 -0.5817 -1.0778
 8589SOL    HW237227   0.591   0.625   7.834  2.7391  0.9891 -2.2326
 8590SOL     OW37228   3.045   1.783   4.980  0.2605 -0.2753 -0.1269
 8590SOL    HW137229   3.133   1.754   5.004  0.2350 -0.7919 -0.6329
 8590SOL    HW237230   2.992   1.763   5.057 -0.2172 -3.4615 -1.2676
 8591SOL     OW37231   2.562   1.548   7.837 -0.1437  0.1609 -0.3508
 8591SOL    HW137232   2.576   1.614   7.769  1.8433 -0.0465 -0.1460
 8591SOL    HW237233   2.553   1.471   7.780  0.4100 -0.0616 -0.1425
 8592SOL     OW37234   2.740   1.459   8.061  0.0534  0.1678 -0.0764
 8592SOL    HW137235   2.707   1.466   7.971 -1.8220  1.2961  0.6806
 8592SOL    HW237236   2.784   1.542   8.080  0.4187 -0.3880  1.5430
 8593SOL     OW37237   1.887   0.773   9.866 -0.4089  0.1423  0.0608
 8593SOL    HW137238   1.820   0.821   9.915  0.5026  0.1239  1.3029
 8593SOL    HW237239   1.943   0.739   9.935 -0.0614  1.8590  0.6248
 8594SOL     OW37240   1.650   0.922   6.261 -0.5477 -0.4173 -0.4842
 8594SOL    HW137241   1.571   0.870   6.249  0.5755 -1.9111 -1.5057
 8594SOL    HW237242   1.714   0.866   6.217  2.7479  2.0000  1.2289
 8595SOL     OW37243   0.484   3.537  11.316  0.8302 -0.0500 -0.0220
 8595SOL    HW137244   0.557   3.542  11.254  0.2875 -0.4644 -0.6900
 8595SOL    HW237245   0.530   3.497  11.390 -2.1379 -0.5624  1.5530
 8596SOL     OW37246   4.447   1.910  13.775  0.1801  0.3999 -0.0955
 8596SOL    HW137247   4.403   1.838  13.731  0.2362  0.5722 -0.4380
 8596SOL    HW237248   4.405   1.984  13.731  3.4871  1.5670 -1.3389
 8597SOL     OW37249   4.353   1.772   3.756  0.2263  0.2007 -0.5606
 8597SOL    HW137250   4.258   1.772   3.772  0.1432  1.4789 -1.0269
 8597SOL    HW237251   4.394   1.735   3.834 -0.9275  0.7266  0.2920
 8598SOL     OW37252   2.534   0.183   5.521 -0.3001  0.4705 -0.2430
 8598SOL    HW137253   2.572   0.232   5.448 -1.8518 -1.9133 -2.6915
 8598SOL    HW237254   2.594   0.108   5.519 -1.6630 -0.6413  1.1284
 8599SOL     OW37255   4.423   0.878   7.027 -0.0624  0.4955 -0.8415
 8599SOL    HW137256   4.329   0.865   7.031  0.1881 -0.6205  1.7055
 8599SOL    HW237257   4.445   0.788   7.052  1.2676  0.2777 -2.7956
 8600SOL     OW37258   2.234   1.867  11.110 -0.1683 -0.1490  0.4075
 8600SOL    HW137259   2.251   1.888  11.201  3.0887 -0.9612 -0.0257
 8600SOL    HW237260   2.138   1.865  11.103 -0.2135 -2.4232  1.8533
 8601SOL     OW37261   1.852   0.329   9.346 -0.1927  0.2511 -0.2697
 8601SOL    HW137262   1.876   0.417   9.316  0.7330  0.5644  1.3670
 8601SOL    HW237263   1.767   0.316   9.305  0.3859 -0.4670 -1.2285
 8602SOL     OW37264   3.649   3.172   9.591 -0.0332 -0.3141  0.1503
 8602SOL    HW137265   3.715   3.104   9.608 -0.5166 -0.5785  0.9812
 8602SOL    HW237266   3.663   3.220   9.673 -0.2200  0.4544 -0.2729
 8603SOL     OW37267   1.015   2.644   6.328  0.1346  0.4494 -0.4471
 8603SOL    HW137268   0.962   2.566   6.313  1.9893 -0.9811  0.4501
 8603SOL    HW237269   1.030   2.636   6.422  1.6803 -2.5687 -0.9683
 8604SOL     OW37270   0.652   2.805   8.034 -0.2746 -0.0110 -0.1755
 8604SOL    HW137271   0.598   2.818   8.112  1.5028  1.1477  0.8514
 8604SOL    HW237272   0.589   2.851   7.978 -0.9739 -0.4251  0.2657
 8605SOL     OW37273   0.307   0.024   3.553  0.1618  0.2835  0.3529
 8605SOL    HW137274   0.347   0.074   3.482  0.8681  2.4144  2.2596
 8605SOL    HW237275   0.323   0.086   3.624  0.7142 -0.4738  0.8845
 8606SOL     OW37276   4.370   2.823   4.436  0.1631 -0.2469 -0.6941
 8606SOL    HW137277   4.377   2.822   4.340 -0.5138 -2.6795 -0.7158
 8606SOL    HW237278   4.450   2.866   4.468  0.0927 -1.3617  0.9351
 8607SOL     OW37279   2.224   3.896  11.012 -0.1284 -0.2156  0.1989
 8607SOL    HW137280   2.284   3.822  11.008  1.4486  0.9870  1.5605
 8607SOL    HW237281   2.231   3.933  10.924  0.9658  1.0369  0.8143
 8608SOL     OW37282   1.913   0.164   6.133  0.1170  0.0376  1.0785
 8608SOL    HW137283   1.827   0.149   6.173 -0.0519  0.1379  0.7561
 8608SOL    HW237284   1.924   0.076   6.098  2.9770  0.5235  0.7891
 8609SOL     OW37285   1.083   1.704  17.233 -0.5537 -0.4302 -0.0011
 8609SOL    HW137286   1.032   1.785  17.243 -0.9222 -0.9096  1.8466
 8609SOL    HW237287   1.020   1.638  17.203 -0.8747 -0.0353 -0.2085
 8610SOL     OW37288   2.006   0.328   3.027 -0.3080 -0.1177 -0.0644
 8610SOL    HW137289   1.956   0.296   2.952 -1.3252 -2.0392  1.4206
 8610SOL    HW237290   1.955   0.407   3.040  0.6289  0.5822 -0.6421
 8611SOL     OW37291   2.849   2.434   8.701 -0.0373 -0.0595 -0.0910
 8611SOL    HW137292   2.792   2.378   8.754 -1.6671 -0.0460 -1.8174
 8611SOL    HW237293   2.804   2.432   8.617  3.6678 -3.2947 -2.0048
 8612SOL     OW37294   4.535   0.122  12.332  0.1149  0.2302 -0.2325
 8612SOL    HW137295   4.560   0.181  12.403 -0.3224  0.5203 -0.3192
 8612SOL    HW237296   4.565   0.162  12.250 -0.2283 -1.1819 -1.0435
 8613SOL     OW37297   2.743   0.044   2.633 -0.5845 -0.2208 -0.1325
 8613SOL    HW137298   2.681   4.713   2.586 -1.3564  0.3709  0.1821
 8613SOL    HW237299   2.754   0.004   2.719 -1.1223  1.3797  0.6851
 8614SOL     OW37300   2.339   4.442   5.853  0.2849 -0.3024 -0.4545
 8614SOL    HW137301   2.339   4.480   5.765  0.1264  1.2054  0.2023
 8614SOL    HW237302   2.395   4.505   5.899  1.4522 -0.8542 -1.1210
 8615SOL     OW37303   3.796   0.744   1.103 -0.0199  0.2066 -0.4235
 8615SOL    HW137304   3.850   0.795   1.041  2.0132 -0.2549  0.9695
 8615SOL    HW237305   3.797   0.653   1.073 -3.6537 -0.0205  0.1921
 8616SOL     OW37306   2.152   1.998   7.037 -0.4652 -0.1471  0.9559
 8616SOL    HW137307   2.075   2.008   7.093 -0.6423  2.5031  0.2476
 8616SOL    HW237308   2.116   2.033   6.956 -0.0852 -0.5899  0.5978
 8617SOL     OW37309   3.750   1.441   0.932 -0.2689 -0.4444  0.3064
 8617SOL    HW137310   3.773   1.532   0.912 -0.9269 -0.1338  0.9867
 8617SOL    HW237311   3.656   1.443   0.949 -0.4611 -0.2374 -0.7946
 8618SOL     OW37312   0.831   0.506  12.178  0.4014 -0.0120 -0.0293
 8618SOL    HW137313   0.878   0.445  12.121  1.4133  0.6985  0.0577
 8618SOL    HW237314   0.751   0.461  12.206  1.7658 -0.6897  2.7027
 8619SOL     OW37315   0.006   3.154   0.752  0.9092 -0.0376  0.4648
 8619SOL    HW137316   0.046   3.209   0.685  1.8843 -0.9634  0.2838
 8619SOL    HW237317   0.020   3.196   0.837  3.2511  1.4886 -0.6723
 8620SOL     OW37318   2.644   3.300   9.176  0.2485  0.2003 -0.2015
 8620SOL    HW137319   2.652   3.230   9.242  0.6927 -0.8777 -1.3925
 8620SOL    HW237320   2.555   3.323   9.205  0.3908 -0.0051  0.4002
 8621SOL     OW37321   3.153   0.140  14.372  0.1193 -0.7140 -0.2404
 8621SOL    HW137322   3.190   0.066  14.420 -0.7119 -0.3385  0.9649
 8621SOL    HW237323   3.075   0.102  14.332  0.7451 -1.7471 -0.4800
 8622SOL     OW37324   1.198   1.831   8.998  0.6982 -0.0651 -0.3163
 8622SOL    HW137325   1.226   1.762   8.938  1.5363  0.8505 -0.9864
 8622SOL    HW237326   1.193   1.900   8.931 -3.1082 -0.0046  0.0365
 8623SOL     OW37327   3.730   0.810   0.650 -0.6721 -0.1066 -0.4045
 8623SOL    HW137328   3.695   0.792   0.737  1.2295 -0.4961  0.2867
 8623SOL    HW237329   3.658   0.839   0.593  0.5962 -0.3329 -2.1138
 8624SOL     OW37330   0.126   1.466   2.008  0.0088  0.5431 -0.5108
 8624SOL    HW137331   0.074   1.518   1.947 -1.7072  0.2797  0.7331
 8624SOL    HW237332   0.180   1.529   2.057  2.4770 -3.0624  1.4221
 8625SOL     OW37333   2.239   0.287  16.489  0.5102  0.2714  0.2950
 8625SOL    HW137334   2.193   0.341  16.553  0.8993 -0.0294  0.8307
 8625SOL    HW237335   2.301   0.351  16.454 -1.0240  1.5467 -0.0841
 8626SOL     OW37336   2.676   0.352  13.956 -0.1573  0.4965 -0.1158
 8626SOL    HW137337   2.612   0.289  13.989 -0.4988  0.0939 -1.5495
 8626SOL    HW237338   2.703   0.307  13.876 -0.3296 -0.3034  0.2846
 8627SOL     OW37339   2.208   1.918   0.868 -0.0022 -0.0327 -0.2203
 8627SOL    HW137340   2.279   1.982   0.865  1.1720 -1.3487 -0.4933
 8627SOL    HW237341   2.156   1.942   0.791 -0.1523 -1.6756 -0.6266
 8628SOL     OW37342   3.567   0.373  16.309 -0.3347 -0.1850  0.0418
 8628SOL    HW137343   3.587   0.280  16.297  0.7689 -0.1494  1.6163
 8628SOL    HW237344   3.472   0.375  16.317 -0.4557 -1.7226 -0.9944
 8629SOL     OW37345   4.345   0.960  14.236 -0.7222  0.6219  0.5502
 8629SOL    HW137346   4.358   0.917  14.320  0.4340  0.4188  0.2726
 8629SOL    HW237347   4.277   1.025  14.253 -0.7658  0.8865 -0.6487
 8630SOL     OW37348   2.918   0.366  15.589  0.1749 -0.5613  0.3127
 8630SOL    HW137349   2.993   0.316  15.557 -0.0703  0.0731 -1.3089
 8630SOL    HW237350   2.947   0.408  15.670  0.7661  0.3743 -0.3844
 8631SOL     OW37351   0.808   0.327   2.710  0.6131 -0.2108  0.0623
 8631SOL    HW137352   0.812   0.408   2.760 -1.3627  0.2282 -0.4701
 8631SOL    HW237353   0.731   0.350   2.657  0.9973 -0.4278 -0.5891
 8632SOL     OW37354   3.718   1.039  16.776 -0.4380 -0.9600  0.0093
 8632SOL    HW137355   3.666   0.975  16.825  1.5596 -1.8534  0.9674
 8632SOL    HW237356   3.781   0.977  16.739 -0.1781  0.6908 -2.2910
 8633SOL     OW37357   1.910   4.428   0.912 -0.2824 -0.2591  0.2192
 8633SOL    HW137358   1.928   4.374   0.835 -0.9360 -0.8874  0.5133
 8633SOL    HW237359   1.997   4.419   0.952  0.0769  0.7401 -0.3155
 8634SOL     OW37360   0.763   1.294  11.699 -0.1560 -0.1560  0.0120
 8634SOL    HW137361   0.806   1.367  11.654 -1.6079 -0.7273 -2.2799
 8634SOL    HW237362   0.671   1.318  11.699  0.3539  1.8793 -2.8675
 8635SOL     OW37363   0.104   4.098   5.266  0.3108  0.1754 -0.6064
 8635SOL    HW137364   0.028   4.087   5.324  2.1639  3.2106  2.4109
 8635SOL    HW237365   0.062   4.145   5.194 -1.6019 -3.0951 -1.5919
 8636SOL     OW37366   2.841   0.239  15.949  0.4155 -0.1031 -0.2082
 8636SOL    HW137367   2.896   0.314  15.926  0.4964 -0.0583  0.1395
 8636SOL    HW237368   2.795   0.238  15.865 -1.6570 -2.9081  0.9403
 8637SOL     OW37369   0.846   2.724   1.828 -0.3065  0.4485  0.7589
 8637SOL    HW137370   0.935   2.732   1.861 -0.6975  0.7863  1.7498
 8637SOL    HW237371   0.836   2.816   1.802  0.5463  0.3198 -0.0104
 8638SOL     OW37372   2.471   0.346   1.418 -0.1878  1.0121  0.4594
 8638SOL    HW137373   2.389   0.309   1.452 -0.1228  0.5781  0.1451
 8638SOL    HW237374   2.446   0.372   1.330  0.9677  1.1697  0.1819
 8639SOL     OW37375   3.129   2.475   2.894 -0.6249 -0.2692  0.2089
 8639SOL    HW137376   3.208   2.426   2.916 -0.5883  0.0771  0.8461
 8639SOL    HW237377   3.098   2.408   2.834 -1.5865  1.1147 -0.8325
 8640SOL     OW37378   0.807   3.723  10.758 -0.5882  0.1630  0.0115
 8640SOL    HW137379   0.868   3.730  10.832 -0.5887  0.6738 -0.0317
 8640SOL    HW237380   0.727   3.768  10.787 -1.0373 -1.3907  1.1872
 8641SOL     OW37381   1.091   0.909   3.823 -0.1534 -0.2824 -0.2744
 8641SOL    HW137382   1.084   1.004   3.816  1.1870 -0.2194 -0.7053
 8641SOL    HW237383   1.033   0.901   3.899 -0.1790 -0.3457 -0.2997
 8642SOL     OW37384   3.593   4.141   6.485 -0.3312 -0.1934 -0.2811
 8642SOL    HW137385   3.543   4.170   6.409  0.5034  1.1612 -0.3152
 8642SOL    HW237386   3.621   4.050   6.474 -0.3473 -0.1950 -0.3099
 8643SOL     OW37387   2.538   4.690   1.301  0.3799  0.3365  0.0127
 8643SOL    HW137388   2.633   4.695   1.311 -0.0139  3.8416  1.9491
 8643SOL    HW237389   2.517   4.704   1.393  1.5215  1.7536  0.0526
 8644SOL     OW37390   3.189   0.348   7.128  0.2099 -0.6073 -0.6005
 8644SOL    HW137391   3.261   0.411   7.134 -0.0339 -0.3744 -0.0836
 8644SOL    HW237392   3.117   0.404   7.098  1.9906  1.1256 -1.6531
 8645SOL     OW37393   3.050   3.287   4.297 -0.2979  0.1980  0.3935
 8645SOL    HW137394   2.976   3.311   4.240  0.4308 -1.2428 -1.1824
 8645SOL    HW237395   3.001   3.274   4.378 -0.3111 -0.7534  0.2320
 8646SOL     OW37396   3.291   1.381   2.709  0.3758  0.0805  0.6069
 8646SOL    HW137397   3.379   1.401   2.679 -0.2284  0.3152 -0.9774
 8646SOL    HW237398   3.235   1.448   2.668 -0.6818  0.1519  2.1496
 8647SOL     OW37399   1.486   2.505   0.922  0.1252  0.8306 -0.1226
 8647SOL    HW137400   1.534   2.578   0.883  0.7569  0.4025 -0.1538
 8647SOL    HW237401   1.420   2.551   0.975  1.1404  1.1580  0.8655
 8648SOL     OW37402   3.550   4.580   8.391 -0.2594 -0.1926 -0.5605
 8648SOL    HW137403   3.602   4.572   8.471  1.0238 -0.0926 -1.3916
 8648SOL    HW237404   3.601   4.529   8.328 -0.5880 -0.6469 -0.4559
 8649SOL     OW37405   1.197   3.466   3.278  0.1210 -0.6659  0.4536
 8649SOL    HW137406   1.210   3.474   3.373  1.3134 -1.2011  0.3385
 8649SOL    HW237407   1.243   3.546   3.254  0.1606 -0.9257 -0.3317
 8650SOL     OW37408   1.666   4.295   2.817 -0.4810 -0.1767 -0.1632
 8650SOL    HW137409   1.622   4.276   2.734 -2.0931  1.0442  0.4076
 8650SOL    HW237410   1.751   4.253   2.806  0.9586  2.8438 -0.4799
 8651SOL     OW37411   3.393   3.616   8.090 -0.2957  0.5365 -0.2194
 8651SOL    HW137412   3.303   3.623   8.057 -0.3558 -0.9576 -0.3712
 8651SOL    HW237413   3.389   3.591   8.182  3.1211  1.1783  0.0969
 8652SOL     OW37414   3.526   4.677  17.539  0.3317  0.7783  0.1019
 8652SOL    HW137415   3.580   4.715  17.469 -1.2845  1.2946 -0.8859
 8652SOL    HW237416   3.458   0.019  17.553 -0.6175 -0.0393 -0.6064
 8653SOL     OW37417   3.968   4.072   8.852 -0.0905  0.0910  0.9899
 8653SOL    HW137418   3.959   3.999   8.913 -1.4059 -0.3730  0.2629
 8653SOL    HW237419   3.880   4.107   8.868 -0.5144  0.5311 -2.2748
 8654SOL     OW37420   1.410   4.589   5.892 -0.0058 -0.0537 -1.1119
 8654SOL    HW137421   1.492   4.634   5.912  0.3603 -0.9681 -0.5504
 8654SOL    HW237422   1.370   4.649   5.829 -0.2859 -1.8331 -2.6525
 8655SOL     OW37423   3.210   2.628   6.506 -0.6980  0.5725  0.1713
 8655SOL    HW137424   3.133   2.597   6.458 -0.0867  0.4871 -0.7516
 8655SOL    HW237425   3.186   2.720   6.518  0.3419  0.7498  0.8361
 8656SOL     OW37426   3.565   4.230   2.962  0.3368  0.6173  0.3965
 8656SOL    HW137427   3.636   4.230   2.898 -0.2470  0.7078 -0.2508
 8656SOL    HW237428   3.592   4.144   2.993 -2.0067 -0.9088 -1.8286
 8657SOL     OW37429   0.841   3.800   1.730  0.7233 -0.1408  0.3578
 8657SOL    HW137430   0.779   3.833   1.795 -0.1133 -0.4378 -0.2888
 8657SOL    HW237431   0.788   3.807   1.650  0.4773  2.1681  0.6983
 8658SOL     OW37432   1.428   0.768   6.253  0.7025  0.0493 -0.2570
 8658SOL    HW137433   1.335   0.756   6.231  1.0290 -1.5316 -0.8158
 8658SOL    HW237434   1.454   0.684   6.290 -0.4805 -0.5641 -0.7973
 8659SOL     OW37435   3.101   4.168   5.385  0.5912 -0.3260  0.5018
 8659SOL    HW137436   3.054   4.116   5.450  2.5204 -0.6965  1.6052
 8659SOL    HW237437   3.098   4.103   5.315  0.4585 -0.2520  0.4396
 8660SOL     OW37438   3.083   0.127   3.395  0.3898 -0.3094  0.2130
 8660SOL    HW137439   2.989   0.146   3.405 -0.0893 -2.7697  0.3473
 8660SOL    HW237440   3.090   0.109   3.301 -0.2289  0.0229  0.1031
 8661SOL     OW37441   0.101   1.551   3.362  0.2058  0.2449  0.1438
 8661SOL    HW137442   0.132   1.592   3.281  0.0558  1.1873  0.5671
 8661SOL    HW237443   0.136   1.465   3.341 -0.2215 -0.0052  0.4695
 8662SOL     OW37444   4.349   4.489   7.657  0.1374  0.0222  0.1656
 8662SOL    HW137445   4.401   4.413   7.632  2.3428  1.9056 -1.0047
 8662SOL    HW237446   4.271   4.438   7.679  1.6522 -1.4250  2.1195
 8663SOL     OW37447   4.510   1.430   0.869 -0.3334 -0.2694  0.5209
 8663SOL    HW137448   4.445   1.501   0.864 -2.0676 -1.8773  0.0233
 8663SOL    HW237449   4.457   1.360   0.909  1.0529 -2.0434 -0.7287
 8664SOL     OW37450   4.699   0.960   2.613 -0.0950  0.0770  0.5046
 8664SOL    HW137451   4.610   0.962   2.579  0.1875  0.9671 -0.1928
 8664SOL    HW237452   4.689   1.017   2.689  3.0734 -0.8082  1.5787
 8665SOL     OW37453   2.456   2.876   5.221 -0.0962 -0.6739 -0.1325
 8665SOL    HW137454   2.494   2.788   5.231  1.1668  0.0047  0.9509
 8665SOL    HW237455   2.383   2.856   5.162  1.0939 -0.1694 -1.8012
 8666SOL     OW37456   2.447   0.278   2.774  0.1501 -0.1795 -0.0172
 8666SOL    HW137457   2.372   0.298   2.830 -0.5089 -2.8014  0.0153
 8666SOL    HW237458   2.426   0.343   2.707 -2.6201 -2.2966 -1.1955
 8667SOL     OW37459   3.281   3.369   9.405 -0.0862 -0.0664 -0.5318
 8667SOL    HW137460   3.230   3.449   9.393 -2.1948 -1.5796 -1.5362
 8667SOL    HW237461   3.244   3.349   9.491  0.4519 -2.6496 -0.8997
 8668SOL     OW37462   1.618   3.947   7.691  0.5002 -0.2836  0.4907
 8668SOL    HW137463   1.595   3.918   7.780  0.0924 -1.0377  0.1394
 8668SOL    HW237464   1.529   3.963   7.659  1.2664  2.0432 -0.4478
 8669SOL     OW37465   2.896   0.133   1.466 -0.3322  0.4943 -0.1933
 8669SOL    HW137466   2.908   0.213   1.415  0.6282 -0.7178 -1.8736
 8669SOL    HW237467   2.987   0.112   1.486 -0.0248  0.3052 -1.8531
 8670SOL     OW37468   4.062   2.251   2.974 -0.4133 -0.0347 -0.2368
 8670SOL    HW137469   4.070   2.306   2.896 -1.3481 -0.5677 -0.7093
 8670SOL    HW237470   4.011   2.307   3.033 -0.4014 -1.0197  0.7115
 8671SOL     OW37471   0.177   0.817   8.216 -0.6987  0.0792 -0.3266
 8671SOL    HW137472   0.149   0.861   8.135 -0.5542 -0.5957 -0.7387
 8671SOL    HW237473   0.137   0.730   8.208  1.9065 -1.0877 -0.5329
 8672SOL     OW37474   2.113   3.263   4.352  0.4556  0.0993 -0.3605
 8672SOL    HW137475   2.083   3.186   4.304  1.7516  0.2347 -1.3856
 8672SOL    HW237476   2.030   3.309   4.359  0.6647  0.5118 -0.5717
 8673SOL     OW37477   1.124   1.349   6.627  0.0296  0.4980  0.2333
 8673SOL    HW137478   1.186   1.323   6.558 -2.0860  1.3796 -1.9942
 8673SOL    HW237479   1.088   1.268   6.662  0.8946  0.3314  0.7312
 8674SOL     OW37480   1.066   4.325   5.964  0.2975  0.4858  0.3826
 8674SOL    HW137481   0.997   4.299   6.024 -0.7860  0.4493 -0.8703
 8674SOL    HW237482   1.093   4.240   5.929 -0.8367  1.5529 -3.1639
 8675SOL     OW37483   3.831   2.862   0.738  0.4558  0.4521  0.2481
 8675SOL    HW137484   3.919   2.891   0.761  1.2506 -0.2453 -1.9888
 8675SOL    HW237485   3.832   2.865   0.643 -0.7984 -1.7300  0.1423
 8676SOL     OW37486   1.946   2.107   3.809  0.5947 -0.2739 -0.3101
 8676SOL    HW137487   2.021   2.066   3.853  0.3010 -2.1381 -1.5613
 8676SOL    HW237488   1.911   2.161   3.880  1.7148 -0.2143  0.2029
 8677SOL     OW37489   1.513   0.560   6.480 -0.0993  0.5861 -0.2069
 8677SOL    HW137490   1.502   0.489   6.543 -1.7802 -0.6625 -1.9278
 8677SOL    HW237491   1.447   0.625   6.502 -0.1888  1.2925 -2.6359
 8678SOL     OW37492   3.890   0.848  17.541  0.1376 -0.4977 -0.4395
 8678SOL    HW137493   3.927   0.853  17.453  0.6411 -1.3593 -0.2782
 8678SOL    HW237494   3.952   0.785  17.579 -1.0474 -1.5774 -0.2783
 8679SOL     OW37495   2.941   2.850  17.181  0.0424 -0.2718 -0.0520
 8679SOL    HW137496   3.022   2.842  17.230  0.3805  1.4403 -0.3277
 8679SOL    HW237497   2.974   2.891  17.101  0.5184  1.6106  1.1195
 8680SOL     OW37498   3.842   1.034   7.218  0.1446 -0.0629  0.7752
 8680SOL    HW137499   3.758   1.065   7.251 -0.5011 -1.2580  0.2849
 8680SOL    HW237500   3.897   1.059   7.291 -1.3639 -0.7333  2.1453
 8681SOL     OW37501   0.530   1.908   5.885 -0.4314 -0.2160 -0.1957
 8681SOL    HW137502   0.615   1.951   5.895 -0.2906 -0.2638 -1.1310
 8681SOL    HW237503   0.513   1.863   5.967  2.9943 -0.7079  0.2741
 8682SOL     OW37504   2.109   4.482   6.218  0.1732 -0.4688 -0.6402
 8682SOL    HW137505   2.108   4.539   6.295  0.7804 -0.8854 -0.3318
 8682SOL    HW237506   2.171   4.417   6.250 -0.4251 -0.6793  0.0902
 8683SOL     OW37507   2.600   2.925   6.125  0.3136  0.2161  0.1540
 8683SOL    HW137508   2.523   2.935   6.068  1.0179  1.0966 -0.6561
 8683SOL    HW237509   2.576   2.971   6.205  1.7142  0.7319  0.2623
 8684SOL     OW37510   3.787   2.327   8.032 -0.0879 -0.0158  0.0485
 8684SOL    HW137511   3.846   2.264   7.991  2.0707  2.8312 -1.2179
 8684SOL    HW237512   3.720   2.336   7.965 -2.1266 -1.3479  1.9083
 8685SOL     OW37513   0.303   0.090   7.917 -0.5272 -0.1543  0.1184
 8685SOL    HW137514   0.282   0.035   7.993  2.4524 -1.4886 -0.0200
 8685SOL    HW237515   0.373   0.043   7.872 -0.4116 -1.4200  1.6186
 8686SOL     OW37516   2.420   2.204   4.816  0.1882  0.1770 -0.6015
 8686SOL    HW137517   2.394   2.114   4.835 -2.1056  0.7232 -1.1489
 8686SOL    HW237518   2.478   2.236   4.885  1.8164 -0.7439 -1.5421
 8687SOL     OW37519   0.255   1.081   5.340  0.5132  0.1099  0.7008
 8687SOL    HW137520   0.305   1.004   5.369 -2.5412 -1.6188  1.3172
 8687SOL    HW237521   0.176   1.044   5.301  0.5151 -0.4123  1.1815
 8688SOL     OW37522   3.561   0.031  17.267  0.0183 -0.1247  0.7153
 8688SOL    HW137523   3.642   0.064  17.229  1.1134 -0.2808  2.8659
 8688SOL    HW237524   3.495   0.071  17.211  0.4862 -0.1485  0.1465
 8689SOL     OW37525   2.596   3.368  15.334  0.2096  0.1574  0.1234
 8689SOL    HW137526   2.689   3.376  15.312  0.3485  0.7059  0.9240
 8689SOL    HW237527   2.558   3.336  15.253  0.6409 -2.4860  0.9664
 8690SOL     OW37528   3.963   0.279   0.856 -0.0314  0.3075 -0.2015
 8690SOL    HW137529   3.940   0.261   0.765  0.2181  1.3384 -0.4571
 8690SOL    HW237530   3.918   0.203   0.893 -1.1799  0.6616 -0.8802
 8691SOL     OW37531   0.738   2.178  10.026  0.2357  0.6945 -0.1628
 8691SOL    HW137532   0.675   2.155   9.958  0.4355 -0.6631  0.1225
 8691SOL    HW237533   0.725   2.273  10.018 -2.3980  0.2864 -0.9204
 8692SOL     OW37534   0.483   1.784   0.440 -0.2139 -0.2800  0.2425
 8692SOL    HW137535   0.565   1.740   0.464  0.6166  0.4218 -1.3449
 8692SOL    HW237536   0.419   1.736   0.493  0.4386 -0.8595  0.5152
 8693SOL     OW37537   0.079   3.915   8.450  0.2299  0.3115  0.3095
 8693SOL    HW137538   4.715   3.889   8.472  0.5287 -1.2885 -0.3517
 8693SOL    HW237539   0.124   3.833   8.429 -0.1082  0.4405 -0.8933
 8694SOL     OW37540   3.042   0.546  10.611  0.0092  0.0914 -0.0610
 8694SOL    HW137541   2.990   0.504  10.543  2.6343 -2.5931 -0.4018
 8694SOL    HW237542   3.007   0.498  10.686 -0.7271  2.5920  1.2066
 8695SOL     OW37543   3.346   0.012   3.745  0.3145  0.3401  0.8531
 8695SOL    HW137544   3.317   4.709   3.658  1.3686 -0.1103  0.6533
 8695SOL    HW237545   3.264   4.719   3.792 -0.1407 -1.0086 -0.4532
 8696SOL     OW37546   0.926   0.192   2.277 -0.0608 -0.0670  0.1463
 8696SOL    HW137547   0.942   0.232   2.192  1.4164  0.2351  0.5570
 8696SOL    HW237548   0.990   0.122   2.264  1.1358  1.0704 -0.0852
 8697SOL     OW37549   3.313   1.854  15.229 -0.1464 -0.1875 -0.1629
 8697SOL    HW137550   3.376   1.792  15.191 -0.5629 -1.1878  0.7685
 8697SOL    HW237551   3.365   1.934  15.243  0.3103 -0.2067 -1.7626
 8698SOL     OW37552   3.730   4.609   8.584 -0.0211  0.3156  0.2581
 8698SOL    HW137553   3.703   4.596   8.675 -2.2690 -0.7641 -0.5660
 8698SOL    HW237554   3.715   4.702   8.572  2.5910  0.9401  1.9308
 8699SOL     OW37555   1.760   4.669   3.400  0.5726  0.2974 -0.4543
 8699SOL    HW137556   1.829   4.611   3.432  1.7694  1.6915 -0.5302
 8699SOL    HW237557   1.751   4.647   3.307  1.2835  0.8840 -0.6577
 8700SOL     OW37558   0.208   4.665   6.358 -0.3834  0.3257  0.3179
 8700SOL    HW137559   0.257   4.609   6.418  1.4582  1.3382 -0.2446
 8700SOL    HW237560   0.162   4.603   6.302 -2.7425  2.1896  0.1779
 8701SOL     OW37561   3.106   3.011   2.644  0.0171 -0.2378 -0.9799
 8701SOL    HW137562   3.056   3.079   2.691  0.9057  0.2187 -0.6939
 8701SOL    HW237563   3.045   2.993   2.573 -1.2245  0.2597 -0.0394
 8702SOL     OW37564   0.635   0.034   9.498 -0.3023  0.0638 -0.4088
 8702SOL    HW137565   0.658   4.667   9.484  3.7162  0.9273  0.5901
 8702SOL    HW237566   0.543   0.031   9.523 -0.0579 -1.9132  0.2173
 8703SOL     OW37567   0.745   1.264   6.191 -0.1089  0.2548  0.6540
 8703SOL    HW137568   0.736   1.211   6.270  0.3959  0.9732  1.1858
 8703SOL    HW237569   0.731   1.356   6.213  1.5268  0.4094  1.0071
 8704SOL     OW37570   3.872   2.798  13.583 -0.1439  0.5316 -0.2097
 8704SOL    HW137571   3.828   2.827  13.664 -2.4492 -0.2783 -1.1574
 8704SOL    HW237572   3.819   2.721  13.560  0.7495 -0.3209  0.5844
 8705SOL     OW37573   3.127   2.608  14.567 -0.2405 -0.1516 -0.0695
 8705SOL    HW137574   3.139   2.516  14.545 -0.0838 -0.4225  1.1249
 8705SOL    HW237575   3.101   2.641  14.481 -0.0975  3.5642  1.3080
 8706SOL     OW37576   3.129   0.962   3.754 -0.0251 -0.3407  0.2049
 8706SOL    HW137577   3.220   0.973   3.783  0.6387  0.6835 -2.3210
 8706SOL    HW237578   3.131   0.925   3.666 -1.0195 -1.7684  0.7819
 8707SOL     OW37579   1.678   2.728   3.152 -0.2468  0.2726 -0.8462
 8707SOL    HW137580   1.624   2.806   3.167 -1.9696 -0.9056 -0.9605
 8707SOL    HW237581   1.622   2.656   3.180  0.3131  0.2278  0.1778
 8708SOL     OW37582   2.199   4.283   4.332  0.4326  0.2455 -0.0265
 8708SOL    HW137583   2.197   4.379   4.323 -0.6306  0.3617  1.5138
 8708SOL    HW237584   2.118   4.269   4.380  1.2519  0.4991  1.4071
 8709SOL     OW37585   4.241   1.229   3.078  0.4537 -0.0879 -0.0740
 8709SOL    HW137586   4.204   1.295   3.137 -1.3776 -1.3583  0.1769
 8709SOL    HW237587   4.178   1.239   3.007 -0.0300  1.9345  0.6498
 8710SOL     OW37588   2.458   4.562   4.826 -0.2400  0.1884 -0.5935
 8710SOL    HW137589   2.519   4.635   4.812 -0.9135  1.0248  0.8230
 8710SOL    HW237590   2.378   4.586   4.780  0.4034  0.0374 -1.7954
 8711SOL     OW37591   2.826   4.516   5.220 -0.2659  0.1749  0.5498
 8711SOL    HW137592   2.871   4.432   5.226 -2.1412 -1.0430 -2.3428
 8711SOL    HW237593   2.774   4.507   5.140 -0.0394  0.0752  0.4151
 8712SOL     OW37594   1.163   3.055   6.965 -0.5635 -0.5963  0.3398
 8712SOL    HW137595   1.165   2.987   7.033 -0.6965  0.6112  1.5565
 8712SOL    HW237596   1.139   3.006   6.887 -1.5697 -1.4073  1.1529
 8713SOL     OW37597   0.404   1.112   6.198  0.1068  0.5193 -0.3759
 8713SOL    HW137598   0.413   1.140   6.107 -2.0178  3.7232  0.3924
 8713SOL    HW237599   0.314   1.131   6.225  0.7011  2.0701  0.5195
 8714SOL     OW37600   2.253   1.899   5.077  0.1894  0.2394  0.0549
 8714SOL    HW137601   2.257   1.947   4.994 -1.6055  1.9059  0.9132
 8714SOL    HW237602   2.228   1.810   5.051  1.6128 -0.2918  0.4905
 8715SOL     OW37603   4.512   0.415   9.959  0.6380 -0.3866 -0.3006
 8715SOL    HW137604   4.572   0.443   9.891  0.9240 -1.7358 -0.6062
 8715SOL    HW237605   4.561   0.370  10.028  1.6179 -0.3899 -1.0140
 8716SOL     OW37606   0.690   0.259  15.763 -0.0002  0.2262 -0.7377
 8716SOL    HW137607   0.721   0.169  15.769  0.4161  0.3205 -1.4573
 8716SOL    HW237608   0.617   0.238  15.706  0.2949  2.5026 -1.9802
 8717SOL     OW37609   3.174   2.272   9.410 -0.3319 -0.2196 -0.2238
 8717SOL    HW137610   3.163   2.211   9.337 -1.9351  0.6654 -0.7309
 8717SOL    HW237611   3.091   2.319   9.410  1.2692  2.6547  2.8317
 8718SOL     OW37612   2.279   4.158   4.922  0.4060  0.2931 -0.0747
 8718SOL    HW137613   2.372   4.171   4.902  0.7564  0.5796  1.7458
 8718SOL    HW237614   2.287   4.193   5.010  0.4101 -0.8422  0.3834
 8719SOL     OW37615   2.712   2.312   6.187 -0.4169  0.6921 -0.2073
 8719SOL    HW137616   2.777   2.250   6.221  0.0720  1.7802  0.8541
 8719SOL    HW237617   2.642   2.252   6.162  1.9888 -2.2583  0.1679
 8720SOL     OW37618   3.538   4.239   4.402 -0.6513 -0.2916  0.1140
 8720SOL    HW137619   3.453   4.282   4.399  1.3341  3.7706  1.4121
 8720SOL    HW237620   3.598   4.297   4.449 -0.8058  1.3426 -1.6994
 8721SOL     OW37621   0.288   3.820   2.464 -0.3695 -0.2586  0.2650
 8721SOL    HW137622   0.344   3.851   2.535  0.0967 -0.1340 -0.1581
 8721SOL    HW237623   0.232   3.897   2.455 -0.9764 -0.3462  3.2188
 8722SOL     OW37624   1.610   3.247   4.028  0.0458 -0.5800  1.0354
 8722SOL    HW137625   1.578   3.157   4.022 -0.9804 -0.1870  0.5413
 8722SOL    HW237626   1.699   3.233   3.995  0.6339  0.7965  2.0461
 8723SOL     OW37627   2.040   2.958   4.862 -0.2932  0.0450  0.0755
 8723SOL    HW137628   2.000   3.045   4.856 -1.4921 -0.4839  0.4737
 8723SOL    HW237629   2.077   2.943   4.776  1.2601 -2.5891  1.2058
 8724SOL     OW37630   4.643   1.209   4.363  0.1122 -0.5082 -0.2120
 8724SOL    HW137631   4.656   1.239   4.453 -1.4873  1.2392 -0.5744
 8724SOL    HW237632   4.561   1.252   4.338  1.2147  0.7984 -1.5592
 8725SOL     OW37633   3.612   4.009   8.562 -0.1917  0.2918 -0.4852
 8725SOL    HW137634   3.704   4.030   8.547  0.2131 -0.3028  1.0936
 8725SOL    HW237635   3.593   3.939   8.501 -2.6066 -1.1007  1.8653
 8726SOL     OW37636   4.145   0.390   9.211 -0.2336 -0.2347 -0.3621
 8726SOL    HW137637   4.136   0.481   9.238 -2.5029 -0.6628  0.3390
 8726SOL    HW237638   4.147   0.341   9.294 -4.6351 -1.0074 -0.7372
 8727SOL     OW37639   0.596   0.325  12.262 -0.1824 -0.2579 -0.3410
 8727SOL    HW137640   0.557   0.245  12.297 -0.3396 -0.6112 -1.3207
 8727SOL    HW237641   0.540   0.375  12.321 -0.0231  0.7149 -1.0232
 8728SOL     OW37642   0.544   3.917   3.971 -0.3263 -0.5813 -0.6713
 8728SOL    HW137643   0.587   3.835   3.946 -1.0842 -1.7370  1.7285
 8728SOL    HW237644   0.581   3.984   3.914  0.3105  0.1656  0.6360
 8729SOL     OW37645   1.313   0.346   5.897  0.2237  0.0250 -0.5002
 8729SOL    HW137646   1.344   0.282   5.961 -1.1934  0.6674  0.8121
 8729SOL    HW237647   1.391   0.402   5.896 -0.0345  0.3985  0.5389
 8730SOL     OW37648   3.010   3.406  10.718 -0.1765 -0.5871  0.0150
 8730SOL    HW137649   2.945   3.466  10.682 -0.9662 -1.6053 -0.2602
 8730SOL    HW237650   2.963   3.329  10.748 -0.8288 -0.5162 -0.8349
 8731SOL     OW37651   3.526   3.809  11.974 -0.4429 -0.3958 -0.7593
 8731SOL    HW137652   3.543   3.880  12.037 -2.2049  1.8591 -2.8492
 8731SOL    HW237653   3.431   3.818  11.969 -0.4649  0.2830  0.7365
 8732SOL     OW37654   2.617   4.243   9.046  0.2008 -0.3359 -0.1039
 8732SOL    HW137655   2.622   4.283   9.133  2.6228 -2.2327  0.6111
 8732SOL    HW237656   2.697   4.282   9.012  0.4675 -0.1210  0.7721
 8733SOL     OW37657   0.073   1.320   9.760 -0.1446 -0.4783 -0.2782
 8733SOL    HW137658   0.051   1.319   9.667  0.3505 -0.7080 -0.3933
 8733SOL    HW237659   0.153   1.372   9.761 -2.3777  2.8652  3.2833
 8734SOL     OW37660   2.333   2.537   7.119  0.3517 -0.3877 -0.6482
 8734SOL    HW137661   2.412   2.570   7.162 -0.6280  1.3974 -0.2368
 8734SOL    HW237662   2.303   2.471   7.181 -1.4587  0.1614 -0.9432
 8735SOL     OW37663   3.777   4.576   0.691 -0.0482  0.1773  0.6809
 8735SOL    HW137664   3.718   4.651   0.679 -0.2510  0.0748  1.0493
 8735SOL    HW237665   3.791   4.553   0.599  0.4162  1.1657  0.5102
 8736SOL     OW37666   4.404   4.427  16.088 -0.2003 -0.5106  0.7998
 8736SOL    HW137667   4.495   4.453  16.099  0.1123 -2.0374  1.7606
 8736SOL    HW237668   4.400   4.391  15.999 -1.3886  0.2555  0.5398
 8737SOL     OW37669   3.034   2.839   1.766  0.3298  0.8230  0.2822
 8737SOL    HW137670   2.955   2.850   1.819  0.1666  1.5171 -0.1128
 8737SOL    HW237671   3.038   2.921   1.717  0.2887  0.6456 -0.0165
 8738SOL     OW37672   4.062   3.453  11.085  1.0920  0.0182 -0.3090
 8738SOL    HW137673   4.082   3.422  10.996  2.7387  1.2410 -0.3863
 8738SOL    HW237674   4.133   3.409  11.132  0.2129 -1.2164 -0.1618
 8739SOL     OW37675   4.195   2.643  14.925  0.2589 -0.3477  0.3429
 8739SOL    HW137676   4.192   2.739  14.928  1.8960 -0.3008  0.5349
 8739SOL    HW237677   4.227   2.628  14.836  1.4718  1.6366  0.4462
 8740SOL     OW37678   2.508   0.045   8.464 -0.0933 -0.3289  0.8223
 8740SOL    HW137679   2.546   0.079   8.544  0.7517  3.5309 -1.2412
 8740SOL    HW237680   2.586   0.052   8.410 -0.7647  2.3465  0.1886
 8741SOL     OW37681   2.665   4.017   3.334 -0.5414  0.5582 -0.5974
 8741SOL    HW137682   2.584   4.031   3.284  0.1957 -0.4200 -2.0755
 8741SOL    HW237683   2.721   4.048   3.263  1.1067 -0.5138  0.2506
 8742SOL     OW37684   1.768   1.929   2.963  0.4055 -0.5450 -0.0713
 8742SOL    HW137685   1.774   1.907   2.870  0.5269  0.8381 -0.3985
 8742SOL    HW237686   1.827   1.856   2.982  0.6593 -0.1408  0.6884
 8743SOL     OW37687   1.374   3.908   5.886 -0.2544 -0.2366 -0.0319
 8743SOL    HW137688   1.422   3.828   5.903  1.5745  0.5569 -1.4840
 8743SOL    HW237689   1.294   3.873   5.845 -0.3903 -1.0594  0.9438
 8744SOL     OW37690   2.484   4.652   5.967  0.3868 -0.6029 -0.1372
 8744SOL    HW137691   2.445   0.002   5.921  0.4692  0.3600  1.3305
 8744SOL    HW237692   2.562   4.695   6.003  0.2390 -0.7274  0.3313
 8745SOL     OW37693   1.509   0.464   3.927 -0.2268  0.1819 -0.4862
 8745SOL    HW137694   1.531   0.372   3.941  2.3173  0.9938  0.8375
 8745SOL    HW237695   1.414   0.461   3.915 -0.5135 -0.9551  2.1330
 8746SOL     OW37696   0.436   3.710  10.754  0.0603  0.2918  0.1729
 8746SOL    HW137697   0.488   3.786  10.781  2.4100 -1.4866  0.6485
 8746SOL    HW237698   0.500   3.665  10.699 -2.0462  0.9722 -2.8020
 8747SOL     OW37699   1.555   3.728   0.459 -0.0606 -0.0556  0.3363
 8747SOL    HW137700   1.588   3.639   0.466  1.0705  0.1850 -1.8351
 8747SOL    HW237701   1.531   3.743   0.551  1.1679 -0.9757  0.8035
 8748SOL     OW37702   3.926   4.013  13.077  0.0762 -0.4922  0.5615
 8748SOL    HW137703   3.977   3.932  13.081 -1.1164 -1.3567 -1.5000
 8748SOL    HW237704   3.933   4.047  13.166 -1.5251  1.0977  0.0710
 8749SOL     OW37705   1.325   3.443  11.682 -0.0657 -0.2063  0.3781
 8749SOL    HW137706   1.382   3.442  11.759 -0.5934 -0.6994  0.7708
 8749SOL    HW237707   1.346   3.519  11.629 -0.3455  0.5745  1.3959
 8750SOL     OW37708   3.379   0.201  10.745 -0.3866  0.1930 -0.4491
 8750SOL    HW137709   3.316   0.204  10.673  0.0963  2.8791 -0.7669
 8750SOL    HW237710   3.357   0.118  10.787 -0.6082 -0.1289 -1.1889
 8751SOL     OW37711   1.564   4.130   2.325  0.3560  0.0850  0.4863
 8751SOL    HW137712   1.571   4.159   2.416  0.0631  1.0523  0.2002
 8751SOL    HW237713   1.637   4.175   2.282 -0.1408  0.2203 -0.2177
 8752SOL     OW37714   3.341   3.395  17.452  0.0059 -0.7401  0.2084
 8752SOL    HW137715   3.302   3.330  17.510  1.2142 -0.5885  1.1917
 8752SOL    HW237716   3.408   3.442  17.501 -0.5893 -0.4687  0.7650
 8753SOL     OW37717   0.654   2.399   1.729 -0.0189 -0.0289 -0.6312
 8753SOL    HW137718   0.558   2.403   1.722 -0.2013 -0.0475  2.0456
 8753SOL    HW237719   0.669   2.321   1.676 -1.1272 -1.0696  0.5662
 8754SOL     OW37720   2.825   4.391   9.488 -0.2687 -0.2791 -0.3131
 8754SOL    HW137721   2.799   4.442   9.565  1.4764 -1.3035  0.9719
 8754SOL    HW237722   2.896   4.335   9.518  0.7851  0.8431 -0.6953
 8755SOL     OW37723   4.614   3.135   5.262  0.4672  0.4457 -0.1239
 8755SOL    HW137724   4.645   3.225   5.267 -1.2061  1.0542 -0.8101
 8755SOL    HW237725   4.699   3.094   5.241  1.0038  0.5682  1.8449
 8756SOL     OW37726   2.894   0.909   9.907 -0.7154 -0.3744  0.4726
 8756SOL    HW137727   2.929   0.989   9.946  2.2721 -2.0318  1.1605
 8756SOL    HW237728   2.823   0.943   9.851  0.0904  1.0521  0.3129
 8757SOL     OW37729   3.730   1.138   1.257 -0.4661 -0.6764 -0.1891
 8757SOL    HW137730   3.697   1.228   1.253 -1.4115 -1.0926 -1.6186
 8757SOL    HW237731   3.718   1.108   1.347  0.6702 -0.2574  0.1048
 8758SOL     OW37732   3.214   0.344   8.373  0.0873 -0.0585 -0.5884
 8758SOL    HW137733   3.206   0.320   8.281  1.1841  3.7699 -1.6922
 8758SOL    HW237734   3.307   0.342   8.395  0.9374  0.1365 -4.2560
 8759SOL     OW37735   3.451   4.671   5.398 -0.1861 -0.3371 -0.3349
 8759SOL    HW137736   3.544   4.694   5.398  0.1406 -1.5824 -3.9868
 8759SOL    HW237737   3.418   0.016   5.454  1.4652 -0.3139  0.6216
 8760SOL     OW37738   1.916   2.416   6.558 -0.0941  0.1947  0.1604
 8760SOL    HW137739   1.837   2.456   6.524 -0.9648 -0.3060  1.6035
 8760SOL    HW237740   1.983   2.478   6.529  0.1650  0.1769  0.7101
 8761SOL     OW37741   3.849   2.848   7.583  0.0882  0.2079  0.1662
 8761SOL    HW137742   3.809   2.763   7.560  3.3700 -0.9317 -1.3162
 8761SOL    HW237743   3.824   2.854   7.675  1.3200 -1.5551  0.6284
 8762SOL     OW37744   2.163   2.912  10.917  0.1581 -0.2827  0.7811
 8762SOL    HW137745   2.220   2.982  10.947 -0.5517  0.2442  0.9193
 8762SOL    HW237746   2.126   2.965  10.846 -1.0792 -0.7463  1.0788
 8763SOL     OW37747   2.110   2.367  11.643  0.3105  0.0575  0.3016
 8763SOL    HW137748   2.023   2.329  11.653 -0.7191  2.0351 -1.0121
 8763SOL    HW237749   2.092   2.461  11.643  2.9416  0.5403 -2.7433
 8764SOL     OW37750   0.370   4.253  12.779  0.4548  0.8108 -0.3680
 8764SOL    HW137751   0.346   4.161  12.769 -1.5868  1.3322 -0.0743
 8764SOL    HW237752   0.321   4.292  12.707  2.0721  2.3882 -0.6390
 8765SOL     OW37753   2.193   3.752   2.166  0.2279  0.0178 -0.3732
 8765SOL    HW137754   2.188   3.848   2.172  1.0996 -0.0267  1.1490
 8765SOL    HW237755   2.140   3.742   2.087  0.8121  0.3783 -0.8152
 8766SOL     OW37756   1.021   1.239   7.589 -0.0688 -0.3690  0.5082
 8766SOL    HW137757   1.027   1.158   7.639 -0.0946 -0.6130  0.1178
 8766SOL    HW237758   1.098   1.229   7.533 -0.3405  0.0861  0.0528
 8767SOL     OW37759   2.988   0.445   1.581 -0.0581  0.4748 -0.3873
 8767SOL    HW137760   2.999   0.530   1.625 -0.4220  0.4067 -0.1662
 8767SOL    HW237761   2.996   0.378   1.648  1.1554  0.5815 -0.4251
 8768SOL     OW37762   3.177   1.234   0.867 -0.1150  0.9377  0.5327
 8768SOL    HW137763   3.191   1.323   0.835  0.5395  0.0824 -1.5817
 8768SOL    HW237764   3.090   1.221   0.830 -0.1660 -0.1552  1.0420
 8769SOL     OW37765   2.122   2.560   4.968 -0.1885 -0.6099 -0.0255
 8769SOL    HW137766   2.082   2.518   5.044 -1.9563 -0.9219 -1.1281
 8769SOL    HW237767   2.144   2.483   4.915  0.9513  0.0098 -0.4576
 8770SOL     OW37768   0.787   0.827   5.219  0.1066 -0.0100  0.3824
 8770SOL    HW137769   0.708   0.774   5.230  0.2495  0.4070  3.4641
 8770SOL    HW237770   0.752   0.898   5.273  0.3823 -0.2754  0.9132
 8771SOL     OW37771   2.053   1.508   2.675 -0.2562 -0.7265 -0.3000
 8771SOL    HW137772   1.966   1.503   2.636 -0.7681  1.0548  0.6045
 8771SOL    HW237773   2.032   1.466   2.758  3.2668  0.6293  1.2860
 8772SOL     OW37774   2.743   2.201  15.982 -0.0745  0.4900 -0.5566
 8772SOL    HW137775   2.818   2.142  15.993 -1.2694 -0.6223  1.6927
 8772SOL    HW237776   2.710   2.189  16.071 -0.8914 -1.3578 -1.1127
 8773SOL     OW37777   0.817   3.171   5.534  0.4134 -0.3206 -0.2184
 8773SOL    HW137778   0.797   3.260   5.563  0.1599 -0.2573 -0.5805
 8773SOL    HW237779   0.910   3.163   5.552 -0.4171 -2.5989  3.2097
 8774SOL     OW37780   4.244   0.702   1.040  0.1288  0.3115  0.6158
 8774SOL    HW137781   4.231   0.609   1.024  0.2332  0.5264 -0.7056
 8774SOL    HW237782   4.211   0.714   1.129  1.3428 -2.1064  1.3843
 8775SOL     OW37783   2.765   1.405  16.785  0.4604  0.0653 -0.0097
 8775SOL    HW137784   2.832   1.343  16.812 -0.5891 -0.7772  0.6759
 8775SOL    HW237785   2.813   1.449  16.714  0.1309 -1.2728 -1.0472
 8776SOL     OW37786   1.588   3.127   2.596  0.2497 -0.2040  0.7962
 8776SOL    HW137787   1.622   3.194   2.655  0.9209 -0.5792  0.8366
 8776SOL    HW237788   1.567   3.187   2.524 -1.0087 -1.2855  0.2526
 8777SOL     OW37789   0.221   3.414   5.225  0.3530 -0.7047  0.1673
 8777SOL    HW137790   0.306   3.372   5.241 -0.2909 -1.5808  1.2277
 8777SOL    HW237791   0.259   3.476   5.162  1.4322 -1.8901 -0.3619
 8778SOL     OW37792   4.553   4.029   4.500  0.1704  0.4893 -0.2704
 8778SOL    HW137793   4.616   3.962   4.474 -2.4363 -1.4739 -1.5467
 8778SOL    HW237794   4.593   4.060   4.581  2.0549  1.2894 -1.5135
 8779SOL     OW37795   2.375   0.412  12.090 -0.0180 -0.2820  0.3705
 8779SOL    HW137796   2.444   0.346  12.085  1.9835  1.8243 -0.0229
 8779SOL    HW237797   2.309   0.348  12.117  0.7673  0.0436  3.0510
 8780SOL     OW37798   2.780   1.168   3.455 -0.5032 -0.2678 -0.4422
 8780SOL    HW137799   2.738   1.160   3.370 -0.7759  0.8615 -0.4109
 8780SOL    HW237800   2.726   1.111   3.509 -3.0206 -0.6104 -3.3490
 8781SOL     OW37801   0.107   1.400   4.236 -0.8452  0.1815  0.1677
 8781SOL    HW137802   0.064   1.478   4.202  0.0701  0.2452 -0.8462
 8781SOL    HW237803   0.030   1.343   4.228 -0.7940  0.2878 -1.0349
 8782SOL     OW37804   2.052   1.195   2.011  0.3749 -0.4264  0.2599
 8782SOL    HW137805   2.136   1.178   1.968  1.0540 -0.7715  1.7280
 8782SOL    HW237806   2.078   1.190   2.103 -0.8770 -0.3450  0.6089
 8783SOL     OW37807   1.069   3.630   0.926 -0.5884  0.0081 -0.1489
 8783SOL    HW137808   0.989   3.680   0.909 -1.5543 -1.7447 -0.7417
 8783SOL    HW237809   1.052   3.618   1.019 -2.0214  0.1219 -0.3898
 8784SOL     OW37810   1.961   0.010   3.677  0.2274  0.0168 -0.2903
 8784SOL    HW137811   2.031   0.005   3.742 -1.5502 -1.0590  1.5158
 8784SOL    HW237812   1.984   4.662   3.619 -1.7170  0.2946 -1.4075
 8785SOL     OW37813   0.504   0.840   4.602  0.3488  0.0060  0.1301
 8785SOL    HW137814   0.450   0.762   4.606  1.1735 -0.5229  0.9792
 8785SOL    HW237815   0.498   0.858   4.695 -1.3064 -0.6315  0.1436
 8786SOL     OW37816   0.892   4.166   6.770 -0.0660  0.5727  0.2190
 8786SOL    HW137817   0.928   4.085   6.807 -2.1536 -1.1827 -1.5995
 8786SOL    HW237818   0.830   4.197   6.836  0.6003  0.4425  0.9174
 8787SOL     OW37819   2.662   1.461   2.041 -0.2650  0.0530 -0.0128
 8787SOL    HW137820   2.648   1.533   2.103 -0.3563 -1.2281  1.4602
 8787SOL    HW237821   2.587   1.466   1.982  0.8637  3.3707 -1.1764
 8788SOL     OW37822   4.718   0.099  11.387  0.4185 -0.3427  0.1036
 8788SOL    HW137823   0.039   0.030  11.337 -0.3528 -1.6329  1.1766
 8788SOL    HW237824   4.649   0.042  11.421 -1.6019  2.3385  0.4509
 8789SOL     OW37825   0.452   1.146  14.403 -0.0714 -0.2710 -0.7061
 8789SOL    HW137826   0.534   1.113  14.441 -0.3874  2.6552  2.5209
 8789SOL    HW237827   0.413   1.180  14.483 -0.4358 -1.4549 -0.3706
 8790SOL     OW37828   3.962   2.792   3.575 -0.4893 -0.0384 -0.3874
 8790SOL    HW137829   3.868   2.787   3.592 -0.6571 -1.4212 -1.8464
 8790SOL    HW237830   3.954   2.842   3.494  2.5068  1.1135  0.0194
 8791SOL     OW37831   4.373   3.824   3.183  0.1378  0.0987  0.7447
 8791SOL    HW137832   4.363   3.869   3.267 -2.2061  0.0248  0.4856
 8791SOL    HW237833   4.283   3.825   3.151  1.0993 -0.0787 -1.9197
 8792SOL     OW37834   3.740   3.959   2.262  0.0703 -0.4817 -0.2232
 8792SOL    HW137835   3.691   3.891   2.216 -2.7138  0.9922  0.5486
 8792SOL    HW237836   3.765   4.015   2.189  5.0247  2.0998  3.4387
 8793SOL     OW37837   4.604   0.165   7.124  0.7624  0.0974 -0.5774
 8793SOL    HW137838   4.531   0.128   7.074 -0.5448  0.0086  1.3984
 8793SOL    HW237839   4.672   0.097   7.124  0.2482 -0.4246 -0.3360
 8794SOL     OW37840   4.426   2.831   7.985 -0.5538  0.0744 -0.1574
 8794SOL    HW137841   4.358   2.842   7.918  0.2934 -0.7582 -1.1435
 8794SOL    HW237842   4.463   2.919   7.974  0.3466 -0.0296  2.0177
 8795SOL     OW37843   3.511   1.460   1.453 -0.1565 -0.1967  0.3601
 8795SOL    HW137844   3.507   1.503   1.538  1.8604  2.2576 -0.7673
 8795SOL    HW237845   3.458   1.380   1.459 -1.1965  0.3142 -1.7382
 8796SOL     OW37846   1.607   1.254  11.585 -0.0422  0.8336 -0.3106
 8796SOL    HW137847   1.691   1.278  11.546 -0.1408 -1.5966 -2.0089
 8796SOL    HW237848   1.556   1.330  11.559 -2.4621  0.1540  2.4746
 8797SOL     OW37849   0.940   3.652   3.270 -0.5056  1.0065  0.3740
 8797SOL    HW137850   0.873   3.606   3.219  1.4370 -1.9734  0.4906
 8797SOL    HW237851   1.018   3.605   3.240 -2.0396 -1.3498  0.0613
 8798SOL     OW37852   4.527   0.362   3.299  0.4577  0.5046 -0.2627
 8798SOL    HW137853   4.586   0.288   3.286 -1.1669 -1.1557  1.8116
 8798SOL    HW237854   4.484   0.376   3.215 -1.8380  0.8854  0.9865
 8799SOL     OW37855   4.176   1.543   0.442 -0.1140 -0.0133  0.3175
 8799SOL    HW137856   4.101   1.488   0.463  0.5153 -0.0291  2.4582
 8799SOL    HW237857   4.244   1.490   0.484  1.0838 -1.2088 -3.0669
 8800SOL     OW37858   1.714   1.824   7.020 -0.1898  0.5697  0.0073
 8800SOL    HW137859   1.666   1.764   7.077  0.6396 -1.3931 -1.3704
 8800SOL    HW237860   1.749   1.882   7.088  0.9194 -0.9860  0.7663
 8801SOL     OW37861   2.858   1.023  16.721  0.0492  0.1962  0.9633
 8801SOL    HW137862   2.816   1.071  16.650 -0.3931 -0.7036  0.6210
 8801SOL    HW237863   2.781   1.008  16.775 -0.9739 -0.8902 -0.8122
 8802SOL     OW37864   2.778   3.508   5.078 -0.4936  0.9937  0.1266
 8802SOL    HW137865   2.751   3.579   5.020  0.6867 -0.3309 -2.0407
 8802SOL    HW237866   2.745   3.429   5.035  0.6616  0.6532 -0.1233
 8803SOL     OW37867   4.203   3.880   4.517 -0.0633  0.1430  0.2382
 8803SOL    HW137868   4.159   3.947   4.570  0.9865  2.1445 -1.3908
 8803SOL    HW237869   4.239   3.943   4.453  1.6611  1.2594  2.3160
 8804SOL     OW37870   4.146   0.266  16.863  0.1793 -0.4705 -0.1165
 8804SOL    HW137871   4.051   0.263  16.856  0.1843  0.9457 -0.7349
 8804SOL    HW237872   4.161   0.327  16.791  0.3375  1.0691  1.2154
 8805SOL     OW37873   2.147   3.770   8.729  0.3054  0.1135  0.0464
 8805SOL    HW137874   2.142   3.756   8.635  0.8366  0.3312 -0.0140
 8805SOL    HW237875   2.143   3.681   8.765  0.9683  0.0451 -0.0416
 8806SOL     OW37876   4.663   0.111   3.362  0.3698 -0.0971 -0.1761
 8806SOL    HW137877   4.637   0.053   3.290 -0.5827  0.7008 -0.4830
 8806SOL    HW237878   4.607   0.065   3.425  1.8870  1.6225  2.4122
 8807SOL     OW37879   0.787   3.297  13.280  0.0836 -0.5275  0.0836
 8807SOL    HW137880   0.751   3.226  13.227  1.0702 -0.6512 -0.4406
 8807SOL    HW237881   0.881   3.279  13.271 -0.3849 -1.9643 -1.9285
 8808SOL     OW37882   4.492   0.900   6.360 -0.4008 -0.0385 -0.6917
 8808SOL    HW137883   4.579   0.934   6.379 -0.1171 -1.9155  1.2790
 8808SOL    HW237884   4.514   0.809   6.342 -3.1650 -0.5461 -1.4803
 8809SOL     OW37885   0.318   2.765  12.605  0.1972  0.4472 -0.2906
 8809SOL    HW137886   0.257   2.692  12.617 -0.4616  0.7651 -1.6644
 8809SOL    HW237887   0.254   2.814  12.553 -0.5074  2.5057  2.5344
 8810SOL     OW37888   1.621   2.986  13.859  0.4665  0.1080  0.6063
 8810SOL    HW137889   1.575   3.026  13.933  0.9103  1.5711  0.0963
 8810SOL    HW237890   1.708   3.027  13.860  0.3321  0.4120 -0.6668
 8811SOL     OW37891   1.832   0.862  11.794  0.5703 -0.1758  0.2712
 8811SOL    HW137892   1.778   0.881  11.717  0.7321 -1.0549 -0.0586
 8811SOL    HW237893   1.909   0.819  11.757 -0.8525 -0.6829 -2.0705
 8812SOL     OW37894   2.471   3.991  12.091  0.2096 -0.2644 -0.0115
 8812SOL    HW137895   2.536   3.955  12.152  1.8866  2.3514 -0.2589
 8812SOL    HW237896   2.403   4.035  12.141 -0.4290  0.7203 -1.7269
 8813SOL     OW37897   2.526   0.319   9.746 -0.2068 -0.2517 -0.1003
 8813SOL    HW137898   2.473   0.255   9.793  1.1290  0.0561  1.8174
 8813SOL    HW237899   2.603   0.264   9.738 -0.6916 -0.9907  0.2870
 8814SOL     OW37900   3.113   1.280  10.322  0.0855 -0.6193  0.5134
 8814SOL    HW137901   3.125   1.288  10.417 -1.3508  1.6652  0.5056
 8814SOL    HW237902   3.046   1.348  10.312 -0.2707 -0.8062  1.6343
 8815SOL     OW37903   4.675   0.749   3.468  0.2398  0.1285 -0.7453
 8815SOL    HW137904   4.662   0.748   3.373 -1.9986 -1.4654 -0.4118
 8815SOL    HW237905   4.671   0.838   3.505 -0.6463 -0.7538  1.2635
 8816SOL     OW37906   3.230   2.923   6.494 -0.0781 -0.1501  0.2430
 8816SOL    HW137907   3.167   2.968   6.550  0.8886  0.8804  0.4989
 8816SOL    HW237908   3.309   2.923   6.548 -1.0097 -1.9873  1.6222
 8817SOL     OW37909   3.518   3.619   8.983 -0.4250 -0.0706  0.0875
 8817SOL    HW137910   3.542   3.529   8.965  0.0319 -0.1987  1.2925
 8817SOL    HW237911   3.438   3.625   9.035 -0.1781  0.6957  0.3912
 8818SOL     OW37912   0.347   4.520  16.067 -0.0564 -0.0335 -0.4424
 8818SOL    HW137913   0.412   4.536  15.998 -0.8307  0.0999 -1.1317
 8818SOL    HW237914   0.338   4.612  16.094 -1.6839  0.3214 -2.1961
 8819SOL     OW37915   4.523   4.087   2.323  0.4622  0.2559 -0.2530
 8819SOL    HW137916   4.531   4.000   2.284  1.4625 -0.3281  1.2660
 8819SOL    HW237917   4.506   4.065   2.415  0.8232  1.9453  0.2172
 8820SOL     OW37918   4.219   1.435   8.596 -0.2726 -0.1293  0.8890
 8820SOL    HW137919   4.287   1.496   8.569 -0.1771 -0.1671  1.0458
 8820SOL    HW237920   4.253   1.356   8.554  1.7875  1.8256 -1.1114
 8821SOL     OW37921   4.183   2.927  12.258  0.6264 -0.4762 -0.6260
 8821SOL    HW137922   4.247   2.960  12.320  0.4551  0.7354 -1.0850
 8821SOL    HW237923   4.196   2.999  12.196 -3.2558  0.2194 -0.6903
 8822SOL     OW37924   1.630   0.646   4.946  0.3014 -0.6656  0.2478
 8822SOL    HW137925   1.603   0.690   4.866 -1.4856 -0.6873  0.8321
 8822SOL    HW237926   1.725   0.640   4.938  0.3328  2.4394 -1.5352
 8823SOL     OW37927   0.279   1.469   8.424 -0.2099 -0.4449 -0.0151
 8823SOL    HW137928   0.296   1.527   8.350 -0.8267 -0.6990 -0.3553
 8823SOL    HW237929   0.364   1.426   8.413  0.0530  0.1829 -0.4370
 8824SOL     OW37930   2.177   1.708  13.641 -0.4116  0.4326  0.5095
 8824SOL    HW137931   2.178   1.803  13.626  3.1175  0.1655 -0.8192
 8824SOL    HW237932   2.172   1.677  13.551  1.7252  3.6568 -0.7122
 8825SOL     OW37933   2.444   2.180   1.550  0.2533  0.0674 -0.2151
 8825SOL    HW137934   2.465   2.087   1.552 -1.1391 -0.2729 -1.4894
 8825SOL    HW237935   2.528   2.217   1.523  0.0665 -0.2671 -1.2674
 8826SOL     OW37936   1.671   0.618   8.118 -0.4387 -0.2852  0.5311
 8826SOL    HW137937   1.749   0.602   8.171  0.1129  0.8888  0.0781
 8826SOL    HW237938   1.708   0.571   8.043 -1.3946 -0.3405  0.0817
 8827SOL     OW37939   1.569   2.858   9.026 -0.2458 -0.1603 -0.0880
 8827SOL    HW137940   1.567   2.822   8.938 -0.8101  0.9040 -0.5072
 8827SOL    HW237941   1.611   2.944   9.015  2.7794 -1.4471  1.2844
 8828SOL     OW37942   4.073   0.885   7.768 -0.1922 -0.0991 -0.1647
 8828SOL    HW137943   4.067   0.789   7.774 -0.9553 -0.1010 -1.0292
 8828SOL    HW237944   4.026   0.926   7.841 -3.2143 -1.4222 -1.3623
 8829SOL     OW37945   0.263   0.561   8.493 -0.0596  0.3466 -0.2343
 8829SOL    HW137946   0.229   0.553   8.403  1.0716 -1.5962 -0.4959
 8829SOL    HW237947   0.203   0.508   8.546  2.0897 -2.0373 -0.2226
 8830SOL     OW37948   2.796   2.481   2.024 -0.0884  0.0892  0.0593
 8830SOL    HW137949   2.798   2.459   1.931 -0.0579 -0.4085  0.1779
 8830SOL    HW237950   2.715   2.442   2.055  0.4708 -0.4459  0.8408
 8831SOL     OW37951   4.406   0.361   1.160 -0.5708  0.0169  0.0206
 8831SOL    HW137952   4.476   0.425   1.146  0.5788 -1.0020  1.0671
 8831SOL    HW237953   4.398   0.334   1.068  2.2743  2.2010 -0.8793
 8832SOL     OW37954   2.292   1.023   9.356 -0.0639 -0.1536 -0.2939
 8832SOL    HW137955   2.312   1.116   9.365 -1.1392 -0.0716  1.2921
 8832SOL    HW237956   2.359   0.979   9.408 -0.4826  1.8876  1.9875
 8833SOL     OW37957   3.981   0.019   6.223 -0.2383  0.8177 -0.1684
 8833SOL    HW137958   4.036   0.090   6.254  2.2021 -0.8224 -0.7184
 8833SOL    HW237959   4.039   4.670   6.204 -2.6137 -1.3959  1.0481
 8834SOL     OW37960   2.155   2.148   0.421  0.3796 -0.1900  0.4332
 8834SOL    HW137961   2.179   2.096   0.344  2.9667  0.9177  0.4879
 8834SOL    HW237962   2.238   2.137   0.467  1.1795 -3.1647 -1.6819
 8835SOL     OW37963   0.013   2.812   2.642 -0.1297 -0.5919 -0.2389
 8835SOL    HW137964   0.061   2.849   2.716 -1.7328 -2.1941  1.5876
 8835SOL    HW237965   0.075   2.801   2.570  0.9409  0.7834  0.4813
 8836SOL     OW37966   1.989   3.588   5.381  1.1465  0.2604 -0.4677
 8836SOL    HW137967   2.018   3.654   5.317 -2.4377  0.1051 -2.2067
 8836SOL    HW237968   2.054   3.586   5.452 -0.8829 -0.4533  1.3536
 8837SOL     OW37969   4.086   1.922   5.436 -0.6146 -0.2845  0.3174
 8837SOL    HW137970   4.085   1.830   5.460  0.2967 -0.1283  0.9733
 8837SOL    HW237971   4.037   1.963   5.508 -1.2574 -0.3228 -0.1050
 8838SOL     OW37972   2.696   2.114   0.971  0.1497  0.1379 -0.2985
 8838SOL    HW137973   2.704   2.126   1.066 -0.6860  1.3842 -0.3885
 8838SOL    HW237974   2.708   2.019   0.965 -0.4217  0.1748 -2.0646
 8839SOL     OW37975   0.811   2.657   3.900  0.1611 -0.1128  0.0113
 8839SOL    HW137976   0.806   2.561   3.910 -0.5604 -0.0438  0.3638
 8839SOL    HW237977   0.716   2.665   3.905  0.3285  1.2064  1.1047
 8840SOL     OW37978   0.055   2.910   8.109 -0.0956 -0.1558 -0.5594
 8840SOL    HW137979   0.077   2.832   8.160  0.1460  1.2271  1.4336
 8840SOL    HW237980   0.085   2.981   8.165  1.1838 -1.4390  0.3533
 8841SOL     OW37981   0.980   3.748   2.409 -0.3431 -0.4192  0.2856
 8841SOL    HW137982   0.920   3.720   2.340 -1.8385  0.5718  1.1952
 8841SOL    HW237983   1.021   3.662   2.404  1.4031  0.2908  2.6725
 8842SOL     OW37984   3.549   2.627   9.523 -0.0317 -0.0737  0.1266
 8842SOL    HW137985   3.513   2.538   9.526 -1.0559  0.3662  0.7575
 8842SOL    HW237986   3.616   2.605   9.459  0.3789  0.0099  0.5213
 8843SOL     OW37987   2.165   2.401  12.980  0.1715  0.3300  0.2310
 8843SOL    HW137988   2.238   2.426  12.923  0.8763 -1.8995  0.1697
 8843SOL    HW237989   2.115   2.346  12.920  1.8386 -1.2917  0.3305
 8844SOL     OW37990   1.990   3.674  14.277 -0.2084  0.2938 -0.0638
 8844SOL    HW137991   1.987   3.764  14.312  0.7883 -0.5211  2.1667
 8844SOL    HW237992   1.932   3.685  14.202 -0.7431 -4.0784 -0.2755
 8845SOL     OW37993   1.009   2.593   4.219 -0.0063  0.6395  0.4758
 8845SOL    HW137994   0.972   2.519   4.266  2.8243 -2.5449 -2.3640
 8845SOL    HW237995   1.093   2.558   4.189 -1.2351 -0.5288 -1.5426
 8846SOL     OW37996   4.718   3.486   4.477 -0.2223 -0.1267 -0.4225
 8846SOL    HW137997   4.716   3.390   4.475  0.6298 -0.1410 -0.5305
 8846SOL    HW237998   0.089   3.490   4.478 -0.2744  1.2454 -1.2131
 8847SOL     OW37999   3.910   0.436   1.698  0.1468  0.2951 -0.7529
 8847SOL    HW138000   3.931   0.500   1.766  0.1512 -0.2309 -0.2578
 8847SOL    HW238001   3.943   0.478   1.618 -1.0418  2.0949 -0.2895
 8848SOL     OW38002   1.405   1.724  16.866 -0.1374 -0.1618  0.0363
 8848SOL    HW138003   1.380   1.700  16.955  2.4325 -0.1339  0.7606
 8848SOL    HW238004   1.330   1.685  16.821  1.7414 -3.0430 -0.5416
 8849SOL     OW38005   4.293   0.376   2.932  0.0344 -0.1539 -0.2585
 8849SOL    HW138006   4.329   0.323   2.860 -0.6953 -2.4256  1.0649
 8849SOL    HW238007   4.267   0.455   2.885 -3.2782 -1.3215 -0.3924
 8850SOL     OW38008   1.155   3.586   8.431  0.1048  0.1797  0.1343
 8850SOL    HW138009   1.187   3.500   8.458  0.7950  0.4302  0.1091
 8850SOL    HW238010   1.077   3.600   8.486  0.0267  2.7914 -0.6374
 8851SOL     OW38011   2.769   0.452   7.660  0.3503  0.0492 -0.2405
 8851SOL    HW138012   2.834   0.382   7.659 -0.0162 -0.2461 -2.9009
 8851SOL    HW238013   2.685   0.409   7.645  0.8886 -2.8191  4.8449
 8852SOL     OW38014   0.834   2.129   2.260  0.1623 -0.6040 -0.3981
 8852SOL    HW138015   0.891   2.092   2.193  1.0481  0.0831 -0.0236
 8852SOL    HW238016   0.900   2.121   2.329 -0.2974  0.8874  0.2173
 8853SOL     OW38017   1.737   1.664  11.370  0.2732  0.1526 -0.2219
 8853SOL    HW138018   1.765   1.612  11.446 -2.0153 -0.9625 -0.1329
 8853SOL    HW238019   1.795   1.634  11.300  1.6034 -0.7446  1.2563
 8854SOL     OW38020   1.526   3.031   4.833 -0.5424 -0.1052 -0.3136
 8854SOL    HW138021   1.431   3.034   4.823 -0.6603 -0.9682  0.6817
 8854SOL    HW238022   1.553   2.970   4.764  1.3119  1.4130 -0.9624
 8855SOL     OW38023   1.009   0.791   9.460  0.0050 -0.2369  0.3778
 8855SOL    HW138024   0.961   0.841   9.525  3.6572  1.8907  1.4469
 8855SOL    HW238025   1.024   0.715   9.516  1.5403  0.0112  0.2962
 8856SOL     OW38026   3.374   4.201   0.945  0.3156 -0.3380  0.4799
 8856SOL    HW138027   3.404   4.112   0.927  0.7102 -0.0443 -0.2991
 8856SOL    HW238028   3.362   4.233   0.856  1.5515  1.4128  0.9476
 8857SOL     OW38029   1.007   0.309   6.603 -0.2767  0.2926 -0.3672
 8857SOL    HW138030   0.920   0.275   6.623 -0.0705  1.9842  3.4332
 8857SOL    HW238031   1.000   0.380   6.667 -1.8021 -0.4225  0.2481
 8858SOL     OW38032   3.848   3.954   0.724  0.2559  0.2573 -0.1950
 8858SOL    HW138033   3.902   4.029   0.699  0.4344  0.7132  1.5629
 8858SOL    HW238034   3.918   3.893   0.750 -0.7637 -1.6114 -1.8419
 8859SOL     OW38035   3.248   3.985   7.424 -0.2665  0.2711 -0.6359
 8859SOL    HW138036   3.302   4.045   7.371 -0.8346  0.1996 -1.2966
 8859SOL    HW238037   3.315   3.956   7.486 -0.6715 -1.1853 -0.8663
 8860SOL     OW38038   2.108   2.449  10.781 -0.1430 -0.6729 -0.3920
 8860SOL    HW138039   2.165   2.402  10.842  0.6877  0.6015 -0.2068
 8860SOL    HW238040   2.160   2.437  10.702 -0.6541  0.2888 -0.8660
 8861SOL     OW38041   3.724   3.952   9.951  0.2981 -0.0505 -0.3729
 8861SOL    HW138042   3.707   3.976   9.860 -0.0730  1.7060  0.1647
 8861SOL    HW238043   3.633   3.948   9.980  0.3418  1.8954  0.0169
 8862SOL     OW38044   4.069   2.137   8.693 -0.4151 -0.1788  0.3061
 8862SOL    HW138045   4.101   2.084   8.620  0.8978  0.0012  0.7542
 8862SOL    HW238046   4.084   2.221   8.649 -0.9886 -0.8169 -1.0892
 8863SOL     OW38047   0.081   2.284   8.860  0.0637 -0.2178  0.3696
 8863SOL    HW138048   0.114   2.241   8.939  1.0574 -2.0186 -1.0103
 8863SOL    HW238049   4.723   2.236   8.868  0.8214 -1.6454 -0.2228
 8864SOL     OW38050   3.470   4.007   0.073  0.0997  0.3380 -0.7478
 8864SOL    HW138051   3.446   3.931   0.021  0.6865 -0.2538 -0.1652
 8864SOL    HW238052   3.545   3.969   0.119 -0.7304  0.2661  0.5455
 8865SOL     OW38053   2.150   0.406  13.656  0.0172 -0.0437  0.1540
 8865SOL    HW138054   2.192   0.489  13.635 -1.0816  0.1323 -1.3048
 8865SOL    HW238055   2.145   0.421  13.751 -0.8399  1.0882 -0.0740
 8866SOL     OW38056   3.369   1.555  17.209  0.3860 -0.2474  0.2261
 8866SOL    HW138057   3.276   1.569  17.225  0.3075 -2.7008  1.9110
 8866SOL    HW238058   3.387   1.500  17.285  0.8241  1.1894  1.1568
 8867SOL     OW38059   3.326   3.801   5.071 -0.4910 -0.3901  0.0964
 8867SOL    HW138060   3.396   3.781   5.132  1.4778  0.5563 -1.8577
 8867SOL    HW238061   3.254   3.824   5.130  0.6266  0.4018  1.1676
 8868SOL     OW38062   0.987   1.944   6.684 -0.0801  0.2438 -0.2655
 8868SOL    HW138063   1.081   1.935   6.673 -0.1551 -1.7513  0.7291
 8868SOL    HW238064   0.952   1.855   6.673  1.0631 -0.0032 -1.8433
 8869SOL     OW38065   4.671   0.772   4.815  0.0573  0.0442 -0.2528
 8869SOL    HW138066   4.664   0.739   4.725 -3.7101  0.1387  0.0327
 8869SOL    HW238067   0.026   0.736   4.854  0.1212  0.6060  0.1346
 8870SOL     OW38068   3.667   2.839   2.152 -0.2981 -0.1342 -0.2635
 8870SOL    HW138069   3.664   2.934   2.144  0.6758 -0.1364 -0.6339
 8870SOL    HW238070   3.605   2.835   2.225  0.6277 -0.9125  0.4939
 8871SOL     OW38071   4.671   4.461   1.419  0.3376 -0.2623  0.5142
 8871SOL    HW138072   4.604   4.494   1.478 -0.5123 -1.0571 -0.0027
 8871SOL    HW238073   4.685   4.538   1.364  0.9861  0.2890  1.4534
 8872SOL     OW38074   2.956   1.008   1.459 -0.0467 -0.8144 -0.4389
 8872SOL    HW138075   2.888   0.980   1.520 -0.2328 -0.4366 -0.4706
 8872SOL    HW238076   2.909   0.998   1.377 -0.7962 -2.7549  0.2445
 8873SOL     OW38077   1.114   2.619   3.001 -0.3532  0.0139  0.4526
 8873SOL    HW138078   1.075   2.611   3.088 -0.0361 -0.6856  0.5259
 8873SOL    HW238079   1.198   2.578   3.020 -0.5441 -0.2935  0.6358
 8874SOL     OW38080   0.888   2.685   1.429 -0.8207 -0.1296  0.2180
 8874SOL    HW138081   0.810   2.694   1.483 -1.4615 -1.9582 -0.4150
 8874SOL    HW238082   0.930   2.771   1.429 -3.1990  1.0261  0.2675
 8875SOL     OW38083   0.939   3.705   4.584  0.4239  0.0431  0.2808
 8875SOL    HW138084   0.899   3.650   4.652  2.2016 -0.6212  0.7943
 8875SOL    HW238085   0.907   3.790   4.615  0.3993  0.0509  0.2335
 8876SOL     OW38086   4.175   3.949   2.384 -0.8551  0.3319 -0.3170
 8876SOL    HW138087   4.231   3.876   2.409  0.5211  0.7476 -2.1596
 8876SOL    HW238088   4.094   3.916   2.423  0.3405 -1.4599  0.6514
 8877SOL     OW38089   0.300   2.993  12.780  0.0911 -0.3484  0.4614
 8877SOL    HW138090   0.379   3.045  12.762 -1.3163  0.8034 -2.4204
 8877SOL    HW238091   0.333   2.907  12.754 -0.8331 -1.7537  3.8858
 8878SOL     OW38092   2.331   0.392  14.851 -0.0451  0.2657 -0.0798
 8878SOL    HW138093   2.404   0.418  14.907 -0.3148  0.1567  0.3261
 8878SOL    HW238094   2.294   0.474  14.818  0.4758  0.6173  0.2085
 8879SOL     OW38095   3.724   1.447   9.358  0.0953  0.0811  0.5282
 8879SOL    HW138096   3.670   1.488   9.291  1.3521 -0.2432 -0.6985
 8879SOL    HW238097   3.686   1.475   9.441 -2.1229 -0.4980 -0.2899
 8880SOL     OW38098   3.561   3.050   3.451 -0.6803 -0.6192  0.1773
 8880SOL    HW138099   3.588   3.111   3.382 -1.2112  0.7432  1.1827
 8880SOL    HW238100   3.524   2.977   3.402 -1.4355  0.0585 -0.2573
 8881SOL     OW38101   0.510   0.200  15.594  0.5935 -0.5208  0.0360
 8881SOL    HW138102   0.437   0.235  15.543 -1.6824 -3.3293  1.3828
 8881SOL    HW238103   0.479   0.120  15.636  0.0436  0.0972  0.8110
 8882SOL     OW38104   2.454   3.046  12.981 -0.5479  0.4019  0.0830
 8882SOL    HW138105   2.448   3.043  13.076 -1.6701  1.5831  0.0468
 8882SOL    HW238106   2.372   3.092  12.965  0.1669  0.1406 -4.6119
 8883SOL     OW38107   0.077   2.051   9.228 -0.3688 -0.0830  0.1672
 8883SOL    HW138108   0.064   2.146   9.238  1.1798 -0.0348  1.8039
 8883SOL    HW238109   0.085   2.035   9.134  0.3058  0.6475  0.1016
 8884SOL     OW38110   0.009   0.606   5.788 -0.0856 -0.1828 -0.5822
 8884SOL    HW138111   0.007   0.598   5.883  1.0496  2.8193 -0.3129
 8884SOL    HW238112   0.104   0.610   5.778  0.0293 -4.2416 -0.9980
 8885SOL     OW38113   0.646   2.774   5.896  0.0273 -0.3096  0.2514
 8885SOL    HW138114   0.723   2.718   5.905 -0.8856 -1.1728  2.6825
 8885SOL    HW238115   0.593   2.722   5.836 -2.1335  1.0363  1.0047
 8886SOL     OW38116   3.024   3.939  13.078  0.4400 -0.2145  0.2295
 8886SOL    HW138117   3.053   3.849  13.068 -2.4841 -1.3419  1.8726
 8886SOL    HW238118   2.936   3.918  13.046  0.2428  0.9481 -0.0143
 8887SOL     OW38119   0.793   4.550  14.880 -0.5904 -0.1752 -0.0598
 8887SOL    HW138120   0.807   4.642  14.900  0.5998 -0.3505 -0.0643
 8887SOL    HW238121   0.881   4.539  14.844 -0.1041 -2.1764  1.7328
 8888SOL     OW38122   0.756   4.180  10.209 -0.3089 -0.0204 -0.0149
 8888SOL    HW138123   0.750   4.140  10.296  1.1427  1.7682  0.9101
 8888SOL    HW238124   0.676   4.232  10.211  0.0901  0.5560  1.0113
 8889SOL     OW38125   1.834   2.258  15.082  0.1784  0.3385 -0.0686
 8889SOL    HW138126   1.749   2.225  15.056 -0.1537 -0.0837  1.5155
 8889SOL    HW238127   1.885   2.211  15.016 -3.2528 -1.1942 -1.6151
 8890SOL     OW38128   2.343   2.103   3.193  0.2708  0.6290  0.1626
 8890SOL    HW138129   2.365   2.041   3.262  1.1203  0.7128 -0.0388
 8890SOL    HW238130   2.430   2.137   3.173  0.2784  0.9061  0.6481
 8891SOL     OW38131   4.036   4.269  16.686 -0.8960 -0.5773 -0.3014
 8891SOL    HW138132   4.032   4.358  16.720 -1.7821 -0.3951 -0.8832
 8891SOL    HW238133   3.967   4.266  16.620  1.1734  1.7119 -2.5815
 8892SOL     OW38134   3.010   3.008   7.796 -0.1366 -0.4134 -0.6068
 8892SOL    HW138135   2.933   3.051   7.761 -0.2704 -0.3801 -0.2657
 8892SOL    HW238136   3.073   3.080   7.789  2.0006 -2.0417  1.5366
 8893SOL     OW38137   1.446   3.882  15.547  0.4438 -0.0014  0.2852
 8893SOL    HW138138   1.532   3.882  15.590  0.9626  2.6917 -0.7483
 8893SOL    HW238139   1.406   3.953  15.597 -0.1363  2.2081 -3.3007
 8894SOL     OW38140   2.398   4.162   0.812  0.2649  0.7448 -0.5014
 8894SOL    HW138141   2.405   4.245   0.859 -2.4090  0.1913  0.8446
 8894SOL    HW238142   2.493   4.154   0.796  0.4191 -1.3856  1.5469
 8895SOL     OW38143   3.753   0.679   7.512  0.2457  0.2521 -0.8024
 8895SOL    HW138144   3.837   0.633   7.516  1.3811  2.3354 -0.5963
 8895SOL    HW238145   3.699   0.612   7.470  1.5377 -1.3447  0.0715
 8896SOL     OW38146   4.084   3.729   1.830  0.8044 -0.2629 -0.5529
 8896SOL    HW138147   4.013   3.775   1.876  1.3238  0.4521 -0.4661
 8896SOL    HW238148   4.117   3.668   1.896  1.9106 -1.1811 -1.9582
 8897SOL     OW38149   4.134   1.111   8.753  0.4016  0.5093 -0.2053
 8897SOL    HW138150   4.105   1.052   8.683  1.5625 -1.2809  0.8091
 8897SOL    HW238151   4.056   1.164   8.770 -0.2412 -1.8025  4.3270
 8898SOL     OW38152   3.966   2.975   0.119  0.2531 -0.1384  0.3133
 8898SOL    HW138153   4.006   3.008   0.200 -0.8670  0.8292  0.4735
 8898SOL    HW238154   3.990   2.882   0.120  1.4617  0.1751  0.1669
 8899SOL     OW38155   3.811   0.748  14.892  0.1777 -0.2181 -0.8959
 8899SOL    HW138156   3.812   0.653  14.901  1.3870 -0.2151 -0.9113
 8899SOL    HW238157   3.808   0.781  14.982  0.9000 -1.3580 -0.4619
 8900SOL     OW38158   1.716   3.213  10.407  0.6367  0.0779  0.2082
 8900SOL    HW138159   1.700   3.285  10.346 -2.5168 -1.4197 -0.7200
 8900SOL    HW238160   1.722   3.146  10.339  1.1680 -0.9589  1.2773
 8901SOL     OW38161   2.635   2.996  13.513  0.0311 -0.4244 -0.3062
 8901SOL    HW138162   2.687   2.976  13.590  1.1187  1.0347 -0.6522
 8901SOL    HW238163   2.700   3.050  13.468  0.8150 -1.1382 -0.0402
 8902SOL     OW38164   4.549   3.684  15.345  0.2675 -0.2367  0.0498
 8902SOL    HW138165   4.465   3.729  15.351  0.0189 -0.7803  0.6640
 8902SOL    HW238166   4.600   3.739  15.285  1.9421 -0.5418  1.1874
 8903SOL     OW38167   3.780   2.063   5.447 -0.2909 -0.0696  0.0085
 8903SOL    HW138168   3.855   2.043   5.390 -0.9606 -0.4043 -0.7506
 8903SOL    HW238169   3.701   2.060   5.394 -1.3074 -0.7530  1.5479
 8904SOL     OW38170   2.495   1.895   0.646  0.2733  0.5895 -0.0149
 8904SOL    HW138171   2.533   1.971   0.602  0.9489  1.1665  1.6025
 8904SOL    HW238172   2.404   1.924   0.649  0.0457  0.1105 -1.6976
 8905SOL     OW38173   0.097   3.656   7.427  0.1552 -0.4583 -0.6809
 8905SOL    HW138174   0.160   3.723   7.455  1.4937 -1.5151 -1.1630
 8905SOL    HW238175   0.113   3.582   7.485 -1.5577  1.4157  2.1763
 8906SOL     OW38176   2.773   1.617  11.858  0.1799  0.2603  0.4775
 8906SOL    HW138177   2.843   1.627  11.794  0.3284 -1.1250  0.4253
 8906SOL    HW238178   2.724   1.696  11.836  0.3311 -0.2164 -1.5662
 8907SOL     OW38179   2.818   1.455   6.024  0.2225 -0.2864  0.2209
 8907SOL    HW138180   2.841   1.410   5.942  1.6414 -1.0780  1.0637
 8907SOL    HW238181   2.861   1.396   6.085 -1.7487 -2.0003 -0.0365
 8908SOL     OW38182   3.471   0.669   8.116  0.0510 -0.5051 -0.6429
 8908SOL    HW138183   3.377   0.668   8.134  0.0441 -1.5086 -0.7535
 8908SOL    HW238184   3.468   0.577   8.092 -1.3178 -0.4185 -0.8066
 8909SOL     OW38185   2.653   2.136  16.230 -0.4684 -0.3846  0.0622
 8909SOL    HW138186   2.688   2.060  16.276  1.6503 -1.0050 -2.5560
 8909SOL    HW238187   2.597   2.174  16.298 -0.4005 -0.8343  0.3722
 8910SOL     OW38188   1.241   1.362   2.514 -0.3313 -0.0313 -0.0470
 8910SOL    HW138189   1.284   1.382   2.597 -0.0697 -0.4328 -0.0823
 8910SOL    HW238190   1.221   1.447   2.475 -0.9814  0.7113  1.9602
 8911SOL     OW38191   4.713   3.539  14.919  0.2885  0.0506  0.2870
 8911SOL    HW138192   4.677   3.473  14.860 -1.4279  0.4555  0.8720
 8911SOL    HW238193   0.053   3.487  14.967 -1.4433 -1.4772  0.9502
 8912SOL     OW38194   4.370   0.140   7.874  0.4762  0.2916  0.3326
 8912SOL    HW138195   4.423   0.060   7.866 -0.6117 -0.3045 -0.9220
 8912SOL    HW238196   4.305   0.112   7.938  0.9903  1.7566  1.4978
 8913SOL     OW38197   1.623   4.640   9.216  0.1519 -0.1550  0.1302
 8913SOL    HW138198   1.555   4.616   9.278  1.0206  1.6418  1.7801
 8913SOL    HW238199   1.560   4.668   9.150 -1.7831 -0.6763  1.7672
 8914SOL     OW38200   1.064   2.287  13.940 -0.2908  0.1058 -0.0017
 8914SOL    HW138201   1.017   2.253  14.016  0.9837 -1.1801  0.2040
 8914SOL    HW238202   0.988   2.308  13.886 -0.0648  1.5590  0.2437
 8915SOL     OW38203   0.555   4.070   0.139  0.0285  0.2084  0.0366
 8915SOL    HW138204   0.632   4.117   0.107  0.7401 -1.8332 -1.1949
 8915SOL    HW238205   0.537   4.001   0.076  2.5298 -0.3276 -0.0897
 8916SOL     OW38206   4.191   0.148   8.406  0.7049 -0.1456  0.2961
 8916SOL    HW138207   4.271   0.194   8.433  0.4144  0.9447 -0.7071
 8916SOL    HW238208   4.135   0.167   8.481 -0.0682 -0.0113 -0.3226
 8917SOL     OW38209   3.047   2.513   3.626 -0.0383 -0.3868 -0.9356
 8917SOL    HW138210   2.975   2.567   3.659 -0.0737 -0.3717 -1.0373
 8917SOL    HW238211   3.022   2.427   3.659  1.2610 -0.5243 -0.2890
 8918SOL     OW38212   1.553   4.096  10.993  0.4033  0.4061 -0.2669
 8918SOL    HW138213   1.625   4.037  11.015  0.8517  0.1717 -2.3808
 8918SOL    HW238214   1.543   4.088  10.898 -1.3973 -0.1383 -0.0331
 8919SOL     OW38215   4.712   2.613  16.285 -0.3860 -0.1778  0.4758
 8919SOL    HW138216   4.634   2.611  16.340  0.0519  0.7281  1.1189
 8919SOL    HW238217   4.680   2.654  16.205  0.2340  0.6557  0.6594
 8920SOL     OW38218   2.829   3.020   1.180 -0.7701  0.2662  0.7147
 8920SOL    HW138219   2.755   3.010   1.240 -0.7839 -1.5293  0.3743
 8920SOL    HW238220   2.813   2.948   1.120  1.0833  0.0823  0.4369
 8921SOL     OW38221   0.911   3.447   3.775 -0.6390  0.7640 -0.0535
 8921SOL    HW138222   0.926   3.542   3.773  0.4211  0.6136  0.4025
 8921SOL    HW238223   0.914   3.423   3.682 -2.7570 -0.6514  0.2484
 8922SOL     OW38224   1.326   2.375  13.114 -0.2880  0.5460 -0.4427
 8922SOL    HW138225   1.295   2.312  13.049 -0.8016  0.2068  0.1324
 8922SOL    HW238226   1.411   2.338  13.141 -0.5369  0.6173  0.4373
 8923SOL     OW38227   2.583   4.222   5.921  0.3099 -0.0376 -0.5460
 8923SOL    HW138228   2.629   4.306   5.918  0.0782  0.1060 -0.0613
 8923SOL    HW238229   2.652   4.171   5.878 -0.7497 -1.9133 -0.0455
 8924SOL     OW38230   3.428   4.140   6.834  0.2294 -0.4808  0.5465
 8924SOL    HW138231   3.486   4.180   6.769  0.0478  2.2342  2.0650
 8924SOL    HW238232   3.356   4.203   6.835 -0.0324 -0.7562 -0.7998
 8925SOL     OW38233   0.151   0.114   2.936  0.1572 -0.6543  0.0493
 8925SOL    HW138234   0.094   0.130   2.861 -0.7367  0.1292  0.8830
 8925SOL    HW238235   0.169   0.028   2.898  0.1049 -0.9056  0.5913
 8926SOL     OW38236   4.155   3.765   3.565 -0.7225 -0.2213 -0.9075
 8926SOL    HW138237   4.236   3.796   3.604 -0.5387 -0.8846 -0.7583
 8926SOL    HW238238   4.135   3.687   3.617  0.8626 -0.3116 -0.4433
 8927SOL     OW38239   0.659   4.317   2.766  0.1083  0.3106  0.0647
 8927SOL    HW138240   0.748   4.346   2.752  0.3710 -0.2138  0.6152
 8927SOL    HW238241   0.614   4.392   2.806  0.5984  0.9827 -0.6627
 8928SOL     OW38242   2.476   1.072   1.064  0.0116 -0.0269  0.2683
 8928SOL    HW138243   2.381   1.060   1.062  0.0149  0.0825 -0.7562
 8928SOL    HW238244   2.482   1.167   1.074  3.6388 -0.3071  0.4438
 8929SOL     OW38245   3.496   4.639  11.184  0.3186  0.3520 -0.3114
 8929SOL    HW138246   3.400   4.636  11.176  0.5787 -2.9683 -2.2055
 8929SOL    HW238247   3.503   4.600  11.271  2.7962  1.6749  0.0564
 8930SOL     OW38248   3.500   3.199   6.487 -0.1393 -0.3784 -0.6348
 8930SOL    HW138249   3.545   3.128   6.441  0.7297  0.7902 -1.5492
 8930SOL    HW238250   3.545   3.192   6.571 -2.1977  1.5459  0.6147
 8931SOL     OW38251   2.396   1.913   0.005  0.0097  0.3993  0.3794
 8931SOL    HW138252   2.480   1.929  17.661 -1.0094  0.5094 -1.5490
 8931SOL    HW238253   2.380   1.821  17.685  1.1551  0.3264 -0.1835
 8932SOL     OW38254   3.253   2.848   5.262  0.2160 -0.0314  0.4080
 8932SOL    HW138255   3.179   2.795   5.291  1.2579 -2.3317 -1.1162
 8932SOL    HW238256   3.302   2.842   5.344 -2.1235 -0.2463  1.7936
 8933SOL     OW38257   2.992   1.319   7.250  0.2223  0.4303 -0.6264
 8933SOL    HW138258   2.981   1.349   7.159  1.5948 -1.0539 -1.2767
 8933SOL    HW238259   3.015   1.226   7.248 -1.4437 -0.0099  0.9431
 8934SOL     OW38260   4.048   3.113  16.497  0.0491  0.0648  0.3302
 8934SOL    HW138261   4.123   3.125  16.555  0.2192 -1.8246  0.4918
 8934SOL    HW238262   4.063   3.184  16.435  1.3533 -1.6308 -1.3159
 8935SOL     OW38263   2.286   3.216   1.996  0.1855  0.1487  0.2338
 8935SOL    HW138264   2.357   3.153   1.985  0.6181  0.6687  0.0035
 8935SOL    HW238265   2.228   3.182   1.928  0.2421 -1.3972  0.9590
 8936SOL     OW38266   2.950   4.525  14.832  0.0981 -0.5432 -0.1068
 8936SOL    HW138267   2.938   4.542  14.739  0.6093 -0.1040 -0.0904
 8936SOL    HW238268   2.864   4.541  14.871  1.0691  0.9177  1.4373
 8937SOL     OW38269   4.453   1.370   3.251 -0.6824 -0.5571  0.5178
 8937SOL    HW138270   4.476   1.456   3.287  3.2567 -0.9109 -1.0542
 8937SOL    HW238271   4.364   1.369   3.216 -0.8482 -0.4831  0.9460
 8938SOL     OW38272   2.591   1.560   7.279  0.6253 -0.3477  0.2138
 8938SOL    HW138273   2.589   1.620   7.353 -0.7304 -1.0019  0.7048
 8938SOL    HW238274   2.656   1.604   7.224 -0.1644 -0.1769 -0.5723
 8939SOL     OW38275   0.274   4.491   5.349 -0.1687  0.3214  0.1004
 8939SOL    HW138276   0.279   4.420   5.414 -1.9529  1.3526  1.3773
 8939SOL    HW238277   0.365   4.476   5.325 -0.3988 -2.0212  0.6210
 8940SOL     OW38278   1.353   1.889  15.859 -0.2556 -0.3940 -0.4437
 8940SOL    HW138279   1.370   1.980  15.883  0.4623 -0.2598 -1.4723
 8940SOL    HW238280   1.438   1.863  15.894 -0.7220  0.6923  1.5508
 8941SOL     OW38281   3.183   3.845  14.068  0.9176 -0.1118  0.2221
 8941SOL    HW138282   3.203   3.855  14.161  2.3013 -1.1693  0.0450
 8941SOL    HW238283   3.088   3.844  14.070  0.8890  0.3411 -1.0960
 8942SOL     OW38284   4.194   0.476   4.853 -0.3842  0.4625  0.2906
 8942SOL    HW138285   4.137   0.405   4.823  0.8730 -0.3334 -0.2138
 8942SOL    HW238286   4.133   0.525   4.908  0.1504  0.4890  0.8579
 8943SOL     OW38287   3.035   4.289  13.052 -0.4898 -0.0312  0.5970
 8943SOL    HW138288   2.964   4.233  13.022 -0.4538  1.0682 -1.6299
 8943SOL    HW238289   3.090   4.224  13.095 -0.3954  0.5243  1.3151
 8944SOL     OW38290   2.801   3.562   4.388 -0.1638 -0.1509 -0.6880
 8944SOL    HW138291   2.748   3.641   4.402 -1.1402 -0.6888 -1.3868
 8944SOL    HW238292   2.801   3.522   4.475 -0.1497 -2.5358 -1.7837
 8945SOL     OW38293   2.517   2.715  15.419 -0.2090 -0.0978 -0.0144
 8945SOL    HW138294   2.573   2.783  15.381  1.0371 -1.7904 -1.1995
 8945SOL    HW238295   2.581   2.646  15.433  0.3558  0.3786 -0.2234
 8946SOL     OW38296   3.188   4.143   9.373  0.0386  0.7718 -0.8448
 8946SOL    HW138297   3.246   4.193   9.315 -1.5650  1.1403 -2.1475
 8946SOL    HW238298   3.253   4.098   9.426  1.0720 -1.0954 -3.6604
 8947SOL     OW38299   0.094   2.398   4.769 -0.1514  0.0037 -0.8154
 8947SOL    HW138300   0.119   2.476   4.719 -1.0485  0.0225 -1.2340
 8947SOL    HW238301   0.003   2.408   4.741 -1.0292  0.0382  2.0849
 8948SOL     OW38302   0.905   2.197  13.507 -0.8730 -0.3762 -0.4534
 8948SOL    HW138303   0.986   2.246  13.524 -1.0558  0.0306 -0.7775
 8948SOL    HW238304   0.926   2.113  13.548  0.1775  0.0250 -0.1727
 8949SOL     OW38305   2.732   0.125   3.954  0.3333  0.8721  0.0922
 8949SOL    HW138306   2.695   0.038   3.970  0.1432  0.5936 -1.8461
 8949SOL    HW238307   2.754   0.108   3.863 -2.6500 -0.1451 -0.4524
 8950SOL     OW38308   0.641   0.870   2.035  0.1651 -0.1937  0.2239
 8950SOL    HW138309   0.695   0.941   2.001 -0.2768  0.7767  1.5574
 8950SOL    HW238310   0.617   0.899   2.123 -3.7253  1.4562 -1.3720
 8951SOL     OW38311   2.112   3.231  12.802  0.2430 -0.3135  0.0986
 8951SOL    HW138312   2.034   3.179  12.823 -1.7641  1.8737 -1.9390
 8951SOL    HW238313   2.167   3.221  12.880  0.4659  0.6253  0.0650
 8952SOL     OW38314   1.045   4.407   5.689 -0.0688  0.4029 -0.3385
 8952SOL    HW138315   1.020   4.393   5.780 -2.1583 -0.3832 -1.0304
 8952SOL    HW238316   1.016   4.323   5.652  0.4349  0.7937 -1.6446
 8953SOL     OW38317   4.367   2.479   2.105 -0.0821 -0.7584  0.5179
 8953SOL    HW138318   4.396   2.527   2.027 -2.4921 -0.7380 -0.3521
 8953SOL    HW238319   4.291   2.526   2.138  0.8501  2.5454 -1.9495
 8954SOL     OW38320   0.654   3.991   6.083  0.4133 -0.2973 -0.2602
 8954SOL    HW138321   0.584   3.976   6.019 -0.6183 -1.6803  1.1794
 8954SOL    HW238322   0.632   3.934   6.156 -4.0766  2.0498  0.1992
 8955SOL     OW38323   1.280   2.942   4.153 -0.3203 -0.1967  0.0993
 8955SOL    HW138324   1.368   2.963   4.184  0.0728 -0.3122 -0.9408
 8955SOL    HW238325   1.227   2.930   4.233  0.5631 -0.9602  0.5641
 8956SOL     OW38326   1.677   3.932   2.956  0.5998 -0.4558  0.2748
 8956SOL    HW138327   1.768   3.903   2.955  0.5006 -0.7429 -1.2436
 8956SOL    HW238328   1.645   3.909   2.869 -0.5086 -0.7921  0.7691
 8957SOL     OW38329   1.551   1.135  15.999 -0.8354  0.1259  0.3677
 8957SOL    HW138330   1.619   1.195  16.029  1.3412 -2.6992  1.1277
 8957SOL    HW238331   1.485   1.203  15.998 -0.4906  0.4501 -0.2868
 8958SOL     OW38332   2.395   0.570   6.324  0.3074  0.2734 -0.0866
 8958SOL    HW138333   2.485   0.572   6.291  0.2540  1.1253 -0.2055
 8958SOL    HW238334   2.347   0.626   6.263 -1.0127 -3.2120 -2.2191
 8959SOL     OW38335   2.340   2.395   4.308  0.7944 -0.2371 -0.1849
 8959SOL    HW138336   2.365   2.367   4.396  0.0378 -2.0923 -0.5735
 8959SOL    HW238337   2.370   2.317   4.262 -1.9830 -1.7701  0.5710
 8960SOL     OW38338   2.026   4.655  14.239 -1.2144 -0.0215 -0.1329
 8960SOL    HW138339   2.061   4.665  14.328 -2.3346 -0.0561  0.3143
 8960SOL    HW238340   1.947   4.709  14.233 -2.1687 -1.4287 -0.0536
 8961SOL     OW38341   2.208   3.992   4.013  0.4493 -0.0823 -0.0674
 8961SOL    HW138342   2.187   3.978   3.921  0.4149 -2.4553  0.2959
 8961SOL    HW238343   2.296   4.029   4.009 -0.2198  1.8778  2.8334
 8962SOL     OW38344   1.186   2.702   1.947 -0.2388  0.4247  0.6331
 8962SOL    HW138345   1.259   2.763   1.937  0.7608 -0.8308  0.3245
 8962SOL    HW238346   1.231   2.619   1.930  0.6614  1.0253  0.1127
 8963SOL     OW38347   1.911   1.470   1.349 -0.0818  0.0532  0.1761
 8963SOL    HW138348   1.958   1.482   1.431  0.1976  0.6649 -0.0669
 8963SOL    HW238349   1.822   1.472   1.385  0.2176 -1.2185  0.9679
 8964SOL     OW38350   2.522   2.765  13.149 -0.3997  0.1196 -0.4290
 8964SOL    HW138351   2.427   2.755  13.152 -0.3705 -0.4791 -1.4224
 8964SOL    HW238352   2.521   2.846  13.199  0.0994 -0.3302  0.3114
 8965SOL     OW38353   0.249   4.020   7.717  0.1087  0.1864 -0.4744
 8965SOL    HW138354   0.160   4.033   7.750  0.9506 -0.5322  2.0507
 8965SOL    HW238355   0.298   4.044   7.795 -1.0244  0.8281  0.0444
 8966SOL     OW38356   1.884   2.223   8.114  0.5527 -0.2255 -0.1383
 8966SOL    HW138357   1.833   2.228   8.195 -1.7357  0.5892 -1.6349
 8966SOL    HW238358   1.960   2.176   8.147  1.3721  0.9959 -0.2860
 8967SOL     OW38359   2.654   4.499   3.599  0.0881  0.3551  0.5954
 8967SOL    HW138360   2.622   4.575   3.550  1.1473 -1.2491 -2.5778
 8967SOL    HW238361   2.744   4.507   3.567  0.0919  1.2809  0.8458
 8968SOL     OW38362   3.770   0.590   8.933 -0.5083 -0.1360 -0.4236
 8968SOL    HW138363   3.752   0.525   9.001  2.8008 -0.1678  0.4655
 8968SOL    HW238364   3.862   0.607   8.956 -0.1861 -0.6149 -1.3470
 8969SOL     OW38365   1.491   3.743   3.050  0.1278  0.2762 -0.4386
 8969SOL    HW138366   1.564   3.682   3.054 -1.0059 -0.9880  0.9946
 8969SOL    HW238367   1.535   3.825   3.026 -0.3513 -0.1646 -2.8690
 8970SOL     OW38368   4.577   0.939  14.104 -0.1886 -0.2327  0.5736
 8970SOL    HW138369   4.489   0.944  14.141  0.0733 -0.7021  1.2572
 8970SOL    HW238370   4.571   1.002  14.031 -0.8183 -0.9229  0.0382
 8971SOL     OW38371   1.258   3.096   6.199  0.0577 -0.7106 -0.0918
 8971SOL    HW138372   1.294   3.037   6.266  1.0912 -1.2716 -1.1493
 8971SOL    HW238373   1.174   3.116   6.242  1.1637 -0.1449  1.8157
 8972SOL     OW38374   3.979   2.532  11.336  0.3259  0.9509 -0.4031
 8972SOL    HW138375   4.013   2.460  11.390 -1.9755  0.6752  0.6893
 8972SOL    HW238376   3.885   2.520  11.342  0.4644 -1.2177 -2.6102
 8973SOL     OW38377   3.898   4.187  12.847 -0.2415 -0.3332  0.6595
 8973SOL    HW138378   3.918   4.136  12.925  1.0308 -0.3675  0.3073
 8973SOL    HW238379   3.958   4.145  12.785  0.6894  2.8469 -0.5833
 8974SOL     OW38380   4.311   0.915   5.844 -0.2982 -0.3446 -0.1990
 8974SOL    HW138381   4.307   0.945   5.935 -0.4456  3.3981 -1.4432
 8974SOL    HW238382   4.370   0.978   5.803 -0.3388 -0.1944 -0.0281
 8975SOL     OW38383   0.421   1.279   5.262 -0.0138 -0.2767 -0.0904
 8975SOL    HW138384   0.397   1.362   5.304 -0.1493 -0.9472  1.1487
 8975SOL    HW238385   0.362   1.215   5.301  1.1089 -0.3906  1.4650
 8976SOL     OW38386   4.146   1.786   3.283  0.1325 -0.3311  0.0260
 8976SOL    HW138387   4.142   1.826   3.370 -3.1267  1.3311 -0.9073
 8976SOL    HW238388   4.219   1.835   3.245 -1.5529  2.9513  1.0551
 8977SOL     OW38389   3.669   4.241   3.908  0.1685  0.0256 -0.3004
 8977SOL    HW138390   3.615   4.221   3.984  3.6147 -0.2457  2.0833
 8977SOL    HW238391   3.706   4.153   3.898 -0.5267 -0.0458 -2.2321
 8978SOL     OW38392   3.433   1.146   5.038  0.4495  0.0586 -0.6329
 8978SOL    HW138393   3.519   1.185   5.022  0.5333  0.2165  0.1997
 8978SOL    HW238394   3.454   1.070   5.093  0.2427  0.8951  0.6188
 8979SOL     OW38395   2.286   0.438   4.031 -0.4805 -0.2538 -0.4363
 8979SOL    HW138396   2.345   0.513   4.035  0.0804 -0.6732 -0.8744
 8979SOL    HW238397   2.216   0.478   3.978 -2.0950 -1.3830  0.8473
 8980SOL     OW38398   3.121   3.792   9.196 -0.3799 -0.2453 -0.0840
 8980SOL    HW138399   3.032   3.815   9.223 -0.9060  0.2031 -2.2184
 8980SOL    HW238400   3.177   3.849   9.249 -1.2781  0.8579 -0.3333
 8981SOL     OW38401   2.471   4.564   7.212 -0.3275  0.1906 -0.2186
 8981SOL    HW138402   2.439   4.594   7.127 -0.6276 -0.2192 -0.2457
 8981SOL    HW238403   2.564   4.565   7.187 -0.0922 -0.1160  0.6675
 8982SOL     OW38404   0.157   2.801   3.715  0.3665 -0.5222  0.1924
 8982SOL    HW138405   0.122   2.725   3.668 -0.1531 -0.5040  0.5556
 8982SOL    HW238406   0.074   2.835   3.750  0.0039 -2.4772  1.1819
 8983SOL     OW38407   0.185   1.601   2.680 -0.0397 -0.7646  1.1037
 8983SOL    HW138408   0.181   1.657   2.758  3.7788 -1.6689  1.9532
 8983SOL    HW238409   0.174   1.672   2.616  1.2743 -0.8916  0.7398
 8984SOL     OW38410   0.044   3.392   2.045  0.4539 -0.2777  0.4959
 8984SOL    HW138411   0.076   3.481   2.036  0.5434 -0.3564  0.0236
 8984SOL    HW238412   4.684   3.407   2.003  0.9590  0.2525 -0.3265
 8985SOL     OW38413   1.859   4.582  17.675 -0.0014 -0.0270  0.7322
 8985SOL    HW138414   1.853   4.588   0.071  1.5594  2.5900  0.6644
 8985SOL    HW238415   1.765   4.586  17.656  0.4270 -0.8987 -1.5180
 8986SOL     OW38416   1.301   0.005   2.084 -0.0217  0.3818 -0.0856
 8986SOL    HW138417   1.341   0.072   2.028 -0.4473 -0.3430 -1.2533
 8986SOL    HW238418   1.319   0.047   2.167  2.0718  1.4271 -1.0578
 8987SOL     OW38419   1.644   3.690   6.725  0.0943 -0.1988 -0.0611
 8987SOL    HW138420   1.686   3.615   6.766 -1.7890 -1.5473 -0.5600
 8987SOL    HW238421   1.610   3.738   6.801  0.9455  1.9401 -1.0206
 8988SOL     OW38422   2.771   4.213   0.173  0.2830 -0.5921 -0.1388
 8988SOL    HW138423   2.702   4.148   0.177 -0.0405 -0.1125  1.9802
 8988SOL    HW238424   2.771   4.227   0.078  1.9120 -1.7820 -0.3143
 8989SOL     OW38425   2.391   2.409  14.365 -0.0585  0.5648 -0.0498
 8989SOL    HW138426   2.422   2.376  14.281 -0.3298 -0.7790  0.3803
 8989SOL    HW238427   2.461   2.473  14.375  0.6539  0.0334 -1.6260
 8990SOL     OW38428   3.793   3.351   2.427  0.1787  0.1359  0.0100
 8990SOL    HW138429   3.857   3.282   2.446  0.0901  0.1574  0.3877
 8990SOL    HW238430   3.712   3.309   2.456  0.2830 -0.4862 -0.5913
 8991SOL     OW38431   3.916   3.253   5.551 -0.7540  0.5316 -0.1972
 8991SOL    HW138432   3.908   3.292   5.464 -3.1615  1.0656  0.2659
 8991SOL    HW238433   3.858   3.313   5.597  1.7337  1.3716  1.8227
 8992SOL     OW38434   3.436   2.097   6.455  0.0341 -0.1433 -0.8330
 8992SOL    HW138435   3.425   2.117   6.548  1.2737  0.6526 -0.8524
 8992SOL    HW238436   3.426   2.001   6.455  0.3879 -0.1807 -0.5290
 8993SOL     OW38437   1.619   3.344   1.303  0.0338 -0.2640  0.1824
 8993SOL    HW138438   1.596   3.389   1.222 -0.1164 -0.2895  0.2123
 8993SOL    HW238439   1.541   3.291   1.319 -0.1013  0.5855  2.3547
 8994SOL     OW38440   4.205   3.087   7.037  0.1410 -0.5424 -0.1882
 8994SOL    HW138441   4.217   3.078   6.942 -1.6328  0.8055 -0.5348
 8994SOL    HW238442   4.295   3.097   7.069  0.0201  0.3845 -0.1472
 8995SOL     OW38443   2.321   0.579  15.544  0.2093  0.1325  0.0294
 8995SOL    HW138444   2.353   0.619  15.463 -0.1071  2.3001  0.9769
 8995SOL    HW238445   2.385   0.513  15.572 -1.3527 -1.4511 -0.1041
 8996SOL     OW38446   3.635   2.896  15.987 -0.1380 -0.1847 -0.3182
 8996SOL    HW138447   3.563   2.841  15.956 -0.1898  0.2214 -0.9383
 8996SOL    HW238448   3.632   2.873  16.079 -0.6882 -1.3253 -0.6125
 8997SOL     OW38449   2.811   4.246   3.796 -0.3033  0.0880 -0.0609
 8997SOL    HW138450   2.770   4.236   3.710 -1.9685  3.0003  0.3883
 8997SOL    HW238451   2.771   4.171   3.841 -0.7960  1.6494  2.1267
 8998SOL     OW38452   0.284   2.813   4.584  0.0734 -0.0096 -0.3120
 8998SOL    HW138453   0.364   2.770   4.616  0.7728  0.7910 -0.9777
 8998SOL    HW238454   0.282   2.765   4.501  1.4147 -0.1456 -0.2743
 8999SOL     OW38455   2.719   3.663  15.164 -0.1163  0.7254  0.5672
 8999SOL    HW138456   2.807   3.698  15.155  0.2127  0.0371  1.0754
 8999SOL    HW238457   2.715   3.640  15.256  0.2726 -0.6006  0.2551
 9000SOL     OW38458   3.015   1.151  12.267 -0.6681  0.4899 -0.0826
 9000SOL    HW138459   3.080   1.086  12.290  0.7690  2.0433  0.2498
 9000SOL    HW238460   2.949   1.105  12.215 -0.7080  1.3811 -0.8323
 9001SOL     OW38461   0.503   3.881   5.333  0.1836 -0.4633 -0.2757
 9001SOL    HW138462   0.521   3.789   5.349  0.0408 -0.8116 -2.1265
 9001SOL    HW238463   0.415   3.880   5.295 -0.3129  3.0279  0.7115
 9002SOL     OW38464   1.233   0.430   5.625 -0.1329 -0.0824  0.1435
 9002SOL    HW138465   1.293   0.463   5.559  3.4641  0.7400  3.8188
 9002SOL    HW238466   1.282   0.412   5.705 -0.4374 -2.1201 -0.1201
 9003SOL     OW38467   3.871   0.929   0.872 -0.7218 -0.3082  0.0302
 9003SOL    HW138468   3.870   0.940   0.777  2.2500 -0.6771 -0.0388
 9003SOL    HW238469   3.804   0.986   0.910 -2.5454 -1.7555 -0.9775
 9004SOL     OW38470   3.005   4.135   0.296  0.7141 -1.0966  0.1966
 9004SOL    HW138471   3.074   4.120   0.231  1.9574  2.7924  0.6524
 9004SOL    HW238472   2.934   4.163   0.239  0.3830 -0.5127  0.8964
 9005SOL     OW38473   0.174   4.616   1.092 -0.2558  0.5131  0.0503
 9005SOL    HW138474   0.200   4.664   1.171 -1.6565  1.5012 -0.0872
 9005SOL    HW238475   0.224   4.660   1.024  0.9320  0.8970  1.1739
 9006SOL     OW38476   1.718   2.412  14.130 -0.3080 -0.0432  0.2367
 9006SOL    HW138477   1.763   2.361  14.063 -2.0212  1.2806 -1.9124
 9006SOL    HW238478   1.719   2.352  14.205 -0.5869  0.7700  0.8992
 9007SOL     OW38479   0.453   4.166  11.918 -0.3966 -0.0036 -0.2403
 9007SOL    HW138480   0.435   4.229  11.849  1.1460  1.0002  0.2615
 9007SOL    HW238481   0.486   4.217  11.992 -2.6692  1.0374  0.0579
 9008SOL     OW38482   3.443   0.576   6.330  0.0853 -0.2533 -0.6226
 9008SOL    HW138483   3.477   0.603   6.245 -0.2497 -0.5545 -0.8555
 9008SOL    HW238484   3.524   0.595   6.377  1.4249 -2.3608 -2.0438
 9009SOL     OW38485   0.810   3.505   2.709  0.2533 -0.0128 -0.6071
 9009SOL    HW138486   0.829   3.419   2.671  0.0282  0.5321 -1.9524
 9009SOL    HW238487   0.787   3.563   2.636  1.1966  1.1265 -0.0151
 9010SOL     OW38488   2.583   0.240   7.674 -0.2954 -0.1997  0.0059
 9010SOL    HW138489   2.498   0.209   7.643 -0.1607 -0.0074 -0.5586
 9010SOL    HW238490   2.642   0.165   7.666 -0.9715 -0.7964  0.6273
 9011SOL     OW38491   1.783   2.108   1.254 -0.2913  0.2422  0.4876
 9011SOL    HW138492   1.837   2.039   1.293 -0.4527 -0.4379 -0.4735
 9011SOL    HW238493   1.830   2.139   1.176 -2.4788  1.7276 -0.2117
 9012SOL     OW38494   2.716   1.327  11.898 -0.4991 -0.6679 -0.1742
 9012SOL    HW138495   2.749   1.333  11.988 -0.2857  1.0935 -0.3807
 9012SOL    HW238496   2.727   1.415  11.862 -0.2748  0.3064  2.2745
 9013SOL     OW38497   3.381   0.390   5.802  0.0857 -0.0513 -0.0683
 9013SOL    HW138498   3.380   0.466   5.744  0.7148  0.7468  0.9666
 9013SOL    HW238499   3.293   0.383   5.839 -0.0171  0.8171 -0.1546
 9014SOL     OW38500   2.478   0.438  13.673  0.2989 -0.1657 -0.0244
 9014SOL    HW138501   2.532   0.507  13.711 -0.0061  0.9532 -1.5978
 9014SOL    HW238502   2.404   0.495  13.653  0.6447  0.1571 -0.3970
 9015SOL     OW38503   3.059   1.877  15.865 -0.1974 -0.1699 -0.4467
 9015SOL    HW138504   3.142   1.854  15.906 -1.1775 -1.8405  0.5873
 9015SOL    HW238505   3.022   1.789  15.856  1.7312 -1.0272 -0.0387
 9016SOL     OW38506   2.151   2.880   1.653 -0.7929 -0.0046 -0.4101
 9016SOL    HW138507   2.063   2.843   1.660 -1.5703  2.0616  0.4776
 9016SOL    HW238508   2.129   2.972   1.638  1.7560  0.4013 -1.7158
 9017SOL     OW38509   4.672   1.837  14.726  0.1768  0.5031  0.3244
 9017SOL    HW138510   4.675   1.803  14.637  1.8680  2.3034 -0.2941
 9017SOL    HW238511   4.669   1.930  14.706 -0.8254  0.1959 -0.8816
 9018SOL     OW38512   2.199   2.118   3.582 -0.2960 -0.3069 -1.0441
 9018SOL    HW138513   2.268   2.159   3.633 -0.2106  0.2898 -1.6351
 9018SOL    HW238514   2.137   2.191   3.592  1.0852  0.5094  1.4332
 9019SOL     OW38515   4.602   3.145   3.567 -0.0718  0.0192 -0.4874
 9019SOL    HW138516   4.680   3.101   3.534  0.3701  2.1881 -2.3579
 9019SOL    HW238517   4.638   3.234   3.563 -0.6048  0.4289  3.5141
 9020SOL     OW38518   3.741   1.690   4.996  0.8459  0.2228 -0.2531
 9020SOL    HW138519   3.810   1.690   4.930  3.0735 -3.3165  2.0405
 9020SOL    HW238520   3.659   1.693   4.947  1.1825 -1.7551 -0.9239
 9021SOL     OW38521   3.184   2.419   2.356 -0.3105 -0.2649  0.2073
 9021SOL    HW138522   3.265   2.453   2.319  0.5293  0.4432  2.6950
 9021SOL    HW238523   3.145   2.393   2.273  2.7538 -1.0109 -1.0064
 9022SOL     OW38524   1.935   3.930   8.454  0.0789  0.1666 -0.1057
 9022SOL    HW138525   1.988   4.009   8.463 -0.5513  0.5755  0.0657
 9022SOL    HW238526   1.848   3.963   8.478  0.7644  1.0396  1.1885
 9023SOL     OW38527   0.718   3.478   8.597 -0.1280  0.1209  0.2937
 9023SOL    HW138528   0.683   3.402   8.643  1.8573 -0.6823  0.4663
 9023SOL    HW238529   0.668   3.467   8.516 -0.0418 -2.5107  0.6061
 9024SOL     OW38530   2.514   2.142   5.456 -0.1539  0.0869 -0.0420
 9024SOL    HW138531   2.501   2.094   5.373 -0.7931 -1.0430  0.7069
 9024SOL    HW238532   2.584   2.090   5.495 -0.0091 -0.4840 -1.0492
 9025SOL     OW38533   3.496   3.339  11.949 -0.3922 -0.1557 -0.3728
 9025SOL    HW138534   3.505   3.275  11.879  0.4092 -0.1827 -0.2456
 9025SOL    HW238535   3.502   3.287  12.029  1.6256  1.7236  0.7265
 9026SOL     OW38536   4.200   2.035   1.909  0.1586  0.2255  0.1150
 9026SOL    HW138537   4.205   1.983   1.829 -1.7824  0.1052  0.0730
 9026SOL    HW238538   4.287   2.072   1.918 -1.3809  3.6240  1.0840
 9027SOL     OW38539   1.983   0.286   6.471 -0.2867 -0.0413  0.1959
 9027SOL    HW138540   1.976   0.198   6.509 -1.9746  0.1072  0.2455
 9027SOL    HW238541   2.057   0.271   6.413 -0.5973  0.1997 -0.2632
 9028SOL     OW38542   1.843   4.347  14.641 -0.5220  0.9404 -0.3096
 9028SOL    HW138543   1.857   4.414  14.708  0.3466  0.1863  0.2504
 9028SOL    HW238544   1.909   4.388  14.585 -0.1173 -1.4436 -1.5672
 9029SOL     OW38545   2.068   3.364   7.519  0.3657 -0.1007 -0.2397
 9029SOL    HW138546   2.016   3.391   7.444 -0.8362  2.4234  1.4894
 9029SOL    HW238547   2.087   3.450   7.557  0.9580 -1.0130  1.5293
 9030SOL     OW38548   2.530   4.426   8.854 -0.3653 -0.0614  0.1706
 9030SOL    HW138549   2.536   4.361   8.923  1.7889  0.2368  0.2440
 9030SOL    HW238550   2.588   4.498   8.878  1.4671 -1.3894 -0.3380
 9031SOL     OW38551   1.225   1.374   1.717 -0.1514  0.1454  0.3852
 9031SOL    HW138552   1.188   1.462   1.721  0.9373  0.4642  3.5489
 9031SOL    HW238553   1.180   1.320   1.782 -0.5213  2.3586  1.9495
 9032SOL     OW38554   1.579   3.523  11.869  0.5053 -0.3813 -0.0425
 9032SOL    HW138555   1.604   3.511  11.960 -0.6240  2.3848  0.6514
 9032SOL    HW238556   1.629   3.451  11.833  2.3841 -1.4386  4.7790
 9033SOL     OW38557   2.559   3.939   7.545  0.3155  0.4150  0.1222
 9033SOL    HW138558   2.575   3.849   7.517 -0.7959 -0.0936  1.1060
 9033SOL    HW238559   2.476   3.931   7.591  0.3558 -0.8519 -0.0137
 9034SOL     OW38560   0.990   0.455  11.811 -0.2427 -0.1232 -0.3711
 9034SOL    HW138561   0.920   0.473  11.748 -2.1599  1.4683  2.1954
 9034SOL    HW238562   0.948   0.408  11.884 -1.1505 -1.3312 -1.6669
 9035SOL     OW38563   3.896   2.823   4.939  0.7706  0.0583 -0.8586
 9035SOL    HW138564   3.837   2.888   4.902  0.2161  0.4898  0.7817
 9035SOL    HW238565   3.890   2.838   5.034  0.5739 -0.3959 -0.7984
 9036SOL     OW38566   0.825   4.085   5.102  0.0839 -0.4491 -0.1938
 9036SOL    HW138567   0.758   4.130   5.153  0.3081  2.4060 -2.4228
 9036SOL    HW238568   0.827   3.997   5.141  1.3648 -1.0213 -1.5372
 9037SOL     OW38569   3.317   2.406   7.691  0.6063 -0.4554  0.1200
 9037SOL    HW138570   3.243   2.421   7.751 -1.7719 -2.7386 -2.2098
 9037SOL    HW238571   3.286   2.446   7.610 -0.0273 -0.2654  0.4509
 9038SOL     OW38572   2.487   4.450   6.169 -0.0879  0.4621  0.0350
 9038SOL    HW138573   2.435   4.378   6.133 -2.2050  1.2476  1.5191
 9038SOL    HW238574   2.459   4.528   6.122  1.0023  0.5095 -0.5509
 9039SOL     OW38575   2.116   4.662   7.042  0.7120 -0.0419  0.6928
 9039SOL    HW138576   2.124   4.724   6.969  0.2823  0.1235  0.7829
 9039SOL    HW238577   2.185   4.691   7.102  0.0710 -0.3525  1.5891
 9040SOL     OW38578   3.561   4.336   6.690  0.2597 -0.5504 -0.3739
 9040SOL    HW138579   3.579   4.277   6.617  0.5717 -0.9717  0.0400
 9040SOL    HW238580   3.623   4.405   6.665 -1.8890  0.7953 -1.9075
 9041SOL     OW38581   3.460   1.847   6.215  0.5794  0.0699  0.3923
 9041SOL    HW138582   3.464   1.756   6.245 -2.8839 -0.9675 -2.2786
 9041SOL    HW238583   3.512   1.898   6.277  1.5481  1.6278 -1.6913
 9042SOL     OW38584   4.344   1.251   1.756 -0.2847  0.3331 -0.4834
 9042SOL    HW138585   4.327   1.294   1.672  1.9149 -0.8458 -1.5164
 9042SOL    HW238586   4.386   1.167   1.736 -0.6225  0.2605 -0.8987
 9043SOL     OW38587   1.250   4.427   6.787  0.2355  0.1325  0.2097
 9043SOL    HW138588   1.295   4.501   6.828  1.8531 -0.8777  0.2694
 9043SOL    HW238589   1.325   4.407   6.731  0.3142  1.1518 -0.0533
 9044SOL     OW38590   3.942   2.441   6.119 -0.7936 -0.4223  0.5557
 9044SOL    HW138591   3.912   2.482   6.038  0.5062 -1.1695 -0.3026
 9044SOL    HW238592   3.913   2.350   6.114 -1.4973 -0.1128 -0.8313
 9045SOL     OW38593   1.053   4.020   3.171 -0.3097 -0.0222 -0.0839
 9045SOL    HW138594   0.996   4.095   3.189 -2.5511 -1.8085  0.3219
 9045SOL    HW238595   1.003   3.981   3.099  0.7500 -0.2144 -0.7090
 9046SOL     OW38596   3.451   3.216   0.346  0.3110  0.1137 -0.9485
 9046SOL    HW138597   3.479   3.282   0.283  1.3458  2.7375  2.2385
 9046SOL    HW238598   3.489   3.142   0.300 -1.5749 -0.1430 -2.0992
 9047SOL     OW38599   0.537   1.673   7.778  0.6154 -0.2304 -0.3533
 9047SOL    HW138600   0.557   1.686   7.870 -0.8150  0.7366 -0.1664
 9047SOL    HW238601   0.556   1.581   7.759  0.9953  1.0036 -6.2025
 9048SOL     OW38602   3.505   2.638   2.780 -0.1429 -0.8605 -0.4237
 9048SOL    HW138603   3.513   2.544   2.767 -1.5039 -0.9688 -0.4184
 9048SOL    HW238604   3.438   2.649   2.713 -1.7465 -0.5369  1.2356
 9049SOL     OW38605   0.673   3.140   5.940 -0.3990 -0.1358 -0.1614
 9049SOL    HW138606   0.614   3.081   5.894  0.9991 -1.1553 -0.6222
 9049SOL    HW238607   0.755   3.091   5.942 -1.5701 -2.2855 -4.0154
 9050SOL     OW38608   2.662   2.677   5.197 -0.3910 -0.3527  0.1081
 9050SOL    HW138609   2.723   2.749   5.182 -1.3579  0.2692 -0.8969
 9050SOL    HW238610   2.706   2.605   5.242  0.4922  0.3356  0.3369
 9051SOL     OW38611   2.800   3.497   3.663 -0.1021 -0.5868 -0.5311
 9051SOL    HW138612   2.813   3.402   3.671  0.2215 -0.8097 -3.6735
 9051SOL    HW238613   2.708   3.497   3.636 -0.6451  0.9246  1.3156
 9052SOL     OW38614   0.597   4.143  12.747 -0.0138 -0.1168 -0.3622
 9052SOL    HW138615   0.517   4.192  12.768 -0.5840 -0.6801 -1.1904
 9052SOL    HW238616   0.607   4.093  12.828  3.0282 -0.5144 -0.9912
 9053SOL     OW38617   2.590   0.536   7.296 -0.2942 -0.4565 -0.4435
 9053SOL    HW138618   2.570   0.622   7.333 -0.2165 -0.7159  0.1975
 9053SOL    HW238619   2.673   0.559   7.255 -0.2103 -0.8154 -0.4699
 9054SOL     OW38620   4.319   4.225   0.047 -0.7706 -0.4227 -0.0098
 9054SOL    HW138621   4.308   4.162   0.118 -2.3680  0.7786  0.8153
 9054SOL    HW238622   4.326   4.308   0.094 -3.9880 -1.5203  2.3859
 9055SOL     OW38623   2.764   0.697   1.902 -0.0977  0.2070 -0.3267
 9055SOL    HW138624   2.738   0.707   1.993 -1.4177  0.0648 -0.6811
 9055SOL    HW238625   2.729   0.780   1.868 -1.1610 -0.3334 -0.5567
 9056SOL     OW38626   0.574   2.599   7.058  0.4918  0.0818 -1.1046
 9056SOL    HW138627   0.533   2.517   7.086 -1.3368  1.2193 -0.4310
 9056SOL    HW238628   0.549   2.656   7.130  1.3807  0.8728 -1.4262
 9057SOL     OW38629   0.894   2.857  12.540 -0.4938  0.0631 -0.3129
 9057SOL    HW138630   0.825   2.916  12.510 -0.9741  1.2991  3.1514
 9057SOL    HW238631   0.855   2.847  12.627 -0.1050 -0.0895 -0.1576
 9058SOL     OW38632   0.493   1.282   8.402 -0.0766 -0.5184  0.0845
 9058SOL    HW138633   0.516   1.246   8.487 -1.1310  0.8493  0.9533
 9058SOL    HW238634   0.505   1.211   8.339  2.0704  0.2138 -0.3193
 9059SOL     OW38635   1.548   4.426  11.887  0.0647 -0.3647 -0.0836
 9059SOL    HW138636   1.579   4.380  11.808 -0.2578 -0.2407 -0.2815
 9059SOL    HW238637   1.456   4.403  11.883 -0.2588  0.6214  2.0975
 9060SOL     OW38638   0.160   3.360   1.421  0.0008 -0.6832  0.6007
 9060SOL    HW138639   0.242   3.344   1.375 -0.5644  1.9449 -1.3690
 9060SOL    HW238640   0.185   3.352   1.513  0.8124 -2.4777  0.2207
 9061SOL     OW38641   2.718   1.612  17.652 -0.0120 -0.3974  0.6479
 9061SOL    HW138642   2.709   1.631   0.046 -0.0285 -0.8527  0.7399
 9061SOL    HW238643   2.628   1.626  17.622  1.1893  3.4779 -1.1766
 9062SOL     OW38644   3.247   0.693  16.553 -0.6105  0.2978  0.6125
 9062SOL    HW138645   3.158   0.728  16.547 -0.1658  1.2587 -0.3762
 9062SOL    HW238646   3.253   0.709  16.648 -0.6662 -0.5158  0.7485
 9063SOL     OW38647   2.970   0.987  12.848  0.6002 -0.0495 -0.0930
 9063SOL    HW138648   2.924   0.923  12.902 -0.6798  1.9609  1.2091
 9063SOL    HW238649   2.904   1.049  12.816  0.6521 -0.7432 -1.5381
 9064SOL     OW38650   1.407   3.306   7.529  0.2668  0.4670 -0.3278
 9064SOL    HW138651   1.330   3.334   7.579  0.4915 -0.5627  0.5973
 9064SOL    HW238652   1.484   3.343   7.572  0.6409  1.1449 -1.6007
 9065SOL     OW38653   3.586   2.308   7.867  0.3642 -0.0288  0.4868
 9065SOL    HW138654   3.558   2.227   7.824 -1.0512  0.8805 -0.2808
 9065SOL    HW238655   3.546   2.287   7.951 -1.1559 -3.1115 -1.0103
 9066SOL     OW38656   1.563   4.541   3.652 -0.0133  0.1949  0.3943
 9066SOL    HW138657   1.610   4.619   3.680 -0.5426  0.7270 -0.2337
 9066SOL    HW238658   1.634   4.481   3.629 -0.3963 -0.3700  0.6793
 9067SOL     OW38659   1.810   3.921   6.352 -0.1112  0.6323 -0.4684
 9067SOL    HW138660   1.875   3.942   6.286  0.6503  2.2128  0.7794
 9067SOL    HW238661   1.740   3.880   6.301  0.0705  0.9842 -1.0042
 9068SOL     OW38662   0.926   1.970  10.559  0.6210  0.0889 -0.0767
 9068SOL    HW138663   0.860   2.025  10.518 -0.0767 -1.9319 -1.6972
 9068SOL    HW238664   0.980   2.028  10.613  1.2592  1.2807 -2.0246
 9069SOL     OW38665   2.314   0.761   8.324 -0.2481  0.1897 -0.4639
 9069SOL    HW138666   2.276   0.712   8.251 -3.0613 -1.5645  2.1872
 9069SOL    HW238667   2.284   0.850   8.308 -2.7493 -0.7232 -0.8807
 9070SOL     OW38668   2.587   0.098   4.850  0.3184  0.4347 -0.4699
 9070SOL    HW138669   2.591   0.176   4.794  1.5540  1.6196  1.2687
 9070SOL    HW238670   2.666   0.111   4.903 -1.4582  0.7639  2.0860
 9071SOL     OW38671   0.904   1.635   7.266 -0.1962  0.2029 -0.0287
 9071SOL    HW138672   0.998   1.648   7.251 -0.1779  0.8837  0.6550
 9071SOL    HW238673   0.892   1.542   7.284 -1.8091 -0.3684 -4.0902
 9072SOL     OW38674   3.878   1.706  13.393 -0.0272  0.7855 -0.0684
 9072SOL    HW138675   3.809   1.676  13.453 -0.2813 -1.5637 -1.4898
 9072SOL    HW238676   3.830   1.738  13.316 -0.4447  0.0016 -0.1400
 9073SOL     OW38677   4.712   3.487   8.660 -0.0021 -0.2582  0.2513
 9073SOL    HW138678   0.021   3.425   8.725  1.2013  0.7652  0.6004
 9073SOL    HW238679   0.051   3.558   8.662 -0.6385  0.2715  1.1768
 9074SOL     OW38680   2.411   0.672   1.584  0.1268 -0.2151 -0.7437
 9074SOL    HW138681   2.460   0.603   1.538 -0.4367 -0.5113 -0.8974
 9074SOL    HW238682   2.449   0.745   1.535  1.0433 -0.4816 -0.4294
 9075SOL     OW38683   2.882   4.602   6.575 -0.0378  0.3447  0.5633
 9075SOL    HW138684   2.977   4.616   6.569 -0.5455  2.9952 -1.3020
 9075SOL    HW238685   2.845   4.676   6.526  3.1687  1.0187 -0.8747
 9076SOL     OW38686   0.377   2.177   5.204 -0.7124  0.0550 -0.5274
 9076SOL    HW138687   0.320   2.244   5.165  0.4703  1.4994  0.2186
 9076SOL    HW238688   0.336   2.176   5.290  0.3691  0.3961 -0.0052
 9077SOL     OW38689   2.617   0.920   1.872  0.1317  0.1319  0.4882
 9077SOL    HW138690   2.574   0.917   1.957  0.5630 -1.4184  0.6508
 9077SOL    HW238691   2.530   0.928   1.833 -0.0403  0.8065  0.9988
 9078SOL     OW38692   0.084   1.314   4.679 -0.1870  0.2269 -0.1247
 9078SOL    HW138693   0.040   1.232   4.703  1.9718 -0.1468  2.5570
 9078SOL    HW238694   0.085   1.355   4.765 -0.9979 -1.5231  0.7214
 9079SOL     OW38695   4.308   2.302  15.344 -0.1563 -0.0541 -0.4659
 9079SOL    HW138696   4.298   2.258  15.429  0.0315  1.4248  0.3192
 9079SOL    HW238697   4.261   2.384  15.360 -1.0147 -0.9078  1.3733
 9080SOL     OW38698   2.113   2.370   2.641 -0.0965 -0.4458 -0.1941
 9080SOL    HW138699   2.185   2.432   2.634  1.7555 -2.4546  0.9416
 9080SOL    HW238700   2.080   2.379   2.551  0.3220 -1.0401 -0.4088
 9081SOL     OW38701   2.458   2.930   2.687 -0.1333 -0.3753  0.1268
 9081SOL    HW138702   2.438   2.896   2.775 -0.1223  2.4893  1.2451
 9081SOL    HW238703   2.471   3.024   2.702 -0.1654 -0.7043  2.2502
 9082SOL     OW38704   3.975   0.395  17.453  0.2561  0.2608 -0.4717
 9082SOL    HW138705   3.991   0.481  17.413  0.4101 -0.0442 -1.0728
 9082SOL    HW238706   4.065   0.361  17.458 -0.3469 -1.1074  0.9123
 9083SOL     OW38707   0.406   2.387   4.128 -0.1713  0.0554  0.7778
 9083SOL    HW138708   0.353   2.420   4.201 -0.9636 -2.1002  1.1593
 9083SOL    HW238709   0.478   2.450   4.127 -0.1159 -0.1041 -2.6744
 9084SOL     OW38710   3.379   3.326   3.216  0.2018 -0.3009  0.1069
 9084SOL    HW138711   3.338   3.360   3.136  0.0717 -0.1770  0.2284
 9084SOL    HW238712   3.450   3.390   3.215  0.7102 -0.8780 -0.9659
 9085SOL     OW38713   0.449   4.008   7.903  0.0519 -0.1496  0.5228
 9085SOL    HW138714   0.488   3.932   7.947  0.5717 -0.5997 -0.7095
 9085SOL    HW238715   0.517   4.007   7.836 -1.4592 -1.8384 -0.9570
 9086SOL     OW38716   0.507   4.533   2.853 -0.7568 -0.3212  0.0722
 9086SOL    HW138717   0.417   4.527   2.822 -0.8875  1.7013  0.1048
 9086SOL    HW238718   0.546   4.586   2.784 -0.9631 -1.4993 -0.9629
 9087SOL     OW38719   1.928   1.781   3.359  0.8383  0.1547  0.6152
 9087SOL    HW138720   1.867   1.815   3.424 -1.1385 -1.2611 -0.5282
 9087SOL    HW238721   2.009   1.832   3.367  3.0133 -3.0850 -0.5382
 9088SOL     OW38722   4.359   1.843  16.520  0.2463  0.0686 -0.2420
 9088SOL    HW138723   4.358   1.780  16.592  2.7194  1.2688  0.8405
 9088SOL    HW238724   4.448   1.832  16.489  0.0450 -3.1877  0.3218
 9089SOL     OW38725   1.706   4.344   2.143 -0.4831  0.0955  0.6308
 9089SOL    HW138726   1.639   4.406   2.116  0.1282  2.0561  3.7095
 9089SOL    HW238727   1.738   4.310   2.060 -0.7715 -1.0265  0.9664
 9090SOL     OW38728   2.329   3.220   3.208  0.2157 -0.3130  0.8675
 9090SOL    HW138729   2.401   3.176   3.254  2.6327  2.0599 -0.7125
 9090SOL    HW238730   2.371   3.240   3.125  0.9171 -1.5115  0.9241
 9091SOL     OW38731   4.014   3.662   9.055 -0.3823 -0.3964  0.1257
 9091SOL    HW138732   4.081   3.674   8.988  1.6412  0.2575  2.2583
 9091SOL    HW238733   3.964   3.587   9.022  1.0463 -1.7263  0.9785
 9092SOL     OW38734   2.729   1.162  16.550  0.3768 -0.2244  0.1376
 9092SOL    HW138735   2.696   1.177  16.462 -2.9831 -2.2565  1.0848
 9092SOL    HW238736   2.695   1.245  16.585 -0.1659 -0.8948  1.1981
 9093SOL     OW38737   3.911   2.227   5.811 -0.0606  0.0721 -0.0947
 9093SOL    HW138738   3.863   2.309   5.817 -1.1599 -0.5370 -0.5180
 9093SOL    HW238739   3.986   2.257   5.759  1.1686 -0.2624  1.5056
 9094SOL     OW38740   4.531   0.884   5.309  0.1052  0.4699 -0.6424
 9094SOL    HW138741   4.477   0.830   5.366 -2.0348  1.3025 -1.8915
 9094SOL    HW238742   4.458   0.927   5.265 -0.9520 -0.3099  0.3650
 9095SOL     OW38743   3.626   0.880   3.370 -0.0878 -0.4002  0.0428
 9095SOL    HW138744   3.642   0.975   3.377  1.6400 -0.5347 -1.9186
 9095SOL    HW238745   3.613   0.867   3.276  0.3683 -2.0676  0.2131
 9096SOL     OW38746   2.270   0.587   7.839  0.0663  0.4403 -0.3628
 9096SOL    HW138747   2.277   0.525   7.767 -0.1514 -0.3519  0.2940
 9096SOL    HW238748   2.268   0.667   7.786 -1.3168 -0.0515 -1.0337
 9097SOL     OW38749   0.899   2.162   0.646  0.2222 -0.1744 -0.5409
 9097SOL    HW138750   0.909   2.080   0.694 -0.9069 -0.5206 -0.8994
 9097SOL    HW238751   0.806   2.157   0.623  0.6510  0.6549 -2.4317
 9098SOL     OW38752   0.887   2.922  12.803 -0.3764 -0.1854 -0.1630
 9098SOL    HW138753   0.901   3.007  12.845  2.0481  0.3116 -1.9968
 9098SOL    HW238754   0.819   2.888  12.862 -0.3960  0.3657  0.1342
 9099SOL     OW38755   3.282   0.602   5.654 -0.3360  0.4543  0.4469
 9099SOL    HW138756   3.189   0.580   5.645  0.2508 -2.7200  2.1669
 9099SOL    HW238757   3.295   0.676   5.595 -4.9761  1.0760  0.1427
 9100SOL     OW38758   4.238   0.341   3.566 -0.0176 -0.4777  0.4855
 9100SOL    HW138759   4.291   0.312   3.640 -0.6248 -0.0825  1.0808
 9100SOL    HW238760   4.153   0.346   3.610  0.4292  1.0211  1.1754
 9101SOL     OW38761   0.801   1.955   1.421 -0.2986  0.1013 -0.3227
 9101SOL    HW138762   0.880   2.008   1.408 -0.7974  0.5945 -1.2877
 9101SOL    HW238763   0.791   1.965   1.516  1.3388 -0.3864 -0.1006
 9102SOL     OW38764   4.702   4.237  12.835 -0.4326 -0.2189 -0.4163
 9102SOL    HW138765   0.031   4.289  12.775  1.9382  1.3708  3.0518
 9102SOL    HW238766   4.659   4.183  12.770 -0.7880 -0.1048 -0.2732
 9103SOL     OW38767   3.232   3.352   8.463 -0.0066  0.8377 -0.1290
 9103SOL    HW138768   3.178   3.277   8.438  0.9968 -0.3692  1.3139
 9103SOL    HW238769   3.155   3.409   8.465 -2.2670 -2.2441 -1.3189
 9104SOL     OW38770   3.903   0.667   4.596  0.4693 -0.3608  0.2581
 9104SOL    HW138771   3.812   0.667   4.627  0.2666 -1.0229 -0.3361
 9104SOL    HW238772   3.889   0.736   4.531 -0.3326  1.2061  2.0814
 9105SOL     OW38773   3.386   3.043  11.439 -0.4037 -0.7307  0.1108
 9105SOL    HW138774   3.380   2.968  11.498 -2.1289 -0.6658  0.0258
 9105SOL    HW238775   3.465   3.083  11.477 -1.5588  0.2841  1.4635
 9106SOL     OW38776   1.412   3.078  12.595  0.3838 -0.5740  0.1737
 9106SOL    HW138777   1.327   3.048  12.564 -0.4155 -0.3761  2.1826
 9106SOL    HW238778   1.463   3.020  12.538 -2.2454 -0.6218 -2.1147
 9107SOL     OW38779   1.689   1.454   7.576  0.0028  0.6400  0.2758
 9107SOL    HW138780   1.657   1.366   7.594  1.7784  0.5648  3.1098
 9107SOL    HW238781   1.781   1.430   7.558 -0.2590 -0.6562  0.6606
 9108SOL     OW38782   1.492   1.294   8.052 -0.3246 -0.2426 -0.0573
 9108SOL    HW138783   1.542   1.366   8.015  2.2474 -1.6719  0.6840
 9108SOL    HW238784   1.523   1.302   8.142 -1.7445  1.4088  0.2924
 9109SOL     OW38785   0.193   4.123  11.850 -0.2750 -0.0080 -0.2364
 9109SOL    HW138786   0.143   4.071  11.913  0.2685 -2.5121 -1.8569
 9109SOL    HW238787   0.278   4.122  11.894 -0.4712  1.8107  0.1670
 9110SOL     OW38788   0.368   2.338   5.938 -0.4380 -0.0975 -0.6214
 9110SOL    HW138789   0.362   2.315   6.031  0.0226  0.2903 -0.4972
 9110SOL    HW238790   0.311   2.415   5.944  1.4320  1.3461 -1.2027
 9111SOL     OW38791   1.971   0.384   2.065 -0.4509  0.1785 -0.1502
 9111SOL    HW138792   2.051   0.435   2.051 -0.6433  0.3399 -0.6756
 9111SOL    HW238793   1.955   0.425   2.150 -1.2502  1.5216 -0.9518
 9112SOL     OW38794   3.107   4.625   0.799  0.0449  0.1467 -0.2651
 9112SOL    HW138795   3.011   4.624   0.807  0.1312 -0.4418  0.6738
 9112SOL    HW238796   3.103   4.624   0.703  0.7043  0.3205 -0.2924
 9113SOL     OW38797   2.186   2.458   6.743  0.2774  0.2423 -0.0261
 9113SOL    HW138798   2.159   2.474   6.652  1.6141 -2.0140 -0.8254
 9113SOL    HW238799   2.098   2.444   6.777  0.5628  0.4599  0.7920
 9114SOL     OW38800   0.800   3.375   3.274 -0.2005 -0.0525 -0.3645
 9114SOL    HW138801   0.843   3.352   3.191 -3.3933 -1.4040 -1.6263
 9114SOL    HW238802   0.734   3.437   3.241  0.0022  0.6552  0.5598
 9115SOL     OW38803   0.982   2.154   2.510  0.3816  0.3385  0.0675
 9115SOL    HW138804   0.913   2.210   2.545 -2.1421 -2.6109 -0.2368
 9115SOL    HW238805   1.062   2.206   2.510  0.0155  0.9073  1.1144
 9116SOL     OW38806   2.745   2.243   8.886 -0.1544  0.5765  0.6511
 9116SOL    HW138807   2.673   2.290   8.928  0.3284  1.0742  0.9163
 9116SOL    HW238808   2.781   2.189   8.957  1.7193  2.3357  1.0462
 9117SOL     OW38809   0.379   2.968  13.201 -0.3271 -0.4799  0.1377
 9117SOL    HW138810   0.455   2.954  13.258  1.8131  0.0326 -2.5888
 9117SOL    HW238811   0.409   3.046  13.155  1.5169 -0.9962  0.4637
 9118SOL     OW38812   2.769   1.479  12.584 -0.1751  0.0253 -0.4412
 9118SOL    HW138813   2.812   1.426  12.517 -0.5792 -0.8565 -0.0016
 9118SOL    HW238814   2.829   1.491  12.657 -1.9581 -1.6224  1.2958
 9119SOL     OW38815   2.594   2.187  11.253 -0.0429  0.5842  0.6298
 9119SOL    HW138816   2.660   2.118  11.254 -0.5423  0.1267  1.7777
 9119SOL    HW238817   2.606   2.223  11.165 -0.8916 -0.2321  0.1817
 9120SOL     OW38818   3.963   1.406   2.579 -0.5745  0.3187 -0.7794
 9120SOL    HW138819   4.016   1.479   2.548 -1.6969  1.4911  0.0229
 9120SOL    HW238820   3.878   1.452   2.582 -2.1626 -2.5796 -1.6808
 9121SOL     OW38821   0.510   3.313  13.910  0.0511  0.3609  0.2845
 9121SOL    HW138822   0.464   3.385  13.867 -0.5575  0.0664  0.4386
 9121SOL    HW238823   0.580   3.362  13.954 -1.0397  2.0994  0.0980
 9122SOL     OW38824   2.725   2.489   5.956 -0.3309 -0.1056  0.3567
 9122SOL    HW138825   2.756   2.404   5.926  0.9803  0.0523  1.2477
 9122SOL    HW238826   2.725   2.466   6.049  1.0729  1.9005  0.8558
 9123SOL     OW38827   1.815   2.077   7.684  0.6213 -0.1002  0.5396
 9123SOL    HW138828   1.845   2.162   7.717  1.2240 -0.1262  0.0715
 9123SOL    HW238829   1.868   2.016   7.735 -1.7717 -1.8594  0.9397
 9124SOL     OW38830   0.625   1.489   3.442 -0.2266 -0.2242  0.4224
 9124SOL    HW138831   0.615   1.410   3.389 -0.7936 -0.4038  0.7967
 9124SOL    HW238832   0.718   1.506   3.425 -0.7815  1.8995 -0.5238
 9125SOL     OW38833   3.972   1.757   3.087 -0.1676 -0.0658 -0.2049
 9125SOL    HW138834   4.023   1.769   3.168  0.4490 -0.1171 -0.5811
 9125SOL    HW238835   3.998   1.832   3.035 -0.4644  1.8299  2.3610
 9126SOL     OW38836   0.068   2.951   8.581 -0.1150 -0.5713 -0.2103
 9126SOL    HW138837   0.153   2.983   8.610  0.5710  1.1753 -4.1097
 9126SOL    HW238838   0.010   3.025   8.599  1.5675  1.0850 -1.5296
 9127SOL     OW38839   2.680   3.878   7.836  0.5938  0.0264  0.0206
 9127SOL    HW138840   2.701   3.857   7.745 -1.0165  1.5084 -0.6935
 9127SOL    HW238841   2.632   3.958   7.814  3.4937  1.9253  0.5801
 9128SOL     OW38842   2.061   2.464   8.576 -0.3668  0.3527 -0.2549
 9128SOL    HW138843   2.000   2.536   8.593 -1.6717 -0.3482 -1.9465
 9128SOL    HW238844   2.134   2.523   8.560 -0.3750 -0.1928 -2.2846
 9129SOL     OW38845   3.921   0.813   1.458  0.3850  0.5453 -0.1919
 9129SOL    HW138846   3.970   0.877   1.407 -3.4215  0.9285 -3.4116
 9129SOL    HW238847   3.830   0.841   1.449  0.3213  0.0201 -1.1419
 9130SOL     OW38848   4.174   0.751   4.017 -0.6620 -0.1797 -0.4125
 9130SOL    HW138849   4.104   0.707   4.065 -0.9975 -0.5828 -1.2745
 9130SOL    HW238850   4.121   0.788   3.947 -1.8203 -1.4970 -0.2434
 9131SOL     OW38851   1.818   4.060   9.717  0.3743  0.6376 -0.3193
 9131SOL    HW138852   1.836   4.003   9.792 -0.4606  0.5203 -0.2091
 9131SOL    HW238853   1.821   3.986   9.656 -2.0774  0.1007  0.2108
 9132SOL     OW38854   1.583   3.748   2.311  0.8040 -0.3336 -0.6656
 9132SOL    HW138855   1.519   3.812   2.282 -1.2192 -1.2077  1.8637
 9132SOL    HW238856   1.650   3.812   2.334 -1.5391  1.7886  0.2867
 9133SOL     OW38857   0.782   2.045   5.929  0.4846  0.3790 -0.5453
 9133SOL    HW138858   0.731   2.125   5.941 -0.9483 -0.2809 -2.2016
 9133SOL    HW238859   0.858   2.072   5.979  0.3146  1.3330 -0.8049
 9134SOL     OW38860   1.855   2.833   4.472 -0.0781  0.0791  0.4104
 9134SOL    HW138861   1.851   2.756   4.528 -1.0195 -2.3551 -2.9892
 9134SOL    HW238862   1.942   2.869   4.493 -0.3733  0.4293  1.0379
 9135SOL     OW38863   1.630   3.653   4.999  0.3146 -0.2169 -0.1170
 9135SOL    HW138864   1.557   3.591   5.009  1.9669 -1.9797  0.9882
 9135SOL    HW238865   1.700   3.608   5.046 -1.2384 -0.2797  2.1412
 9136SOL     OW38866   2.461   2.149   2.480 -0.6764  0.5172  0.7341
 9136SOL    HW138867   2.433   2.090   2.550 -0.2548  0.1539  0.5947
 9136SOL    HW238868   2.381   2.171   2.432  0.0167 -0.3321 -0.8212
 9137SOL     OW38869   4.018   3.363   2.214 -0.4764 -0.4159  0.2326
 9137SOL    HW138870   3.953   3.353   2.145 -0.4518 -0.1145  0.1648
 9137SOL    HW238871   3.979   3.318   2.289 -2.9022  1.5382  0.1528
 9138SOL     OW38872   0.807   2.683   5.324  0.3336  0.1542  0.1240
 9138SOL    HW138873   0.736   2.670   5.261  0.8351 -2.2205  0.0532
 9138SOL    HW238874   0.791   2.768   5.366  3.4752  0.2379  1.1334
 9139SOL     OW38875   3.716   4.388   4.550  0.3446  0.2646 -0.0203
 9139SOL    HW138876   3.681   4.476   4.560 -0.0342  0.0586  0.4356
 9139SOL    HW238877   3.808   4.400   4.524  0.0872  0.2640 -0.9501
 9140SOL     OW38878   1.588   2.653   5.654 -0.0445 -0.4285 -0.0734
 9140SOL    HW138879   1.513   2.627   5.601 -1.1961  0.9359  0.8463
 9140SOL    HW238880   1.604   2.739   5.616  1.6985 -1.2123 -1.1171
 9141SOL     OW38881   0.269   1.483  17.104 -0.6005 -0.1795 -0.0206
 9141SOL    HW138882   0.331   1.455  17.171 -0.3017 -1.8334 -0.9959
 9141SOL    HW238883   0.326   1.476  17.027 -0.4440 -2.4385  0.3142
 9142SOL     OW38884   1.897   3.229   4.873 -0.0878 -0.5956  0.0928
 9142SOL    HW138885   1.974   3.252   4.822 -0.3704 -1.9811 -0.9392
 9142SOL    HW238886   1.822   3.239   4.815 -1.4642 -2.1777  1.5797
 9143SOL     OW38887   4.140   1.889   4.883 -0.2241  0.3440  0.8201
 9143SOL    HW138888   4.159   1.982   4.868 -1.7331  0.5224 -0.0158
 9143SOL    HW238889   4.213   1.838   4.849  0.3266  0.7316  1.4089
 9144SOL     OW38890   1.358   1.447   5.302  0.2695  0.1594 -0.2379
 9144SOL    HW138891   1.450   1.472   5.294  0.2785 -0.2629 -1.4858
 9144SOL    HW238892   1.364   1.351   5.305  1.6391  0.2834  0.5602
 9145SOL     OW38893   2.291   3.794  14.207  0.2005 -0.4790 -0.1601
 9145SOL    HW138894   2.303   3.876  14.158 -0.2330 -0.0252  0.4868
 9145SOL    HW238895   2.218   3.761  14.155 -1.2954  2.0347  0.3111
 9146SOL     OW38896   0.746   3.554   6.165  0.3415 -0.0905 -0.9691
 9146SOL    HW138897   0.801   3.596   6.230 -1.1182  1.0732 -0.4905
 9146SOL    HW238898   0.659   3.555   6.205  0.9027  2.4286  0.1902
 9147SOL     OW38899   0.881   2.375  10.570  0.7633 -0.0810 -0.2671
 9147SOL    HW138900   0.882   2.440  10.641  2.5429 -1.3470  0.8705
 9147SOL    HW238901   0.928   2.301  10.608 -0.0245  0.2136  1.2877
 9148SOL     OW38902   0.561   1.540   5.997  0.4166 -0.3902  0.5019
 9148SOL    HW138903   0.545   1.627   6.032  0.5862  0.3894 -1.3422
 9148SOL    HW238904   0.520   1.477   6.056 -2.0695  0.9740  0.2044
 9149SOL     OW38905   4.122   3.737   8.095  0.2803  0.2130  0.7270
 9149SOL    HW138906   4.037   3.717   8.055  1.4133 -0.5056 -1.3396
 9149SOL    HW238907   4.182   3.686   8.040  0.6025  0.4206  0.8880
 9150SOL     OW38908   3.051   2.059   1.978 -0.0453  0.0519  0.0053
 9150SOL    HW138909   3.026   2.134   1.923 -1.3588 -0.4427 -0.0799
 9150SOL    HW238910   3.134   2.101   2.000  0.0068  0.2620 -0.5966
 9151SOL     OW38911   2.996   4.340  10.435 -0.1393 -0.0779  0.1995
 9151SOL    HW138912   3.040   4.387  10.363  1.2897 -2.6227 -0.5993
 9151SOL    HW238913   2.951   4.273  10.385 -1.0849  0.7222 -0.0200
 9152SOL     OW38914   2.447   3.722  11.082  0.3621  0.0051  0.1739
 9152SOL    HW138915   2.466   3.672  11.161 -1.3558  0.5305  0.9210
 9152SOL    HW238916   2.510   3.686  11.019 -0.1209  0.3217 -0.4869
 9153SOL     OW38917   1.114   2.251   0.492 -0.4277  0.8999  0.4355
 9153SOL    HW138918   1.100   2.178   0.431 -0.8813  0.3691  1.1633
 9153SOL    HW238919   1.030   2.256   0.538 -0.2162  0.2491  0.9048
 9154SOL     OW38920   1.738   1.127  17.579 -0.4457 -0.2021  0.4786
 9154SOL    HW138921   1.801   1.065  17.543  1.4273  1.4444  0.9348
 9154SOL    HW238922   1.763   1.208  17.535 -0.3241 -0.6192 -0.2239
 9155SOL     OW38923   0.529   1.128   7.866 -0.4837 -0.4255  0.0126
 9155SOL    HW138924   0.566   1.202   7.914  1.1830  0.1620 -2.1349
 9155SOL    HW238925   0.495   1.076   7.938 -0.0144 -1.6988 -0.6829
 9156SOL     OW38926   3.048   1.262  11.014  0.0259 -0.3464  0.1632
 9156SOL    HW138927   3.066   1.263  11.108  2.9725  0.7793 -0.4069
 9156SOL    HW238928   3.090   1.181  10.985  0.4420  0.1291 -0.5782
 9157SOL     OW38929   3.949   0.684   4.177 -0.1223 -0.2418  0.7073
 9157SOL    HW138930   3.872   0.741   4.181 -0.3309 -0.3451 -1.3764
 9157SOL    HW238931   3.943   0.655   4.268  1.4938 -2.5478  0.0911
 9158SOL     OW38932   0.069   4.702   3.746 -0.4882 -0.3036  0.6127
 9158SOL    HW138933   0.054   4.616   3.707 -0.4415 -0.5300  1.0865
 9158SOL    HW238934   0.080   0.031   3.668 -0.8514 -0.1007  0.6971
 9159SOL     OW38935   3.518   0.835   0.842  0.0472  0.3373  0.5000
 9159SOL    HW138936   3.525   0.896   0.915 -3.7244  1.0308  0.3103
 9159SOL    HW238937   3.476   0.761   0.887  3.0662 -0.9166  1.2685
 9160SOL     OW38938   2.558   2.130   6.053 -0.3001 -0.1674  0.1609
 9160SOL    HW138939   2.494   2.119   6.123 -0.2356 -1.8801 -0.0328
 9160SOL    HW238940   2.568   2.041   6.018  0.3900  0.5549 -1.5055
 9161SOL     OW38941   3.154   1.968   3.149 -0.4553  0.1222  0.6159
 9161SOL    HW138942   3.140   1.943   3.058  4.5195  1.1137 -0.4347
 9161SOL    HW238943   3.074   2.015   3.173 -1.4991 -1.1232 -0.4360
 9162SOL     OW38944   2.485   1.988   9.500 -0.0291  0.2274 -0.6719
 9162SOL    HW138945   2.504   2.081   9.500 -0.1989  0.2590 -1.7309
 9162SOL    HW238946   2.397   1.995   9.462 -0.5997 -0.8621  0.4304
 9163SOL     OW38947   3.343   2.265   4.607  0.0002 -0.1097 -0.1277
 9163SOL    HW138948   3.297   2.233   4.529  1.3154  2.1030 -1.7990
 9163SOL    HW238949   3.433   2.258   4.576  0.5025  1.7124  0.9554
 9164SOL     OW38950   0.167   2.514   6.126  0.0641 -0.1253 -0.4346
 9164SOL    HW138951   0.205   2.585   6.075 -0.9299  1.9949  1.7716
 9164SOL    HW238952   0.075   2.538   6.128  0.2830  0.6311  1.0113
 9165SOL     OW38953   2.187   4.428  14.874 -0.3554 -0.0175 -0.0126
 9165SOL    HW138954   2.238   4.460  14.949 -0.9703 -1.2380  0.9344
 9165SOL    HW238955   2.229   4.344  14.855  0.6817  0.1824  1.3805
 9166SOL     OW38956   3.954   4.543   3.348  0.3864  0.0831 -0.1346
 9166SOL    HW138957   4.020   4.610   3.328  0.6528 -0.1632 -0.0790
 9166SOL    HW238958   3.904   4.528   3.268  1.8405  0.7227 -1.1707
 9167SOL     OW38959   0.203   3.194   2.584  0.2984  0.3049  0.1708
 9167SOL    HW138960   0.237   3.120   2.634  0.3889  0.1689 -0.0941
 9167SOL    HW238961   0.210   3.257   2.656  0.2497 -2.5528  2.6698
 9168SOL     OW38962   0.381   3.781   3.563  0.2508  0.3630  0.3814
 9168SOL    HW138963   0.464   3.822   3.535  1.2389 -0.3297  2.3005
 9168SOL    HW238964   0.420   3.713   3.617  0.6345 -0.3591 -0.7946
 9169SOL     OW38965   2.997   2.403   8.131 -0.5335 -0.2044 -0.8562
 9169SOL    HW138966   2.947   2.350   8.193  1.6640 -2.4011 -0.9663
 9169SOL    HW238967   3.077   2.396   8.182 -1.3300 -0.3493  0.3699
 9170SOL     OW38968   3.667   3.573   7.318 -0.0721  0.3495 -0.1711
 9170SOL    HW138969   3.709   3.524   7.247  1.5393  1.1987  0.1816
 9170SOL    HW238970   3.583   3.528   7.328  0.8564 -1.3535  0.0169
 9171SOL     OW38971   4.395   0.599   8.557 -0.3922 -0.0651  0.1062
 9171SOL    HW138972   4.327   0.653   8.597 -0.1126  1.3664 -1.3510
 9171SOL    HW238973   4.472   0.618   8.610  0.0238 -3.9864  0.9343
 9172SOL     OW38974   0.775   3.930   7.501 -0.0975 -0.3522  0.6160
 9172SOL    HW138975   0.684   3.905   7.481  0.7220 -1.3138 -1.9307
 9172SOL    HW238976   0.810   3.961   7.418 -0.1913 -2.0159 -0.0491
 9173SOL     OW38977   3.599   3.988   9.723  0.4744 -0.3433  0.2452
 9173SOL    HW138978   3.543   3.984   9.800 -0.0835 -1.9952 -0.2418
 9173SOL    HW238979   3.584   3.899   9.690 -2.3150  0.7744 -1.5308
 9174SOL     OW38980   2.473   0.238   3.615  0.3511  0.3923 -0.5406
 9174SOL    HW138981   2.473   0.180   3.692 -2.3695  2.7016  1.1872
 9174SOL    HW238982   2.388   0.281   3.625 -0.2024 -1.0769  1.0832
 9175SOL     OW38983   0.349   0.248   7.601 -0.2948 -0.4656  0.5570
 9175SOL    HW138984   0.259   0.251   7.566 -0.3435  1.3768  0.8837
 9175SOL    HW238985   0.350   0.322   7.661  1.9363  1.5175 -1.9306
 9176SOL     OW38986   4.090   0.954   1.042 -0.4627 -0.2118 -0.1625
 9176SOL    HW138987   4.176   0.935   1.004 -0.7468 -1.0447 -0.3838
 9176SOL    HW238988   4.042   0.955   0.959 -0.5698  1.2291 -0.0840
 9177SOL     OW38989   4.383   2.513   5.131 -0.1542 -0.3160 -0.1373
 9177SOL    HW138990   4.438   2.550   5.200  1.9555 -2.1744 -0.8175
 9177SOL    HW238991   4.371   2.426   5.170  0.2782  0.0757  0.8684
 9178SOL     OW38992   2.854   1.297   2.521  0.2149  0.1631 -0.5899
 9178SOL    HW138993   2.863   1.352   2.599 -1.2900  0.4163 -0.5961
 9178SOL    HW238994   2.758   1.301   2.518  0.1773 -1.5426 -1.5795
 9179SOL     OW38995   2.862   4.524  17.686  0.6869  0.0814  0.5017
 9179SOL    HW138996   2.957   4.516  17.696  0.8006 -0.4226 -1.0309
 9179SOL    HW238997   2.830   4.496   0.073 -0.9869 -2.3479 -0.9001
 9180SOL     OW38998   2.702   0.280   5.299  0.4216 -0.2123 -0.0978
 9180SOL    HW138999   2.770   0.272   5.366 -0.6716 -0.2360  1.0054
 9180SOL    HW239000   2.740   0.255   5.214  1.9865 -2.3972  1.2464
 9181SOL     OW39001   1.674   3.530   4.141  0.0706 -0.0793 -0.5300
 9181SOL    HW139002   1.627   3.454   4.108 -2.1187  2.0150 -2.2721
 9181SOL    HW239003   1.762   3.502   4.117  0.3677 -0.5377  1.1389
 9182SOL     OW39004   3.077   3.964  11.765  0.6444  0.2234  0.1177
 9182SOL    HW139005   3.105   3.922  11.684  1.6532 -2.5245  1.9022
 9182SOL    HW239006   2.983   3.977  11.750  0.7018  0.2211 -0.2426
 9183SOL     OW39007   0.936   1.729  15.886  0.1422 -0.0384  0.3747
 9183SOL    HW139008   1.007   1.729  15.822 -1.3505  1.5412 -1.3002
 9183SOL    HW239009   0.896   1.644  15.864 -2.3984  1.0367  0.8558
 9184SOL     OW39010   0.920   2.658  10.979 -0.5130 -0.8319  0.8014
 9184SOL    HW139011   0.896   2.671  11.071  0.5136 -1.3358  1.1386
 9184SOL    HW239012   0.941   2.747  10.951  0.7472 -1.8751 -1.5222
 9185SOL     OW39013   2.061   2.370   5.154  0.6175 -0.4934  0.0827
 9185SOL    HW139014   2.007   2.300   5.190  2.3262 -1.7611  0.1962
 9185SOL    HW239015   2.077   2.425   5.232 -0.0132  0.7330 -0.6468
 9186SOL     OW39016   3.858   2.249   2.190  0.2542  0.2060 -0.5018
 9186SOL    HW139017   3.861   2.165   2.143  0.9489  0.1304 -0.3172
 9186SOL    HW239018   3.951   2.267   2.197  0.3099 -0.8950  1.3614
 9187SOL     OW39019   1.757   1.710  13.067  0.0013  0.1822 -0.2316
 9187SOL    HW139020   1.790   1.713  12.978  2.1800  2.3747  0.6394
 9187SOL    HW239021   1.818   1.643  13.099 -0.6380 -1.2677 -2.0539
 9188SOL     OW39022   1.269   0.464   6.190 -0.1221  0.2212 -0.2889
 9188SOL    HW139023   1.206   0.405   6.149  0.9123 -1.0650 -0.0531
 9188SOL    HW239024   1.245   0.553   6.166 -1.0578 -0.3628 -1.4659
 9189SOL     OW39025   2.998   3.830  16.762 -0.0637 -0.6484  0.5863
 9189SOL    HW139026   3.092   3.810  16.759  0.1095  0.5665 -2.2937
 9189SOL    HW239027   2.976   3.798  16.675 -0.8895  1.6042 -0.0269
 9190SOL     OW39028   4.293   3.463   2.481  0.2491 -0.4357  0.4611
 9190SOL    HW139029   4.306   3.558   2.478  0.2136 -0.5301 -2.6003
 9190SOL    HW239030   4.207   3.448   2.521 -0.1488 -0.5423 -0.4468
 9191SOL     OW39031   1.664   0.649   4.385  0.7555 -0.3956 -0.1419
 9191SOL    HW139032   1.746   0.690   4.359 -0.1216  2.5164  1.6534
 9191SOL    HW239033   1.632   0.708   4.454  1.8612 -1.5053  1.3099
 9192SOL     OW39034   0.067   0.211   3.569 -0.6566 -0.2378  0.2343
 9192SOL    HW139035   0.121   0.269   3.517  1.5567 -0.3576  2.4209
 9192SOL    HW239036   0.015   0.176   3.496 -0.5459  0.4704 -0.1837
 9193SOL     OW39037   3.051   1.690   9.061 -0.7816 -0.4548  0.4360
 9193SOL    HW139038   3.131   1.700   9.009  0.0201 -3.5476  1.0925
 9193SOL    HW239039   3.017   1.607   9.028 -0.2453 -0.4260 -0.1952
 9194SOL     OW39040   4.112   3.787   3.114 -0.3679 -0.2863  0.0449
 9194SOL    HW139041   4.111   3.837   3.032  1.7261  0.3143  0.3867
 9194SOL    HW239042   4.099   3.700   3.075  0.2380  0.0391 -0.8967
 9195SOL     OW39043   4.146   2.138   7.268 -0.0373 -0.2050 -0.6840
 9195SOL    HW139044   4.211   2.110   7.203 -0.7499 -1.4742 -0.8596
 9195SOL    HW239045   4.103   2.054   7.284  1.5352 -1.1982 -1.5731
 9196SOL     OW39046   3.670   2.099   5.704  0.2693 -0.1283  0.6153
 9196SOL    HW139047   3.706   2.120   5.618  1.6648  0.2982  1.3136
 9196SOL    HW239048   3.741   2.135   5.757  0.0838  0.8459  0.2068
 9197SOL     OW39049   4.057   3.754   6.111  0.5350 -0.0517  0.1683
 9197SOL    HW139050   4.049   3.694   6.037 -0.9093  1.3388 -0.8382
 9197SOL    HW239051   4.112   3.824   6.076 -0.2632  0.0839 -0.8472
 9198SOL     OW39052   4.253   0.698   4.277  0.2271  0.5583  0.3005
 9198SOL    HW139053   4.218   0.731   4.194  1.0906 -1.8565 -1.0264
 9198SOL    HW239054   4.332   0.752   4.284 -0.3812  1.5345 -0.3405
 9199SOL     OW39055   3.192   0.571   5.343 -0.6155  0.0107 -0.6681
 9199SOL    HW139056   3.153   0.484   5.333  0.1183 -0.2452 -1.3757
 9199SOL    HW239057   3.199   0.598   5.251 -1.9051 -2.2472 -1.4337
 9200SOL     OW39058   1.093   0.358   7.114 -0.0989  0.2437  0.7436
 9200SOL    HW139059   1.045   0.340   7.033  1.3550 -2.3794  0.4858
 9200SOL    HW239060   1.153   0.287   7.137  1.0328  0.8408 -0.4406
 9201SOL     OW39061   4.597   2.782   7.488  0.0969 -0.1775  0.2048
 9201SOL    HW139062   4.595   2.860   7.544  3.0053  0.1201 -0.1036
 9201SOL    HW239063   4.593   2.825   7.403 -3.4005  0.3144  0.6478
 9202SOL     OW39064   1.214   1.511  12.081 -0.4248  0.2368  0.3347
 9202SOL    HW139065   1.299   1.474  12.056 -0.8966  0.6957 -2.0278
 9202SOL    HW239066   1.228   1.524  12.174  0.4191 -2.4744  0.5835
 9203SOL     OW39067   4.686   0.533  13.051 -0.1937 -0.4851  0.4447
 9203SOL    HW139068   0.004   0.607  13.010  0.4850 -0.3231  1.4465
 9203SOL    HW239069   0.039   0.490  13.087 -0.3842 -0.6865  0.6143
 9204SOL     OW39070   0.172   4.433   6.727 -0.2938  0.3011 -0.4142
 9204SOL    HW139071   0.109   4.505   6.731 -0.6786 -0.0630  0.0656
 9204SOL    HW239072   0.243   4.474   6.776 -2.2537  3.3019 -0.0987
 9205SOL     OW39073   1.702   3.283  11.798 -0.8384  0.3592 -0.0818
 9205SOL    HW139074   1.625   3.246  11.754 -0.1818 -2.2598  1.0281
 9205SOL    HW239075   1.764   3.216  11.772  1.2817  1.4897  2.1077
 9206SOL     OW39076   2.739   3.442   2.578  0.2819  0.0863 -0.0347
 9206SOL    HW139077   2.750   3.361   2.627 -0.0559  0.0696  0.0081
 9206SOL    HW239078   2.646   3.430   2.560  0.5281  0.1640 -1.3838
 9207SOL     OW39079   4.445   2.603   7.638 -0.3038  0.8404 -0.4946
 9207SOL    HW139080   4.363   2.584   7.593 -0.1087 -3.6784  1.0624
 9207SOL    HW239081   4.482   2.667   7.577 -0.6941  0.1505 -1.4599
 9208SOL     OW39082   0.825   2.546   5.918  0.1331  0.2319 -0.0004
 9208SOL    HW139083   0.857   2.529   6.006  1.8739 -3.3885 -1.3187
 9208SOL    HW239084   0.795   2.465   5.877 -1.5281  1.9817 -2.2033
 9209SOL     OW39085   3.017   3.090   5.175 -0.2136  0.3716  0.4255
 9209SOL    HW139086   2.995   3.143   5.251 -2.1783  1.3635 -0.8549
 9209SOL    HW239087   3.071   3.143   5.116  0.1587  1.3979  1.7050
 9210SOL     OW39088   4.622   3.563  14.005 -0.1454 -0.6832  0.0472
 9210SOL    HW139089   4.632   3.658  14.011 -0.4084 -0.7999  2.4677
 9210SOL    HW239090   4.702   3.535  14.049  1.2381  0.5816 -1.7038
 9211SOL     OW39091   4.201   4.109   2.706 -0.3420 -0.0037  0.0932
 9211SOL    HW139092   4.222   4.163   2.630 -1.6072 -0.8011 -0.8346
 9211SOL    HW239093   4.247   4.164   2.769  1.6643 -2.2759  0.5841
 9212SOL     OW39094   4.217   2.629  17.662  0.2548  0.7993 -0.0340
 9212SOL    HW139095   4.218   2.567   0.035 -0.8935  1.5157  0.5773
 9212SOL    HW239096   4.267   2.704  17.696  0.9930 -0.2657  1.2393
 9213SOL     OW39097   4.305   1.337  13.127  0.7162 -0.4993 -0.0700
 9213SOL    HW139098   4.286   1.243  13.118 -1.8643  0.3106 -3.3410
 9213SOL    HW239099   4.345   1.358  13.042 -1.5835  1.2518 -0.7428
 9214SOL     OW39100   0.544   3.018  14.291 -0.4285  0.2932  0.3118
 9214SOL    HW139101   0.519   3.085  14.354  0.3954  1.5805 -0.7513
 9214SOL    HW239102   0.634   3.002  14.320 -0.5143 -0.0844  0.3759
 9215SOL     OW39103   0.396   3.038  17.471  0.5097 -0.5578  0.2880
 9215SOL    HW139104   0.485   3.055  17.440 -0.1262 -0.2609 -1.3723
 9215SOL    HW239105   0.356   3.124  17.476  2.8921  0.5269  0.9697
 9216SOL     OW39106   0.452   1.865   8.111 -0.2291  0.4588  0.1496
 9216SOL    HW139107   0.483   1.805   8.043 -0.9157  0.6854 -0.3617
 9216SOL    HW239108   0.407   1.795   8.159  1.2186  0.2548  1.1917
 9217SOL     OW39109   3.085   3.020   4.399  0.1517 -0.3353  0.3377
 9217SOL    HW139110   3.023   2.994   4.331 -1.1396 -1.2756  1.8772
 9217SOL    HW239111   3.079   3.115   4.395  1.1380 -0.2416  1.1480
 9218SOL     OW39112   1.488   1.673  14.787  0.3945  0.1898 -0.2004
 9218SOL    HW139113   1.560   1.675  14.850 -0.8092 -2.3226  1.2372
 9218SOL    HW239114   1.465   1.580  14.790 -0.5876  0.4401 -0.1432
 9219SOL     OW39115   2.960   1.210   4.194  0.2937 -0.9188  0.2483
 9219SOL    HW139116   2.871   1.184   4.172  0.1137 -0.3686  0.3303
 9219SOL    HW239117   2.960   1.284   4.134 -1.3129 -0.7440  0.4623
 9220SOL     OW39118   1.293   0.455   4.274  0.4370 -0.0782 -0.4189
 9220SOL    HW139119   1.256   0.528   4.323 -0.6097 -0.3829 -0.7520
 9220SOL    HW239120   1.217   0.396   4.273  1.7814 -1.7968 -0.1991
 9221SOL     OW39121   3.219   3.987   3.714  0.2600 -0.6461 -0.2301
 9221SOL    HW139122   3.128   3.964   3.695  0.5042 -1.2203 -0.7094
 9221SOL    HW239123   3.210   4.078   3.742 -0.9343 -0.9667  0.3869
 9222SOL     OW39124   3.946   1.884  11.212  0.1270 -0.6525 -0.5110
 9222SOL    HW139125   3.908   1.970  11.231  0.8383 -0.5566  0.4852
 9222SOL    HW239126   4.004   1.855  11.282 -0.3835 -1.5957 -0.4833
 9223SOL     OW39127   1.447   2.089   8.736 -0.2295 -0.5422  0.5987
 9223SOL    HW139128   1.516   2.150   8.711 -0.4060 -2.2265 -3.9786
 9223SOL    HW239129   1.417   2.041   8.659  0.0384  1.5639 -0.8149
 9224SOL     OW39130   2.679   2.893  14.140 -0.4968 -0.0260  0.3897
 9224SOL    HW139131   2.729   2.963  14.183  1.9451  0.2294 -2.8683
 9224SOL    HW239132   2.603   2.939  14.105  0.1911  1.8173  1.3166
 9225SOL     OW39133   2.688   3.985   7.245  0.3419  0.7118 -0.1075
 9225SOL    HW139134   2.613   4.043   7.233  0.6136  1.7055  2.8407
 9225SOL    HW239135   2.681   3.918   7.177 -1.1653  1.3003 -0.5362
 9226SOL     OW39136   0.406   0.570   6.652  0.0908  0.0289 -0.1512
 9226SOL    HW139137   0.410   0.479   6.624  2.0527  0.3046 -0.7833
 9226SOL    HW239138   0.352   0.545   6.727 -1.4894  0.6104 -1.1083
 9227SOL     OW39139   4.158   4.247   5.028  0.0714  0.4069 -0.6564
 9227SOL    HW139140   4.203   4.163   5.020 -0.6581  0.1903 -2.4019
 9227SOL    HW239141   4.208   4.298   4.965 -0.7173 -0.1628 -1.7526
 9228SOL     OW39142   3.592   3.851   6.468 -0.2184  0.3320 -0.3009
 9228SOL    HW139143   3.539   3.881   6.542  0.0120 -1.2854  0.5168
 9228SOL    HW239144   3.616   3.760   6.489  3.0016  1.4740  0.9391
 9229SOL     OW39145   2.954   2.704  14.769  0.2667  0.2690 -0.6249
 9229SOL    HW139146   3.011   2.686  14.695  0.1251  0.4794 -0.7868
 9229SOL    HW239147   2.962   2.624  14.821  1.2677 -0.2491 -1.5765
 9230SOL     OW39148   0.484   4.459   4.461 -0.0790  0.3224  0.0891
 9230SOL    HW139149   0.549   4.466   4.391  1.9406  0.9072  2.0140
 9230SOL    HW239150   0.472   4.364   4.467 -4.2992  1.1024  3.5751
 9231SOL     OW39151   0.254   2.293  12.189  0.1497  0.5033 -0.4417
 9231SOL    HW139152   0.173   2.344  12.201 -0.6166 -0.9534  0.5555
 9231SOL    HW239153   0.307   2.347  12.248  0.5094  1.4000 -1.5897
 9232SOL     OW39154   4.481   0.358   1.656  0.5461  0.0496  0.1459
 9232SOL    HW139155   4.546   0.363   1.586 -2.8173 -1.8215 -3.0918
 9232SOL    HW239156   4.539   0.365   1.732 -0.1356 -2.3955  0.8890
 9233SOL     OW39157   1.718   0.984   6.646  0.0447 -0.1557  0.7644
 9233SOL    HW139158   1.641   1.034   6.621  0.9055 -0.5266 -2.5813
 9233SOL    HW239159   1.723   0.914   6.581  0.8726 -0.5604  1.2573
 9234SOL     OW39160   4.500   2.460   4.287 -0.0545 -0.2316 -0.1473
 9234SOL    HW139161   4.538   2.372   4.289 -1.0173 -0.6070  1.9814
 9234SOL    HW239162   4.426   2.458   4.349 -0.1828 -1.8151 -0.3613
 9235SOL     OW39163   4.384   0.649  12.234 -0.0674 -0.2664 -0.2455
 9235SOL    HW139164   4.323   0.704  12.283  0.9988 -0.6384  1.4792
 9235SOL    HW239165   4.330   0.637  12.156 -2.1524 -0.7602  1.2764
 9236SOL     OW39166   2.659   0.382   4.898 -0.4874  0.2695 -0.3408
 9236SOL    HW139167   2.665   0.477   4.891 -2.4009  0.4024 -0.1249
 9236SOL    HW239168   2.601   0.377   4.973 -2.1156  0.1217 -1.5995
 9237SOL     OW39169   1.652   1.712   4.364  0.4930  0.2358  0.2879
 9237SOL    HW139170   1.616   1.746   4.446 -0.5434 -0.0923 -0.0411
 9237SOL    HW239171   1.578   1.700   4.305  0.7585  0.6977 -0.1440
 9238SOL     OW39172   3.738   0.266  17.361  0.9816 -0.2508 -0.7680
 9238SOL    HW139173   3.822   0.299  17.392  0.9444 -0.2763 -0.6387
 9238SOL    HW239174   3.682   0.344  17.358  3.2219  1.3921 -0.1510
 9239SOL     OW39175   1.829   4.239   1.707 -0.0550  0.0423 -0.0163
 9239SOL    HW139176   1.850   4.327   1.676 -1.7132 -0.1801 -1.8214
 9239SOL    HW239177   1.895   4.228   1.774 -1.7159  2.5337  2.0230
 9240SOL     OW39178   1.294   3.161   8.727 -0.0694  0.2202  0.1678
 9240SOL    HW139179   1.280   3.069   8.705 -0.6482  0.9076 -2.3053
 9240SOL    HW239180   1.348   3.155   8.806  1.0282  2.5299 -0.4150
 9241SOL     OW39181   1.039   4.194   7.736  1.4000  0.1257  0.6475
 9241SOL    HW139182   1.132   4.179   7.753  1.3760 -0.7328 -0.0082
 9241SOL    HW239183   1.031   4.129   7.667  3.3844  0.6896 -0.1037
 9242SOL     OW39184   0.214   4.180   3.375 -0.4074 -0.5895 -0.6698
 9242SOL    HW139185   0.119   4.187   3.370 -0.5372 -2.8857 -1.7147
 9242SOL    HW239186   0.236   4.248   3.312 -0.8296  0.9121  0.8296
 9243SOL     OW39187   4.139   2.163   8.008  0.7792 -0.1756  0.1422
 9243SOL    HW139188   4.112   2.102   8.076 -2.2306  1.9391  0.8361
 9243SOL    HW239189   4.201   2.228   8.040  0.9345  0.1048 -0.7129
 9244SOL     OW39190   3.364   1.077   5.600 -0.4202 -0.5341 -0.2400
 9244SOL    HW139191   3.385   0.984   5.590  3.2809  0.3193 -0.3367
 9244SOL    HW239192   3.305   1.076   5.675  0.5259  0.4332  0.5236
 9245SOL     OW39193   3.416   4.711   5.125 -0.3107 -0.6290  0.2788
 9245SOL    HW139194   3.453   4.681   5.208 -1.0412 -1.2536  0.3790
 9245SOL    HW239195   3.470   4.657   5.068  0.0524 -0.8990  0.8711
 9246SOL     OW39196   2.791   4.162   8.238  0.0981 -0.2821  0.1503
 9246SOL    HW139197   2.846   4.202   8.306  1.4437 -0.1287 -1.0240
 9246SOL    HW239198   2.733   4.101   8.283  0.7541 -0.4250  0.7991
 9247SOL     OW39199   2.591   4.094  13.282 -0.1793  1.1366  0.1727
 9247SOL    HW139200   2.641   4.122  13.205  0.9457 -0.9162  0.1456
 9247SOL    HW239201   2.654   4.074  13.351  0.8615 -0.7082 -1.3086
 9248SOL     OW39202   0.579   4.340  17.379  0.4332  0.1099 -0.0497
 9248SOL    HW139203   0.667   4.311  17.402  2.0324  1.7900 -3.9461
 9248SOL    HW239204   0.579   4.406  17.448  1.4367 -1.3834  1.3529
 9249SOL     OW39205   2.184   1.922  13.890 -0.7133 -0.9044 -0.5294
 9249SOL    HW139206   2.128   1.985  13.934  1.4172 -1.9876  3.7774
 9249SOL    HW239207   2.218   1.883  13.971 -3.0039 -1.6464  0.0720
 9250SOL     OW39208   2.185   4.053   2.782 -0.9408 -0.4068  0.3494
 9250SOL    HW139209   2.232   3.994   2.841  0.3002 -0.2194 -0.4547
 9250SOL    HW239210   2.227   4.138   2.796 -4.3107  1.1940  0.7641
 9251SOL     OW39211   3.111   0.520   3.655  0.4228  0.3847 -0.2869
 9251SOL    HW139212   3.073   0.571   3.727  0.9844 -1.1146  1.0764
 9251SOL    HW239213   3.138   0.591   3.597  0.6859  1.8149  1.5700
 9252SOL     OW39214   3.490   2.183   7.597  0.4207 -0.2312  0.2739
 9252SOL    HW139215   3.435   2.262   7.597  1.1845  0.2978  0.7888
 9252SOL    HW239216   3.439   2.125   7.541 -1.6249  0.0663  1.7747
 9253SOL     OW39217   4.150   3.007   9.250 -0.2849 -0.1879  0.0059
 9253SOL    HW139218   4.138   3.098   9.223  2.0553  0.9679  2.8576
 9253SOL    HW239219   4.245   3.002   9.262 -0.4646 -0.4742  1.3649
 9254SOL     OW39220   3.176   3.179   7.283  0.5926 -0.4090 -0.3051
 9254SOL    HW139221   3.242   3.171   7.214  0.7022  0.7125 -0.3156
 9254SOL    HW239222   3.101   3.171   7.224 -0.3293 -1.4087  0.9998
 9255SOL     OW39223   4.717   0.466   6.683  0.3825 -0.6867  0.2081
 9255SOL    HW139224   0.009   0.394   6.744  1.2355  0.2116  1.0303
 9255SOL    HW239225   4.704   0.535   6.748 -0.8760 -0.0820 -0.6818
 9256SOL     OW39226   4.638   2.988   7.627  0.2580 -0.1817 -0.3752
 9256SOL    HW139227   4.560   3.044   7.633 -0.3174 -0.9543 -0.7545
 9256SOL    HW239228   4.643   2.939   7.709  2.9564 -2.4863 -1.9268
 9257SOL     OW39229   1.055   0.839   7.325 -0.4546 -0.1497  0.1785
 9257SOL    HW139230   1.040   0.753   7.285 -1.8668  0.9097 -1.5367
 9257SOL    HW239231   1.121   0.829   7.394 -0.8913 -2.9962  0.1648
 9258SOL     OW39232   2.486   3.029   6.873  0.3372 -0.3346  0.5835
 9258SOL    HW139233   2.416   3.092   6.889 -1.2744 -1.5748 -1.5451
 9258SOL    HW239234   2.431   2.951   6.866  0.1934 -0.0456 -1.5894
 9259SOL     OW39235   4.079   0.741   2.330  0.9175 -0.2456  0.2904
 9259SOL    HW139236   4.138   0.669   2.350  1.0378 -0.4403 -0.7575
 9259SOL    HW239237   4.003   0.688   2.307 -0.0537  1.1525  0.3112
 9260SOL     OW39238   1.810   0.642   6.197 -0.0766 -0.5045  0.3607
 9260SOL    HW139239   1.754   0.655   6.121  0.1709 -2.8076 -0.2031
 9260SOL    HW239240   1.853   0.560   6.172 -2.8945 -2.3603  1.5586
 9261SOL     OW39241   0.198   4.149  15.413 -0.0576  0.2920  0.2176
 9261SOL    HW139242   0.248   4.076  15.377 -0.8551  0.2394 -0.7776
 9261SOL    HW239243   0.221   4.219  15.353  0.2531 -0.5251 -0.6227
 9262SOL     OW39244   3.462   4.474   9.175 -0.0381 -0.1889  0.6006
 9262SOL    HW139245   3.419   4.526   9.243 -0.4594 -0.0671  0.2376
 9262SOL    HW239246   3.451   4.386   9.209  1.3184 -0.5464  0.1063
 9263SOL     OW39247   1.713   0.144   3.043 -0.2530 -0.2722  0.4388
 9263SOL    HW139248   1.719   0.217   3.105 -1.1510  1.0295 -1.0295
 9263SOL    HW239249   1.627   0.156   3.003 -1.2223  0.9363  2.8474
 9264SOL     OW39250   1.092   1.777  16.455 -0.0301 -0.7773  0.2428
 9264SOL    HW139251   1.029   1.841  16.488  1.3322  1.3888 -1.3930
 9264SOL    HW239252   1.059   1.760  16.367  1.7341  3.7064 -1.2765
 9265SOL     OW39253   1.212   0.974  17.582 -0.1212 -0.0413 -0.3252
 9265SOL    HW139254   1.212   0.939  17.671 -1.6009 -0.4719 -0.4858
 9265SOL    HW239255   1.299   1.013  17.585 -1.2100  2.4644 -0.4855
 9266SOL     OW39256   3.710   1.312   5.046 -0.3350  0.0170  0.6221
 9266SOL    HW139257   3.763   1.390   5.062  0.5359 -0.0837 -1.8340
 9266SOL    HW239258   3.725   1.279   5.134  3.3207  0.3478  0.1007
 9267SOL     OW39259   0.597   4.197  15.338  0.3338 -0.0504  0.1923
 9267SOL    HW139260   0.535   4.239  15.398  0.8795  1.4231 -0.2793
 9267SOL    HW239261   0.548   4.207  15.257  1.1838  0.1361 -0.2988
 9268SOL     OW39262   2.705   0.233  16.546 -0.0572 -0.1178  0.1370
 9268SOL    HW139263   2.786   0.282  16.534  0.3812 -0.9630 -0.3705
 9268SOL    HW239264   2.645   0.275  16.483 -1.0206  0.0273  1.1512
 9269SOL     OW39265   4.080   3.886  13.660 -0.4660  0.0627 -0.2419
 9269SOL    HW139266   4.033   3.818  13.709 -0.1551 -0.5233 -0.7641
 9269SOL    HW239267   4.169   3.876  13.693  0.5150  1.1090 -2.5755
 9270SOL     OW39268   2.928   4.095   1.712  0.1663 -0.1475 -0.3624
 9270SOL    HW139269   2.862   4.163   1.721 -0.1059 -0.6461  1.4282
 9270SOL    HW239270   2.916   4.072   1.619  2.2384 -3.0616  0.0680
 9271SOL     OW39271   2.170   0.893   7.880 -0.2671 -0.1465 -0.5530
 9271SOL    HW139272   2.249   0.912   7.931 -0.4153  0.5508 -0.5862
 9271SOL    HW239273   2.205   0.855   7.800  4.0986  0.7151  0.9301
 9272SOL     OW39274   4.197   2.993   2.554  0.1033 -0.1151 -0.0215
 9272SOL    HW139275   4.117   2.964   2.597 -0.9216  1.2750 -1.0101
 9272SOL    HW239276   4.220   2.908   2.514 -2.5554 -1.3354  1.0864
 9273SOL     OW39277   3.584   0.830   3.103  0.2245  0.3920 -0.1866
 9273SOL    HW139278   3.584   0.738   3.077 -3.0134  0.4088 -0.2663
 9273SOL    HW239279   3.519   0.868   3.043 -0.3694 -1.3403 -0.6433
 9274SOL     OW39280   3.316   3.602   9.159  0.0692  0.4085 -0.5286
 9274SOL    HW139281   3.280   3.513   9.157  1.1844 -0.0823  0.7386
 9274SOL    HW239282   3.241   3.657   9.181 -0.0472  0.3404 -0.7651
 9275SOL     OW39283   2.574   3.978  14.209 -0.0493  0.5041  0.0357
 9275SOL    HW139284   2.609   3.938  14.129 -2.2445 -0.8090 -0.2655
 9275SOL    HW239285   2.480   3.970  14.193  0.0165 -1.9431  0.8476
 9276SOL     OW39286   0.894   3.304   5.002  0.5180  0.3049 -0.1998
 9276SOL    HW139287   0.921   3.270   4.916  3.1591  0.9682  0.3669
 9276SOL    HW239288   0.967   3.269   5.053 -0.3775 -1.0043  0.1912
 9277SOL     OW39289   3.800   1.556  12.026  0.3063 -0.6390  0.4477
 9277SOL    HW139290   3.778   1.484  11.968  2.2141 -1.0622  0.2502
 9277SOL    HW239291   3.870   1.515  12.077  1.2373 -0.9594 -1.0786
 9278SOL     OW39292   2.260   0.200   1.493 -0.5425  0.0781  0.0672
 9278SOL    HW139293   2.208   0.137   1.444 -0.3663  0.7801 -1.0369
 9278SOL    HW239294   2.209   0.225   1.570  0.4216 -0.0684  0.7543
 9279SOL     OW39295   3.381   2.350   3.729 -0.3629  0.7251  0.1521
 9279SOL    HW139296   3.325   2.409   3.678 -0.1375  2.8291  2.3068
 9279SOL    HW239297   3.452   2.336   3.666 -0.7857  0.0879 -0.1696
 9280SOL     OW39298   0.632   4.526  16.761 -0.0967  0.2803  0.2280
 9280SOL    HW139299   0.636   4.488  16.673 -1.2045  1.7539 -0.4543
 9280SOL    HW239300   0.579   4.461  16.805  1.0916  0.4904  1.9526
 9281SOL     OW39301   3.130   0.468   6.185  0.2814  0.3367  0.0716
 9281SOL    HW139302   3.051   0.428   6.151 -0.2543 -2.2976  4.4596
 9281SOL    HW239303   3.108   0.473   6.278  3.0290 -1.1390  0.8089
 9282SOL     OW39304   3.304   3.737   2.177 -0.2222 -0.5920 -0.2431
 9282SOL    HW139305   3.210   3.735   2.194  0.4622 -0.1496  3.5467
 9282SOL    HW239306   3.334   3.648   2.198  1.0076 -0.0885  0.1576
 9283SOL     OW39307   3.232   2.087   4.951 -0.1448 -0.1165  0.2359
 9283SOL    HW139308   3.173   2.161   4.936  0.6953  0.5178  0.0519
 9283SOL    HW239309   3.170   2.033   4.999  1.5158 -2.3970 -0.2052
 9284SOL     OW39310   4.160   0.797  12.052  0.5728  0.1117  0.3385
 9284SOL    HW139311   4.180   0.851  11.976 -0.2742 -1.2449 -0.8408
 9284SOL    HW239312   4.099   0.735  12.013 -0.2615  0.2486  1.3956
 9285SOL     OW39313   4.624   0.083  17.319 -0.2929 -0.4396  0.0298
 9285SOL    HW139314   4.556   0.047  17.262 -0.7179  1.8067 -0.8780
 9285SOL    HW239315   4.608   0.173  17.292 -0.7569 -0.0939  1.4824
 9286SOL     OW39316   1.637   4.617   8.095 -0.0313 -0.2385 -0.2852
 9286SOL    HW139317   1.671   4.689   8.148 -0.2438  1.0808 -1.9283
 9286SOL    HW239318   1.593   4.558   8.156 -0.8158 -0.2597 -0.8685
 9287SOL     OW39319   3.288   0.690   6.601 -0.3062  0.0394  0.0130
 9287SOL    HW139320   3.197   0.686   6.571 -0.3853 -1.0115  0.4090
 9287SOL    HW239321   3.327   0.615   6.558  1.0920  1.7832 -1.7646
 9288SOL     OW39322   0.328   1.940  13.399 -0.3391 -0.7578  0.1191
 9288SOL    HW139323   0.349   1.953  13.307  0.1485  0.4963  0.4050
 9288SOL    HW239324   0.275   1.861  13.402  0.6436 -1.5425 -2.7651
 9289SOL     OW39325   3.012   0.733   5.172 -0.8578 -0.5447 -0.5144
 9289SOL    HW139326   2.975   0.821   5.174  3.0326  1.0850  0.3887
 9289SOL    HW239327   2.935   0.682   5.147 -1.1796 -0.2683 -0.0951
 9290SOL     OW39328   2.931   3.733   5.172  0.2661  0.3183  0.5074
 9290SOL    HW139329   2.903   3.667   5.110 -0.4106 -0.5425  1.7296
 9290SOL    HW239330   2.939   3.681   5.252 -2.8931 -0.2803  0.4459
 9291SOL     OW39331   1.966   2.394   6.914  0.4021 -0.6872 -0.3215
 9291SOL    HW139332   1.914   2.342   6.975  0.7448  0.3326  0.8442
 9291SOL    HW239333   1.941   2.484   6.934 -0.5273 -0.8839 -0.6113
 9292SOL     OW39334   3.227   0.990   1.003  0.4731 -0.4251 -0.0553
 9292SOL    HW139335   3.323   0.991   0.997  0.4415 -0.9826 -0.6525
 9292SOL    HW239336   3.210   1.072   0.955  0.3167 -0.9418 -0.8867
 9293SOL     OW39337   3.784   0.569  11.673  0.4389 -0.3317 -0.6739
 9293SOL    HW139338   3.797   0.664  11.667 -2.3792  0.2197  1.7346
 9293SOL    HW239339   3.861   0.537  11.626  1.7180  2.2007 -0.2829
 9294SOL     OW39340   0.521   2.350  16.968 -0.5365 -0.5666  0.4835
 9294SOL    HW139341   0.554   2.267  17.001  1.2478  0.3647  1.0551
 9294SOL    HW239342   0.603   2.395  16.949  0.0372 -2.3779 -1.1794
 9295SOL     OW39343   2.027   0.663  12.147 -0.2477 -0.5302  0.4468
 9295SOL    HW139344   2.003   0.747  12.109 -3.1396 -1.6873 -0.2867
 9295SOL    HW239345   2.093   0.689  12.211  0.2085  2.1430 -1.1241
 9296SOL     OW39346   3.696   4.650   4.370 -0.8925  0.4899  0.0410
 9296SOL    HW139347   3.750   4.613   4.300 -1.8475 -0.2978 -0.2836
 9296SOL    HW239348   3.630   4.702   4.324 -0.2794 -0.8107 -2.3488
 9297SOL     OW39349   3.756   1.679   8.883  0.7628 -0.1165 -0.4404
 9297SOL    HW139350   3.759   1.687   8.978 -1.2482  3.0713 -0.6637
 9297SOL    HW239351   3.846   1.703   8.861  0.1864  2.8126  0.4303
 9298SOL     OW39352   4.316   0.762  16.328  0.9535  0.1535 -0.8718
 9298SOL    HW139353   4.233   0.809  16.332  1.9307  1.8963 -1.4165
 9298SOL    HW239354   4.294   0.680  16.373 -0.3284  1.7264  1.3174
 9299SOL     OW39355   2.009   2.888   3.165  0.2163 -0.0109 -0.1327
 9299SOL    HW139356   1.926   2.925   3.134 -0.0134  0.2885  0.8286
 9299SOL    HW239357   2.051   2.854   3.087 -0.5190 -1.5773  0.1428
 9300SOL     OW39358   4.076   4.478   5.158 -0.5352  0.1906 -0.6122
 9300SOL    HW139359   4.082   4.532   5.079  2.7702  0.3785 -0.2122
 9300SOL    HW239360   4.100   4.394   5.118 -0.9878 -1.1363  1.9093
 9301SOL     OW39361   1.479   2.124  10.505  0.5859 -0.7622 -0.6036
 9301SOL    HW139362   1.458   2.097  10.595 -2.5610 -0.7890 -1.3336
 9301SOL    HW239363   1.506   2.215  10.519 -0.8136 -0.1024 -2.1280
 9302SOL     OW39364   1.297   3.897   0.417 -0.6830  0.5451 -0.3365
 9302SOL    HW139365   1.369   3.870   0.475  1.7404  2.5188 -2.3878
 9302SOL    HW239366   1.336   3.969   0.367  1.0445 -1.2124 -1.5527
 9303SOL     OW39367   1.464   0.108  13.670  0.2329  0.5934  0.6011
 9303SOL    HW139368   1.395   0.110  13.604 -0.0822  1.2951  0.9454
 9303SOL    HW239369   1.497   0.018  13.668 -0.7541  0.2312  0.5853
 9304SOL     OW39370   2.318   0.848   4.989 -0.4372  0.2276  0.1783
 9304SOL    HW139371   2.328   0.835   4.894  3.4134 -2.2626  0.8918
 9304SOL    HW239372   2.241   0.904   4.986  0.9158  2.0005 -1.9024
 9305SOL     OW39373   1.619   0.012   8.382  0.0845 -0.5711 -0.3651
 9305SOL    HW139374   1.713   0.016   8.395 -0.1247  2.6029  0.1999
 9305SOL    HW239375   1.612   4.645   8.354 -2.4546 -0.3910 -0.3284
 9306SOL     OW39376   0.779   3.471  13.595 -0.2500  0.1422  0.6988
 9306SOL    HW139377   0.828   3.471  13.512  0.5071  0.3583  1.1511
 9306SOL    HW239378   0.701   3.421  13.570  0.2038 -0.9267  1.4267
 9307SOL     OW39379   2.220   1.703   7.795  0.3454  0.3634  0.1488
 9307SOL    HW139380   2.163   1.633   7.828  0.0355 -0.5139 -2.2104
 9307SOL    HW239381   2.222   1.764   7.868 -1.3224 -0.4517  0.8777
 9308SOL     OW39382   4.335   3.204   2.637 -0.4907  0.0649  0.4849
 9308SOL    HW139383   4.377   3.245   2.561 -2.9100  0.1052 -0.8305
 9308SOL    HW239384   4.312   3.114   2.614  0.0520 -0.8272  3.4187
 9309SOL     OW39385   1.937   4.406  16.008 -0.3624  0.1504 -0.0426
 9309SOL    HW139386   1.924   4.332  15.948 -3.9117  1.1680 -0.5370
 9309SOL    HW239387   1.846   4.424  16.031 -0.3638  1.0183 -0.7330
 9310SOL     OW39388   3.735   2.766   2.474 -0.1943  0.0940  0.0225
 9310SOL    HW139389   3.648   2.796   2.449 -0.8738 -0.8986  1.2053
 9310SOL    HW239390   3.740   2.784   2.568 -1.5230  2.1660 -0.3022
 9311SOL     OW39391   3.519   3.600  12.201 -0.1449 -0.1807 -0.2145
 9311SOL    HW139392   3.443   3.644  12.239 -0.7042 -2.2436  1.0597
 9311SOL    HW239393   3.569   3.606  12.282  1.3197 -1.8947 -0.9926
 9312SOL     OW39394   4.379   4.019   3.382  0.0277 -0.0404 -0.3091
 9312SOL    HW139395   4.405   4.042   3.292  0.8073 -0.2893 -0.1452
 9312SOL    HW239396   4.459   4.033   3.432  0.1666 -2.4340  0.1168
 9313SOL     OW39397   0.796   1.520   8.236 -0.0079 -0.3091 -0.3296
 9313SOL    HW139398   0.842   1.497   8.155  0.8824  2.3702 -0.5572
 9313SOL    HW239399   0.852   1.475   8.299  1.3140 -0.7587 -1.8310
 9314SOL     OW39400   3.265   1.229  16.368  0.8879 -0.1591 -0.2529
 9314SOL    HW139401   3.276   1.181  16.450 -2.4458  1.6719  1.2620
 9314SOL    HW239402   3.213   1.177  16.308 -1.9683  2.4188 -0.0047
 9315SOL     OW39403   2.828   0.657   7.477  0.0804 -0.5567 -0.4971
 9315SOL    HW139404   2.798   0.604   7.551 -0.8379  0.9115  0.1704
 9315SOL    HW239405   2.874   0.730   7.517  1.4774 -0.1911 -2.7855
 9316SOL     OW39406   4.251   2.295   8.226 -0.1512  0.7447  0.2633
 9316SOL    HW139407   4.333   2.262   8.263 -0.5645  0.3936  0.8661
 9316SOL    HW239408   4.263   2.384   8.261 -1.7497  0.2657  2.0459
 9317SOL     OW39409   4.328   4.406   1.604 -0.1280  0.1098 -0.1271
 9317SOL    HW139410   4.367   4.488   1.572 -1.4901  0.5963 -0.5465
 9317SOL    HW239411   4.338   4.427   1.697 -1.0271  0.0604 -0.0204
 9318SOL     OW39412   2.415   3.415   4.378 -0.0771  0.2519  0.4182
 9318SOL    HW139413   2.453   3.496   4.411 -0.0818  0.2705  0.3786
 9318SOL    HW239414   2.325   3.448   4.385 -0.4996 -1.5005  3.3939
 9319SOL     OW39415   4.358   2.610   6.884 -0.4727  0.4604 -0.6524
 9319SOL    HW139416   4.391   2.614   6.795  0.0818 -0.0877 -0.4723
 9319SOL    HW239417   4.278   2.662   6.879 -1.7158 -1.5164 -1.4544
 9320SOL     OW39418   3.738   3.401   5.686 -0.1575 -0.0992 -0.1984
 9320SOL    HW139419   3.748   3.496   5.691 -1.1015  0.0278 -0.8597
 9320SOL    HW239420   3.782   3.377   5.768 -2.5461 -0.2393  1.0510
 9321SOL     OW39421   3.698   1.220   5.716  0.2752  0.2404 -0.2730
 9321SOL    HW139422   3.652   1.286   5.665  3.1389  1.9149 -0.6726
 9321SOL    HW239423   3.664   1.238   5.803 -1.3935 -1.9875 -0.4324
 9322SOL     OW39424   3.045   0.618   0.999 -0.2913 -0.2806 -0.4172
 9322SOL    HW139425   2.955   0.621   1.032  0.2857  1.2004  1.0218
 9322SOL    HW239426   3.098   0.595   1.075  1.3411 -1.6219 -1.9643
 9323SOL     OW39427   0.199   1.349   6.009 -0.2309  0.1361  0.2053
 9323SOL    HW139428   0.255   1.399   6.068 -0.3420  0.1816  0.2722
 9323SOL    HW239429   0.165   1.290   6.076 -1.4318  0.8843  0.2374
 9324SOL     OW39430   1.058   3.878  10.117  0.4058  0.3941  0.2638
 9324SOL    HW139431   1.039   3.838  10.202  2.6004 -0.2887  0.4215
 9324SOL    HW239432   1.148   3.848  10.105 -0.2369 -0.5262 -2.3634
 9325SOL     OW39433   4.031   1.466   0.821  0.0014  0.0920  0.0852
 9325SOL    HW139434   4.007   1.407   0.892  3.9968  0.5263  1.8074
 9325SOL    HW239435   3.993   1.548   0.852 -1.6251 -0.7182  0.2098
 9326SOL     OW39436   1.927   0.312   5.557  0.0729  0.2045  0.1414
 9326SOL    HW139437   1.962   0.230   5.522  1.4538  0.3495  1.1683
 9326SOL    HW239438   1.980   0.327   5.635  0.2210  0.3832  0.0092
 9327SOL     OW39439   4.113   3.627   6.969  0.5354  0.2808 -0.1288
 9327SOL    HW139440   4.034   3.626   6.915  0.6151 -1.3031 -0.2164
 9327SOL    HW239441   4.138   3.536   6.956 -2.1900 -0.6868  1.2759
 9328SOL     OW39442   4.207   3.931   2.113  0.5653 -0.5443  0.3506
 9328SOL    HW139443   4.135   3.987   2.083  2.5771  1.6483 -0.4426
 9328SOL    HW239444   4.218   3.966   2.202  0.7056  1.0238 -0.2812
 9329SOL     OW39445   2.444   3.287   3.977  0.2926  0.3736 -0.3492
 9329SOL    HW139446   2.448   3.249   3.890  0.9763  0.1140 -0.2016
 9329SOL    HW239447   2.411   3.373   3.950  0.7395  1.0950  1.3975
 9330SOL     OW39448   4.381   4.204  11.438 -0.2175 -0.2398  0.2222
 9330SOL    HW139449   4.399   4.111  11.424 -0.9753 -0.4600  0.7328
 9330SOL    HW239450   4.344   4.232  11.354  2.6386 -0.4807 -1.1440
 9331SOL     OW39451   3.190   0.925   4.467  0.1537 -0.0577  0.4379
 9331SOL    HW139452   3.204   0.993   4.401  0.0833 -0.3434  0.1264
 9331SOL    HW239453   3.203   0.851   4.408  0.5366 -0.1256  0.6063
 9332SOL     OW39454   4.399   0.411  17.272  0.1750 -0.0132  0.2223
 9332SOL    HW139455   4.433   0.501  17.275 -0.0313  0.1743 -3.2313
 9332SOL    HW239456   4.466   0.371  17.217  0.6578 -1.4318  1.8432
 9333SOL     OW39457   1.395   2.225   7.334  0.2758 -0.3593  0.1595
 9333SOL    HW139458   1.410   2.146   7.386  1.1035 -0.0515  0.3960
 9333SOL    HW239459   1.427   2.289   7.396  2.7337 -2.2708  0.8813
 9334SOL     OW39460   2.870   2.327   9.423  0.0196  0.4592  0.7058
 9334SOL    HW139461   2.779   2.353   9.410  0.4573  1.2727 -0.7607
 9334SOL    HW239462   2.899   2.352   9.335  0.2806 -0.0535  0.6436
 9335SOL     OW39463   4.482   0.535  16.102  0.8989  0.2508  0.2975
 9335SOL    HW139464   4.480   0.601  16.033 -0.2774 -1.3207 -1.1648
 9335SOL    HW239465   4.517   0.464  16.049  0.4067  1.2764 -1.4159
 9336SOL     OW39466   0.250   4.355   8.567  0.9051  0.4677 -0.0121
 9336SOL    HW139467   0.277   4.274   8.611 -0.1691 -0.1911 -0.5486
 9336SOL    HW239468   0.167   4.333   8.524 -0.3854  0.7780  2.2968
 9337SOL     OW39469   0.546   0.932   2.744 -0.0528 -0.3757  0.0808
 9337SOL    HW139470   0.483   0.997   2.776 -0.2072 -0.6876  0.4116
 9337SOL    HW239471   0.529   0.859   2.803  1.8908 -1.4978 -0.7734
 9338SOL     OW39472   0.923   0.568   8.528  0.2630  0.0599 -0.1687
 9338SOL    HW139473   1.000   0.610   8.566 -1.9630  2.5212  1.7083
 9338SOL    HW239474   0.867   0.646   8.519 -0.1828 -0.2660 -0.2186
 9339SOL     OW39475   0.862   0.609   4.481  0.4814  0.1354  0.2010
 9339SOL    HW139476   0.799   0.676   4.454  1.1155  0.4127 -0.6000
 9339SOL    HW239477   0.812   0.574   4.555 -1.2124  0.0999 -0.9620
 9340SOL     OW39478   3.638   3.052   5.680  0.3749  0.0616 -1.0639
 9340SOL    HW139479   3.612   3.127   5.625 -0.9990  0.8462  0.6582
 9340SOL    HW239480   3.706   3.092   5.734  0.0775 -2.1214  0.9183
 9341SOL     OW39481   0.718   3.765  13.810  0.2571 -0.2413 -0.8249
 9341SOL    HW139482   0.689   3.853  13.836 -0.8193 -0.3080 -1.7748
 9341SOL    HW239483   0.650   3.739  13.748 -0.9721  0.6401  0.1369
 9342SOL     OW39484   1.872   0.224   3.430  0.2481 -0.6274 -0.2096
 9342SOL    HW139485   1.938   0.192   3.368  0.2061  0.2557 -0.7036
 9342SOL    HW239486   1.814   0.148   3.439 -0.3727 -0.1973 -0.5947
 9343SOL     OW39487   2.732   4.472  17.249 -0.2054 -0.3969  0.0345
 9343SOL    HW139488   2.736   4.438  17.160 -2.0473  0.4071 -0.3676
 9343SOL    HW239489   2.760   4.396  17.301 -0.1618 -0.3344  0.1020
 9344SOL     OW39490   1.252   4.598   3.687  0.3961  0.0611 -0.0866
 9344SOL    HW139491   1.156   4.600   3.684  0.4072  1.0293  0.4084
 9344SOL    HW239492   1.266   4.670   3.748  0.4309  1.7312 -2.0418
 9345SOL     OW39493   3.386   1.524  16.316  0.5698 -0.2523 -0.4078
 9345SOL    HW139494   3.416   1.595  16.372  1.0548 -0.5704 -0.2572
 9345SOL    HW239495   3.381   1.453  16.380  0.6252 -2.0203 -2.3728
 9346SOL     OW39496   0.635   2.854   6.155  0.5057 -0.3165 -0.2352
 9346SOL    HW139497   0.729   2.870   6.149 -0.1679  3.6266 -0.8379
 9346SOL    HW239498   0.621   2.836   6.062 -2.0608 -0.8129  0.2335
 9347SOL     OW39499   4.615   2.624   6.103  0.6476  0.0196 -0.1263
 9347SOL    HW139500   4.530   2.667   6.113  0.6215 -0.6162  2.4477
 9347SOL    HW239501   4.646   2.658   6.019  0.6584 -2.2008 -1.0286
 9348SOL     OW39502   3.597   3.430   6.321 -0.3248 -0.3482  0.1060
 9348SOL    HW139503   3.574   3.369   6.391  0.4446 -1.1282 -0.3100
 9348SOL    HW239504   3.528   3.495   6.321 -0.1284 -0.1517 -1.9906
 9349SOL     OW39505   3.061   4.266  14.890 -0.8402  0.2412  0.0439
 9349SOL    HW139506   3.066   4.292  14.982 -0.4510 -3.7476  1.1890
 9349SOL    HW239507   3.031   4.349  14.853  0.0818  0.6899  0.3228
 9350SOL     OW39508   0.602   0.582   2.686  0.3128  0.0697  0.1349
 9350SOL    HW139509   0.601   0.516   2.617 -2.2244  0.0884  0.1540
 9350SOL    HW239510   0.572   0.532   2.761  0.7339 -0.2655  0.0781
 9351SOL     OW39511   2.150   0.931   4.162  0.1923 -0.5445 -0.0525
 9351SOL    HW139512   2.059   0.900   4.159  0.6282 -1.8310 -0.2614
 9351SOL    HW239513   2.160   0.959   4.071  0.4544 -2.6823 -0.6914
 9352SOL     OW39514   1.572   1.461  13.014 -0.1014  0.2642 -0.0072
 9352SOL    HW139515   1.638   1.434  12.950 -0.6656 -1.9349  0.3288
 9352SOL    HW239516   1.561   1.377  13.058  1.2125  0.2279  0.2415
 9353SOL     OW39517   1.214   0.575   3.863  0.0771 -0.3588  0.0963
 9353SOL    HW139518   1.279   0.573   3.793 -0.1171  4.0877 -0.2364
 9353SOL    HW239519   1.145   0.625   3.818  1.8409 -0.2128 -2.4225
 9354SOL     OW39520   1.039   0.727   7.865 -0.1342 -0.4246 -0.1888
 9354SOL    HW139521   0.973   0.678   7.816 -2.4282  2.6146 -0.1807
 9354SOL    HW239522   1.010   0.688   7.948 -0.5381  0.4888  0.1161
 9355SOL     OW39523   2.980   2.884   6.994  0.2756 -0.2941 -0.2723
 9355SOL    HW139524   2.989   2.789   6.998  3.3742  0.0468  0.7316
 9355SOL    HW239525   2.919   2.892   6.921  0.6777  1.2654 -0.4332
 9356SOL     OW39526   3.171   3.585   5.848  0.1067 -0.1082 -1.0921
 9356SOL    HW139527   3.207   3.651   5.788 -2.4839  0.5469 -1.9395
 9356SOL    HW239528   3.155   3.501   5.803 -0.6443 -0.8534  0.5728
 9357SOL     OW39529   0.727   4.516   8.565  0.0931 -0.3364 -0.1033
 9357SOL    HW139530   0.653   4.522   8.506  0.4999 -1.0621 -0.6909
 9357SOL    HW239531   0.690   4.543   8.649  1.6516 -0.1376  0.5302
 9358SOL     OW39532   0.420   2.446   8.260  0.4008  0.0055  0.2206
 9358SOL    HW139533   0.489   2.395   8.217  0.8975 -0.6298  1.7400
 9358SOL    HW239534   0.467   2.528   8.246  0.8780 -0.5320 -1.2819
 9359SOL     OW39535   0.974   1.906   2.433  0.4524 -0.4541  0.0126
 9359SOL    HW139536   1.009   1.986   2.474  0.9447 -0.9251  0.5064
 9359SOL    HW239537   1.051   1.855   2.455  1.6297  1.1410 -0.3993
 9360SOL     OW39538   3.248   4.385   6.589 -0.6587  0.0055 -0.0752
 9360SOL    HW139539   3.343   4.376   6.592 -0.5452  0.8564 -0.9646
 9360SOL    HW239540   3.224   4.371   6.681 -0.8491  0.3666 -0.0684
 9361SOL     OW39541   1.826   1.135   9.826 -0.4943  0.5074 -0.1073
 9361SOL    HW139542   1.837   1.201   9.894  0.6086 -0.6639  0.8568
 9361SOL    HW239543   1.896   1.071   9.842 -2.2908 -1.4496 -0.1062
 9362SOL     OW39544   4.190   2.241  13.868  0.0227  0.3673 -0.0254
 9362SOL    HW139545   4.236   2.168  13.909  1.1150  0.8669 -0.3708
 9362SOL    HW239546   4.264   2.301  13.858  0.5785 -0.1729  0.8477
 9363SOL     OW39547   3.602   3.653   7.750 -0.1695 -0.4300 -0.1385
 9363SOL    HW139548   3.519   3.675   7.793  0.6836 -1.8928  2.2748
 9363SOL    HW239549   3.632   3.587   7.812 -0.3083 -0.7707 -0.4341
 9364SOL     OW39550   0.589   2.615  13.156  0.4224 -0.2141  0.0245
 9364SOL    HW139551   0.501   2.642  13.183  1.0479  1.4012  0.4432
 9364SOL    HW239552   0.603   2.548  13.223 -0.6707 -0.1680  0.3039
 9365SOL     OW39553   4.373   3.058  13.377  0.0630  0.1365  0.9174
 9365SOL    HW139554   4.417   3.006  13.310 -0.7366  0.6861 -0.0425
 9365SOL    HW239555   4.361   3.135  13.321 -0.0164 -1.1834 -0.8752
 9366SOL     OW39556   2.306   2.917  11.915  0.3865  0.0226  0.6039
 9366SOL    HW139557   2.312   2.996  11.968 -0.4307  1.0384 -0.8204
 9366SOL    HW239558   2.272   2.960  11.836  2.0583 -1.2651 -0.8209
 9367SOL     OW39559   0.466   4.172   7.328  0.8339 -0.6823 -0.3744
 9367SOL    HW139560   0.514   4.210   7.401 -0.7774  1.2948 -0.3568
 9367SOL    HW239561   0.529   4.165   7.257 -0.3668 -1.0557 -1.4044
 9368SOL     OW39562   0.141   0.347  11.300 -0.0822 -0.3632 -0.2744
 9368SOL    HW139563   0.101   0.260  11.300  0.9645 -0.8427  0.7253
 9368SOL    HW239564   0.068   0.408  11.290 -0.3519 -0.7172 -0.4674
 9369SOL     OW39565   0.329   0.195   8.572 -0.2658 -0.5772  0.1400
 9369SOL    HW139566   0.297   0.204   8.482  1.4431  0.4207 -0.3811
 9369SOL    HW239567   0.335   0.100   8.578 -1.1549 -0.5236  1.8073
 9370SOL     OW39568   2.302   1.135  17.017  0.0520 -0.1233  0.2995
 9370SOL    HW139569   2.334   1.126  16.927  0.5804  0.5501  0.4274
 9370SOL    HW239570   2.359   1.208  17.040  0.2421  0.6056 -2.4343
 9371SOL     OW39571   1.557   2.304  11.379  0.1805 -0.4191  0.2832
 9371SOL    HW139572   1.516   2.239  11.323  1.6009 -1.2550  0.2210
 9371SOL    HW239573   1.641   2.319  11.336 -0.2876  0.4774 -0.3389
 9372SOL     OW39574   3.536   0.440   4.849 -0.2007  0.3414 -0.0742
 9372SOL    HW139575   3.524   0.362   4.904 -0.6206 -2.0494 -3.5409
 9372SOL    HW239576   3.449   0.448   4.808  0.4079 -0.3492 -1.5260
 9373SOL     OW39577   2.931   2.635   3.862  0.2962  0.3858 -0.2410
 9373SOL    HW139578   2.934   2.729   3.844  1.5217 -0.0173 -2.1059
 9373SOL    HW239579   3.015   2.609   3.899 -1.0201 -1.8829  1.1573
 9374SOL     OW39580   0.428   2.302   0.726  0.3942  0.2851  0.2965
 9374SOL    HW139581   0.412   2.273   0.817  0.4376 -0.6939 -0.0063
 9374SOL    HW239582   0.342   2.306   0.683  1.0520  5.4861 -0.5040
 9375SOL     OW39583   3.826   4.485   0.936  0.0579 -0.2512  0.3960
 9375SOL    HW139584   3.830   4.515   0.846 -1.1480  1.6773  0.9822
 9375SOL    HW239585   3.746   4.432   0.932  0.3070 -0.6423  0.5580
 9376SOL     OW39586   1.559   3.012  12.884 -0.0766 -0.2443 -0.4279
 9376SOL    HW139587   1.608   2.930  12.883 -1.1914 -0.9038 -1.4239
 9376SOL    HW239588   1.566   3.040  12.975  1.3170  2.6056 -1.3886
 9377SOL     OW39589   1.307   1.379   3.841  0.0998 -0.2036 -0.5778
 9377SOL    HW139590   1.219   1.396   3.807 -0.6342 -0.4213  1.2175
 9377SOL    HW239591   1.350   1.459   3.810  1.6094 -1.3240 -1.3427
 9378SOL     OW39592   4.389   2.935  13.632  0.2592 -0.1209 -0.4274
 9378SOL    HW139593   4.458   2.868  13.632 -0.2232 -0.6200 -2.4411
 9378SOL    HW239594   4.393   2.971  13.543 -0.2132  0.8601 -0.0561
 9379SOL     OW39595   1.157   3.705   6.259 -0.1925 -0.2971  0.7784
 9379SOL    HW139596   1.087   3.760   6.224  1.0395 -0.7595 -2.3767
 9379SOL    HW239597   1.129   3.672   6.345 -1.2709 -1.6005 -0.0811
 9380SOL     OW39598   4.648   2.796  11.596 -0.2155 -0.3969 -0.0857
 9380SOL    HW139599   4.650   2.766  11.687 -1.7565  1.0171  0.4108
 9380SOL    HW239600   4.587   2.868  11.585  0.5256  0.3449  0.5720
 9381SOL     OW39601   0.810   2.969   1.702 -0.2192 -0.2340  0.2447
 9381SOL    HW139602   0.792   2.971   1.608  1.4010  2.1974 -0.0111
 9381SOL    HW239603   0.773   3.055   1.723 -0.0021 -0.0739 -0.0366
 9382SOL     OW39604   1.728   0.388   3.238 -0.2503  0.4914 -0.1398
 9382SOL    HW139605   1.794   0.361   3.301 -1.6446  2.2414  2.0852
 9382SOL    HW239606   1.777   0.446   3.180  2.2850 -0.7534  0.7561
 9383SOL     OW39607   3.240   2.721   3.589 -0.4306  0.6851 -0.3083
 9383SOL    HW139608   3.189   2.641   3.577  2.4666 -0.8856 -2.0859
 9383SOL    HW239609   3.164   2.779   3.576 -1.7037 -0.9007  0.0036
 9384SOL     OW39610   0.077   1.443   0.597 -0.6344  0.5774  0.0209
 9384SOL    HW139611   0.001   1.385   0.599 -1.6515  1.8047 -3.1817
 9384SOL    HW239612   0.106   1.438   0.506  2.5410  0.9018  1.0148
 9385SOL     OW39613   4.042   1.255  14.611 -0.2866  0.0015  0.3959
 9385SOL    HW139614   4.009   1.263  14.700 -1.7982 -0.0391 -0.1558
 9385SOL    HW239615   3.989   1.184  14.574  0.0917 -2.7134  5.1048
 9386SOL     OW39616   1.415   2.923   3.838  0.1531  0.1661  0.3527
 9386SOL    HW139617   1.408   3.018   3.835  1.4332  0.2810  1.2609
 9386SOL    HW239618   1.356   2.908   3.763  3.6665 -0.1082 -2.3373
 9387SOL     OW39619   4.277   1.993   2.242  0.4822  0.1404 -0.3235
 9387SOL    HW139620   4.224   2.071   2.255 -1.9378 -2.0511  2.9099
 9387SOL    HW239621   4.259   1.968   2.151  2.8479  0.6190 -0.9065
 9388SOL     OW39622   4.333   4.561   8.958  0.5581  0.1649  0.6362
 9388SOL    HW139623   4.253   4.573   9.010 -0.2393  1.6200 -0.9115
 9388SOL    HW239624   4.311   4.630   8.896  0.3909  1.3761  2.0366
 9389SOL     OW39625   4.303   2.193  17.094  0.6019  0.6389  0.7651
 9389SOL    HW139626   4.270   2.106  17.075  2.0782  0.3038 -0.2756
 9389SOL    HW239627   4.228   2.251  17.079  2.5225  3.1036  0.6643
 9390SOL     OW39628   0.977   4.081   5.845 -0.2325 -0.2971 -0.9810
 9390SOL    HW139629   0.963   4.021   5.918  4.0893  1.6847  1.4621
 9390SOL    HW239630   0.888   4.087   5.811  0.7406  2.0259 -3.1232
 9391SOL     OW39631   2.620   2.048  16.710 -0.3487  0.3606 -0.1742
 9391SOL    HW139632   2.567   2.030  16.632 -0.0880  3.9110 -1.1437
 9391SOL    HW239633   2.665   1.963  16.717  1.7424  1.3054 -2.5965
 9392SOL     OW39634   2.239   2.560   5.371  0.0324  0.3820 -0.4982
 9392SOL    HW139635   2.309   2.526   5.426 -0.6897 -0.2013  0.0570
 9392SOL    HW239636   2.288   2.549   5.289  0.4339  0.8768 -0.3237
 9393SOL     OW39637   4.565   3.815  10.412 -0.2525 -0.0572 -0.3211
 9393SOL    HW139638   4.535   3.834  10.323  0.8600  1.5890 -0.3449
 9393SOL    HW239639   4.482   3.775  10.438 -2.2263  1.2701 -4.5684
 9394SOL     OW39640   3.820   3.316  14.979  0.3513  0.5330  0.2408
 9394SOL    HW139641   3.866   3.252  15.034  0.4389  1.5650  1.3567
 9394SOL    HW239642   3.857   3.290  14.894  2.0161  0.6593  0.9196
 9395SOL     OW39643   2.885   4.339   0.534  0.0193  0.1275 -0.4702
 9395SOL    HW139644   2.959   4.287   0.567 -2.2985 -2.6089  0.3854
 9395SOL    HW239645   2.836   4.269   0.491 -1.6673  2.1218 -1.7739
 9396SOL     OW39646   2.392   0.078   7.972 -0.0478  0.7192 -0.2869
 9396SOL    HW139647   2.460   0.144   7.961  0.4932 -0.0195 -1.4374
 9396SOL    HW239648   2.394   0.058   8.066 -0.5227 -1.9973 -0.8467
 9397SOL     OW39649   3.776   2.740   6.884 -0.7268 -0.5754 -0.1036
 9397SOL    HW139650   3.838   2.728   6.812 -0.2359 -0.3273  0.2860
 9397SOL    HW239651   3.716   2.668   6.866  0.0761 -1.1355 -0.5412
 9398SOL     OW39652   4.482   0.070   5.125  0.2613 -0.0255 -0.3134
 9398SOL    HW139653   4.508   0.110   5.209 -1.6440 -0.1136  0.3070
 9398SOL    HW239654   4.387   0.067   5.138  0.0754  0.1695 -1.7254
 9399SOL     OW39655   1.573   4.054   0.084 -0.2697 -0.1945  0.5496
 9399SOL    HW139656   1.619   4.017   0.160 -0.3992  0.5017  0.9742
 9399SOL    HW239657   1.514   3.984   0.057 -0.9763  0.6866 -0.1653
 9400SOL     OW39658   0.888   0.557   2.832 -0.2449  0.1341  0.0583
 9400SOL    HW139659   0.940   0.578   2.909  1.2519  0.7935 -1.1523
 9400SOL    HW239660   0.859   0.646   2.810  0.7735  0.0375 -1.6234
 9401SOL     OW39661   3.637   0.947   7.506 -0.0116  0.0126  0.9391
 9401SOL    HW139662   3.681   0.863   7.493 -1.7750 -0.7120 -0.3804
 9401SOL    HW239663   3.667   0.969   7.594  0.0734  0.2384  0.8541
 9402SOL     OW39664   4.311   1.128   0.604 -0.4055  0.3487 -0.2071
 9402SOL    HW139665   4.305   1.220   0.632  0.7475  0.4034 -0.1370
 9402SOL    HW239666   4.234   1.132   0.548 -1.3903 -0.1774  1.1010
 9403SOL     OW39667   4.677   2.392  12.164 -0.5519  0.4563 -0.2141
 9403SOL    HW139668   4.632   2.391  12.080  1.8816 -2.1185 -1.4689
 9403SOL    HW239669   4.616   2.438  12.223 -0.1465 -1.1510  1.4662
 9404SOL     OW39670   2.646   1.923   3.680  0.0306 -0.2776  0.1108
 9404SOL    HW139671   2.585   1.994   3.701  0.3205 -0.2377  0.7839
 9404SOL    HW239672   2.713   1.968   3.628  1.1448 -2.3142 -0.1910
 9405SOL     OW39673   3.121   4.244   6.301  0.6360  0.1349  0.0902
 9405SOL    HW139674   3.097   4.198   6.382 -0.1305 -0.5043 -0.5020
 9405SOL    HW239675   3.217   4.236   6.299  0.6665  0.7198 -0.6337
 9406SOL     OW39676   2.656   0.343  10.750 -0.0714  0.3477  0.0166
 9406SOL    HW139677   2.618   0.338  10.837  0.7093  0.1365  0.3474
 9406SOL    HW239678   2.586   0.370  10.690 -0.9215 -1.1980  0.3159
 9407SOL     OW39679   2.033   3.218   9.489 -0.0422 -0.2870 -0.3850
 9407SOL    HW139680   2.044   3.194   9.581 -1.3639  3.1482  0.6391
 9407SOL    HW239681   1.985   3.300   9.501  0.2198  0.1527 -2.4488
 9408SOL     OW39682   4.273   4.626  11.730  0.5988 -0.1692  0.2234
 9408SOL    HW139683   4.199   4.570  11.755 -1.4471  1.6889 -1.7680
 9408SOL    HW239684   4.241   4.657  11.646  0.5896  0.1170  0.3337
 9409SOL     OW39685   1.209   4.450   8.193  0.5357 -0.6590  0.3939
 9409SOL    HW139686   1.198   4.431   8.100  0.5699  0.3227  0.1868
 9409SOL    HW239687   1.277   4.385   8.213  0.0283 -1.8916 -1.8767
 9410SOL     OW39688   2.140   3.682   7.017  0.6700  0.6432  0.1246
 9410SOL    HW139689   2.205   3.742   7.054  1.3163 -1.0466  1.7012
 9410SOL    HW239690   2.062   3.731   7.043 -1.4047 -1.4749 -2.0947
 9411SOL     OW39691   1.340   1.286   7.794 -0.2979 -0.5764 -0.0320
 9411SOL    HW139692   1.388   1.325   7.867 -1.6853 -1.7188  1.4831
 9411SOL    HW239693   1.266   1.347   7.792  1.3999  1.5183  1.1276
 9412SOL     OW39694   2.294   0.120   5.905  0.0565  0.1785 -0.8424
 9412SOL    HW139695   2.294   0.108   6.000  2.2753 -0.0854 -0.8852
 9412SOL    HW239696   2.219   0.069   5.873  0.3102  0.0597 -1.2501
 9413SOL     OW39697   3.015   3.019  12.329 -0.3235  0.1421 -0.0074
 9413SOL    HW139698   3.006   3.114  12.338 -0.4462  0.0742  0.6163
 9413SOL    HW239699   2.928   2.990  12.302 -0.6645  1.3038 -0.1492
 9414SOL     OW39700   0.895   2.491   6.543 -0.0435 -0.0184 -0.5216
 9414SOL    HW139701   0.914   2.403   6.511 -3.5415 -0.7243 -0.6210
 9414SOL    HW239702   0.801   2.496   6.559  0.0559 -0.4483  0.1966
 9415SOL     OW39703   0.025   0.134   2.441 -0.3019 -0.3473  0.5292
 9415SOL    HW139704   0.077   0.054   2.436  0.3976 -0.0482  3.2224
 9415SOL    HW239705   4.689   0.105   2.373  1.4848  1.1443 -1.7353
 9416SOL     OW39706   2.465   4.357   2.227  0.1422  0.6421  0.2558
 9416SOL    HW139707   2.549   4.324   2.258  0.1564  0.4304 -0.0032
 9416SOL    HW239708   2.424   4.284   2.179  2.8378  0.2029 -1.3633
 9417SOL     OW39709   2.907   0.647  13.789  0.2479 -0.1736 -0.5346
 9417SOL    HW139710   2.964   0.593  13.844 -2.0563 -0.1626  1.8508
 9417SOL    HW239711   2.920   0.730  13.835  2.5125 -0.8633  0.0694
 9418SOL     OW39712   4.007   4.516   4.458 -0.2167 -0.1341 -0.0734
 9418SOL    HW139713   3.951   4.574   4.407  1.1987 -0.9516 -2.5293
 9418SOL    HW239714   4.093   4.511   4.416  0.7174  0.5491  1.7278
 9419SOL     OW39715   2.028   1.065  10.924  0.5480  0.5030  0.1669
 9419SOL    HW139716   2.117   1.080  10.954  0.6124  0.0033  0.2253
 9419SOL    HW239717   2.047   0.994  10.862 -1.1175  0.2516 -0.0604
 9420SOL     OW39718   3.706   0.753   8.734 -0.6172 -0.1793  0.0266
 9420SOL    HW139719   3.791   0.780   8.768 -0.2510 -0.6820 -0.4906
 9420SOL    HW239720   3.703   0.679   8.795  0.9658  0.3953  0.7952
 9421SOL     OW39721   4.666   0.519  11.576  0.5255  0.1363  0.2247
 9421SOL    HW139722   4.577   0.552  11.574  0.4102 -0.3854 -3.7609
 9421SOL    HW239723   4.670   0.511  11.671  2.4361 -0.9575  0.0610
 9422SOL     OW39724   2.455   1.963   6.302  0.6563  0.7734 -0.5175
 9422SOL    HW139725   2.528   1.922   6.256  1.6216  0.3831  1.3481
 9422SOL    HW239726   2.481   1.992   6.390  0.7415  0.1185 -0.3282
 9423SOL     OW39727   2.247   3.526  12.797 -0.2051 -0.4217 -0.0269
 9423SOL    HW139728   2.224   3.600  12.740 -0.7917 -0.5710  0.0177
 9423SOL    HW239729   2.172   3.467  12.793  0.2836 -1.0794  0.4581
 9424SOL     OW39730   4.203   1.851   1.710  0.1097  0.1748  0.3653
 9424SOL    HW139731   4.211   1.868   1.617 -1.6010 -3.0192 -0.3651
 9424SOL    HW239732   4.247   1.766   1.710  0.1559  0.2257 -3.3259
 9425SOL     OW39733   3.417   4.423  17.534  0.0217  0.1353 -0.2092
 9425SOL    HW139734   3.475   4.497  17.553  0.9133 -0.1149 -2.0581
 9425SOL    HW239735   3.335   4.467  17.508 -0.8743 -1.0429  0.6013
 9426SOL     OW39736   1.900   1.424   6.369  0.8491 -0.5116 -0.1294
 9426SOL    HW139737   1.899   1.397   6.277  2.0635 -2.1892  0.3397
 9426SOL    HW239738   1.955   1.355   6.407 -0.7866 -1.2535  0.8796
 9427SOL     OW39739   1.976   3.547  16.399  0.2892  0.3357 -0.4625
 9427SOL    HW139740   2.004   3.495  16.325 -3.0383 -0.3830 -1.2425
 9427SOL    HW239741   2.056   3.590  16.430 -0.7393  2.2706 -0.4570
 9428SOL     OW39742   3.216   3.974   8.332 -0.0564  0.0880 -0.4861
 9428SOL    HW139743   3.158   3.919   8.280  0.2320  0.6015 -1.3530
 9428SOL    HW239744   3.278   3.998   8.263  1.4447 -0.0034  0.8339
 9429SOL     OW39745   3.863   1.982   3.826 -0.2434 -0.0529 -0.3161
 9429SOL    HW139746   3.806   2.044   3.872 -0.0786  1.6014 -2.3383
 9429SOL    HW239747   3.816   1.900   3.841 -1.8060  0.2828 -3.1855
 9430SOL     OW39748   0.452   4.104   5.768  0.1806  0.5811 -0.6014
 9430SOL    HW139749   0.376   4.086   5.713  0.1546  0.0001 -0.3684
 9430SOL    HW239750   0.519   4.113   5.700  0.9882 -0.6931  0.0296
 9431SOL     OW39751   0.540   2.038   6.568 -0.0120  0.2817 -0.3478
 9431SOL    HW139752   0.448   2.014   6.580 -0.6847  3.2832  0.5764
 9431SOL    HW239753   0.534   2.123   6.611 -0.1545  0.1305 -0.0634
 9432SOL     OW39754   3.035   1.992   4.268  0.0529 -0.0650  0.0120
 9432SOL    HW139755   2.959   1.934   4.259 -1.3231  1.8257 -0.7875
 9432SOL    HW239756   3.083   1.978   4.187  2.2021 -1.8992  1.6135
 9433SOL     OW39757   2.538   3.811   8.050 -0.2870  0.4814  0.3448
 9433SOL    HW139758   2.592   3.813   7.971 -1.5961 -0.9467 -0.6117
 9433SOL    HW239759   2.531   3.715   8.056  1.2050  0.3574  0.1029
 9434SOL     OW39760   3.097   2.712   8.978 -0.3006 -0.0727  0.4295
 9434SOL    HW139761   3.181   2.756   8.987  0.0049  0.3248 -4.1174
 9434SOL    HW239762   3.077   2.686   9.068 -0.0799  0.5133  0.6428
 9435SOL     OW39763   4.476   0.834   9.072  0.2677 -0.1726  0.0333
 9435SOL    HW139764   4.427   0.916   9.081  2.4599  1.1771 -0.1803
 9435SOL    HW239765   4.543   0.841   9.140  0.7047  0.6995 -0.4826
 9436SOL     OW39766   3.341   2.659   5.986  0.3295 -0.2199 -0.6480
 9436SOL    HW139767   3.411   2.672   5.922 -0.9985 -0.1834 -2.0823
 9436SOL    HW239768   3.390   2.617   6.056  2.6481  0.6734 -1.7399
 9437SOL     OW39769   4.050   3.312   0.020 -0.0878  0.4292  0.3030
 9437SOL    HW139770   4.018   3.321   0.110 -1.6979  0.0534 -0.2324
 9437SOL    HW239771   3.992   3.239  17.698  0.9403 -1.3989  3.7908
 9438SOL     OW39772   0.991   2.083  16.755  0.2036 -0.5714 -0.3195
 9438SOL    HW139773   0.975   2.032  16.675 -1.6376  1.5735 -1.3201
 9438SOL    HW239774   0.909   2.070  16.802 -0.5397 -0.7549 -1.6515
 9439SOL     OW39775   4.127   2.001   3.748 -0.9707  0.5697 -0.3025
 9439SOL    HW139776   4.143   1.961   3.833  1.4402  1.6300 -0.2758
 9439SOL    HW239777   4.037   2.027   3.768 -1.2737  0.0859 -1.0319
 9440SOL     OW39778   3.032   1.157  11.746 -0.7713  0.0417 -0.4861
 9440SOL    HW139779   3.097   1.223  11.770  1.0348 -1.6911 -0.6315
 9440SOL    HW239780   2.992   1.153  11.833 -0.6422  1.9823 -0.3278
 9441SOL     OW39781   1.836   0.305   8.319 -0.5313 -1.0439 -0.4236
 9441SOL    HW139782   1.885   0.286   8.399  0.0893 -3.1155 -1.2864
 9441SOL    HW239783   1.862   0.393   8.294 -1.1168 -0.8198 -0.2354
 9442SOL     OW39784   3.972   0.853   3.877 -0.3007  0.0180 -0.5140
 9442SOL    HW139785   4.014   0.937   3.858 -0.5944  0.0116 -1.1867
 9442SOL    HW239786   3.914   0.877   3.950 -0.6731 -1.2945 -0.3871
 9443SOL     OW39787   0.131   4.564   3.478 -0.7727  0.2915  0.1564
 9443SOL    HW139788   0.175   4.557   3.394 -0.7054  1.1696  0.1247
 9443SOL    HW239789   0.198   4.618   3.520  0.4949 -0.8149 -0.4321
 9444SOL     OW39790   3.144   4.672   0.512 -0.2104 -0.3683  0.0829
 9444SOL    HW139791   3.088   4.637   0.442  0.7677  1.0181 -1.3940
 9444SOL    HW239792   3.216   4.698   0.455  0.2262 -2.5048 -0.3407
 9445SOL     OW39793   2.667   0.385   3.501 -0.0181  0.8083 -0.0575
 9445SOL    HW139794   2.639   0.472   3.532  2.8724  1.1166  1.6622
 9445SOL    HW239795   2.593   0.340   3.541  0.5172 -0.6985 -0.7720
 9446SOL     OW39796   1.405   2.247   0.838  0.5510 -0.0922  0.0060
 9446SOL    HW139797   1.396   2.343   0.842 -1.5015 -0.2572 -0.4084
 9446SOL    HW239798   1.495   2.234   0.869  0.7241 -0.8391 -0.8231
 9447SOL     OW39799   4.612   0.351   4.453  0.1064  0.0274 -0.2753
 9447SOL    HW139800   4.663   0.275   4.425  0.5155  0.5110 -0.8510
 9447SOL    HW239801   4.601   0.334   4.547  1.7530  1.2238  0.1253
 9448SOL     OW39802   2.617   3.258   5.465  0.8874 -0.2994  0.0725
 9448SOL    HW139803   2.539   3.202   5.464  1.4339 -1.0203 -1.7805
 9448SOL    HW239804   2.630   3.271   5.559 -0.4663 -3.1399  0.6644
 9449SOL     OW39805   2.177   1.522  14.491 -0.2601 -0.3362  0.4270
 9449SOL    HW139806   2.246   1.481  14.543 -0.6017 -0.8784  0.4440
 9449SOL    HW239807   2.113   1.528  14.561 -0.8003 -0.1455 -0.0837
 9450SOL     OW39808   3.866   3.389   9.263 -0.1944 -0.3078 -0.0689
 9450SOL    HW139809   3.827   3.476   9.254  2.9481  0.8737 -1.9117
 9450SOL    HW239810   3.838   3.365   9.352 -1.9464  1.8615 -0.0239
 9451SOL     OW39811   1.471   2.789   3.501  0.1717 -0.5121 -0.0344
 9451SOL    HW139812   1.521   2.715   3.535 -0.0910 -0.7234 -0.1183
 9451SOL    HW239813   1.539   2.853   3.480  0.4429 -0.3033  1.4260
 9452SOL     OW39814   1.886   3.008  13.880  0.5988 -0.7167  0.5384
 9452SOL    HW139815   1.959   3.070  13.884 -0.8250  1.0600 -1.1540
 9452SOL    HW239816   1.893   2.975  13.969  0.9914  2.3515  1.6465
 9453SOL     OW39817   2.106   4.453   2.299 -0.3857 -0.8579  0.4491
 9453SOL    HW139818   2.195   4.486   2.289 -0.9228  0.2065 -0.7095
 9453SOL    HW239819   2.071   4.537   2.326  2.2195  0.2350  0.4114
 9454SOL     OW39820   2.968   3.236   9.421 -0.4707  0.2005  0.3557
 9454SOL    HW139821   2.886   3.282   9.402  0.6106  1.1893 -1.9186
 9454SOL    HW239822   2.960   3.181   9.344  0.5060 -1.0403  1.1552
 9455SOL     OW39823   1.577   3.916  14.772  0.9327 -0.9181  0.7340
 9455SOL    HW139824   1.597   4.009  14.756 -1.6836 -0.1930  1.6131
 9455SOL    HW239825   1.550   3.891  14.683 -3.7491 -0.6921  2.0786
 9456SOL     OW39826   2.060   0.020   5.810  0.1336 -0.5351  0.5056
 9456SOL    HW139827   2.033   4.695   5.732  0.3529 -1.2771  0.8973
 9456SOL    HW239828   2.001   4.697   5.869  1.4956 -0.4900  1.9092
 9457SOL     OW39829   2.718   3.814   5.383  0.5620  0.1978 -0.0889
 9457SOL    HW139830   2.716   3.719   5.393 -0.3553  0.2018 -0.2790
 9457SOL    HW239831   2.645   3.827   5.322 -0.5973 -0.8350  1.0890
 9458SOL     OW39832   3.444   0.474   3.355  0.3622 -0.4417  0.0341
 9458SOL    HW139833   3.530   0.463   3.316  0.7716  0.8457  0.5929
 9458SOL    HW239834   3.459   0.419   3.432  1.4329  0.5094  0.5087
 9459SOL     OW39835   2.359   1.105   8.371 -0.1940  0.4336 -0.5331
 9459SOL    HW139836   2.413   1.031   8.343  0.8310  1.8723 -2.2970
 9459SOL    HW239837   2.382   1.171   8.306  0.2135  1.4150  0.6013
 9460SOL     OW39838   2.677   2.502   2.632  0.2762  0.6364 -0.1990
 9460SOL    HW139839   2.694   2.552   2.552 -1.2544 -0.1480 -0.9921
 9460SOL    HW239840   2.692   2.412   2.603 -0.5817 -0.1045  1.7008
 9461SOL     OW39841   2.432   4.412  14.691  0.1032 -0.5191  0.4282
 9461SOL    HW139842   2.385   4.340  14.734 -1.5149 -0.6688 -1.5881
 9461SOL    HW239843   2.410   4.482  14.753 -0.1230  0.7995 -1.1522
 9462SOL     OW39844   3.352   1.636   8.066  0.2040  0.3173  0.4509
 9462SOL    HW139845   3.389   1.549   8.050  0.7438  0.7102 -0.3827
 9462SOL    HW239846   3.422   1.695   8.042 -0.9630  1.5137 -0.0162
 9463SOL     OW39847   1.062   1.133   4.343 -0.4040  0.4151 -0.1019
 9463SOL    HW139848   0.988   1.122   4.402 -0.2191  1.9820  0.4345
 9463SOL    HW239849   1.013   1.187   4.281  0.0827  3.4455  2.1452
 9464SOL     OW39850   4.558   1.673   6.221 -0.3798  0.7159  0.1591
 9464SOL    HW139851   4.633   1.713   6.178 -0.5643  0.3438 -0.5080
 9464SOL    HW239852   4.528   1.607   6.159 -0.0720  0.7324 -0.0087
 9465SOL     OW39853   0.768   0.733   5.989  0.1289  0.2779 -0.7714
 9465SOL    HW139854   0.729   0.696   5.911 -0.3061 -1.9371  0.5021
 9465SOL    HW239855   0.717   0.813   6.008 -1.6309 -1.3938  1.5936
 9466SOL     OW39856   4.188   0.008   8.806  0.4945  0.2673  0.4526
 9466SOL    HW139857   4.138   0.066   8.748  2.6162 -1.4552 -3.0778
 9466SOL    HW239858   4.120   4.684   8.853  1.5387 -2.2110 -0.6554
 9467SOL     OW39859   4.660   1.940   2.663 -0.1759 -0.7241 -0.0928
 9467SOL    HW139860   0.021   1.916   2.628 -0.1274  0.3681 -0.7461
 9467SOL    HW239861   4.656   1.894   2.746 -0.0922  4.5569  2.8489
 9468SOL     OW39862   4.131   4.303   7.685 -0.1907 -0.1322 -0.1658
 9468SOL    HW139863   4.102   4.212   7.682 -1.3528  0.1541  2.6246
 9468SOL    HW239864   4.048   4.347   7.664  0.6583  0.6743 -1.8731
 9469SOL     OW39865   2.846   4.054   5.254 -0.1302 -0.2661 -0.2975
 9469SOL    HW139866   2.795   4.040   5.175  3.7815 -0.3637 -2.7670
 9469SOL    HW239867   2.848   3.973   5.305 -1.5112 -1.0607 -1.5119
 9470SOL     OW39868   0.301   1.309  12.235  0.4235 -0.5892  0.0996
 9470SOL    HW139869   0.259   1.359  12.165  2.0671  1.9319  0.9129
 9470SOL    HW239870   0.383   1.358  12.239  0.5317 -0.8616  1.3048
 9471SOL     OW39871   4.245   4.699   3.272  0.5396 -0.3489 -0.3274
 9471SOL    HW139872   4.274   4.681   3.182 -2.2276 -0.1278 -1.2662
 9471SOL    HW239873   4.247   0.070   3.270  0.9372 -0.3137  2.0096
 9472SOL     OW39874   2.727   3.533   5.358 -0.2071 -0.4721 -0.4948
 9472SOL    HW139875   2.651   3.475   5.353  0.0088 -0.9271  1.5911
 9472SOL    HW239876   2.753   3.517   5.267 -0.1738  1.4621 -0.8197
 9473SOL     OW39877   3.079   2.050   7.524 -0.0627  0.6619 -0.0890
 9473SOL    HW139878   3.067   2.029   7.617  0.5631 -2.5659 -0.7333
 9473SOL    HW239879   3.045   2.139   7.526  0.4657  0.8390  1.4882
 9474SOL     OW39880   2.649   1.070   5.114  0.3706  0.3127  0.1697
 9474SOL    HW139881   2.628   1.039   5.026 -0.3473 -0.0828  0.4748
 9474SOL    HW239882   2.730   1.119   5.102  1.1472 -0.7616  0.9838
 9475SOL     OW39883   2.550   0.290   7.925 -0.4748  0.2663  0.3422
 9475SOL    HW139884   2.584   0.288   7.835 -0.1294  0.3854  0.4691
 9475SOL    HW239885   2.537   0.383   7.940  2.1202  0.3907  1.7818
 9476SOL     OW39886   1.474   1.916   5.785  0.3679  0.3800  0.3571
 9476SOL    HW139887   1.384   1.934   5.815  0.6180  1.8574  0.2304
 9476SOL    HW239888   1.500   2.002   5.750  1.4382 -0.8170 -1.7866
 9477SOL     OW39889   1.531   1.669   7.817  0.2460  0.0629  0.0307
 9477SOL    HW139890   1.589   1.611   7.865  0.0944 -1.4826 -1.6843
 9477SOL    HW239891   1.581   1.750   7.807  1.1586 -0.6056 -0.7411
 9478SOL     OW39892   1.475   0.426   8.558  0.5697  0.4342 -0.4408
 9478SOL    HW139893   1.406   0.374   8.517  0.2740  0.8949 -0.5260
 9478SOL    HW239894   1.482   0.503   8.501 -1.3455  2.0003  1.4516
 9479SOL     OW39895   2.481   2.975   7.384  0.2764 -0.3132 -0.5314
 9479SOL    HW139896   2.476   2.906   7.318  2.1439 -0.2653 -0.7326
 9479SOL    HW239897   2.418   2.953   7.453  0.4239 -1.5498 -0.7993
 9480SOL     OW39898   1.888   3.112  12.907 -0.2538  0.1601  0.4736
 9480SOL    HW139899   1.798   3.138  12.925 -0.1868  0.1660  0.8179
 9480SOL    HW239900   1.861   3.024  12.880 -1.0226  1.0602 -1.6628
 9481SOL     OW39901   4.044   3.623   1.148 -0.1162  0.1887 -0.1857
 9481SOL    HW139902   4.003   3.595   1.066  0.1088 -0.9125  0.0823
 9481SOL    HW239903   4.073   3.713   1.131  0.8190 -0.2277 -0.8083
 9482SOL     OW39904   0.284   0.493   6.876  0.5968  0.0929 -0.0223
 9482SOL    HW139905   0.247   0.492   6.964 -1.3668 -0.0598 -0.8695
 9482SOL    HW239906   0.304   0.400   6.870 -0.4720 -0.0440 -1.3180
 9483SOL     OW39907   1.016   2.206   5.112 -0.4080  0.1027 -0.4024
 9483SOL    HW139908   1.073   2.267   5.065  2.4560 -2.6484 -0.4656
 9483SOL    HW239909   0.929   2.239   5.089 -0.1205  0.8183 -0.4690
 9484SOL     OW39910   1.554   4.314  10.745 -0.0029 -0.6208 -0.3362
 9484SOL    HW139911   1.555   4.219  10.739  3.3186 -0.7704  2.3590
 9484SOL    HW239912   1.527   4.337  10.834 -0.8771  0.9353 -0.9973
 9485SOL     OW39913   4.025   0.108   1.232 -0.5221 -0.5622 -0.0742
 9485SOL    HW139914   4.015   0.113   1.327 -2.0076  0.3758 -0.2618
 9485SOL    HW239915   3.950   0.055   1.206 -0.4506 -0.8783  0.3623
 9486SOL     OW39916   4.502   3.427   2.782 -0.0423 -0.5520 -0.2814
 9486SOL    HW139917   4.453   3.346   2.770  0.0370 -0.3033 -2.2646
 9486SOL    HW239918   4.559   3.433   2.706 -2.4336 -0.2174 -2.0433
 9487SOL     OW39919   4.411   3.119   7.633 -0.2218 -0.0440  0.1025
 9487SOL    HW139920   4.393   3.141   7.542  0.3499 -1.5565 -0.3741
 9487SOL    HW239921   4.324   3.111   7.673  0.1716  0.9897  1.1567
 9488SOL     OW39922   0.767   2.611  10.713 -0.2227  0.1403 -0.0408
 9488SOL    HW139923   0.786   2.616  10.807 -0.2047 -1.1826  0.0220
 9488SOL    HW239924   0.672   2.608  10.718 -0.1377 -1.5972  0.4570
 9489SOL     OW39925   0.212   4.431   5.735  0.5501 -0.2457  0.1272
 9489SOL    HW139926   0.225   4.396   5.646 -1.6743 -0.8115  0.0193
 9489SOL    HW239927   0.137   4.487   5.716 -0.0339 -1.1276 -0.2024
 9490SOL     OW39928   1.353   3.185  14.288 -0.1409  0.0546 -0.6741
 9490SOL    HW139929   1.281   3.233  14.247  0.9467  1.1053 -1.3801
 9490SOL    HW239930   1.380   3.252  14.351 -0.3776 -2.1796  1.7607
 9491SOL     OW39931   3.442   3.414   7.883  0.0012  0.4618  0.1357
 9491SOL    HW139932   3.516   3.373   7.928 -1.4181 -2.3386 -0.1050
 9491SOL    HW239933   3.395   3.461   7.952 -0.2912  2.0305 -1.1352
 9492SOL     OW39934   3.364   2.034  13.052  0.2426 -0.3092 -0.6936
 9492SOL    HW139935   3.454   2.011  13.030  0.4772  0.0615 -0.1318
 9492SOL    HW239936   3.317   2.005  12.974 -1.7898 -0.5218  0.6034
 9493SOL     OW39937   1.619   2.027   8.300 -0.1672  0.6402 -0.2244
 9493SOL    HW139938   1.708   2.063   8.307  0.7003 -1.3591 -0.8607
 9493SOL    HW239939   1.626   1.941   8.343 -1.3904  1.3670  1.3904
 9494SOL     OW39940   1.382   2.741  12.698  0.4386 -0.1766  0.7479
 9494SOL    HW139941   1.307   2.799  12.698 -0.0242 -0.7768  3.0612
 9494SOL    HW239942   1.446   2.792  12.648 -0.2009  1.3221  1.4650
 9495SOL     OW39943   3.114   0.113   9.312  0.0388  0.1394  0.2674
 9495SOL    HW139944   3.058   0.040   9.340 -1.2190  1.5410  1.4219
 9495SOL    HW239945   3.179   0.112   9.382  0.6365  0.2816 -0.2902
 9496SOL     OW39946   3.681   3.180  10.652 -0.2214  0.6125 -0.2360
 9496SOL    HW139947   3.734   3.108  10.618 -0.1579  0.7024 -0.3293
 9496SOL    HW239948   3.706   3.190  10.744 -1.2579  1.8149 -0.0961
 9497SOL     OW39949   3.646   2.621   1.336  0.2617 -1.2860 -0.7160
 9497SOL    HW139950   3.648   2.560   1.410  1.2248  1.0730  1.1828
 9497SOL    HW239951   3.553   2.636   1.325  0.2993  0.4589  1.3463
 9498SOL     OW39952   4.563   0.866   0.457 -0.1915  0.4157 -0.1822
 9498SOL    HW139953   4.563   0.885   0.551  0.9359  0.1742 -0.1342
 9498SOL    HW239954   4.562   0.955   0.422  0.5641  0.2885 -0.5222
 9499SOL     OW39955   2.576   2.561   4.905  0.0022  0.1020  0.4955
 9499SOL    HW139956   2.657   2.610   4.917 -1.1559  2.3276 -0.7822
 9499SOL    HW239957   2.532   2.628   4.853 -3.7074 -2.4674  0.3161
 9500SOL     OW39958   0.551   0.269   1.359 -0.1517  0.8300 -0.4072
 9500SOL    HW139959   0.549   0.356   1.320  2.5324  0.2187 -1.9341
 9500SOL    HW239960   0.553   0.209   1.285  0.8652 -0.3040  0.5258
 9501SOL     OW39961   0.662   2.248   8.422 -0.1001 -0.0709  0.3157
 9501SOL    HW139962   0.670   2.318   8.357 -0.8658 -0.2853 -0.0089
 9501SOL    HW239963   0.658   2.172   8.363  2.0737 -0.2336  0.3644
 9502SOL     OW39964   2.908   3.881  14.073  0.2682 -0.1080  0.2774
 9502SOL    HW139965   2.902   3.837  14.157  1.6763 -2.7222 -0.9696
 9502SOL    HW239966   2.816   3.881  14.045  1.0991  0.8438 -2.4612
 9503SOL     OW39967   0.694   3.882   6.507 -0.5952  0.3330 -0.1432
 9503SOL    HW139968   0.642   3.838   6.440  1.1198 -2.5664  0.4226
 9503SOL    HW239969   0.690   3.833   6.590 -1.4163  0.3578 -0.1674
 9504SOL     OW39970   2.535   4.173  11.887  0.1314 -0.2144 -0.4304
 9504SOL    HW139971   2.509   4.086  11.917  0.2252 -0.2775 -0.5311
 9504SOL    HW239972   2.522   4.217  11.971 -0.8555  0.4752 -0.9411
 9505SOL     OW39973   3.201   1.098  12.778  0.0995 -0.7695  0.1593
 9505SOL    HW139974   3.273   1.036  12.785  0.9908  0.2783  0.3818
 9505SOL    HW239975   3.124   1.057  12.816  0.0084 -1.2991 -0.6093
 9506SOL     OW39976   2.368   3.238  12.709  0.7380 -0.0711 -0.3566
 9506SOL    HW139977   2.342   3.209  12.622  0.3850  0.0297 -0.2846
 9506SOL    HW239978   2.279   3.248  12.742  0.8582 -0.3933  0.0634
 9507SOL     OW39979   4.308   0.341  11.549 -0.0148  0.1629  0.2727
 9507SOL    HW139980   4.348   0.268  11.597  0.1457 -0.3823 -0.6832
 9507SOL    HW239981   4.344   0.420  11.589 -1.9730  1.3268 -0.2942
 9508SOL     OW39982   2.580   3.141   3.060  0.0611  0.0591 -0.6485
 9508SOL    HW139983   2.529   3.136   2.979 -0.0737  1.7637 -0.6653
 9508SOL    HW239984   2.640   3.214   3.049 -0.5518  0.6429 -0.1442
 9509SOL     OW39985   0.469   2.387  10.977  0.6156 -0.0352 -0.2147
 9509SOL    HW139986   0.463   2.315  11.040  0.0451 -1.0584 -1.4434
 9509SOL    HW239987   0.478   2.456  11.043  1.4016 -0.1585 -0.1926
 9510SOL     OW39988   2.891   0.694  16.425  0.7588  0.2845  0.2639
 9510SOL    HW139989   2.892   0.723  16.516  1.9264 -0.2513  0.4212
 9510SOL    HW239990   2.875   0.600  16.436  1.2818  0.4876  2.8507
 9511SOL     OW39991   4.388   2.839   0.143  0.3955 -0.5928 -0.9083
 9511SOL    HW139992   4.426   2.753   0.122  0.2161 -0.7379 -0.6487
 9511SOL    HW239993   4.314   2.810   0.198  0.6339  1.5782  0.5444
 9512SOL     OW39994   1.525   1.698  13.187  0.8276 -0.5565  0.2952
 9512SOL    HW139995   1.604   1.676  13.138  0.5292  0.5540 -0.6967
 9512SOL    HW239996   1.493   1.778  13.145  2.0235 -0.1220  0.2342
 9513SOL     OW39997   2.452   1.264   2.197 -0.1693 -0.4079 -0.5803
 9513SOL    HW139998   2.395   1.330   2.237  1.8349  1.8215 -1.3513
 9513SOL    HW239999   2.452   1.295   2.106  0.2226  1.2573 -0.0277
 9514SOL     OW40000   3.350   2.074   2.743 -0.0962 -0.2062 -0.0092
 9514SOL    HW140001   3.338   2.149   2.801  0.8394 -0.0288 -0.0402
 9514SOL    HW240002   3.364   2.011   2.813  1.7761 -0.8671 -0.9640
 9515SOL     OW40003   0.518   0.355   4.751  0.4241  0.2084 -0.1930
 9515SOL    HW140004   0.474   0.304   4.683 -0.1580 -1.6035  1.5334
 9515SOL    HW240005   0.466   0.341   4.830  0.4429 -0.9144 -0.3787
 9516SOL     OW40006   0.289   1.338   2.509  0.5189  0.2824 -0.1152
 9516SOL    HW140007   0.201   1.327   2.475  0.2828 -0.1910  0.6547
 9516SOL    HW240008   0.289   1.433   2.526 -3.5122  1.1142 -4.8587
 9517SOL     OW40009   1.299   2.595   5.594 -0.3895 -0.7728  0.1300
 9517SOL    HW140010   1.246   2.665   5.556  2.4687  0.5103 -1.4966
 9517SOL    HW240011   1.280   2.519   5.538 -0.7888  0.0444 -0.8418
 9518SOL     OW40012   1.516   2.270   7.087 -0.9306  0.3612 -0.1461
 9518SOL    HW140013   1.477   2.252   7.172  0.4729 -0.6743  0.2628
 9518SOL    HW240014   1.450   2.243   7.023 -1.9562 -0.2627  1.1777
 9519SOL     OW40015   0.917   0.682   7.024 -0.1752 -0.2184  0.1931
 9519SOL    HW140016   0.895   0.775   7.022 -1.3065 -0.5211 -1.4953
 9519SOL    HW240017   1.011   0.703   7.022 -0.4720  1.2637  1.9264
 9520SOL     OW40018   1.052   1.042   1.632  0.3199  0.6031 -0.2015
 9520SOL    HW140019   1.094   1.100   1.568  3.7548 -1.8490 -0.2007
 9520SOL    HW240020   0.964   1.026   1.598 -0.0126  0.0956  0.9103
 9521SOL     OW40021   0.551   0.085   1.146 -0.2549 -0.3633  0.2867
 9521SOL    HW140022   0.492   0.065   1.074 -0.5746  2.9680 -0.3797
 9521SOL    HW240023   0.504   0.035   1.213  0.8765 -3.2840 -1.1501
 9522SOL     OW40024   0.377   3.257  16.907 -0.2929  0.0171  0.8925
 9522SOL    HW140025   0.469   3.283  16.899 -0.2059 -0.0620  1.5906
 9522SOL    HW240026   0.364   3.195  16.835 -2.4508 -1.0264  2.1746
 9523SOL     OW40027   1.429   0.666   0.799  0.2979  0.0667  0.6145
 9523SOL    HW140028   1.476   0.659   0.716 -1.0634 -2.8164  0.0812
 9523SOL    HW240029   1.493   0.642   0.866 -1.1336 -0.3551  1.8301
 9524SOL     OW40030   4.324   1.569   4.630 -0.9696 -0.0749  0.1088
 9524SOL    HW140031   4.310   1.509   4.557 -0.2997  0.1722 -0.2269
 9524SOL    HW240032   4.350   1.498   4.689  1.4497  0.8439  0.1627
 9525SOL     OW40033   1.366   3.197   8.987  0.4698  0.1775 -0.2321
 9525SOL    HW140034   1.323   3.138   9.050 -1.6843  0.3676 -1.5150
 9525SOL    HW240035   1.448   3.221   9.029 -0.9845  3.0746  0.9477
 9526SOL     OW40036   1.540   2.045   2.989  0.2274  0.6668  0.0300
 9526SOL    HW140037   1.495   2.064   3.072  1.6527 -1.0203  1.2084
 9526SOL    HW240038   1.618   1.994   3.014 -0.9686 -1.0284  0.3480
 9527SOL     OW40039   4.611   0.752   1.419 -0.3157  0.3637 -0.1886
 9527SOL    HW140040   4.641   0.841   1.435 -2.0983  0.7476  1.0100
 9527SOL    HW240041   4.533   0.747   1.474  0.9498 -2.1257  1.3990
 9528SOL     OW40042   3.866   3.518   1.971 -0.0850  0.2325  0.5371
 9528SOL    HW140043   3.804   3.577   1.928 -0.7239 -0.6461  0.2474
 9528SOL    HW240044   3.872   3.451   1.903  2.8314  1.3632 -0.3350
 9529SOL     OW40045   0.409   0.244  16.947 -0.4112  0.0813  0.3441
 9529SOL    HW140046   0.452   0.162  16.970  1.4202  1.0164  0.2080
 9529SOL    HW240047   0.488   0.295  16.964  0.0714 -1.2208  1.9352
 9530SOL     OW40048   0.865   0.105   2.893 -0.4794 -0.2938 -0.0811
 9530SOL    HW140049   0.954   0.081   2.867  0.1188  3.2300 -1.2116
 9530SOL    HW240050   0.858   0.187   2.844  1.0466 -0.0751  0.0685
 9531SOL     OW40051   1.275   1.746   7.828  0.1028 -0.3819 -0.0808
 9531SOL    HW140052   1.364   1.714   7.842  0.7910  1.9102  0.8353
 9531SOL    HW240053   1.298   1.835   7.801 -1.0094 -0.0005  0.2350
 9532SOL     OW40054   0.027   0.089  13.931 -0.2582  0.3610 -0.6817
 9532SOL    HW140055   0.080   0.169  13.927 -0.6404  0.5693 -1.4837
 9532SOL    HW240056   4.704   0.102  14.014  2.0826  2.9822  0.2666
 9533SOL     OW40057   2.666   3.116   6.671 -0.3204 -0.8526 -0.1778
 9533SOL    HW140058   2.593   3.085   6.724 -0.4219 -1.7557 -0.8364
 9533SOL    HW240059   2.633   3.201   6.645 -2.4304 -1.8009 -0.5878
 9534SOL     OW40060   0.832   1.883  15.655 -0.3307  0.1337 -0.9126
 9534SOL    HW140061   0.915   1.898  15.701 -0.5570 -1.6969  0.0931
 9534SOL    HW240062   0.860   1.849  15.570 -1.0958 -1.8257 -0.3912
 9535SOL     OW40063   1.143   1.567   2.851 -0.3007 -0.4304  0.0471
 9535SOL    HW140064   1.227   1.522   2.839  1.1384  2.4845 -0.8290
 9535SOL    HW240065   1.087   1.492   2.873  0.0289 -0.8413 -0.4899
 9536SOL     OW40066   3.769   2.837  17.649 -0.2325 -0.5356 -0.2215
 9536SOL    HW140067   3.693   2.790  17.684 -0.7501  1.5130  1.4025
 9536SOL    HW240068   3.843   2.789  17.686 -0.6246 -1.4470 -0.5952
 9537SOL     OW40069   4.167   3.598   4.540  0.6798 -0.4060 -0.2680
 9537SOL    HW140070   4.105   3.579   4.610  0.8555 -0.0107 -0.0032
 9537SOL    HW240071   4.190   3.689   4.558 -0.3068  0.0024 -1.0248
 9538SOL     OW40072   3.320   3.626  17.015  0.2313 -0.5093 -0.0601
 9538SOL    HW140073   3.276   3.710  17.004 -0.4338 -0.7646  0.6876
 9538SOL    HW240074   3.267   3.583  16.948 -2.1142 -0.6735  1.9062
 9539SOL     OW40075   0.096   1.395   5.754 -0.0096  0.0316  0.3856
 9539SOL    HW140076   0.160   1.333   5.719  0.4480  0.6358  0.1663
 9539SOL    HW240077   0.131   1.408   5.842 -1.5550 -1.6800  1.2644
 9540SOL     OW40078   3.518   1.286  17.190  0.1167 -0.2434  0.0983
 9540SOL    HW140079   3.462   1.218  17.152 -0.0415 -0.4441  0.6953
 9540SOL    HW240080   3.505   1.259  17.281  1.7746 -2.0147 -0.1810
 9541SOL     OW40081   0.710   0.416   7.211 -0.0403 -0.3309 -0.1887
 9541SOL    HW140082   0.775   0.440   7.277 -0.2371 -2.8732  0.9332
 9541SOL    HW240083   0.668   0.500   7.193 -0.6995 -0.8638 -1.1056
 9542SOL     OW40084   2.082   1.047  17.394 -0.2651 -0.0449  0.0775
 9542SOL    HW140085   1.999   1.080  17.360 -0.6773  1.0359  2.1529
 9542SOL    HW240086   2.056   0.978  17.455 -0.8248  0.2404  0.1641
 9543SOL     OW40087   1.296   3.100  14.621 -0.3398  0.4455 -0.1322
 9543SOL    HW140088   1.215   3.148  14.606 -1.2524 -1.8288 -2.5046
 9543SOL    HW240089   1.291   3.092  14.716 -0.7506  0.7548 -0.1269
 9544SOL     OW40090   1.805   2.830   6.587 -0.1063  0.5171  0.0550
 9544SOL    HW140091   1.731   2.775   6.610  1.6251 -1.4566  0.9836
 9544SOL    HW240092   1.855   2.772   6.529  0.0788 -0.0007  0.7230
 9545SOL     OW40093   4.378   3.708   2.057 -0.0456  0.5871 -0.1090
 9545SOL    HW140094   4.324   3.630   2.068  0.5767  0.0818 -0.6097
 9545SOL    HW240095   4.315   3.774   2.087  0.4841  1.7624 -1.6033
 9546SOL     OW40096   0.906   4.318   7.922  0.1670 -0.7116  0.6827
 9546SOL    HW140097   0.858   4.247   7.965 -0.6540 -1.2410 -1.0970
 9546SOL    HW240098   0.958   4.271   7.856  0.5250 -1.9334  1.8337
 9547SOL     OW40099   1.552   4.652   6.170  0.0214  0.1043 -0.1611
 9547SOL    HW140100   1.594   4.575   6.206  1.2546  0.1231 -1.5128
 9547SOL    HW240101   1.539   4.700   6.252  1.9089 -0.1255  0.2795
 9548SOL     OW40102   1.030   4.120   3.517  0.5734  0.0954 -0.0454
 9548SOL    HW140103   1.012   4.152   3.429 -1.5639 -1.2692 -0.1032
 9548SOL    HW240104   1.028   4.201   3.567  0.1939  1.6330 -2.5758
 9549SOL     OW40105   2.795   3.624   3.897  0.0400  0.0304  0.3000
 9549SOL    HW140106   2.759   3.707   3.865  0.5036 -0.0691 -0.4656
 9549SOL    HW240107   2.801   3.574   3.816 -0.6062  0.2861  0.0872
 9550SOL     OW40108   0.317   3.603   2.905  0.1100 -0.1831 -0.2836
 9550SOL    HW140109   0.265   3.555   2.969 -0.7513  0.8231 -0.2372
 9550SOL    HW240110   0.397   3.551   2.890  0.0789 -0.0498 -0.9070
 9551SOL     OW40111   0.103   0.613   7.707 -0.0005  0.2161  0.4167
 9551SOL    HW140112   0.008   0.605   7.703  0.0235 -1.0549  2.1867
 9551SOL    HW240113   0.106   0.665   7.627 -1.1939  0.2045  0.3656
 9552SOL     OW40114   0.404   1.694   2.009 -0.1724  0.3213 -0.0073
 9552SOL    HW140115   0.390   1.732   1.922  0.5931  0.5211 -0.0466
 9552SOL    HW240116   0.429   1.606   1.980  0.4385  0.6504 -0.4834
 9553SOL     OW40117   1.308   0.885  11.979 -0.2427 -0.5609  0.4212
 9553SOL    HW140118   1.345   0.968  12.009  0.0390 -1.1643  1.7067
 9553SOL    HW240119   1.213   0.893  11.991 -0.3970 -2.5580  0.4755
 9554SOL     OW40120   0.586   2.379   2.896  0.7676 -0.2110 -0.3085
 9554SOL    HW140121   0.552   2.430   2.823 -2.0174 -0.6277  0.6792
 9554SOL    HW240122   0.660   2.435   2.916  1.7439 -1.9080  0.8722
 9555SOL     OW40123   4.645   0.559   5.244 -0.4437 -0.0620 -0.1155
 9555SOL    HW140124   4.669   0.647   5.274 -1.2656  0.4167 -0.8606
 9555SOL    HW240125   4.642   0.520   5.331 -0.0619 -0.4148 -0.2612
 9556SOL     OW40126   4.697   1.688   3.684  0.0638  0.5757 -0.0868
 9556SOL    HW140127   4.663   1.769   3.645  1.1969  0.3996 -1.4587
 9556SOL    HW240128   0.061   1.715   3.708  0.4429  0.8464 -1.7503
 9557SOL     OW40129   0.023   4.262  12.397 -0.1140  0.2732 -0.0768
 9557SOL    HW140130   4.673   4.290  12.344 -0.9985  1.1733  1.6195
 9557SOL    HW240131   0.083   4.329  12.366 -0.0157 -0.3802 -1.3073
 9558SOL     OW40132   3.401   3.685  14.073 -0.6065 -0.2666  0.2979
 9558SOL    HW140133   3.360   3.599  14.081  1.5586 -1.1293  2.1120
 9558SOL    HW240134   3.326   3.743  14.062  0.7044  1.3469 -0.2626
 9559SOL     OW40135   0.428   2.489   1.349 -0.1170  0.1720  0.3586
 9559SOL    HW140136   0.379   2.561   1.310 -0.1653  0.4324  0.9016
 9559SOL    HW240137   0.519   2.507   1.326 -0.3432  1.3200  0.3926
 9560SOL     OW40138   3.186   4.345   7.243 -0.5894 -0.4307 -0.5787
 9560SOL    HW140139   3.169   4.356   7.336  2.4410 -2.3497  0.1836
 9560SOL    HW240140   3.103   4.305   7.218 -1.5737  0.4940  1.2134
 9561SOL     OW40141   2.944   0.424   2.782  0.0333 -0.3291 -0.0800
 9561SOL    HW140142   2.849   0.414   2.779  0.0771 -0.8250  0.3369
 9561SOL    HW240143   2.974   0.381   2.702  0.0437 -1.1677  0.3840
 9562SOL     OW40144   1.832   1.167   4.259  0.0590 -0.0998  0.3419
 9562SOL    HW140145   1.783   1.133   4.184  0.4704  1.9180 -0.8356
 9562SOL    HW240146   1.781   1.244   4.284  1.9417  0.3540  2.7423
 9563SOL     OW40147   2.239   3.843   3.344  0.5415 -0.3846 -0.2350
 9563SOL    HW140148   2.287   3.832   3.426  1.8442  1.3631 -0.7761
 9563SOL    HW240149   2.288   3.775   3.297  0.4133  2.2240 -4.1385
 9564SOL     OW40150   2.464   0.208  10.471 -0.4917  0.7088  0.2126
 9564SOL    HW140151   2.485   0.166  10.555 -1.8146 -0.0839  0.1526
 9564SOL    HW240152   2.553   0.237  10.452 -0.8325  3.0894  2.2459
 9565SOL     OW40153   4.238   2.696   7.508  0.1459 -0.3751  0.0749
 9565SOL    HW140154   4.181   2.632   7.465 -1.1658 -0.3248  1.7442
 9565SOL    HW240155   4.229   2.770   7.449  1.3650 -1.1409 -1.0766
   4.72451   4.72451  17.69958
